{
  "builder_meta": null,
  "nsites": null,
  "elements": null,
  "nelements": null,
  "composition": null,
  "composition_reduced": null,
  "formula_pretty": "Nd2Te5",
  "formula_anonymous": "A2B5",
  "chemsys": null,
  "volume": 445.19791561073555,
  "density": 6.911366035797025,
  "density_atomic": 31.79985111505254,
  "symmetry": null,
  "property_name": null,
  "material_id": "mp-1119",
  "deprecated": null,
  "deprecation_reasons": null,
  "last_updated": null,
  "origins": null,
  "warnings": null,
  "structure": {
    "@module": "pymatgen.core.structure",
    "@class": "Structure",
    "charge": 0,
    "lattice": {
      "matrix": [
        [4.41341952, -0.0, -0.43852359],
        [-0.0, 4.43543461, -1e-8],
        [0.05844149, -2.069999999999999e-6, 22.73687784]
      ],
      "pbc": [true, true, true],
      "a": 4.435152173094348,
      "b": 4.43543461,
      "c": 22.736952947104427,
      "alpha": 90.00000534545478,
      "beta": 95.52709538048288,
      "gamma": 89.99999998722764,
      "volume": 445.19791561073555
    },
    "properties": {},
    "sites": [
      {
        "species": [{ "element": "Nd", "occu": 1 }],
        "abc": [0.30671027, 0.75, 0.614617299999999],
        "properties": { "magmom": -0.0 },
        "label": "Nd",
        "xyz": [1.389560243394247, 3.3265746852421887, 13.83997877226034]
      },
      {
        "species": [{ "element": "Nd", "occu": 1 }],
        "abc": [0.69315336, 0.25, 0.38537888000000003],
        "properties": { "magmom": -0.0 },
        "label": "Nd",
        "xyz": [3.0816986853393185, 1.1088578547657184, 8.458348414328256]
      },
      {
        "species": [{ "element": "Nd", "occu": 1 }],
        "abc": [0.10018153, 0.75, 0.1982157],
        "properties": { "magmom": 0.0 },
        "label": "Nd",
        "xyz": [0.45372714089485855, 3.326575547193501, 4.462874185182795]
      },
      {
        "species": [{ "element": "Nd", "occu": 1 }],
        "abc": [0.89975854, 0.25, 0.80176756],
        "properties": { "magmom": 0.0 },
        "label": "Nd",
        "xyz": [4.017868394562765, 1.1088569928411507, 17.835125720200914]
      },
      {
        "species": [{ "element": "Te", "occu": 1 }],
        "abc": [0.37860334, 0.75, 0.75823222],
        "properties": { "magmom": 0.0 },
        "label": "Te",
        "xyz": [1.7152475917960044, 3.3265743879593046, 17.07380685714921]
      },
      {
        "species": [{ "element": "Te", "occu": 1 }],
        "abc": [0.62138877, 0.25, 0.24174088],
        "properties": { "magmom": -0.0 },
        "label": "Te",
        "xyz": [2.7565770242479015, 1.1088581520963783, 5.223939220788014]
      },
      {
        "species": [{ "element": "Te", "occu": 1 }],
        "abc": [0.17409108, 0.75, 0.34656462],
        "properties": { "magmom": 0.0 },
        "label": "Te",
        "xyz": [0.7885907235039654, 3.3265752401112363, 7.803454375717442]
      },
      {
        "species": [{ "element": "Te", "occu": 1 }],
        "abc": [0.82580279, 0.25, 0.65346568],
        "properties": { "magmom": 0.0 },
        "label": "Te",
        "xyz": [3.682803661059524, 1.1088572998260424, 14.495635332189716]
      },
      {
        "species": [{ "element": "Te", "occu": 1 }],
        "abc": [0.04537359, 0.25, 0.08650426],
        "properties": { "magmom": -0.0 },
        "label": "Te",
        "xyz": [0.20530812564422418, 1.1088584734361817, 1.94693940018161]
      },
      {
        "species": [{ "element": "Te", "occu": 1 }],
        "abc": [0.95463268, 0.75, 0.91351002],
        "properties": { "magmom": 0.0 },
        "label": "Te",
        "xyz": [4.266581391040644, 3.3265740665342585, 20.351736772891034]
      },
      {
        "species": [{ "element": "Te", "occu": 1 }],
        "abc": [0.45477381, 0.25, 0.91348942],
        "properties": { "magmom": 0.0 },
        "label": "Te",
        "xyz": [2.060493293042807, 1.1088567615769005, 20.570468304373275]
      },
      {
        "species": [{ "element": "Te", "occu": 1 }],
        "abc": [0.54531703, 0.75, 0.08652163],
        "properties": { "magmom": -0.0 },
        "label": "Te",
        "xyz": [2.4117692777648543, 3.3265757784002257, 1.7280973426439414]
      },
      {
        "species": [{ "element": "Te", "occu": 1 }],
        "abc": [0.25002737, 0.25, 0.49999798],
        "properties": { "magmom": -0.0 },
        "label": "Te",
        "xyz": [1.1326963022404528, 1.1088576175041813, 11.258750089116104]
      },
      {
        "species": [{ "element": "Te", "occu": 1 }],
        "abc": [0.75018584, 0.75, 0.49999384],
        "properties": { "magmom": 0.0 },
        "label": "Te",
        "xyz": [3.3401052148840185, 3.326574922512751, 11.03932466560854]
      }
    ]
  },
  "task_ids": null,
  "uncorrected_energy_per_atom": null,
  "energy_per_atom": -27.846842032857143,
  "formation_energy_per_atom": -1.286536387857142,
  "energy_above_hull": 0.0,
  "is_stable": true,
  "equilibrium_reaction_energy_per_atom": null,
  "decomposes_to": null,
  "xas": null,
  "grain_boundaries": null,
  "band_gap": 0.0,
  "cbm": null,
  "vbm": null,
  "efermi": 5.49481719,
  "is_gap_direct": null,
  "is_metal": null,
  "es_source_calc_id": null,
  "bandstructure": null,
  "dos": null,
  "dos_energy_up": null,
  "dos_energy_down": null,
  "is_magnetic": null,
  "ordering": null,
  "total_magnetization": 3e-7,
  "total_magnetization_normalized_vol": null,
  "total_magnetization_normalized_formula_units": null,
  "num_magnetic_sites": null,
  "num_unique_magnetic_sites": null,
  "types_of_magnetic_species": null,
  "bulk_modulus": null,
  "shear_modulus": null,
  "universal_anisotropy": null,
  "homogeneous_poisson": null,
  "e_total": null,
  "e_ionic": null,
  "e_electronic": null,
  "n": null,
  "e_ij_max": null,
  "weighted_surface_energy_EV_PER_ANG2": null,
  "weighted_surface_energy": null,
  "weighted_work_function": null,
  "surface_anisotropy": null,
  "shape_factor": null,
  "has_reconstructed": null,
  "possible_species": null,
  "has_props": null,
  "theoretical": null,
  "database_IDs": null,
  "fields_not_requested": [
    "builder_meta",
    "nsites",
    "elements",
    "nelements",
    "composition",
    "composition_reduced",
    "chemsys",
    "symmetry",
    "property_name",
    "deprecated",
    "deprecation_reasons",
    "last_updated",
    "origins",
    "warnings",
    "task_ids",
    "uncorrected_energy_per_atom",
    "equilibrium_reaction_energy_per_atom",
    "decomposes_to",
    "xas",
    "grain_boundaries",
    "cbm",
    "vbm",
    "is_gap_direct",
    "is_metal",
    "es_source_calc_id",
    "bandstructure",
    "dos",
    "dos_energy_up",
    "dos_energy_down",
    "is_magnetic",
    "ordering",
    "total_magnetization_normalized_vol",
    "total_magnetization_normalized_formula_units",
    "num_magnetic_sites",
    "num_unique_magnetic_sites",
    "types_of_magnetic_species",
    "bulk_modulus",
    "shear_modulus",
    "universal_anisotropy",
    "homogeneous_poisson",
    "e_total",
    "e_ionic",
    "e_electronic",
    "n",
    "e_ij_max",
    "weighted_surface_energy_EV_PER_ANG2",
    "weighted_surface_energy",
    "weighted_work_function",
    "surface_anisotropy",
    "shape_factor",
    "has_reconstructed",
    "possible_species",
    "has_props",
    "theoretical",
    "database_IDs"
  ]
}
