{
  "builder_meta": null,
  "nsites": null,
  "elements": null,
  "nelements": null,
  "composition": null,
  "composition_reduced": null,
  "formula_pretty": "Nd3Ag",
  "formula_anonymous": "AB3",
  "chemsys": null,
  "volume": 238.35326698086203,
  "density": 7.532330474408394,
  "density_atomic": 29.794158372607754,
  "symmetry": null,
  "property_name": null,
  "material_id": "mp-973965",
  "deprecated": null,
  "deprecation_reasons": null,
  "last_updated": null,
  "origins": null,
  "warnings": null,
  "structure": {
    "@module": "pymatgen.core.structure",
    "@class": "Structure",
    "charge": 0,
    "lattice": {
      "matrix": [
        [3.557858, -6.16239, 0.0],
        [3.557858, 6.16239, 0.0],
        [0.0, 0.0, 5.435672999999999]
      ],
      "pbc": [true, true, true],
      "a": 7.115715288027199,
      "b": 7.115715288027199,
      "c": 5.435672999999999,
      "alpha": 90.0,
      "beta": 90.0,
      "gamma": 119.99999338032224,
      "volume": 238.35326698086195
    },
    "properties": {},
    "sites": [
      {
        "species": [{ "element": "Nd", "occu": 1 }],
        "abc": [0.175139, 0.350279, 0.25],
        "properties": { "magmom": -0.002 },
        "label": "Nd",
        "xyz": [1.869362634644, 1.0792809846, 1.3589182499999997]
      },
      {
        "species": [{ "element": "Nd", "occu": 1 }],
        "abc": [0.649721, 0.824861, 0.25],
        "properties": { "magmom": -0.003 },
        "label": "Nd",
        "xyz": [5.246353365356, 1.0792809845999995, 1.3589182499999997]
      },
      {
        "species": [{ "element": "Nd", "occu": 1 }],
        "abc": [0.175139, 0.824861, 0.25],
        "properties": { "magmom": 0.007 },
        "label": "Nd",
        "xyz": [3.5578579999999995, 4.0038403555799995, 1.3589182499999997]
      },
      {
        "species": [{ "element": "Nd", "occu": 1 }],
        "abc": [0.824861, 0.649721, 0.75],
        "properties": { "magmom": -0.002 },
        "label": "Nd",
        "xyz": [5.246353365356, -1.0792809845999995, 4.076754749999999]
      },
      {
        "species": [{ "element": "Nd", "occu": 1 }],
        "abc": [0.350279, 0.175139, 0.75],
        "properties": { "magmom": -0.003 },
        "label": "Nd",
        "xyz": [1.869362634644, -1.0792809846, 4.076754749999999]
      },
      {
        "species": [{ "element": "Nd", "occu": 1 }],
        "abc": [0.824861, 0.175139, 0.75],
        "properties": { "magmom": 0.007 },
        "label": "Nd",
        "xyz": [3.5578579999999995, -4.0038403555799995, 4.076754749999999]
      },
      {
        "species": [{ "element": "Ag", "occu": 1 }],
        "abc": [0.333333, 0.666667, 0.75],
        "properties": { "magmom": 0.0 },
        "label": "Ag",
        "xyz": [3.557858, 2.05413410826, 4.076754749999999]
      },
      {
        "species": [{ "element": "Ag", "occu": 1 }],
        "abc": [0.666667, 0.333333, 0.25],
        "properties": { "magmom": 0.0 },
        "label": "Ag",
        "xyz": [3.557858, -2.05413410826, 1.3589182499999997]
      }
    ]
  },
  "task_ids": null,
  "uncorrected_energy_per_atom": null,
  "energy_per_atom": -27.39663691,
  "formation_energy_per_atom": 0.005839113125002001,
  "energy_above_hull": 0.145499548749999,
  "is_stable": false,
  "equilibrium_reaction_energy_per_atom": null,
  "decomposes_to": null,
  "xas": null,
  "grain_boundaries": null,
  "band_gap": 0.0,
  "cbm": null,
  "vbm": null,
  "efermi": 3.597400539999999,
  "is_gap_direct": null,
  "is_metal": null,
  "es_source_calc_id": null,
  "bandstructure": null,
  "dos": null,
  "dos_energy_up": null,
  "dos_energy_down": null,
  "is_magnetic": null,
  "ordering": null,
  "total_magnetization": 0.0127773,
  "total_magnetization_normalized_vol": null,
  "total_magnetization_normalized_formula_units": null,
  "num_magnetic_sites": null,
  "num_unique_magnetic_sites": null,
  "types_of_magnetic_species": null,
  "bulk_modulus": null,
  "shear_modulus": null,
  "universal_anisotropy": null,
  "homogeneous_poisson": null,
  "e_total": null,
  "e_ionic": null,
  "e_electronic": null,
  "n": null,
  "e_ij_max": null,
  "weighted_surface_energy_EV_PER_ANG2": null,
  "weighted_surface_energy": null,
  "weighted_work_function": null,
  "surface_anisotropy": null,
  "shape_factor": null,
  "has_reconstructed": null,
  "possible_species": null,
  "has_props": null,
  "theoretical": null,
  "database_IDs": null,
  "fields_not_requested": [
    "builder_meta",
    "nsites",
    "elements",
    "nelements",
    "composition",
    "composition_reduced",
    "chemsys",
    "symmetry",
    "property_name",
    "deprecated",
    "deprecation_reasons",
    "last_updated",
    "origins",
    "warnings",
    "task_ids",
    "uncorrected_energy_per_atom",
    "equilibrium_reaction_energy_per_atom",
    "decomposes_to",
    "xas",
    "grain_boundaries",
    "cbm",
    "vbm",
    "is_gap_direct",
    "is_metal",
    "es_source_calc_id",
    "bandstructure",
    "dos",
    "dos_energy_up",
    "dos_energy_down",
    "is_magnetic",
    "ordering",
    "total_magnetization_normalized_vol",
    "total_magnetization_normalized_formula_units",
    "num_magnetic_sites",
    "num_unique_magnetic_sites",
    "types_of_magnetic_species",
    "bulk_modulus",
    "shear_modulus",
    "universal_anisotropy",
    "homogeneous_poisson",
    "e_total",
    "e_ionic",
    "e_electronic",
    "n",
    "e_ij_max",
    "weighted_surface_energy_EV_PER_ANG2",
    "weighted_surface_energy",
    "weighted_work_function",
    "surface_anisotropy",
    "shape_factor",
    "has_reconstructed",
    "possible_species",
    "has_props",
    "theoretical",
    "database_IDs"
  ]
}
