{
  "builder_meta": null,
  "nsites": null,
  "elements": null,
  "nelements": null,
  "composition": null,
  "composition_reduced": null,
  "formula_pretty": "Nd3Au4",
  "formula_anonymous": "A3B4",
  "chemsys": null,
  "volume": 340.91923092793,
  "density": 11.890447794167887,
  "density_atomic": 24.351373637709287,
  "symmetry": null,
  "property_name": null,
  "material_id": "mp-12788",
  "deprecated": null,
  "deprecation_reasons": null,
  "last_updated": null,
  "origins": null,
  "warnings": null,
  "structure": {
    "@module": "pymatgen.core.structure",
    "@class": "Structure",
    "charge": 0,
    "lattice": {
      "matrix": [
        [7.53982143, 0.00453165, -3.36669995],
        [-5.1906621, 5.46925379, -3.36554716],
        [0.00242628, 0.00398857, 8.25733735]
      ],
      "pbc": [true, true, true],
      "a": 8.257335907268697,
      "b": 8.2572766540785,
      "c": 8.257338669767051,
      "alpha": 114.04476793316415,
      "beta": 114.04497803400922,
      "gamma": 114.04464340415346,
      "volume": 340.91923092792996
    },
    "properties": {},
    "sites": [
      {
        "species": [{ "element": "Nd", "occu": 1 }],
        "abc": [0.27315242, 0.39980773000000003, 0.01706324],
        "properties": { "magmom": 0.0 },
        "label": "Nd",
        "xyz": [-0.01570496122772534, 2.1879558316650565, -2.124297080039912]
      },
      {
        "species": [{ "element": "Nd", "occu": 1 }],
        "abc": [0.01706324, 0.27315142, 0.39980673],
        "properties": { "magmom": 0.0 },
        "label": "Nd",
        "xyz": [-1.2882128976650844, 1.4956064208395037, 2.3245882493245604]
      },
      {
        "species": [{ "element": "Nd", "occu": 1 }],
        "abc": [0.39980673, 0.01706224, 0.27315142],
        "properties": { "magmom": 0.0 },
        "label": "Nd",
        "xyz": [2.9265697700304374, 0.09621898851316349, 0.852050351295635]
      },
      {
        "species": [{ "element": "Nd", "occu": 1 }],
        "abc": [0.72684758, 0.60019227, 0.9829367600000001],
        "properties": { "magmom": 0.0 },
        "label": "Nd",
        "xyz": [2.3672905712277252, 3.289818178334943, 3.6493873200399136]
      },
      {
        "species": [{ "element": "Nd", "occu": 1 }],
        "abc": [0.9829367600000001, 0.72684858, 0.60019327],
        "properties": { "magmom": 0.0 },
        "label": "Nd",
        "xyz": [3.639798507665086, 3.9821675891604955, -0.7994980093245605]
      },
      {
        "species": [{ "element": "Nd", "occu": 1 }],
        "abc": [0.60019327, 0.98293776, 0.72684858],
        "properties": { "magmom": 0.0 },
        "label": "Nd",
        "xyz": [-0.574984160030438, 5.381555021486836, 0.6730398887043654]
      },
      {
        "species": [{ "element": "Au", "occu": 1 }],
        "abc": [0.43694184, 0.76898129, 0.9301056600000001],
        "properties": { "magmom": 0.0 },
        "label": "Au",
        "xyz": [-0.6948018919557332, 4.211443693793131, 3.621101338230857]
      },
      {
        "species": [{ "element": "Au", "occu": 1 }],
        "abc": [0.9301056600000001, 0.43694284, 0.76898129],
        "properties": { "magmom": 0.0 },
        "label": "Au",
        "xyz": [4.746673711902232, 2.397033332701358, 1.7477995141071307]
      },
      {
        "species": [{ "element": "Au", "occu": 1 }],
        "abc": [0.76898129, 0.9301056600000001, 0.43694184],
        "properties": { "magmom": 0.0 },
        "label": "Au",
        "xyz": [0.9711775545011145, 5.092211433233048, -2.1112675578971367]
      },
      {
        "species": [{ "element": "Au", "occu": 1 }],
        "abc": [0.56305816, 0.23101871000000002, 0.06989434],
        "properties": { "magmom": 0.0 },
        "label": "Au",
        "xyz": [3.0463875019557327, 1.2663303162068689, -2.0960110982308566]
      },
      {
        "species": [{ "element": "Au", "occu": 1 }],
        "abc": [0.06989434, 0.5630571600000001, 0.23101871000000002],
        "properties": { "magmom": 0.0 },
        "label": "Au",
        "xyz": [-2.395088101902231, 3.0807406772986425, -0.22270927410712993]
      },
      {
        "species": [{ "element": "Au", "occu": 1 }],
        "abc": [0.23101871000000002, 0.06989434, 0.56305816],
        "properties": { "magmom": 0.0 },
        "label": "Au",
        "xyz": [1.3804080554988862, 0.38556257676695127, 3.636357797897137]
      },
      {
        "species": [{ "element": "Au", "occu": 1 }],
        "abc": [0.5, 0.5, 0.5],
        "properties": { "magmom": -0.0 },
        "label": "Au",
        "xyz": [1.175792805, 2.7388870049999996, 0.76254512]
      },
      {
        "species": [{ "element": "Au", "occu": 1 }],
        "abc": [-0.0, -0.0, -0.0],
        "properties": { "magmom": -0.0 },
        "label": "Au",
        "xyz": [0.0, 0.0, 0.0]
      }
    ]
  },
  "task_ids": null,
  "uncorrected_energy_per_atom": null,
  "energy_per_atom": -4.723004808571432,
  "formation_energy_per_atom": -0.808723337500002,
  "energy_above_hull": 0.0,
  "is_stable": true,
  "equilibrium_reaction_energy_per_atom": null,
  "decomposes_to": null,
  "xas": null,
  "grain_boundaries": null,
  "band_gap": 0.0,
  "cbm": null,
  "vbm": null,
  "efermi": 4.42911598,
  "is_gap_direct": null,
  "is_metal": null,
  "es_source_calc_id": null,
  "bandstructure": null,
  "dos": null,
  "dos_energy_up": null,
  "dos_energy_down": null,
  "is_magnetic": null,
  "ordering": null,
  "total_magnetization": 1e-7,
  "total_magnetization_normalized_vol": null,
  "total_magnetization_normalized_formula_units": null,
  "num_magnetic_sites": null,
  "num_unique_magnetic_sites": null,
  "types_of_magnetic_species": null,
  "bulk_modulus": null,
  "shear_modulus": null,
  "universal_anisotropy": null,
  "homogeneous_poisson": null,
  "e_total": null,
  "e_ionic": null,
  "e_electronic": null,
  "n": null,
  "e_ij_max": null,
  "weighted_surface_energy_EV_PER_ANG2": null,
  "weighted_surface_energy": null,
  "weighted_work_function": null,
  "surface_anisotropy": null,
  "shape_factor": null,
  "has_reconstructed": null,
  "possible_species": null,
  "has_props": null,
  "theoretical": null,
  "database_IDs": null,
  "fields_not_requested": [
    "builder_meta",
    "nsites",
    "elements",
    "nelements",
    "composition",
    "composition_reduced",
    "chemsys",
    "symmetry",
    "property_name",
    "deprecated",
    "deprecation_reasons",
    "last_updated",
    "origins",
    "warnings",
    "task_ids",
    "uncorrected_energy_per_atom",
    "equilibrium_reaction_energy_per_atom",
    "decomposes_to",
    "xas",
    "grain_boundaries",
    "cbm",
    "vbm",
    "is_gap_direct",
    "is_metal",
    "es_source_calc_id",
    "bandstructure",
    "dos",
    "dos_energy_up",
    "dos_energy_down",
    "is_magnetic",
    "ordering",
    "total_magnetization_normalized_vol",
    "total_magnetization_normalized_formula_units",
    "num_magnetic_sites",
    "num_unique_magnetic_sites",
    "types_of_magnetic_species",
    "bulk_modulus",
    "shear_modulus",
    "universal_anisotropy",
    "homogeneous_poisson",
    "e_total",
    "e_ionic",
    "e_electronic",
    "n",
    "e_ij_max",
    "weighted_surface_energy_EV_PER_ANG2",
    "weighted_surface_energy",
    "weighted_work_function",
    "surface_anisotropy",
    "shape_factor",
    "has_reconstructed",
    "possible_species",
    "has_props",
    "theoretical",
    "database_IDs"
  ]
}
