{
  "builder_meta": null,
  "nsites": null,
  "elements": null,
  "nelements": null,
  "composition": null,
  "composition_reduced": null,
  "formula_pretty": "Nd3Cl",
  "formula_anonymous": "AB3",
  "chemsys": null,
  "volume": 240.10375628610774,
  "density": 6.47577973528524,
  "density_atomic": 30.012969535763467,
  "symmetry": null,
  "property_name": null,
  "material_id": "mp-1186268",
  "deprecated": null,
  "deprecation_reasons": null,
  "last_updated": null,
  "origins": null,
  "warnings": null,
  "structure": {
    "@module": "pymatgen.core.structure",
    "@class": "Structure",
    "charge": 0,
    "lattice": {
      "matrix": [
        [7.284516, 0.0, 0.0],
        [-3.642258, 6.308577, 0.0],
        [0.0, 0.0, 5.224766]
      ],
      "pbc": [true, true, true],
      "a": 7.284516,
      "b": 7.284516943730242,
      "c": 5.224766,
      "alpha": 90.0,
      "beta": 90.0,
      "gamma": 119.99999571442488,
      "volume": 240.10375628610774
    },
    "properties": {},
    "sites": [
      {
        "species": [{ "element": "Nd", "occu": 1 }],
        "abc": [0.172404, 0.344808, 0.250002],
        "properties": { "magmom": -0.0 },
        "label": "Nd",
        "xyz": [0.0, 2.175247818216, 1.3062019495319999]
      },
      {
        "species": [{ "element": "Nd", "occu": 1 }],
        "abc": [0.655192, 0.827596999999999, 0.250002],
        "properties": { "magmom": -0.0 },
        "label": "Nd",
        "xyz": [1.7584348130460037, 5.220959399468994, 1.3062019495319999]
      },
      {
        "species": [{ "element": "Nd", "occu": 1 }],
        "abc": [0.172404, 0.827596999999999, 0.250002],
        "properties": { "magmom": -0.0 },
        "label": "Nd",
        "xyz": [-1.7584420975619963, 5.220959399468994, 1.3062019495319999]
      },
      {
        "species": [{ "element": "Nd", "occu": 1 }],
        "abc": [0.827595, 0.655191, 0.75],
        "properties": { "magmom": -0.0 },
        "label": "Nd",
        "xyz": [3.6422543577419995, 4.133322873207, 3.9185745]
      },
      {
        "species": [{ "element": "Nd", "occu": 1 }],
        "abc": [0.344808, 0.172404, 0.75],
        "properties": { "magmom": -0.0 },
        "label": "Nd",
        "xyz": [1.883819544696, 1.087623909108, 3.9185745]
      },
      {
        "species": [{ "element": "Nd", "occu": 1 }],
        "abc": [0.827596999999999, 0.172404, 0.75],
        "properties": { "magmom": -0.0 },
        "label": "Nd",
        "xyz": [5.400703739819993, 1.087623909108, 3.9185745]
      },
      {
        "species": [{ "element": "Cl", "occu": 1 }],
        "abc": [0.333333999999999, 0.666667999999999, 0.75],
        "properties": { "magmom": -0.0 },
        "label": "Cl",
        "xyz": [-3.9968028886505635e-15, 4.205726411435994, 3.9185745]
      },
      {
        "species": [{ "element": "Cl", "occu": 1 }],
        "abc": [0.666666, 0.333333, 0.250002],
        "properties": { "magmom": -0.0 },
        "label": "Cl",
        "xyz": [3.642254357742, 2.1028568971409998, 1.3062019495319999]
      }
    ]
  },
  "task_ids": null,
  "uncorrected_energy_per_atom": null,
  "energy_per_atom": -23.802330881666673,
  "formation_energy_per_atom": -0.200714420416669,
  "energy_above_hull": 0.66125409833333,
  "is_stable": false,
  "equilibrium_reaction_energy_per_atom": null,
  "decomposes_to": null,
  "xas": null,
  "grain_boundaries": null,
  "band_gap": 0.0,
  "cbm": null,
  "vbm": null,
  "efermi": 4.34893245,
  "is_gap_direct": null,
  "is_metal": null,
  "es_source_calc_id": null,
  "bandstructure": null,
  "dos": null,
  "dos_energy_up": null,
  "dos_energy_down": null,
  "is_magnetic": null,
  "ordering": null,
  "total_magnetization": 0.005079699999999,
  "total_magnetization_normalized_vol": null,
  "total_magnetization_normalized_formula_units": null,
  "num_magnetic_sites": null,
  "num_unique_magnetic_sites": null,
  "types_of_magnetic_species": null,
  "bulk_modulus": null,
  "shear_modulus": null,
  "universal_anisotropy": null,
  "homogeneous_poisson": null,
  "e_total": null,
  "e_ionic": null,
  "e_electronic": null,
  "n": null,
  "e_ij_max": null,
  "weighted_surface_energy_EV_PER_ANG2": null,
  "weighted_surface_energy": null,
  "weighted_work_function": null,
  "surface_anisotropy": null,
  "shape_factor": null,
  "has_reconstructed": null,
  "possible_species": null,
  "has_props": null,
  "theoretical": null,
  "database_IDs": null,
  "fields_not_requested": [
    "builder_meta",
    "nsites",
    "elements",
    "nelements",
    "composition",
    "composition_reduced",
    "chemsys",
    "symmetry",
    "property_name",
    "deprecated",
    "deprecation_reasons",
    "last_updated",
    "origins",
    "warnings",
    "task_ids",
    "uncorrected_energy_per_atom",
    "equilibrium_reaction_energy_per_atom",
    "decomposes_to",
    "xas",
    "grain_boundaries",
    "cbm",
    "vbm",
    "is_gap_direct",
    "is_metal",
    "es_source_calc_id",
    "bandstructure",
    "dos",
    "dos_energy_up",
    "dos_energy_down",
    "is_magnetic",
    "ordering",
    "total_magnetization_normalized_vol",
    "total_magnetization_normalized_formula_units",
    "num_magnetic_sites",
    "num_unique_magnetic_sites",
    "types_of_magnetic_species",
    "bulk_modulus",
    "shear_modulus",
    "universal_anisotropy",
    "homogeneous_poisson",
    "e_total",
    "e_ionic",
    "e_electronic",
    "n",
    "e_ij_max",
    "weighted_surface_energy_EV_PER_ANG2",
    "weighted_surface_energy",
    "weighted_work_function",
    "surface_anisotropy",
    "shape_factor",
    "has_reconstructed",
    "possible_species",
    "has_props",
    "theoretical",
    "database_IDs"
  ]
}
