{"builder_meta": null, "nsites": null, "elements": null, "nelements": null, "composition": null, "composition_reduced": null, "formula_pretty": "Nd3Co", "formula_anonymous": "AB3", "chemsys": null, "volume": 451.8715235258894, "density": 7.22700376762141, "density_atomic": 28.24197022036809, "symmetry": null, "property_name": null, "material_id": "mp-1106011", "deprecated": null, "deprecation_reasons": null, "last_updated": null, "origins": null, "warnings": null, "structure": {"@module": "pymatgen.core.structure", "@class": "Structure", "charge": 0, "lattice": {"matrix": [[6.50284016, 0.0, 0.0], [0.0, 7.02598494, 0.0], [0.0, 0.0, 9.89019102]], "pbc": [true, true, true], "a": 6.50284016, "b": 7.02598494, "c": 9.89019102, "alpha": 90.0, "beta": 90.0, "gamma": 90.0, "volume": 451.8715235258894}, "properties": {}, "sites": [{"species": [{"element": "Nd", "occu": 1}], "abc": [0.35588541, 0.552393599999999, 0.25], "properties": {"magmom": -0.023}, "label": "Nd", "xyz": [2.314265936506066, 3.8811091145523773, 2.472547755]}, {"species": [{"element": "Nd", "occu": 1}], "abc": [0.14411459000000001, 0.0523936, 0.25], "properties": {"magmom": -0.023}, "label": "Nd", "xyz": [0.9371541434939344, 0.36811664455238396, 2.472547755]}, {"species": [{"element": "Nd", "occu": 1}], "abc": [0.64411459, 0.447606399999999, 0.75], "properties": {"magmom": -0.023}, "label": "Nd", "xyz": [4.1885742234939345, 3.144875825447609, 7.417643265]}, {"species": [{"element": "Nd", "occu": 1}], "abc": [0.8558854100000001, 0.9476064, 0.75], "properties": {"magmom": -0.023}, "label": "Nd", "xyz": [5.565686016506066, 6.657868295447615, 7.417643265]}, {"species": [{"element": "Nd", "occu": 1}], "abc": [0.82124995, 0.66229138, 0.07012553], "properties": {"magmom": -0.008}, "label": "Nd", "xyz": [5.340457156257992, 4.653249261771817, 0.6935548870787406]}, {"species": [{"element": "Nd", "occu": 1}], "abc": [0.67875005, 0.16229138, 0.42987447], "properties": {"magmom": -0.008}, "label": "Nd", "xyz": [4.413803083742008, 1.1402567917718172, 4.251540622921259]}, {"species": [{"element": "Nd", "occu": 1}], "abc": [0.17875005, 0.33770862, 0.57012553], "properties": {"magmom": -0.008}, "label": "Nd", "xyz": [1.162383003742008, 2.372735678228183, 5.638650397078741]}, {"species": [{"element": "Nd", "occu": 1}], "abc": [0.32124995, 0.83770862, 0.92987447], "properties": {"magmom": -0.008}, "label": "Nd", "xyz": [2.089037076257992, 5.885728148228183, 9.19663613292126]}, {"species": [{"element": "Nd", "occu": 1}], "abc": [0.17875005, 0.33770862, 0.92987447], "properties": {"magmom": -0.008}, "label": "Nd", "xyz": [1.162383003742008, 2.372735678228183, 9.19663613292126]}, {"species": [{"element": "Nd", "occu": 1}], "abc": [0.32124995, 0.83770862, 0.57012553], "properties": {"magmom": -0.008}, "label": "Nd", "xyz": [2.089037076257992, 5.885728148228183, 5.638650397078741]}, {"species": [{"element": "Nd", "occu": 1}], "abc": [0.82124995, 0.66229138, 0.42987447], "properties": {"magmom": -0.008}, "label": "Nd", "xyz": [5.340457156257992, 4.653249261771817, 4.251540622921259]}, {"species": [{"element": "Nd", "occu": 1}], "abc": [0.67875005, 0.16229138, 0.07012553], "properties": {"magmom": -0.008}, "label": "Nd", "xyz": [4.413803083742008, 1.1402567917718172, 0.6935548870787406]}, {"species": [{"element": "Co", "occu": 1}], "abc": [0.55294795, 0.88633498, 0.25], "properties": {"magmom": -0.309}, "label": "Co", "xyz": [3.595732135649672, 6.227376221275201, 2.472547755]}, {"species": [{"element": "Co", "occu": 1}], "abc": [0.94705205, 0.38633498, 0.25], "properties": {"magmom": -0.309}, "label": "Co", "xyz": [6.158528104350328, 2.714383751275201, 2.472547755]}, {"species": [{"element": "Co", "occu": 1}], "abc": [0.44705205000000003, 0.11366502, 0.75], "properties": {"magmom": -0.309}, "label": "Co", "xyz": [2.907108024350328, 0.7986087187247988, 7.417643265]}, {"species": [{"element": "Co", "occu": 1}], "abc": [0.05294795, 0.61366502, 0.75], "properties": {"magmom": -0.309}, "label": "Co", "xyz": [0.344312055649672, 4.311601188724799, 7.417643265]}]}, "task_ids": null, "uncorrected_energy_per_atom": null, "energy_per_atom": -25.353585223125, "formation_energy_per_atom": 0.018479296250003, "energy_above_hull": 0.025889086666666002, "is_stable": false, "equilibrium_reaction_energy_per_atom": null, "decomposes_to": null, "xas": null, "grain_boundaries": null, "band_gap": 0.0, "cbm": null, "vbm": null, "efermi": 3.72506734, "is_gap_direct": null, "is_metal": null, "es_source_calc_id": null, "bandstructure": null, "dos": null, "dos_energy_up": null, "dos_energy_down": null, "is_magnetic": null, "ordering": null, "total_magnetization": 1.717033499999999, "total_magnetization_normalized_vol": null, "total_magnetization_normalized_formula_units": null, "num_magnetic_sites": null, "num_unique_magnetic_sites": null, "types_of_magnetic_species": null, "bulk_modulus": null, "shear_modulus": null, "universal_anisotropy": null, "homogeneous_poisson": null, "e_total": null, "e_ionic": null, "e_electronic": null, "n": null, "e_ij_max": null, "weighted_surface_energy_EV_PER_ANG2": null, "weighted_surface_energy": null, "weighted_work_function": null, "surface_anisotropy": null, "shape_factor": null, "has_reconstructed": null, "possible_species": null, "has_props": null, "theoretical": null, "database_IDs": null, "fields_not_requested": ["builder_meta", "nsites", "elements", "nelements", "composition", "composition_reduced", "chemsys", "symmetry", "property_name", "deprecated", "deprecation_reasons", "last_updated", "origins", "warnings", "task_ids", "uncorrected_energy_per_atom", "equilibrium_reaction_energy_per_atom", "decomposes_to", "xas", "grain_boundaries", "cbm", "vbm", "is_gap_direct", "is_metal", "es_source_calc_id", "bandstructure", "dos", "dos_energy_up", "dos_energy_down", "is_magnetic", "ordering", "total_magnetization_normalized_vol", "total_magnetization_normalized_formula_units", "num_magnetic_sites", "num_unique_magnetic_sites", "types_of_magnetic_species", "bulk_modulus", "shear_modulus", "universal_anisotropy", "homogeneous_poisson", "e_total", "e_ionic", "e_electronic", "n", "e_ij_max", "weighted_surface_energy_EV_PER_ANG2", "weighted_surface_energy", "weighted_work_function", "surface_anisotropy", "shape_factor", "has_reconstructed", "possible_species", "has_props", "theoretical", "database_IDs"]}