{
  "builder_meta": null,
  "nsites": null,
  "elements": null,
  "nelements": null,
  "composition": null,
  "composition_reduced": null,
  "formula_pretty": "Nd3Dy",
  "formula_anonymous": "AB3",
  "chemsys": null,
  "volume": 279.4502335962955,
  "density": 7.073860799729559,
  "density_atomic": 34.93127919953694,
  "symmetry": null,
  "property_name": null,
  "material_id": "mp-1186266",
  "deprecated": null,
  "deprecation_reasons": null,
  "last_updated": null,
  "origins": null,
  "warnings": null,
  "structure": {
    "@module": "pymatgen.core.structure",
    "@class": "Structure",
    "charge": 0,
    "lattice": {
      "matrix": [
        [3.72151682, -6.44585643, 0.0],
        [3.72151682, 6.44585643, -0.0],
        [0.0, 0.0, 5.82470409]
      ],
      "pbc": [true, true, true],
      "a": 7.4430338275272705,
      "b": 7.4430338275272705,
      "c": 5.82470409,
      "alpha": 90.0,
      "beta": 90.0,
      "gamma": 120.0000016668881,
      "volume": 279.4502335962955
    },
    "properties": {},
    "sites": [
      {
        "species": [{ "element": "Nd", "occu": 1 }],
        "abc": [0.1675613, 0.33512161, 0.25],
        "properties": { "magmom": 0.0 },
        "label": "Nd",
        "xyz": [1.8707429046915465, 1.0800697016262937, 1.4561760225]
      },
      {
        "species": [{ "element": "Nd", "occu": 1 }],
        "abc": [0.66487839, 0.8324387, 0.25],
        "properties": { "magmom": 0.0 },
        "label": "Nd",
        "xyz": [5.572290735308455, 1.080069701626293, 1.4561760225]
      },
      {
        "species": [{ "element": "Nd", "occu": 1 }],
        "abc": [0.1675613, 0.8324397, 0.25],
        "properties": { "magmom": 0.0 },
        "label": "Nd",
        "xyz": [3.72152054151682, 4.285710709808112, 1.4561760225]
      },
      {
        "species": [{ "element": "Nd", "occu": 1 }],
        "abc": [0.8324387, 0.66487839, 0.75],
        "properties": { "magmom": 0.0 },
        "label": "Nd",
        "xyz": [5.572290735308455, -1.080069701626293, 4.3685280675]
      },
      {
        "species": [{ "element": "Nd", "occu": 1 }],
        "abc": [0.33512161, 0.1675613, 0.75],
        "properties": { "magmom": 0.0 },
        "label": "Nd",
        "xyz": [1.8707429046915465, -1.0800697016262937, 4.3685280675]
      },
      {
        "species": [{ "element": "Nd", "occu": 1 }],
        "abc": [0.8324387, 0.1675603, 0.75],
        "properties": { "magmom": 0.0 },
        "label": "Nd",
        "xyz": [3.72151309848318, -4.285710709808112, 4.3685280675]
      },
      {
        "species": [{ "element": "Dy", "occu": 1 }],
        "abc": [0.333333999999999, 0.666667, 0.75],
        "properties": { "magmom": 0.0 },
        "label": "Dy",
        "xyz": [3.721520541516816, 2.148616661381196, 4.3685280675]
      },
      {
        "species": [{ "element": "Dy", "occu": 1 }],
        "abc": [0.666666, 0.333333, 0.25],
        "properties": { "magmom": 0.0 },
        "label": "Dy",
        "xyz": [3.7215130984831797, -2.14861666138119, 1.4561760225]
      }
    ]
  },
  "task_ids": null,
  "uncorrected_energy_per_atom": null,
  "energy_per_atom": -30.03314757,
  "formation_energy_per_atom": 0.025809973125003,
  "energy_above_hull": 0.025809973125003,
  "is_stable": false,
  "equilibrium_reaction_energy_per_atom": null,
  "decomposes_to": null,
  "xas": null,
  "grain_boundaries": null,
  "band_gap": 0.0,
  "cbm": null,
  "vbm": null,
  "efermi": 3.26551162,
  "is_gap_direct": null,
  "is_metal": null,
  "es_source_calc_id": null,
  "bandstructure": null,
  "dos": null,
  "dos_energy_up": null,
  "dos_energy_down": null,
  "is_magnetic": null,
  "ordering": null,
  "total_magnetization": 0.0016228999999990002,
  "total_magnetization_normalized_vol": null,
  "total_magnetization_normalized_formula_units": null,
  "num_magnetic_sites": null,
  "num_unique_magnetic_sites": null,
  "types_of_magnetic_species": null,
  "bulk_modulus": null,
  "shear_modulus": null,
  "universal_anisotropy": null,
  "homogeneous_poisson": null,
  "e_total": null,
  "e_ionic": null,
  "e_electronic": null,
  "n": null,
  "e_ij_max": null,
  "weighted_surface_energy_EV_PER_ANG2": null,
  "weighted_surface_energy": null,
  "weighted_work_function": null,
  "surface_anisotropy": null,
  "shape_factor": null,
  "has_reconstructed": null,
  "possible_species": null,
  "has_props": null,
  "theoretical": null,
  "database_IDs": null,
  "fields_not_requested": [
    "builder_meta",
    "nsites",
    "elements",
    "nelements",
    "composition",
    "composition_reduced",
    "chemsys",
    "symmetry",
    "property_name",
    "deprecated",
    "deprecation_reasons",
    "last_updated",
    "origins",
    "warnings",
    "task_ids",
    "uncorrected_energy_per_atom",
    "equilibrium_reaction_energy_per_atom",
    "decomposes_to",
    "xas",
    "grain_boundaries",
    "cbm",
    "vbm",
    "is_gap_direct",
    "is_metal",
    "es_source_calc_id",
    "bandstructure",
    "dos",
    "dos_energy_up",
    "dos_energy_down",
    "is_magnetic",
    "ordering",
    "total_magnetization_normalized_vol",
    "total_magnetization_normalized_formula_units",
    "num_magnetic_sites",
    "num_unique_magnetic_sites",
    "types_of_magnetic_species",
    "bulk_modulus",
    "shear_modulus",
    "universal_anisotropy",
    "homogeneous_poisson",
    "e_total",
    "e_ionic",
    "e_electronic",
    "n",
    "e_ij_max",
    "weighted_surface_energy_EV_PER_ANG2",
    "weighted_surface_energy",
    "weighted_work_function",
    "surface_anisotropy",
    "shape_factor",
    "has_reconstructed",
    "possible_species",
    "has_props",
    "theoretical",
    "database_IDs"
  ]
}
