{
  "builder_meta": null,
  "nsites": null,
  "elements": null,
  "nelements": null,
  "composition": null,
  "composition_reduced": null,
  "formula_pretty": "Nd3Er",
  "formula_anonymous": "AB3",
  "chemsys": null,
  "volume": 279.2281107516976,
  "density": 7.136090483095773,
  "density_atomic": 34.9035138439622,
  "symmetry": null,
  "property_name": null,
  "material_id": "mp-1186267",
  "deprecated": null,
  "deprecation_reasons": null,
  "last_updated": null,
  "origins": null,
  "warnings": null,
  "structure": {
    "@module": "pymatgen.core.structure",
    "@class": "Structure",
    "charge": 0,
    "lattice": {
      "matrix": [
        [3.70844257, -6.42321151, -0.0],
        [3.70844257, 6.42321151, -0.0],
        [-0.0, 0.0, 5.86118408]
      ],
      "pbc": [true, true, true],
      "a": 7.416885626540609,
      "b": 7.416885626540609,
      "c": 5.86118408,
      "alpha": 90.0,
      "beta": 90.0,
      "gamma": 120.00000433999779,
      "volume": 279.2281107516976
    },
    "properties": {},
    "sites": [
      {
        "species": [{ "element": "Nd", "occu": 1 }],
        "abc": [0.16839923, 0.33680045000000003, 0.25],
        "properties": { "magmom": 0.146 },
        "label": "Nd",
        "xyz": [1.8735039996623777, 1.0816766546020422, 1.46529602]
      },
      {
        "species": [{ "element": "Nd", "occu": 1 }],
        "abc": [0.66319955, 0.83160077, 0.25],
        "properties": { "magmom": 0.146 },
        "label": "Nd",
        "xyz": [5.5433811403376225, 1.0816766546020427, 1.46529602]
      },
      {
        "species": [{ "element": "Nd", "occu": 1 }],
        "abc": [0.16839923, 0.83160077, 0.25],
        "properties": { "magmom": 0.146 },
        "label": "Nd",
        "xyz": [3.70844257, 4.259883765177726, 1.46529602]
      },
      {
        "species": [{ "element": "Nd", "occu": 1 }],
        "abc": [0.83160077, 0.66319955, 0.75],
        "properties": { "magmom": 0.146 },
        "label": "Nd",
        "xyz": [5.5433811403376225, -1.0816766546020427, 4.39588806]
      },
      {
        "species": [{ "element": "Nd", "occu": 1 }],
        "abc": [0.33680045000000003, 0.16839923, 0.75],
        "properties": { "magmom": 0.146 },
        "label": "Nd",
        "xyz": [1.8735039996623777, -1.0816766546020422, 4.39588806]
      },
      {
        "species": [{ "element": "Nd", "occu": 1 }],
        "abc": [0.83160077, 0.16839923, 0.75],
        "properties": { "magmom": 0.146 },
        "label": "Nd",
        "xyz": [3.70844257, -4.259883765177726, 4.39588806]
      },
      {
        "species": [{ "element": "Er", "occu": 1 }],
        "abc": [0.333333, 0.666667, 0.75],
        "properties": { "magmom": 0.23600000000000002 },
        "label": "Er",
        "xyz": [3.70844257, 2.14107478547434, 4.39588806]
      },
      {
        "species": [{ "element": "Er", "occu": 1 }],
        "abc": [0.666667, 0.333333, 0.25],
        "properties": { "magmom": 0.23600000000000002 },
        "label": "Er",
        "xyz": [3.70844257, -2.14107478547434, 1.46529602]
      }
    ]
  },
  "task_ids": null,
  "uncorrected_energy_per_atom": null,
  "energy_per_atom": -30.5194384925,
  "formation_energy_per_atom": 0.025427036041669,
  "energy_above_hull": 0.025427036041669,
  "is_stable": false,
  "equilibrium_reaction_energy_per_atom": null,
  "decomposes_to": null,
  "xas": null,
  "grain_boundaries": null,
  "band_gap": 0.0,
  "cbm": null,
  "vbm": null,
  "efermi": 3.20211103,
  "is_gap_direct": null,
  "is_metal": null,
  "es_source_calc_id": null,
  "bandstructure": null,
  "dos": null,
  "dos_energy_up": null,
  "dos_energy_down": null,
  "is_magnetic": null,
  "ordering": null,
  "total_magnetization": 2.5291828,
  "total_magnetization_normalized_vol": null,
  "total_magnetization_normalized_formula_units": null,
  "num_magnetic_sites": null,
  "num_unique_magnetic_sites": null,
  "types_of_magnetic_species": null,
  "bulk_modulus": null,
  "shear_modulus": null,
  "universal_anisotropy": null,
  "homogeneous_poisson": null,
  "e_total": null,
  "e_ionic": null,
  "e_electronic": null,
  "n": null,
  "e_ij_max": null,
  "weighted_surface_energy_EV_PER_ANG2": null,
  "weighted_surface_energy": null,
  "weighted_work_function": null,
  "surface_anisotropy": null,
  "shape_factor": null,
  "has_reconstructed": null,
  "possible_species": null,
  "has_props": null,
  "theoretical": null,
  "database_IDs": null,
  "fields_not_requested": [
    "builder_meta",
    "nsites",
    "elements",
    "nelements",
    "composition",
    "composition_reduced",
    "chemsys",
    "symmetry",
    "property_name",
    "deprecated",
    "deprecation_reasons",
    "last_updated",
    "origins",
    "warnings",
    "task_ids",
    "uncorrected_energy_per_atom",
    "equilibrium_reaction_energy_per_atom",
    "decomposes_to",
    "xas",
    "grain_boundaries",
    "cbm",
    "vbm",
    "is_gap_direct",
    "is_metal",
    "es_source_calc_id",
    "bandstructure",
    "dos",
    "dos_energy_up",
    "dos_energy_down",
    "is_magnetic",
    "ordering",
    "total_magnetization_normalized_vol",
    "total_magnetization_normalized_formula_units",
    "num_magnetic_sites",
    "num_unique_magnetic_sites",
    "types_of_magnetic_species",
    "bulk_modulus",
    "shear_modulus",
    "universal_anisotropy",
    "homogeneous_poisson",
    "e_total",
    "e_ionic",
    "e_electronic",
    "n",
    "e_ij_max",
    "weighted_surface_energy_EV_PER_ANG2",
    "weighted_surface_energy",
    "weighted_work_function",
    "surface_anisotropy",
    "shape_factor",
    "has_reconstructed",
    "possible_species",
    "has_props",
    "theoretical",
    "database_IDs"
  ]
}
