{
  "builder_meta": null,
  "nsites": null,
  "elements": null,
  "nelements": null,
  "composition": null,
  "composition_reduced": null,
  "formula_pretty": "Nd3Ga2",
  "formula_anonymous": "A2B3",
  "chemsys": null,
  "volume": 1110.6265958056197,
  "density": 6.843804838838509,
  "density_atomic": 27.765664895140493,
  "symmetry": null,
  "property_name": null,
  "material_id": "mp-1203103",
  "deprecated": null,
  "deprecation_reasons": null,
  "last_updated": null,
  "origins": null,
  "warnings": null,
  "structure": {
    "@module": "pymatgen.core.structure",
    "@class": "Structure",
    "charge": 0,
    "lattice": {
      "matrix": [
        [-6.00109901, -6.00109901, 7.70986003],
        [-6.00109901, 6.00109901, -7.70986003],
        [6.00109901, -6.00109901, -7.70986003]
      ],
      "pbc": [true, true, true],
      "a": 11.465963559066353,
      "b": 11.465963559066353,
      "c": 11.465963559066353,
      "alpha": 95.49288831602209,
      "beta": 116.88099655441764,
      "gamma": 116.88099655441764,
      "volume": 1110.6265958056197
    },
    "properties": {},
    "sites": [
      {
        "species": [{ "element": "Nd", "occu": 1 }],
        "abc": [0.5, 0.84958398, 0.34958398],
        "properties": { "magmom": 0.0 },
        "label": "Nd",
        "xyz": [-6.00109901, -4.440892098500626e-16, -5.390487109060638]
      },
      {
        "species": [{ "element": "Nd", "occu": 1 }],
        "abc": [0.5, 0.34958398, 0.84958398],
        "properties": { "magmom": 0.0 },
        "label": "Nd",
        "xyz": [0.0, -6.001099009999999, -5.390487109060638]
      },
      {
        "species": [{ "element": "Nd", "occu": 1 }],
        "abc": [0.5, 0.15041602, 0.65041602],
        "properties": { "magmom": 0.0 },
        "label": "Nd",
        "xyz": [0.0, -6.00109901, -2.3193729209393616]
      },
      {
        "species": [{ "element": "Nd", "occu": 1 }],
        "abc": [0.5, 0.65041602, 0.15041602],
        "properties": { "magmom": 0.0 },
        "label": "Nd",
        "xyz": [-6.00109901, -2.220446049250313e-16, -2.3193729209393616]
      },
      {
        "species": [{ "element": "Nd", "occu": 1 }],
        "abc": [0.17096113000000002, 0.33548107, 0.83548107],
        "properties": { "magmom": -0.0 },
        "label": "Nd",
        "xyz": [1.9745948370085191, -4.026504172991482, -7.70986781695863]
      },
      {
        "species": [{ "element": "Nd", "occu": 1 }],
        "abc": [0.82903887, 0.6645189300000001, 0.16451893],
        "properties": { "magmom": -0.0 },
        "label": "Nd",
        "xyz": [-7.97569384700852, -1.9745948370085182, 7.786958629463214e-6]
      },
      {
        "species": [{ "element": "Nd", "occu": 1 }],
        "abc": [0.5, 0.16451893, 0.33548107],
        "properties": { "magmom": -0.0 },
        "label": "Nd",
        "xyz": [-1.9745887758985186, -4.026510234101481, 0.0]
      },
      {
        "species": [{ "element": "Nd", "occu": 1 }],
        "abc": [0.5, 0.83548107, 0.6645189300000001],
        "properties": { "magmom": -0.0 },
        "label": "Nd",
        "xyz": [-4.026510234101481, -1.9745887758985186, -7.709860030000001]
      },
      {
        "species": [{ "element": "Nd", "occu": 1 }],
        "abc": [0.73278257, 0.56576028, 0.43521448],
        "properties": { "magmom": -0.0 },
        "label": "Nd",
        "xyz": [-5.180919026511914, -3.6140824842325974, -2.0677242460391656]
      },
      {
        "species": [{ "element": "Nd", "occu": 1 }],
        "abc": [0.26721743, 0.70243291, 0.83297771],
        "properties": { "magmom": -0.0 },
        "label": "Nd",
        "xyz": [-0.8201859845870958, -2.387010524668393, -9.777591985899196]
      },
      {
        "species": [{ "element": "Nd", "occu": 1 }],
        "abc": [0.8694552, 0.20243291, 0.9352144800000001],
        "properties": { "magmom": -0.0 },
        "label": "Nd",
        "xyz": [-0.8201919856861055, -9.615181494232598, -2.067724246039166]
      },
      {
        "species": [{ "element": "Nd", "occu": 1 }],
        "abc": [0.1305448, 0.06576028, 0.33297771],
        "properties": { "magmom": -0.0 },
        "label": "Nd",
        "xyz": [0.8201859845870962, -2.3870105246683924, -2.0677319558991956]
      },
      {
        "species": [{ "element": "Nd", "occu": 1 }],
        "abc": [0.8694552, 0.43521448, 0.70243291],
        "properties": { "magmom": -0.0 },
        "label": "Nd",
        "xyz": [-3.6140824842325987, -6.821290995686105, -2.0677242460391656]
      },
      {
        "species": [{ "element": "Nd", "occu": 1 }],
        "abc": [0.1305448, 0.83297771, 0.56576028],
        "properties": { "magmom": -0.0 },
        "label": "Nd",
        "xyz": [-2.3870105246683924, 0.8201859845870967, -9.777591985899196]
      },
      {
        "species": [{ "element": "Nd", "occu": 1 }],
        "abc": [0.73278257, 0.9352144800000001, 0.06576028],
        "properties": { "magmom": -0.0 },
        "label": "Nd",
        "xyz": [-9.615181494232598, 0.8201799834880874, -2.067724246039166]
      },
      {
        "species": [{ "element": "Nd", "occu": 1 }],
        "abc": [0.26721743, 0.33297771, 0.20243291],
        "properties": { "magmom": -0.0 },
        "label": "Nd",
        "xyz": [-2.3870105246683924, -0.820185984587096, -2.0677319558991956]
      },
      {
        "species": [{ "element": "Nd", "occu": 1 }],
        "abc": [0.26721743, 0.43423972, 0.56478552],
        "properties": { "magmom": -0.0 },
        "label": "Nd",
        "xyz": [-0.8201799834880865, -2.387016525767402, -5.642135783960835]
      },
      {
        "species": [{ "element": "Nd", "occu": 1 }],
        "abc": [0.73278257, 0.29756709, 0.16702229],
        "properties": { "magmom": -0.0 },
        "label": "Nd",
        "xyz": [-5.180913025412903, -3.6140884853316075, 2.0677319558991956]
      },
      {
        "species": [{ "element": "Nd", "occu": 1 }],
        "abc": [0.1305448, 0.79756709, 0.06478552],
        "properties": { "magmom": -0.0 },
        "label": "Nd",
        "xyz": [-5.1809070243138935, 3.614082484232598, -5.642135783960835]
      },
      {
        "species": [{ "element": "Nd", "occu": 1 }],
        "abc": [0.8694552, 0.93423972, 0.66702229],
        "properties": { "magmom": -0.0 },
        "label": "Nd",
        "xyz": [-6.821284994587096, -3.6140884853316084, -5.642128074100804]
      },
      {
        "species": [{ "element": "Nd", "occu": 1 }],
        "abc": [0.1305448, 0.56478552, 0.29756709],
        "properties": { "magmom": -0.0 },
        "label": "Nd",
        "xyz": [-2.387016525767403, 0.8201919856861066, -5.642135783960835]
      },
      {
        "species": [{ "element": "Nd", "occu": 1 }],
        "abc": [0.8694552, 0.16702229, 0.43423972],
        "properties": { "magmom": -0.0 },
        "label": "Nd",
        "xyz": [-3.6140884853316075, -6.821284994587097, 2.0677319558991956]
      },
      {
        "species": [{ "element": "Nd", "occu": 1 }],
        "abc": [0.26721743, 0.06478552, 0.93423972],
        "properties": { "magmom": -0.0 },
        "label": "Nd",
        "xyz": [3.6140824842325974, -6.821278993488086, -5.642135783960834]
      },
      {
        "species": [{ "element": "Nd", "occu": 1 }],
        "abc": [0.73278257, 0.66702229, 0.79756709],
        "properties": { "magmom": -0.0 },
        "label": "Nd",
        "xyz": [-3.6140884853316066, -5.180913025412903, -5.642128074100804]
      },
      {
        "species": [{ "element": "Ga", "occu": 1 }],
        "abc": [-0.0, 0.75, 0.75],
        "properties": { "magmom": 0.0 },
        "label": "Ga",
        "xyz": [0.0, 0.0, -11.564790044999999]
      },
      {
        "species": [{ "element": "Ga", "occu": 1 }],
        "abc": [-0.0, 0.25, 0.25],
        "properties": { "magmom": 0.0 },
        "label": "Ga",
        "xyz": [0.0, 0.0, -3.854930015]
      },
      {
        "species": [{ "element": "Ga", "occu": 1 }],
        "abc": [-0.0, 0.5, 0.5],
        "properties": { "magmom": 0.0 },
        "label": "Ga",
        "xyz": [0.0, 0.0, -7.70986003]
      },
      {
        "species": [{ "element": "Ga", "occu": 1 }],
        "abc": [-0.0, -0.0, 0.0],
        "properties": { "magmom": 0.0 },
        "label": "Ga",
        "xyz": [0.0, 0.0, 0.0]
      },
      {
        "species": [{ "element": "Ga", "occu": 1 }],
        "abc": [0.27039387, 0.88519744, 0.38519744],
        "properties": { "magmom": 0.0 },
        "label": "Ga",
        "xyz": [-4.623209890567068, 1.3778891194329312, -7.70986781695863]
      },
      {
        "species": [{ "element": "Ga", "occu": 1 }],
        "abc": [0.72960613, 0.11480256, 0.61480256],
        "properties": { "magmom": 0.0 },
        "label": "Ga",
        "xyz": [-1.3778891194329312, -7.378988129432932, 7.786958629907303e-6]
      },
      {
        "species": [{ "element": "Ga", "occu": 1 }],
        "abc": [0.5, 0.61480256, 0.88519744],
        "properties": { "magmom": 0.0 },
        "label": "Ga",
        "xyz": [-1.3778830583229311, -4.623215951677069, -7.70986003]
      },
      {
        "species": [{ "element": "Ga", "occu": 1 }],
        "abc": [0.5, 0.38519744, 0.11480256],
        "properties": { "magmom": 0.0 },
        "label": "Ga",
        "xyz": [-4.623215951677069, -1.3778830583229311, 0.0]
      },
      {
        "species": [{ "element": "Ga", "occu": 1 }],
        "abc": [0.13915311, 0.11691356, 0.61691356],
        "properties": { "magmom": 0.0 },
        "label": "Ga",
        "xyz": [2.1654779143405785, -3.8356210956594206, -4.584853380578821]
      },
      {
        "species": [{ "element": "Ga", "occu": 1 }],
        "abc": [0.86084689, 0.47776046, 0.97776046],
        "properties": { "magmom": 0.0 },
        "label": "Ga",
        "xyz": [-2.1654779143405776, -8.166576924340578, -4.584853534776021]
      },
      {
        "species": [{ "element": "Ga", "occu": 1 }],
        "abc": [0.5, 0.97776046, 0.11691356],
        "properties": { "magmom": 0.0 },
        "label": "Ga",
        "xyz": [-8.16657698435157, 2.1654779743515693, -4.584853457677421]
      },
      {
        "species": [{ "element": "Ga", "occu": 1 }],
        "abc": [0.5, 0.61691356, 0.47776046],
        "properties": { "magmom": 0.0 },
        "label": "Ga",
        "xyz": [-3.8356210356484306, -2.1654779743515693, -4.58485345767742]
      },
      {
        "species": [{ "element": "Ga", "occu": 1 }],
        "abc": [0.86084689, 0.88308644, 0.38308644000000003],
        "properties": { "magmom": 0.0 },
        "label": "Ga",
        "xyz": [-8.166576924340578, -2.165477914340579, -3.1250066494211794]
      },
      {
        "species": [{ "element": "Ga", "occu": 1 }],
        "abc": [0.13915311, 0.5222395400000001, 0.022239540000000002],
        "properties": { "magmom": 0.0 },
        "label": "Ga",
        "xyz": [-3.8356210956594214, 2.1654779143405793, -3.1250064952239796]
      },
      {
        "species": [{ "element": "Ga", "occu": 1 }],
        "abc": [0.5, 0.022239540000000002, 0.88308644],
        "properties": { "magmom": 0.0 },
        "label": "Ga",
        "xyz": [2.1654779743515693, -8.166576984351568, -3.1250065723225795]
      },
      {
        "species": [{ "element": "Ga", "occu": 1 }],
        "abc": [0.5, 0.38308644000000003, 0.5222395400000001],
        "properties": { "magmom": 0.0 },
        "label": "Ga",
        "xyz": [-2.165477974351569, -3.835621035648431, -3.12500657232258]
      }
    ]
  },
  "task_ids": null,
  "uncorrected_energy_per_atom": null,
  "energy_per_atom": -22.8020489785,
  "formation_energy_per_atom": -0.5741332089999981,
  "energy_above_hull": 0.0,
  "is_stable": true,
  "equilibrium_reaction_energy_per_atom": null,
  "decomposes_to": null,
  "xas": null,
  "grain_boundaries": null,
  "band_gap": 0.0,
  "cbm": null,
  "vbm": null,
  "efermi": 3.2603765,
  "is_gap_direct": null,
  "is_metal": null,
  "es_source_calc_id": null,
  "bandstructure": null,
  "dos": null,
  "dos_energy_up": null,
  "dos_energy_down": null,
  "is_magnetic": null,
  "ordering": null,
  "total_magnetization": 3.0200000000000002e-5,
  "total_magnetization_normalized_vol": null,
  "total_magnetization_normalized_formula_units": null,
  "num_magnetic_sites": null,
  "num_unique_magnetic_sites": null,
  "types_of_magnetic_species": null,
  "bulk_modulus": null,
  "shear_modulus": null,
  "universal_anisotropy": null,
  "homogeneous_poisson": null,
  "e_total": null,
  "e_ionic": null,
  "e_electronic": null,
  "n": null,
  "e_ij_max": null,
  "weighted_surface_energy_EV_PER_ANG2": null,
  "weighted_surface_energy": null,
  "weighted_work_function": null,
  "surface_anisotropy": null,
  "shape_factor": null,
  "has_reconstructed": null,
  "possible_species": null,
  "has_props": null,
  "theoretical": null,
  "database_IDs": null,
  "fields_not_requested": [
    "builder_meta",
    "nsites",
    "elements",
    "nelements",
    "composition",
    "composition_reduced",
    "chemsys",
    "symmetry",
    "property_name",
    "deprecated",
    "deprecation_reasons",
    "last_updated",
    "origins",
    "warnings",
    "task_ids",
    "uncorrected_energy_per_atom",
    "equilibrium_reaction_energy_per_atom",
    "decomposes_to",
    "xas",
    "grain_boundaries",
    "cbm",
    "vbm",
    "is_gap_direct",
    "is_metal",
    "es_source_calc_id",
    "bandstructure",
    "dos",
    "dos_energy_up",
    "dos_energy_down",
    "is_magnetic",
    "ordering",
    "total_magnetization_normalized_vol",
    "total_magnetization_normalized_formula_units",
    "num_magnetic_sites",
    "num_unique_magnetic_sites",
    "types_of_magnetic_species",
    "bulk_modulus",
    "shear_modulus",
    "universal_anisotropy",
    "homogeneous_poisson",
    "e_total",
    "e_ionic",
    "e_electronic",
    "n",
    "e_ij_max",
    "weighted_surface_energy_EV_PER_ANG2",
    "weighted_surface_energy",
    "weighted_work_function",
    "surface_anisotropy",
    "shape_factor",
    "has_reconstructed",
    "possible_species",
    "has_props",
    "theoretical",
    "database_IDs"
  ]
}
