{"builder_meta": null, "nsites": null, "elements": null, "nelements": null, "composition": null, "composition_reduced": null, "formula_pretty": "Nd3Ge5", "formula_anonymous": "A3B5", "chemsys": null, "volume": 374.62922193067294, "density": 7.055862915932663, "density_atomic": 23.41432637066706, "symmetry": null, "property_name": null, "material_id": "mp-2015", "deprecated": null, "deprecation_reasons": null, "last_updated": null, "origins": null, "warnings": null, "structure": {"@module": "pymatgen.core.structure", "@class": "Structure", "charge": 0, "lattice": {"matrix": [[5.64366753, -0.00086012, 1.8763586700000001], [2.82088942, 7.06599987, 0.9377567800000001], [-0.00437642, -0.00056969, 9.39232056]], "pbc": [true, true, true], "a": 5.9474116880763255, "b": 7.665843662712143, "c": 9.392321596889527, "alpha": 82.98657824953142, "beta": 71.63620066414519, "gamma": 67.19172538455034, "volume": 374.62922193067294}, "properties": {}, "sites": [{"species": [{"element": "Nd", "occu": 1}], "abc": [0.6711081, 0.99066003, 0.66385022], "properties": {"magmom": -0.0}, "label": "Nd", "xyz": [6.579148103154063, 6.999048220863393, 8.423331731816255]}, {"species": [{"element": "Nd", "occu": 1}], "abc": [0.338082699999999, 0.9905285500000001, 0.33632342], "properties": {"magmom": 0.0}, "label": "Nd", "xyz": [4.70072597080591, 6.998592213750224, 4.722096641343591]}, {"species": [{"element": "Nd", "occu": 1}], "abc": [0.9245645, 0.490518599999999, 0.16331328], "properties": {"magmom": -0.0}, "label": "Nd", "xyz": [6.600918649589036, 3.465116089472352, 3.7286924358803595]}, {"species": [{"element": "Nd", "occu": 1}], "abc": [0.58503148, 0.49056071, 0.83647036], "properties": {"magmom": -0.0}, "label": "Nd", "xyz": [4.681879938797622, 3.465322187011142, 9.414153281583648]}, {"species": [{"element": "Nd", "occu": 1}], "abc": [0.24880658, 0.50229572, 0.49995561], "properties": {"magmom": 0.0}, "label": "Nd", "xyz": [2.8189142833249137, 3.5487226689945053, 5.6336249554213715]}, {"species": [{"element": "Nd", "occu": 1}], "abc": [0.998623399999999, 0.0025625500000000002, 0.00014035], "properties": {"magmom": -0.0}, "label": "Nd", "xyz": [5.643126513230871, 0.017247962052069, 1.8774969354820612]}, {"species": [{"element": "Ge", "occu": 1}], "abc": [0.26292695, 0.82923729, 0.67455568], "properties": {"magmom": 0.0}, "label": "Ge", "xyz": [3.8201068495383397, 5.85878014698558, 7.6066113352642635]}, {"species": [{"element": "Ge", "occu": 1}], "abc": [0.90784598, 0.8292358400000001, 0.32563359000000003], "properties": {"magmom": -0.0}, "label": "Ge", "xyz": [7.461338377951895, 5.858413970955136, 5.539521269160253]}, {"species": [{"element": "Ge", "occu": 1}], "abc": [0.48380372, 0.32939466, 0.17456872], "properties": {"magmom": -0.0}, "label": "Ge", "xyz": [3.658849270818126, 2.3269870454289507, 2.8562867582999303]}, {"species": [{"element": "Ge", "occu": 1}], "abc": [0.1870194, 0.32937782, 0.82523226], "properties": {"magmom": -0.0}, "label": "Ge", "xyz": [1.981002159913437, 2.3267526476083558, 8.410637678908083]}, {"species": [{"element": "Ge", "occu": 1}], "abc": [0.0519918, 0.18169784, 0.64547474], "properties": {"magmom": 0.0}, "label": "Ge", "xyz": [0.803149079417476, 1.283464474127634, 6.330449317532916]}, {"species": [{"element": "Ge", "occu": 1}], "abc": [0.7662886, 0.18176121, 0.35469674], "properties": {"magmom": 0.0}, "label": "Ge", "xyz": [4.835854062777686, 1.2834635188946002, 4.93970554901764]}, {"species": [{"element": "Ge", "occu": 1}], "abc": [0.43959086, 0.12063319, 3.3820000000000005e-05], "properties": {"magmom": 0.0}, "label": "Ge", "xyz": [2.8211974044281014, 0.8520159847002663, 0.9382723615106238]}, {"species": [{"element": "Ge", "occu": 1}], "abc": [0.69000106, 0.61962404, 0.49997055], "properties": {"magmom": -0.0}, "label": "Ge", "xyz": [5.639839395686808, 4.377385074154518, 6.57162979196069]}, {"species": [{"element": "Ge", "occu": 1}], "abc": [0.94895605, 0.68170223, 0.8540059600000001], "properties": {"magmom": -0.0}, "label": "Ge", "xyz": [7.274861566216, 4.815605133825632, 10.440950536460612]}, {"species": [{"element": "Ge", "occu": 1}], "abc": [0.36956481, 0.68180074, 0.1457717], "properties": {"magmom": 0.0}, "label": "Ge", "xyz": [4.008347454258476, 4.817203025441754, 2.701933936890572]}]}, "task_ids": null, "uncorrected_energy_per_atom": null, "energy_per_atom": -20.524209916875, "formation_energy_per_atom": -0.822470560937503, "energy_above_hull": 0.0, "is_stable": true, "equilibrium_reaction_energy_per_atom": null, "decomposes_to": null, "xas": null, "grain_boundaries": null, "band_gap": 0.0, "cbm": null, "vbm": null, "efermi": 5.1615949, "is_gap_direct": null, "is_metal": null, "es_source_calc_id": null, "bandstructure": null, "dos": null, "dos_energy_up": null, "dos_energy_down": null, "is_magnetic": null, "ordering": null, "total_magnetization": 0.0, "total_magnetization_normalized_vol": null, "total_magnetization_normalized_formula_units": null, "num_magnetic_sites": null, "num_unique_magnetic_sites": null, "types_of_magnetic_species": null, "bulk_modulus": null, "shear_modulus": null, "universal_anisotropy": null, "homogeneous_poisson": null, "e_total": null, "e_ionic": null, "e_electronic": null, "n": null, "e_ij_max": null, "weighted_surface_energy_EV_PER_ANG2": null, "weighted_surface_energy": null, "weighted_work_function": null, "surface_anisotropy": null, "shape_factor": null, "has_reconstructed": null, "possible_species": null, "has_props": null, "theoretical": null, "database_IDs": null, "fields_not_requested": ["builder_meta", "nsites", "elements", "nelements", "composition", "composition_reduced", "chemsys", "symmetry", "property_name", "deprecated", "deprecation_reasons", "last_updated", "origins", "warnings", "task_ids", "uncorrected_energy_per_atom", "equilibrium_reaction_energy_per_atom", "decomposes_to", "xas", "grain_boundaries", "cbm", "vbm", "is_gap_direct", "is_metal", "es_source_calc_id", "bandstructure", "dos", "dos_energy_up", "dos_energy_down", "is_magnetic", "ordering", "total_magnetization_normalized_vol", "total_magnetization_normalized_formula_units", "num_magnetic_sites", "num_unique_magnetic_sites", "types_of_magnetic_species", "bulk_modulus", "shear_modulus", "universal_anisotropy", "homogeneous_poisson", "e_total", "e_ionic", "e_electronic", "n", "e_ij_max", "weighted_surface_energy_EV_PER_ANG2", "weighted_surface_energy", "weighted_work_function", "surface_anisotropy", "shape_factor", "has_reconstructed", "possible_species", "has_props", "theoretical", "database_IDs"]}