{
  "builder_meta": null,
  "nsites": null,
  "elements": null,
  "nelements": null,
  "composition": null,
  "composition_reduced": null,
  "formula_pretty": "Nd3Ho",
  "formula_anonymous": "AB3",
  "chemsys": null,
  "volume": 280.63574001627376,
  "density": 7.072738972611549,
  "density_atomic": 35.07946750203422,
  "symmetry": null,
  "property_name": null,
  "material_id": "mp-1186276",
  "deprecated": null,
  "deprecation_reasons": null,
  "last_updated": null,
  "origins": null,
  "warnings": null,
  "structure": {
    "@module": "pymatgen.core.structure",
    "@class": "Structure",
    "charge": 0,
    "lattice": {
      "matrix": [
        [3.7147554, -6.43414343, -0.0],
        [3.7147554, 6.43414343, 0.0],
        [0.0, -0.0, 5.87072886]
      ],
      "pbc": [true, true, true],
      "a": 7.429509361972789,
      "b": 7.429509361972789,
      "c": 5.87072886,
      "alpha": 90.0,
      "beta": 90.0,
      "gamma": 119.99998719442793,
      "volume": 280.63574001627376
    },
    "properties": {},
    "sites": [
      {
        "species": [{ "element": "Nd", "occu": 1 }],
        "abc": [0.16807001, 0.33614201, 0.25],
        "properties": { "magmom": 0.146 },
        "label": "Nd",
        "xyz": [1.8730243240399078, 1.0813993545669602, 1.467682215]
      },
      {
        "species": [{ "element": "Nd", "occu": 1 }],
        "abc": [0.66385799, 0.83192999, 0.25],
        "properties": { "magmom": 0.146 },
        "label": "Nd",
        "xyz": [5.556486475960092, 1.08139935456696, 1.467682215]
      },
      {
        "species": [{ "element": "Nd", "occu": 1 }],
        "abc": [0.16807001, 0.83192999, 0.25],
        "properties": { "magmom": 0.146 },
        "label": "Nd",
        "xyz": [3.7147554, 4.271370328756931, 1.467682215]
      },
      {
        "species": [{ "element": "Nd", "occu": 1 }],
        "abc": [0.83192999, 0.66385799, 0.75],
        "properties": { "magmom": 0.146 },
        "label": "Nd",
        "xyz": [5.556486475960092, -1.08139935456696, 4.403046645]
      },
      {
        "species": [{ "element": "Nd", "occu": 1 }],
        "abc": [0.33614201, 0.16807001, 0.75],
        "properties": { "magmom": 0.146 },
        "label": "Nd",
        "xyz": [1.8730243240399078, -1.0813993545669602, 4.403046645]
      },
      {
        "species": [{ "element": "Nd", "occu": 1 }],
        "abc": [0.83192999, 0.16807001, 0.75],
        "properties": { "magmom": 0.146 },
        "label": "Nd",
        "xyz": [3.7147554, -4.271370328756931, 4.403046645]
      },
      {
        "species": [{ "element": "Ho", "occu": 1 }],
        "abc": [0.333333, 0.666667, 0.75],
        "properties": { "magmom": 0.227 },
        "label": "Ho",
        "xyz": [3.7147554000000005, 2.1447187660956204, 4.403046645]
      },
      {
        "species": [{ "element": "Ho", "occu": 1 }],
        "abc": [0.666667, 0.333333, 0.25],
        "properties": { "magmom": 0.227 },
        "label": "Ho",
        "xyz": [3.7147554000000005, -2.1447187660956204, 1.467682215]
      }
    ]
  },
  "task_ids": null,
  "uncorrected_energy_per_atom": null,
  "energy_per_atom": -30.26063250875,
  "formation_energy_per_atom": 0.023210206875003,
  "energy_above_hull": 0.023210206875003,
  "is_stable": false,
  "equilibrium_reaction_energy_per_atom": null,
  "decomposes_to": null,
  "xas": null,
  "grain_boundaries": null,
  "band_gap": 0.0,
  "cbm": null,
  "vbm": null,
  "efermi": 3.24364579,
  "is_gap_direct": null,
  "is_metal": null,
  "es_source_calc_id": null,
  "bandstructure": null,
  "dos": null,
  "dos_energy_up": null,
  "dos_energy_down": null,
  "is_magnetic": null,
  "ordering": null,
  "total_magnetization": 2.5321051,
  "total_magnetization_normalized_vol": null,
  "total_magnetization_normalized_formula_units": null,
  "num_magnetic_sites": null,
  "num_unique_magnetic_sites": null,
  "types_of_magnetic_species": null,
  "bulk_modulus": null,
  "shear_modulus": null,
  "universal_anisotropy": null,
  "homogeneous_poisson": null,
  "e_total": null,
  "e_ionic": null,
  "e_electronic": null,
  "n": null,
  "e_ij_max": null,
  "weighted_surface_energy_EV_PER_ANG2": null,
  "weighted_surface_energy": null,
  "weighted_work_function": null,
  "surface_anisotropy": null,
  "shape_factor": null,
  "has_reconstructed": null,
  "possible_species": null,
  "has_props": null,
  "theoretical": null,
  "database_IDs": null,
  "fields_not_requested": [
    "builder_meta",
    "nsites",
    "elements",
    "nelements",
    "composition",
    "composition_reduced",
    "chemsys",
    "symmetry",
    "property_name",
    "deprecated",
    "deprecation_reasons",
    "last_updated",
    "origins",
    "warnings",
    "task_ids",
    "uncorrected_energy_per_atom",
    "equilibrium_reaction_energy_per_atom",
    "decomposes_to",
    "xas",
    "grain_boundaries",
    "cbm",
    "vbm",
    "is_gap_direct",
    "is_metal",
    "es_source_calc_id",
    "bandstructure",
    "dos",
    "dos_energy_up",
    "dos_energy_down",
    "is_magnetic",
    "ordering",
    "total_magnetization_normalized_vol",
    "total_magnetization_normalized_formula_units",
    "num_magnetic_sites",
    "num_unique_magnetic_sites",
    "types_of_magnetic_species",
    "bulk_modulus",
    "shear_modulus",
    "universal_anisotropy",
    "homogeneous_poisson",
    "e_total",
    "e_ionic",
    "e_electronic",
    "n",
    "e_ij_max",
    "weighted_surface_energy_EV_PER_ANG2",
    "weighted_surface_energy",
    "weighted_work_function",
    "surface_anisotropy",
    "shape_factor",
    "has_reconstructed",
    "possible_species",
    "has_props",
    "theoretical",
    "database_IDs"
  ]
}
