{
  "builder_meta": null,
  "nsites": null,
  "elements": null,
  "nelements": null,
  "composition": null,
  "composition_reduced": null,
  "formula_pretty": "Nd3I",
  "formula_anonymous": "AB3",
  "chemsys": null,
  "volume": 252.2541651333337,
  "density": 7.367872461519329,
  "density_atomic": 31.53177064166671,
  "symmetry": null,
  "property_name": null,
  "material_id": "mp-976581",
  "deprecated": null,
  "deprecation_reasons": null,
  "last_updated": null,
  "origins": null,
  "warnings": null,
  "structure": {
    "@module": "pymatgen.core.structure",
    "@class": "Structure",
    "charge": 0,
    "lattice": {
      "matrix": [
        [3.54174, -6.134474, 0.0],
        [3.54174, 6.134474, 0.0],
        [0.0, 0.0, 5.805162]
      ],
      "pbc": [true, true, true],
      "a": 7.083480322855142,
      "b": 7.083480322855142,
      "c": 5.805162,
      "alpha": 90.0,
      "beta": 90.0,
      "gamma": 120.00000301545614,
      "volume": 252.2541651333337
    },
    "properties": {},
    "sites": [
      {
        "species": [{ "element": "Nd", "occu": 1 }],
        "abc": [0.833484999999999, 0.166515, 0.75],
        "properties": { "magmom": -0.0 },
        "label": "Nd",
        "xyz": [3.5417399999999963, -4.091510123779994, 4.3538715]
      },
      {
        "species": [{ "element": "Nd", "occu": 1 }],
        "abc": [0.333030999999999, 0.166515, 0.75],
        "properties": { "magmom": 0.002 },
        "label": "Nd",
        "xyz": [1.7692620500399965, -1.021488072583994, 4.3538715]
      },
      {
        "species": [{ "element": "Nd", "occu": 1 }],
        "abc": [0.833484999999999, 0.666968999999999, 0.75],
        "properties": { "magmom": -0.0 },
        "label": "Nd",
        "xyz": [5.314217949959993, -1.0214880725839999, 4.3538715]
      },
      {
        "species": [{ "element": "Nd", "occu": 1 }],
        "abc": [0.166515, 0.833484999999999, 0.25],
        "properties": { "magmom": -0.0 },
        "label": "Nd",
        "xyz": [3.5417399999999963, 4.091510123779994, 1.4512905]
      },
      {
        "species": [{ "element": "Nd", "occu": 1 }],
        "abc": [0.666968999999999, 0.833484999999999, 0.25],
        "properties": { "magmom": 0.002 },
        "label": "Nd",
        "xyz": [5.314217949959993, 1.0214880725839999, 1.4512905]
      },
      {
        "species": [{ "element": "Nd", "occu": 1 }],
        "abc": [0.166515, 0.333030999999999, 0.25],
        "properties": { "magmom": -0.0 },
        "label": "Nd",
        "xyz": [1.7692620500399965, 1.021488072583994, 1.4512905]
      },
      {
        "species": [{ "element": "I", "occu": 1 }],
        "abc": [0.666667, 0.333333, 0.25],
        "properties": { "magmom": 0.0 },
        "label": "I",
        "xyz": [3.54174, -2.044828756316, 1.4512905]
      },
      {
        "species": [{ "element": "I", "occu": 1 }],
        "abc": [0.333333, 0.666667, 0.75],
        "properties": { "magmom": 0.0 },
        "label": "I",
        "xyz": [3.54174, 2.044828756316, 4.3538715]
      }
    ]
  },
  "task_ids": null,
  "uncorrected_energy_per_atom": null,
  "energy_per_atom": -4.190373488750001,
  "formation_energy_per_atom": -0.233259760624999,
  "energy_above_hull": 0.3509137828125,
  "is_stable": false,
  "equilibrium_reaction_energy_per_atom": null,
  "decomposes_to": null,
  "xas": null,
  "grain_boundaries": null,
  "band_gap": 0.0,
  "cbm": null,
  "vbm": null,
  "efermi": 5.23170137,
  "is_gap_direct": null,
  "is_metal": null,
  "es_source_calc_id": null,
  "bandstructure": null,
  "dos": null,
  "dos_energy_up": null,
  "dos_energy_down": null,
  "is_magnetic": null,
  "ordering": null,
  "total_magnetization": 0.0012813,
  "total_magnetization_normalized_vol": null,
  "total_magnetization_normalized_formula_units": null,
  "num_magnetic_sites": null,
  "num_unique_magnetic_sites": null,
  "types_of_magnetic_species": null,
  "bulk_modulus": null,
  "shear_modulus": null,
  "universal_anisotropy": null,
  "homogeneous_poisson": null,
  "e_total": null,
  "e_ionic": null,
  "e_electronic": null,
  "n": null,
  "e_ij_max": null,
  "weighted_surface_energy_EV_PER_ANG2": null,
  "weighted_surface_energy": null,
  "weighted_work_function": null,
  "surface_anisotropy": null,
  "shape_factor": null,
  "has_reconstructed": null,
  "possible_species": null,
  "has_props": null,
  "theoretical": null,
  "database_IDs": null,
  "fields_not_requested": [
    "builder_meta",
    "nsites",
    "elements",
    "nelements",
    "composition",
    "composition_reduced",
    "chemsys",
    "symmetry",
    "property_name",
    "deprecated",
    "deprecation_reasons",
    "last_updated",
    "origins",
    "warnings",
    "task_ids",
    "uncorrected_energy_per_atom",
    "equilibrium_reaction_energy_per_atom",
    "decomposes_to",
    "xas",
    "grain_boundaries",
    "cbm",
    "vbm",
    "is_gap_direct",
    "is_metal",
    "es_source_calc_id",
    "bandstructure",
    "dos",
    "dos_energy_up",
    "dos_energy_down",
    "is_magnetic",
    "ordering",
    "total_magnetization_normalized_vol",
    "total_magnetization_normalized_formula_units",
    "num_magnetic_sites",
    "num_unique_magnetic_sites",
    "types_of_magnetic_species",
    "bulk_modulus",
    "shear_modulus",
    "universal_anisotropy",
    "homogeneous_poisson",
    "e_total",
    "e_ionic",
    "e_electronic",
    "n",
    "e_ij_max",
    "weighted_surface_energy_EV_PER_ANG2",
    "weighted_surface_energy",
    "weighted_work_function",
    "surface_anisotropy",
    "shape_factor",
    "has_reconstructed",
    "possible_species",
    "has_props",
    "theoretical",
    "database_IDs"
  ]
}
