{
  "builder_meta": null,
  "nsites": null,
  "elements": null,
  "nelements": null,
  "composition": null,
  "composition_reduced": null,
  "formula_pretty": "Nd3Ir",
  "formula_anonymous": "AB3",
  "chemsys": null,
  "volume": 479.0426306945629,
  "density": 8.665134995552137,
  "density_atomic": 29.94016441841018,
  "symmetry": null,
  "property_name": null,
  "material_id": "mp-1189686",
  "deprecated": null,
  "deprecation_reasons": null,
  "last_updated": null,
  "origins": null,
  "warnings": null,
  "structure": {
    "@module": "pymatgen.core.structure",
    "@class": "Structure",
    "charge": 0,
    "lattice": {
      "matrix": [
        [0.0, 0.0, 6.57892157],
        [7.35462087, 0.0, 0.0],
        [0.0, 9.90054643, 0.0]
      ],
      "pbc": [true, true, true],
      "a": 6.57892157,
      "b": 7.35462087,
      "c": 9.90054643,
      "alpha": 90.0,
      "beta": 90.0,
      "gamma": 90.0,
      "volume": 479.0426306945629
    },
    "properties": {},
    "sites": [
      {
        "species": [{ "element": "Nd", "occu": 1 }],
        "abc": [0.32418299, 0.6693968100000001, 0.06591381],
        "properties": { "magmom": -0.053 },
        "label": "Nd",
        "xyz": [4.923159749137425, 0.6525827362831984, 2.1327744655380942]
      },
      {
        "species": [{ "element": "Nd", "occu": 1 }],
        "abc": [0.17581701, 0.16939681, 0.43408619],
        "properties": { "magmom": -0.053 },
        "label": "Nd",
        "xyz": [1.2458493141374247, 4.2976904787168015, 1.1566863194619057]
      },
      {
        "species": [{ "element": "Nd", "occu": 1 }],
        "abc": [0.67581701, 0.33060319, 0.56591381],
        "properties": { "magmom": -0.053 },
        "label": "Nd",
        "xyz": [2.431461120862575, 5.602855951283198, 4.4461471044619065]
      },
      {
        "species": [{ "element": "Nd", "occu": 1 }],
        "abc": [0.8241829900000001, 0.83060319, 0.93408619],
        "properties": { "magmom": -0.053 },
        "label": "Nd",
        "xyz": [6.1087715558625755, 9.247963693716802, 5.422235250538095]
      },
      {
        "species": [{ "element": "Nd", "occu": 1 }],
        "abc": [0.67581701, 0.33060319, 0.93408619],
        "properties": { "magmom": -0.053 },
        "label": "Nd",
        "xyz": [2.431461120862575, 9.247963693716802, 4.4461471044619065]
      },
      {
        "species": [{ "element": "Nd", "occu": 1 }],
        "abc": [0.8241829900000001, 0.83060319, 0.56591381],
        "properties": { "magmom": -0.053 },
        "label": "Nd",
        "xyz": [6.1087715558625755, 5.602855951283198, 5.422235250538095]
      },
      {
        "species": [{ "element": "Nd", "occu": 1 }],
        "abc": [0.32418299, 0.6693968100000001, 0.43408619],
        "properties": { "magmom": -0.053 },
        "label": "Nd",
        "xyz": [4.923159749137425, 4.2976904787168015, 2.1327744655380942]
      },
      {
        "species": [{ "element": "Nd", "occu": 1 }],
        "abc": [0.17581701, 0.16939681, 0.06591381],
        "properties": { "magmom": -0.053 },
        "label": "Nd",
        "xyz": [1.2458493141374247, 0.6525827362831984, 1.1566863194619057]
      },
      {
        "species": [{ "element": "Nd", "occu": 1 }],
        "abc": [0.85683893, 0.54012023, 0.25],
        "properties": { "magmom": -0.08 },
        "label": "Nd",
        "xyz": [3.9723795158671997, 2.4751366075, 5.63707611859272]
      },
      {
        "species": [{ "element": "Nd", "occu": 1 }],
        "abc": [0.64316107, 0.04012023, 0.25],
        "properties": { "magmom": -0.08 },
        "label": "Nd",
        "xyz": [0.2950690808672001, 2.4751366075, 4.23130623640728]
      },
      {
        "species": [{ "element": "Nd", "occu": 1 }],
        "abc": [0.14316107, 0.45987977, 0.75],
        "properties": { "magmom": -0.08 },
        "label": "Nd",
        "xyz": [3.3822413541328, 7.425409822500001, 0.9418454514072799]
      },
      {
        "species": [{ "element": "Nd", "occu": 1 }],
        "abc": [0.35683893, 0.95987977, 0.75],
        "properties": { "magmom": -0.08 },
        "label": "Nd",
        "xyz": [7.0595517891328, 7.425409822500001, 2.3476153335927203]
      },
      {
        "species": [{ "element": "Ir", "occu": 1 }],
        "abc": [0.05968125, 0.88009876, 0.25],
        "properties": { "magmom": -0.011 },
        "label": "Ir",
        "xyz": [6.472792707957121, 2.4751366075, 0.3926382629495625]
      },
      {
        "species": [{ "element": "Ir", "occu": 1 }],
        "abc": [0.44031875000000004, 0.38009876000000004, 0.25],
        "properties": { "magmom": -0.011 },
        "label": "Ir",
        "xyz": [2.795482272957121, 2.4751366075, 2.8968225220504378]
      },
      {
        "species": [{ "element": "Ir", "occu": 1 }],
        "abc": [0.94031875, 0.11990124, 0.75],
        "properties": { "magmom": -0.011 },
        "label": "Ir",
        "xyz": [0.8818281620428788, 7.425409822500001, 6.186283307050438]
      },
      {
        "species": [{ "element": "Ir", "occu": 1 }],
        "abc": [0.55968125, 0.61990124, 0.75],
        "properties": { "magmom": -0.011 },
        "label": "Ir",
        "xyz": [4.559138597042879, 7.425409822500001, 3.682099047949563]
      }
    ]
  },
  "task_ids": null,
  "uncorrected_energy_per_atom": null,
  "energy_per_atom": -35.668901665625,
  "formation_energy_per_atom": -0.515556566249998,
  "energy_above_hull": 0.001531630937499,
  "is_stable": false,
  "equilibrium_reaction_energy_per_atom": null,
  "decomposes_to": null,
  "xas": null,
  "grain_boundaries": null,
  "band_gap": 0.0,
  "cbm": null,
  "vbm": null,
  "efermi": 4.10235113,
  "is_gap_direct": null,
  "is_metal": null,
  "es_source_calc_id": null,
  "bandstructure": null,
  "dos": null,
  "dos_energy_up": null,
  "dos_energy_down": null,
  "is_magnetic": null,
  "ordering": null,
  "total_magnetization": 1.8845774,
  "total_magnetization_normalized_vol": null,
  "total_magnetization_normalized_formula_units": null,
  "num_magnetic_sites": null,
  "num_unique_magnetic_sites": null,
  "types_of_magnetic_species": null,
  "bulk_modulus": null,
  "shear_modulus": null,
  "universal_anisotropy": null,
  "homogeneous_poisson": null,
  "e_total": null,
  "e_ionic": null,
  "e_electronic": null,
  "n": null,
  "e_ij_max": null,
  "weighted_surface_energy_EV_PER_ANG2": null,
  "weighted_surface_energy": null,
  "weighted_work_function": null,
  "surface_anisotropy": null,
  "shape_factor": null,
  "has_reconstructed": null,
  "possible_species": null,
  "has_props": null,
  "theoretical": null,
  "database_IDs": null,
  "fields_not_requested": [
    "builder_meta",
    "nsites",
    "elements",
    "nelements",
    "composition",
    "composition_reduced",
    "chemsys",
    "symmetry",
    "property_name",
    "deprecated",
    "deprecation_reasons",
    "last_updated",
    "origins",
    "warnings",
    "task_ids",
    "uncorrected_energy_per_atom",
    "equilibrium_reaction_energy_per_atom",
    "decomposes_to",
    "xas",
    "grain_boundaries",
    "cbm",
    "vbm",
    "is_gap_direct",
    "is_metal",
    "es_source_calc_id",
    "bandstructure",
    "dos",
    "dos_energy_up",
    "dos_energy_down",
    "is_magnetic",
    "ordering",
    "total_magnetization_normalized_vol",
    "total_magnetization_normalized_formula_units",
    "num_magnetic_sites",
    "num_unique_magnetic_sites",
    "types_of_magnetic_species",
    "bulk_modulus",
    "shear_modulus",
    "universal_anisotropy",
    "homogeneous_poisson",
    "e_total",
    "e_ionic",
    "e_electronic",
    "n",
    "e_ij_max",
    "weighted_surface_energy_EV_PER_ANG2",
    "weighted_surface_energy",
    "weighted_work_function",
    "surface_anisotropy",
    "shape_factor",
    "has_reconstructed",
    "possible_species",
    "has_props",
    "theoretical",
    "database_IDs"
  ]
}
