{
  "builder_meta": null,
  "nsites": null,
  "elements": null,
  "nelements": null,
  "composition": null,
  "composition_reduced": null,
  "formula_pretty": "Nd3In5",
  "formula_anonymous": "A3B5",
  "chemsys": null,
  "volume": 444.70365798380965,
  "density": 7.518972560098944,
  "density_atomic": 27.793978623988103,
  "symmetry": null,
  "property_name": null,
  "material_id": "mp-1188947",
  "deprecated": null,
  "deprecation_reasons": null,
  "last_updated": null,
  "origins": null,
  "warnings": null,
  "structure": {
    "@module": "pymatgen.core.structure",
    "@class": "Structure",
    "charge": 0,
    "lattice": {
      "matrix": [
        [5.08667524, 4.15119632, 0.0],
        [-5.08667628, 4.15119737, 0.0],
        [-0.0, -0.0, 10.53012007]
      ],
      "pbc": [true, true, true],
      "a": 6.5655689688259775,
      "b": 6.565570438447033,
      "c": 10.53012007,
      "alpha": 90.0,
      "beta": 90.0,
      "gamma": 101.56476186632334,
      "volume": 444.70365798380965
    },
    "properties": {},
    "sites": [
      {
        "species": [{ "element": "Nd", "occu": 1 }],
        "abc": [0.63308146, 0.63308146, 0.25],
        "properties": { "magmom": 0.0 },
        "label": "Nd",
        "xyz": [-6.584047183011421e-7, 5.2560915187599875, 2.6325300175]
      },
      {
        "species": [{ "element": "Nd", "occu": 1 }],
        "abc": [0.36691854, 0.36691854, 0.75],
        "properties": { "magmom": 0.0 },
        "label": "Nd",
        "xyz": [-3.815952813734924e-7, 3.046302171240013, 7.8975900525]
      },
      {
        "species": [{ "element": "Nd", "occu": 1 }],
        "abc": [0.79761686, 0.20238214000000002, 0.5],
        "properties": { "magmom": -0.0 },
        "label": "Nd",
        "xyz": [3.0277655017349074, 4.151192381304927, 5.265060035]
      },
      {
        "species": [{ "element": "Nd", "occu": 1 }],
        "abc": [0.79761686, 0.20238314000000002, -0.0],
        "properties": { "magmom": -0.0 },
        "label": "Nd",
        "xyz": [3.0277604150586273, 4.151196532502297, 0.0]
      },
      {
        "species": [{ "element": "Nd", "occu": 1 }],
        "abc": [0.20238314000000002, 0.79761686, 0.5],
        "properties": { "magmom": -0.0 },
        "label": "Nd",
        "xyz": [-3.027761455058627, 4.151197157497704, 5.265060035]
      },
      {
        "species": [{ "element": "Nd", "occu": 1 }],
        "abc": [0.20238314000000002, 0.79761786, -0.0],
        "properties": { "magmom": -0.0 },
        "label": "Nd",
        "xyz": [-3.0277665417349073, 4.151201308695073, 0.0]
      },
      {
        "species": [{ "element": "In", "occu": 1 }],
        "abc": [0.01361568, 0.01361668, 0.25],
        "properties": { "magmom": 0.0 },
        "label": "In",
        "xyz": [-5.100836587210167e-6, 0.11304688691442921, 2.6325300175]
      },
      {
        "species": [{ "element": "In", "occu": 1 }],
        "abc": [0.98638432, 0.9863833200000001, 0.75],
        "properties": { "magmom": 0.0 },
        "label": "In",
        "xyz": [4.060836586994299e-6, 8.18934680308557, 7.8975900525]
      },
      {
        "species": [{ "element": "In", "occu": 1 }],
        "abc": [0.30976709, 0.30976709, 0.050192270000000004],
        "properties": { "magmom": 0.0 },
        "label": "In",
        "xyz": [-3.2215777356903175e-7, 2.5718083333856625, 0.528530629685859]
      },
      {
        "species": [{ "element": "In", "occu": 1 }],
        "abc": [0.69023291, 0.69023291, 0.9498077300000001],
        "properties": { "magmom": 0.0 },
        "label": "In",
        "xyz": [-7.178422261056028e-7, 5.730585356614338, 10.001589440314142]
      },
      {
        "species": [{ "element": "In", "occu": 1 }],
        "abc": [0.30976709, 0.30976709, 0.44980773],
        "properties": { "magmom": 0.0 },
        "label": "In",
        "xyz": [-3.2215777356903175e-7, 2.5718083333856625, 4.736529405314141]
      },
      {
        "species": [{ "element": "In", "occu": 1 }],
        "abc": [0.69023291, 0.69023291, 0.55019227],
        "properties": { "magmom": 0.0 },
        "label": "In",
        "xyz": [-7.178422261056028e-7, 5.730585356614338, 5.793590664685859]
      },
      {
        "species": [{ "element": "In", "occu": 1 }],
        "abc": [0.07971646, 0.50218165, 0.25],
        "properties": { "magmom": 0.0 },
        "label": "In",
        "xyz": [-2.148943744003812, 2.4155738201376877, 2.6325300175]
      },
      {
        "species": [{ "element": "In", "occu": 1 }],
        "abc": [0.49781835, 0.92028354, 0.75],
        "properties": { "magmom": 0.0 },
        "label": "In",
        "xyz": [-2.148944178829777, 5.886820313450762, 7.8975900525]
      },
      {
        "species": [{ "element": "In", "occu": 1 }],
        "abc": [0.92028354, 0.49781835, 0.75],
        "properties": { "magmom": 0.0 },
        "label": "In",
        "xyz": [2.1489427040038116, 5.886819869862313, 7.8975900525]
      },
      {
        "species": [{ "element": "In", "occu": 1 }],
        "abc": [0.50218165, 0.07971646, 0.25],
        "properties": { "magmom": 0.0 },
        "label": "In",
        "xyz": [2.1489431388297775, 2.415573376549238, 2.6325300175]
      }
    ]
  },
  "task_ids": null,
  "uncorrected_energy_per_atom": null,
  "energy_per_atom": -25.8093495225,
  "formation_energy_per_atom": -0.6659771665624981,
  "energy_above_hull": 0.0,
  "is_stable": true,
  "equilibrium_reaction_energy_per_atom": null,
  "decomposes_to": null,
  "xas": null,
  "grain_boundaries": null,
  "band_gap": 0.0,
  "cbm": null,
  "vbm": null,
  "efermi": 5.88942163,
  "is_gap_direct": null,
  "is_metal": null,
  "es_source_calc_id": null,
  "bandstructure": null,
  "dos": null,
  "dos_energy_up": null,
  "dos_energy_down": null,
  "is_magnetic": null,
  "ordering": null,
  "total_magnetization": 4e-7,
  "total_magnetization_normalized_vol": null,
  "total_magnetization_normalized_formula_units": null,
  "num_magnetic_sites": null,
  "num_unique_magnetic_sites": null,
  "types_of_magnetic_species": null,
  "bulk_modulus": null,
  "shear_modulus": null,
  "universal_anisotropy": null,
  "homogeneous_poisson": null,
  "e_total": null,
  "e_ionic": null,
  "e_electronic": null,
  "n": null,
  "e_ij_max": null,
  "weighted_surface_energy_EV_PER_ANG2": null,
  "weighted_surface_energy": null,
  "weighted_work_function": null,
  "surface_anisotropy": null,
  "shape_factor": null,
  "has_reconstructed": null,
  "possible_species": null,
  "has_props": null,
  "theoretical": null,
  "database_IDs": null,
  "fields_not_requested": [
    "builder_meta",
    "nsites",
    "elements",
    "nelements",
    "composition",
    "composition_reduced",
    "chemsys",
    "symmetry",
    "property_name",
    "deprecated",
    "deprecation_reasons",
    "last_updated",
    "origins",
    "warnings",
    "task_ids",
    "uncorrected_energy_per_atom",
    "equilibrium_reaction_energy_per_atom",
    "decomposes_to",
    "xas",
    "grain_boundaries",
    "cbm",
    "vbm",
    "is_gap_direct",
    "is_metal",
    "es_source_calc_id",
    "bandstructure",
    "dos",
    "dos_energy_up",
    "dos_energy_down",
    "is_magnetic",
    "ordering",
    "total_magnetization_normalized_vol",
    "total_magnetization_normalized_formula_units",
    "num_magnetic_sites",
    "num_unique_magnetic_sites",
    "types_of_magnetic_species",
    "bulk_modulus",
    "shear_modulus",
    "universal_anisotropy",
    "homogeneous_poisson",
    "e_total",
    "e_ionic",
    "e_electronic",
    "n",
    "e_ij_max",
    "weighted_surface_energy_EV_PER_ANG2",
    "weighted_surface_energy",
    "weighted_work_function",
    "surface_anisotropy",
    "shape_factor",
    "has_reconstructed",
    "possible_species",
    "has_props",
    "theoretical",
    "database_IDs"
  ]
}
