{"builder_meta": null, "nsites": null, "elements": null, "nelements": null, "composition": null, "composition_reduced": null, "formula_pretty": "Nd3Np", "formula_anonymous": "AB3", "chemsys": null, "volume": 278.2105200217696, "density": 7.994709810619173, "density_atomic": 34.7763150027212, "symmetry": null, "property_name": null, "material_id": "mp-1186353", "deprecated": null, "deprecation_reasons": null, "last_updated": null, "origins": null, "warnings": null, "structure": {"@module": "pymatgen.core.structure", "@class": "Structure", "charge": 0, "lattice": {"matrix": [[3.67393, -6.363433, 0.0], [3.67393, 6.363433, 0.0], [0.0, 0.0, 5.950058]], "pbc": [true, true, true], "a": 7.347859633280224, "b": 7.347859633280224, "c": 5.950058, "alpha": 90.0, "beta": 90.0, "gamma": 119.9999966980881, "volume": 278.2105200217696}, "properties": {}, "sites": [{"species": [{"element": "Nd", "occu": 1}], "abc": [0.830657, 0.169343, 0.75], "properties": {"magmom": 0.085}, "label": "Nd", "xyz": [3.6739299999999995, -4.208227330962, 4.462543500000001]}, {"species": [{"element": "Nd", "occu": 1}], "abc": [0.338686, 0.169343, 0.75], "properties": {"magmom": 0.088}, "label": "Nd", "xyz": [1.8664629839699998, -1.0776028345189999, 4.462543500000001]}, {"species": [{"element": "Nd", "occu": 1}], "abc": [0.830657, 0.661314, 0.75], "properties": {"magmom": 0.08600000000000001}, "label": "Nd", "xyz": [5.48139701603, -1.0776028345190003, 4.462543500000001]}, {"species": [{"element": "Nd", "occu": 1}], "abc": [0.169343, 0.830657, 0.25], "properties": {"magmom": 0.089}, "label": "Nd", "xyz": [3.6739299999999995, 4.208227330962, 1.4875145]}, {"species": [{"element": "Nd", "occu": 1}], "abc": [0.661314, 0.830657, 0.25], "properties": {"magmom": 0.085}, "label": "Nd", "xyz": [5.48139701603, 1.0776028345190003, 1.4875145]}, {"species": [{"element": "Nd", "occu": 1}], "abc": [0.169343, 0.338686, 0.25], "properties": {"magmom": 0.089}, "label": "Nd", "xyz": [1.8664629839699998, 1.0776028345189999, 1.4875145]}, {"species": [{"element": "Np", "occu": 1}], "abc": [0.666667, 0.333333, 0.25], "properties": {"magmom": 4.181}, "label": "Np", "xyz": [3.67393, -2.121148575622, 1.4875145]}, {"species": [{"element": "Np", "occu": 1}], "abc": [0.333333, 0.666667, 0.75], "properties": {"magmom": 4.185}, "label": "Np", "xyz": [3.67393, 2.121148575622, 4.462543500000001]}]}, "task_ids": null, "uncorrected_energy_per_atom": null, "energy_per_atom": -42.41971394000001, "formation_energy_per_atom": 0.399845679687494, "energy_above_hull": 0.399845679687494, "is_stable": false, "equilibrium_reaction_energy_per_atom": null, "decomposes_to": null, "xas": null, "grain_boundaries": null, "band_gap": 0.0, "cbm": null, "vbm": null, "efermi": 4.82372779, "is_gap_direct": null, "is_metal": null, "es_source_calc_id": null, "bandstructure": null, "dos": null, "dos_energy_up": null, "dos_energy_down": null, "is_magnetic": null, "ordering": null, "total_magnetization": 10.3428373, "total_magnetization_normalized_vol": null, "total_magnetization_normalized_formula_units": null, "num_magnetic_sites": null, "num_unique_magnetic_sites": null, "types_of_magnetic_species": null, "bulk_modulus": null, "shear_modulus": null, "universal_anisotropy": null, "homogeneous_poisson": null, "e_total": null, "e_ionic": null, "e_electronic": null, "n": null, "e_ij_max": null, "weighted_surface_energy_EV_PER_ANG2": null, "weighted_surface_energy": null, "weighted_work_function": null, "surface_anisotropy": null, "shape_factor": null, "has_reconstructed": null, "possible_species": null, "has_props": null, "theoretical": null, "database_IDs": null, "fields_not_requested": ["builder_meta", "nsites", "elements", "nelements", "composition", "composition_reduced", "chemsys", "symmetry", "property_name", "deprecated", "deprecation_reasons", "last_updated", "origins", "warnings", "task_ids", "uncorrected_energy_per_atom", "equilibrium_reaction_energy_per_atom", "decomposes_to", "xas", "grain_boundaries", "cbm", "vbm", "is_gap_direct", "is_metal", "es_source_calc_id", "bandstructure", "dos", "dos_energy_up", "dos_energy_down", "is_magnetic", "ordering", "total_magnetization_normalized_vol", "total_magnetization_normalized_formula_units", "num_magnetic_sites", "num_unique_magnetic_sites", "types_of_magnetic_species", "bulk_modulus", "shear_modulus", "universal_anisotropy", "homogeneous_poisson", "e_total", "e_ionic", "e_electronic", "n", "e_ij_max", "weighted_surface_energy_EV_PER_ANG2", "weighted_surface_energy", "weighted_work_function", "surface_anisotropy", "shape_factor", "has_reconstructed", "possible_species", "has_props", "theoretical", "database_IDs"]}