{
  "builder_meta": null,
  "nsites": null,
  "elements": null,
  "nelements": null,
  "composition": null,
  "composition_reduced": null,
  "formula_pretty": "Nd3Ni",
  "formula_anonymous": "AB3",
  "chemsys": null,
  "volume": 457.1295534819716,
  "density": 7.140392526096561,
  "density_atomic": 28.570597092623224,
  "symmetry": null,
  "property_name": null,
  "material_id": "mp-1188200",
  "deprecated": null,
  "deprecation_reasons": null,
  "last_updated": null,
  "origins": null,
  "warnings": null,
  "structure": {
    "@module": "pymatgen.core.structure",
    "@class": "Structure",
    "charge": 0,
    "lattice": {
      "matrix": [
        [-0.0, 0.0, 6.55364392],
        [6.98755183, 0.0, -0.0],
        [0.0, 9.98231835, 0.0]
      ],
      "pbc": [true, true, true],
      "a": 6.55364392,
      "b": 6.98755183,
      "c": 9.98231835,
      "alpha": 90.0,
      "beta": 90.0,
      "gamma": 90.0,
      "volume": 457.1295534819716
    },
    "properties": {},
    "sites": [
      {
        "species": [{ "element": "Nd", "occu": 1 }],
        "abc": [0.32313575, 0.6715088300000001, 0.06724665],
        "properties": { "magmom": -0.0 },
        "label": "Nd",
        "xyz": [4.692202753927659, 0.6712774682710275, 2.11771664332214]
      },
      {
        "species": [{ "element": "Nd", "occu": 1 }],
        "abc": [0.17686425, 0.17150883, 0.43275335000000004],
        "properties": { "magmom": -0.0 },
        "label": "Nd",
        "xyz": [1.1984268389276589, 4.319881706728973, 1.15910531667786]
      },
      {
        "species": [{ "element": "Nd", "occu": 1 }],
        "abc": [0.6768642500000001, 0.32849117, 0.56724665],
        "properties": { "magmom": -0.0 },
        "label": "Nd",
        "xyz": [2.295349076072341, 5.662436643271027, 4.435927276677861]
      },
      {
        "species": [{ "element": "Nd", "occu": 1 }],
        "abc": [0.82313575, 0.82849117, 0.93275335],
        "properties": { "magmom": -0.0 },
        "label": "Nd",
        "xyz": [5.789124991072342, 9.311040881728973, 5.3945386033221405]
      },
      {
        "species": [{ "element": "Nd", "occu": 1 }],
        "abc": [0.6768642500000001, 0.32849117, 0.93275335],
        "properties": { "magmom": -0.0 },
        "label": "Nd",
        "xyz": [2.295349076072341, 9.311040881728973, 4.435927276677861]
      },
      {
        "species": [{ "element": "Nd", "occu": 1 }],
        "abc": [0.82313575, 0.82849117, 0.56724665],
        "properties": { "magmom": -0.0 },
        "label": "Nd",
        "xyz": [5.789124991072342, 5.662436643271027, 5.3945386033221405]
      },
      {
        "species": [{ "element": "Nd", "occu": 1 }],
        "abc": [0.32313575, 0.6715088300000001, 0.43275335000000004],
        "properties": { "magmom": -0.0 },
        "label": "Nd",
        "xyz": [4.692202753927659, 4.319881706728973, 2.11771664332214]
      },
      {
        "species": [{ "element": "Nd", "occu": 1 }],
        "abc": [0.17686425, 0.17150883, 0.06724665],
        "properties": { "magmom": -0.0 },
        "label": "Nd",
        "xyz": [1.1984268389276589, 0.6712774682710275, 1.15910531667786]
      },
      {
        "species": [{ "element": "Nd", "occu": 1 }],
        "abc": [0.8566453900000001, 0.53460924, 0.25],
        "properties": { "magmom": -0.0 },
        "label": "Nd",
        "xyz": [3.7356097732969094, 2.4955795875, 5.614148851769529]
      },
      {
        "species": [{ "element": "Nd", "occu": 1 }],
        "abc": [0.64335461, 0.03460924, 0.25],
        "properties": { "magmom": -0.0 },
        "label": "Nd",
        "xyz": [0.2418338582969092, 2.4955795875, 4.216317028230471]
      },
      {
        "species": [{ "element": "Nd", "occu": 1 }],
        "abc": [0.14335461, 0.46539076, 0.75],
        "properties": { "magmom": -0.0 },
        "label": "Nd",
        "xyz": [3.2519420567030908, 7.4867387625, 0.9394950682304711]
      },
      {
        "species": [{ "element": "Nd", "occu": 1 }],
        "abc": [0.35664539, 0.96539076, 0.75],
        "properties": { "magmom": -0.0 },
        "label": "Nd",
        "xyz": [6.745717971703091, 7.4867387625, 2.337326891769529]
      },
      {
        "species": [{ "element": "Ni", "occu": 1 }],
        "abc": [0.06402868, 0.88558395, 0.25],
        "properties": { "magmom": -0.0 },
        "label": "Ni",
        "xyz": [6.188063750441128, 2.4955795875, 0.4196211693876256]
      },
      {
        "species": [{ "element": "Ni", "occu": 1 }],
        "abc": [0.43597132, 0.38558395, 0.25],
        "properties": { "magmom": -0.0 },
        "label": "Ni",
        "xyz": [2.694287835441129, 2.4955795875, 2.8572007906123744]
      },
      {
        "species": [{ "element": "Ni", "occu": 1 }],
        "abc": [0.93597132, 0.11441605, 0.75],
        "properties": { "magmom": -0.0 },
        "label": "Ni",
        "xyz": [0.7994880795588716, 7.4867387625, 6.134022750612375]
      },
      {
        "species": [{ "element": "Ni", "occu": 1 }],
        "abc": [0.5640286800000001, 0.61441605, 0.75],
        "properties": { "magmom": -0.0 },
        "label": "Ni",
        "xyz": [4.293263994558871, 7.4867387625, 3.696443129387626]
      }
    ]
  },
  "task_ids": null,
  "uncorrected_energy_per_atom": null,
  "energy_per_atom": -5.190313333125001,
  "formation_energy_per_atom": -0.16916858874999902,
  "energy_above_hull": 0.0,
  "is_stable": true,
  "equilibrium_reaction_energy_per_atom": null,
  "decomposes_to": null,
  "xas": null,
  "grain_boundaries": null,
  "band_gap": 0.0,
  "cbm": null,
  "vbm": null,
  "efermi": 3.84677816,
  "is_gap_direct": null,
  "is_metal": null,
  "es_source_calc_id": null,
  "bandstructure": null,
  "dos": null,
  "dos_energy_up": null,
  "dos_energy_down": null,
  "is_magnetic": null,
  "ordering": null,
  "total_magnetization": 6.99e-5,
  "total_magnetization_normalized_vol": null,
  "total_magnetization_normalized_formula_units": null,
  "num_magnetic_sites": null,
  "num_unique_magnetic_sites": null,
  "types_of_magnetic_species": null,
  "bulk_modulus": null,
  "shear_modulus": null,
  "universal_anisotropy": null,
  "homogeneous_poisson": null,
  "e_total": null,
  "e_ionic": null,
  "e_electronic": null,
  "n": null,
  "e_ij_max": null,
  "weighted_surface_energy_EV_PER_ANG2": null,
  "weighted_surface_energy": null,
  "weighted_work_function": null,
  "surface_anisotropy": null,
  "shape_factor": null,
  "has_reconstructed": null,
  "possible_species": null,
  "has_props": null,
  "theoretical": null,
  "database_IDs": null,
  "fields_not_requested": [
    "builder_meta",
    "nsites",
    "elements",
    "nelements",
    "composition",
    "composition_reduced",
    "chemsys",
    "symmetry",
    "property_name",
    "deprecated",
    "deprecation_reasons",
    "last_updated",
    "origins",
    "warnings",
    "task_ids",
    "uncorrected_energy_per_atom",
    "equilibrium_reaction_energy_per_atom",
    "decomposes_to",
    "xas",
    "grain_boundaries",
    "cbm",
    "vbm",
    "is_gap_direct",
    "is_metal",
    "es_source_calc_id",
    "bandstructure",
    "dos",
    "dos_energy_up",
    "dos_energy_down",
    "is_magnetic",
    "ordering",
    "total_magnetization_normalized_vol",
    "total_magnetization_normalized_formula_units",
    "num_magnetic_sites",
    "num_unique_magnetic_sites",
    "types_of_magnetic_species",
    "bulk_modulus",
    "shear_modulus",
    "universal_anisotropy",
    "homogeneous_poisson",
    "e_total",
    "e_ionic",
    "e_electronic",
    "n",
    "e_ij_max",
    "weighted_surface_energy_EV_PER_ANG2",
    "weighted_surface_energy",
    "weighted_work_function",
    "surface_anisotropy",
    "shape_factor",
    "has_reconstructed",
    "possible_species",
    "has_props",
    "theoretical",
    "database_IDs"
  ]
}
