{
  "builder_meta": null,
  "nsites": null,
  "elements": null,
  "nelements": null,
  "composition": null,
  "composition_reduced": null,
  "formula_pretty": "Nd3Os",
  "formula_anonymous": "AB3",
  "chemsys": null,
  "volume": 472.5739818388166,
  "density": 8.75581656652179,
  "density_atomic": 29.53587386492604,
  "symmetry": null,
  "property_name": null,
  "material_id": "mp-1188656",
  "deprecated": null,
  "deprecation_reasons": null,
  "last_updated": null,
  "origins": null,
  "warnings": null,
  "structure": {
    "@module": "pymatgen.core.structure",
    "@class": "Structure",
    "charge": 0,
    "lattice": {
      "matrix": [
        [-0.00022164, 5.5530000000000005e-5, 6.59153424],
        [7.47061995, -8.625000000000002e-5, -0.0002516],
        [-0.00011407, 9.5968046, 8.193e-5]
      ],
      "pbc": [true, true, true],
      "a": 6.591534243960221,
      "b": 7.470619954734655,
      "c": 9.59680460102766,
      "alpha": 90.00134254107705,
      "beta": 89.99902814562861,
      "gamma": 90.00385621469033,
      "volume": 472.5739818388166
    },
    "properties": {},
    "sites": [
      {
        "species": [{ "element": "Nd", "occu": 1 }],
        "abc": [0.3266154, 0.67261256, 0.06655442],
        "properties": { "magmom": 0.0 },
        "label": "Nd",
        "xyz": [5.024752826456626, 0.6386698881261941, 2.1527328158948302]
      },
      {
        "species": [{ "element": "Nd", "occu": 1 }],
        "abc": [0.17337535, 0.1726084, 0.43345084],
        "properties": { "magmom": 0.0 },
        "label": "Nd",
        "xyz": [1.289403885927687, 4.159737755244549, 1.1428016402508652]
      },
      {
        "species": [{ "element": "Nd", "occu": 1 }],
        "abc": [0.6733865800000001, 0.32736187, 0.56660547],
        "properties": { "magmom": 0.0 },
        "label": "Nd",
        "xyz": [2.4453822348037524, 5.437611139076663, 4.438614756566165]
      },
      {
        "species": [{ "element": "Nd", "occu": 1 }],
        "abc": [0.82662399, 0.8273631300000001, 0.93339836],
        "properties": { "magmom": 0.0 },
        "label": "Nd",
        "xyz": [6.180625819180375, 8.957616217240659, 5.448588642454544]
      },
      {
        "species": [{ "element": "Nd", "occu": 1 }],
        "abc": [0.67338729, 0.32735449, 0.93339768],
        "properties": { "magmom": 0.0 },
        "label": "Nd",
        "xyz": [2.4452852614837624, 8.95764430792478, 4.438649489698046]
      },
      {
        "species": [{ "element": "Nd", "occu": 1 }],
        "abc": [0.82662142, 0.82736692, 0.56660151],
        "properties": { "magmom": 0.0 },
        "label": "Nd",
        "xyz": [6.180695973916279, 5.437538519425549, 5.448541649592063]
      },
      {
        "species": [{ "element": "Nd", "occu": 1 }],
        "abc": [0.32661091000000003, 0.6726139, 0.43344514],
        "properties": { "magmom": 0.0 },
        "label": "Nd",
        "xyz": [5.024720986858092, 4.159648437154601, 2.152733278925639]
      },
      {
        "species": [{ "element": "Nd", "occu": 1 }],
        "abc": [0.17337656, 0.17261017, 0.06654993000000001],
        "properties": { "magmom": 0.0 },
        "label": "Nd",
        "xyz": [1.289458961043618, 0.6386614143268924, 1.1427795553704072]
      },
      {
        "species": [{ "element": "Nd", "occu": 1 }],
        "abc": [0.86208461, 0.54662342, 0.25000996000000003],
        "properties": { "magmom": 0.0 },
        "label": "Nd",
        "xyz": [4.083396235520131, 2.3992974594622347, 5.682343177455597]
      },
      {
        "species": [{ "element": "Nd", "occu": 1 }],
        "abc": [0.63792582, 0.04661304, 0.2500147],
        "properties": { "magmom": 0.0 },
        "label": "Nd",
        "xyz": [0.3480583974985742, 2.3993736266737042, 4.204918640973584]
      },
      {
        "species": [{ "element": "Nd", "occu": 1 }],
        "abc": [0.13792349, 0.45338687, 0.74998792],
        "properties": { "magmom": 0.0 },
        "label": "Nd",
        "xyz": [3.386964875605698, 7.197456074874295, 0.9090747812090912]
      },
      {
        "species": [{ "element": "Nd", "occu": 1 }],
        "abc": [0.36206528, 0.95339353, 0.749986399999999],
        "properties": { "magmom": 0.0 },
        "label": "Nd",
        "xyz": [7.122274926321616, 7.197410808750467, 2.3863872628087908]
      },
      {
        "species": [{ "element": "Os", "occu": 1 }],
        "abc": [0.04304499, 0.88824852, 0.2500186],
        "properties": { "magmom": -0.0 },
        "label": "Os",
        "xyz": [6.635729053956688, 2.3993054294190044, 0.28352952614172355]
      },
      {
        "species": [{ "element": "Os", "occu": 1 }],
        "abc": [0.45696781000000003, 0.38824327000000003, 0.25001791],
        "properties": { "magmom": -0.0 },
        "label": "Os",
        "xyz": [2.9002881164268346, 2.399364918210838, 3.0120417681534484]
      },
      {
        "species": [{ "element": "Os", "occu": 1 }],
        "abc": [0.95700576, 0.11179945000000001, 0.74997737],
        "properties": { "magmom": -0.0 },
        "label": "Os",
        "xyz": [0.8349135408937852, 7.197429774139192, 6.308169551821527]
      },
      {
        "species": [{ "element": "Os", "occu": 1 }],
        "abc": [0.54298473, 0.61180045, 0.74998279],
        "properties": { "magmom": -0.0 },
        "label": "Os",
        "xyz": [4.570322749516564, 7.197415673146079, 3.5790099566889197]
      }
    ]
  },
  "task_ids": null,
  "uncorrected_energy_per_atom": null,
  "energy_per_atom": -35.456730738125,
  "formation_energy_per_atom": -0.14691678875000402,
  "energy_above_hull": 0.0,
  "is_stable": true,
  "equilibrium_reaction_energy_per_atom": null,
  "decomposes_to": null,
  "xas": null,
  "grain_boundaries": null,
  "band_gap": 0.0,
  "cbm": null,
  "vbm": null,
  "efermi": 3.98171766,
  "is_gap_direct": null,
  "is_metal": null,
  "es_source_calc_id": null,
  "bandstructure": null,
  "dos": null,
  "dos_energy_up": null,
  "dos_energy_down": null,
  "is_magnetic": null,
  "ordering": null,
  "total_magnetization": 8.3e-6,
  "total_magnetization_normalized_vol": null,
  "total_magnetization_normalized_formula_units": null,
  "num_magnetic_sites": null,
  "num_unique_magnetic_sites": null,
  "types_of_magnetic_species": null,
  "bulk_modulus": null,
  "shear_modulus": null,
  "universal_anisotropy": null,
  "homogeneous_poisson": null,
  "e_total": null,
  "e_ionic": null,
  "e_electronic": null,
  "n": null,
  "e_ij_max": null,
  "weighted_surface_energy_EV_PER_ANG2": null,
  "weighted_surface_energy": null,
  "weighted_work_function": null,
  "surface_anisotropy": null,
  "shape_factor": null,
  "has_reconstructed": null,
  "possible_species": null,
  "has_props": null,
  "theoretical": null,
  "database_IDs": null,
  "fields_not_requested": [
    "builder_meta",
    "nsites",
    "elements",
    "nelements",
    "composition",
    "composition_reduced",
    "chemsys",
    "symmetry",
    "property_name",
    "deprecated",
    "deprecation_reasons",
    "last_updated",
    "origins",
    "warnings",
    "task_ids",
    "uncorrected_energy_per_atom",
    "equilibrium_reaction_energy_per_atom",
    "decomposes_to",
    "xas",
    "grain_boundaries",
    "cbm",
    "vbm",
    "is_gap_direct",
    "is_metal",
    "es_source_calc_id",
    "bandstructure",
    "dos",
    "dos_energy_up",
    "dos_energy_down",
    "is_magnetic",
    "ordering",
    "total_magnetization_normalized_vol",
    "total_magnetization_normalized_formula_units",
    "num_magnetic_sites",
    "num_unique_magnetic_sites",
    "types_of_magnetic_species",
    "bulk_modulus",
    "shear_modulus",
    "universal_anisotropy",
    "homogeneous_poisson",
    "e_total",
    "e_ionic",
    "e_electronic",
    "n",
    "e_ij_max",
    "weighted_surface_energy_EV_PER_ANG2",
    "weighted_surface_energy",
    "weighted_work_function",
    "surface_anisotropy",
    "shape_factor",
    "has_reconstructed",
    "possible_species",
    "has_props",
    "theoretical",
    "database_IDs"
  ]
}
