{"builder_meta": null, "nsites": null, "elements": null, "nelements": null, "composition": null, "composition_reduced": null, "formula_pretty": "Nd3Pt4", "formula_anonymous": "A3B4", "chemsys": null, "volume": 312.72487233185194, "density": 12.88248565704355, "density_atomic": 22.337490880846566, "symmetry": null, "property_name": null, "material_id": "mp-1103688", "deprecated": null, "deprecation_reasons": null, "last_updated": null, "origins": null, "warnings": null, "structure": {"@module": "pymatgen.core.structure", "@class": "Structure", "charge": 0, "lattice": {"matrix": [[4.39319241, -6.8323123500000005, -0.00558488], [4.39319248, 6.83231231, -0.00558492], [-6.22580906, 4e-08, 5.21727605]], "pbc": [true, true, true], "a": 8.122848194453024, "b": 8.122848198694685, "c": 8.122848504895416, "alpha": 114.51773137589491, "beta": 114.5177312960902, "gamma": 114.51773751366284, "volume": 312.72487233185194}, "properties": {}, "sites": [{"species": [{"element": "Nd", "occu": 1}], "abc": [0.28269134, 0.40600556, 0.03093645], "properties": {"magmom": 0.0}, "label": "Nd", "xyz": [2.832973591596681, 0.8425212532338523, 0.1575576938739281]}, {"species": [{"element": "Nd", "occu": 1}], "abc": [0.40600556, 0.03093645, 0.28269134], "properties": {"magmom": 0.0}, "label": "Nd", "xyz": [0.1595880183521552, -2.562589302286313, 1.47243848779414]}, {"species": [{"element": "Nd", "occu": 1}], "abc": [0.03093645, 0.28269134, 0.40600556], "properties": {"magmom": 0.0}, "label": "Nd", "xyz": [-1.1498858474769056, 1.7200680490524602, 2.116491499475369]}, {"species": [{"element": "Nd", "occu": 1}], "abc": [0.71730866, 0.59399444, 0.96906355], "properties": {"magmom": 0.0}, "label": "Nd", "xyz": [-0.2723977615966806, -0.8425212532338527, 5.048548556126071]}, {"species": [{"element": "Nd", "occu": 1}], "abc": [0.59399444, 0.96906355, 0.71730866], "properties": {"magmom": 0.0}, "label": "Nd", "xyz": [2.400987811647844, 2.5625893022863124, 3.73366776220586]}, {"species": [{"element": "Nd", "occu": 1}], "abc": [0.96906355, 0.71730866, 0.59399444], "properties": {"magmom": 0.0}, "label": "Nd", "xyz": [3.7104616774769066, -1.7200680490524598, 3.0896147505246305]}, {"species": [{"element": "Pt", "occu": 1}], "abc": [0.0, 0.0, 0.0], "properties": {"magmom": 0.0}, "label": "Pt", "xyz": [0.0, 0.0, 0.0]}, {"species": [{"element": "Pt", "occu": 1}], "abc": [0.5, 0.5, 0.5], "properties": {"magmom": 0.0}, "label": "Pt", "xyz": [1.2802879150000006, -3.225397900131684e-16, 2.6030531249999997]}, {"species": [{"element": "Pt", "occu": 1}], "abc": [0.55553068, 0.22174932, 0.05725163], "properties": {"magmom": -0.0}, "label": "Pt", "xyz": [3.058302895213485, -2.2804985147077046, 0.29435653362608866]}, {"species": [{"element": "Pt", "occu": 1}], "abc": [0.22174932, 0.05725163, 0.55553068], "properties": {"magmom": -0.0}, "label": "Pt", "xyz": [-2.2329230807215574, -1.1238995790023094, 2.896798722688513]}, {"species": [{"element": "Pt", "occu": 1}], "abc": [0.05725163, 0.55553068, 0.22174932], "properties": {"magmom": -0.0}, "label": "Pt", "xyz": [1.311501706656576, 3.4043980937100136, 1.153505078451086]}, {"species": [{"element": "Pt", "occu": 1}], "abc": [0.44446932, 0.77825068, 0.94274837], "properties": {"magmom": -0.0}, "label": "Pt", "xyz": [-0.49772706521348464, 2.280498514707703, 4.911749716373911]}, {"species": [{"element": "Pt", "occu": 1}], "abc": [0.77825068, 0.94274837, 0.44446932], "properties": {"magmom": -0.0}, "label": "Pt", "xyz": [4.793498910721557, 1.1238995790023096, 2.3093075273114874]}, {"species": [{"element": "Pt", "occu": 1}], "abc": [0.94274837, 0.44446932, 0.77825068], "properties": {"magmom": -0.0}, "label": "Pt", "xyz": [1.2490741233434255, -3.404398093710014, 4.052601171548914]}]}, "task_ids": null, "uncorrected_energy_per_atom": null, "energy_per_atom": -6.597785094285712, "formation_energy_per_atom": -1.085074297499996, "energy_above_hull": 0.011984774285719, "is_stable": false, "equilibrium_reaction_energy_per_atom": null, "decomposes_to": null, "xas": null, "grain_boundaries": null, "band_gap": 0.0, "cbm": null, "vbm": null, "efermi": 5.14772239, "is_gap_direct": null, "is_metal": null, "es_source_calc_id": null, "bandstructure": null, "dos": null, "dos_energy_up": null, "dos_energy_down": null, "is_magnetic": null, "ordering": null, "total_magnetization": 1e-07, "total_magnetization_normalized_vol": null, "total_magnetization_normalized_formula_units": null, "num_magnetic_sites": null, "num_unique_magnetic_sites": null, "types_of_magnetic_species": null, "bulk_modulus": null, "shear_modulus": null, "universal_anisotropy": null, "homogeneous_poisson": null, "e_total": null, "e_ionic": null, "e_electronic": null, "n": null, "e_ij_max": null, "weighted_surface_energy_EV_PER_ANG2": null, "weighted_surface_energy": null, "weighted_work_function": null, "surface_anisotropy": null, "shape_factor": null, "has_reconstructed": null, "possible_species": null, "has_props": null, "theoretical": null, "database_IDs": null, "fields_not_requested": ["builder_meta", "nsites", "elements", "nelements", "composition", "composition_reduced", "chemsys", "symmetry", "property_name", "deprecated", "deprecation_reasons", "last_updated", "origins", "warnings", "task_ids", "uncorrected_energy_per_atom", "equilibrium_reaction_energy_per_atom", "decomposes_to", "xas", "grain_boundaries", "cbm", "vbm", "is_gap_direct", "is_metal", "es_source_calc_id", "bandstructure", "dos", "dos_energy_up", "dos_energy_down", "is_magnetic", "ordering", "total_magnetization_normalized_vol", "total_magnetization_normalized_formula_units", "num_magnetic_sites", "num_unique_magnetic_sites", "types_of_magnetic_species", "bulk_modulus", "shear_modulus", "universal_anisotropy", "homogeneous_poisson", "e_total", "e_ionic", "e_electronic", "n", "e_ij_max", "weighted_surface_energy_EV_PER_ANG2", "weighted_surface_energy", "weighted_work_function", "surface_anisotropy", "shape_factor", "has_reconstructed", "possible_species", "has_props", "theoretical", "database_IDs"]}