{
  "builder_meta": null,
  "nsites": null,
  "elements": null,
  "nelements": null,
  "composition": null,
  "composition_reduced": null,
  "formula_pretty": "Nd3Pt2",
  "formula_anonymous": "A2B3",
  "chemsys": null,
  "volume": 398.14120728160543,
  "density": 10.29620353040411,
  "density_atomic": 26.54274715210703,
  "symmetry": null,
  "property_name": null,
  "material_id": "mp-1103985",
  "deprecated": null,
  "deprecation_reasons": null,
  "last_updated": null,
  "origins": null,
  "warnings": null,
  "structure": {
    "@module": "pymatgen.core.structure",
    "@class": "Structure",
    "charge": 0,
    "lattice": {
      "matrix": [
        [4.49289004, 2.59580637, 5.69142569],
        [-4.49461278, 2.59318164, 5.6915165],
        [0.00163122, -5.18897539, 5.69148258]
      ],
      "pbc": [true, true, true],
      "a": 7.701726949642902,
      "b": 7.70191503003926,
      "c": 7.701846675788074,
      "alpha": 71.39027491582891,
      "beta": 71.38926961006608,
      "gamma": 71.38940419509069,
      "volume": 398.14120728160543
    },
    "properties": {},
    "sites": [
      {
        "species": [{ "element": "Nd", "occu": 1 }],
        "abc": [-0.0, 0.0, -0.0],
        "properties": { "magmom": -0.0 },
        "label": "Nd",
        "xyz": [0.0, 0.0, 0.0]
      },
      {
        "species": [{ "element": "Nd", "occu": 1 }],
        "abc": [0.80118808, 0.8012741600000001, 0.80123352],
        "properties": { "magmom": -0.0 },
        "label": "Nd",
        "xyz": [
          -0.0004601468785480206, -2.454972580778758e-6, 13.680574145289496
        ]
      },
      {
        "species": [{ "element": "Nd", "occu": 1 }],
        "abc": [0.19881192, 0.19872584000000001, 0.19876648],
        "properties": { "magmom": -0.0 },
        "label": "Nd",
        "xyz": [
          0.0003686268785471878, 1.5074972580908508e-5, 3.3938506247105034
        ]
      },
      {
        "species": [{ "element": "Nd", "occu": 1 }],
        "abc": [0.60389616, 0.33313472, 0.83840534],
        "properties": { "magmom": -0.0 },
        "label": "Nd",
        "xyz": [1.2172950960432398, -1.9189883376075025, 10.104841262308208]
      },
      {
        "species": [{ "element": "Nd", "occu": 1 }],
        "abc": [0.33316907, 0.83842086, 0.60388677],
        "properties": { "magmom": 0.0 },
        "label": "Nd",
        "xyz": [-2.2705000439585685, -0.09453361293860407, 10.105104194493064]
      },
      {
        "species": [{ "element": "Nd", "occu": 1 }],
        "abc": [0.83837183, 0.6039228, 0.33315819],
        "properties": { "magmom": -0.0 },
        "label": "Nd",
        "xyz": [1.0528567641128812, 2.013582804793005, 10.104931586729844]
      },
      {
        "species": [{ "element": "Nd", "occu": 1 }],
        "abc": [0.39610284, 0.6668672800000001, 0.16159666],
        "properties": { "magmom": -0.0 },
        "label": "Nd",
        "xyz": [-1.2174000948963999, 1.918993170213633, 6.969600582264262]
      },
      {
        "species": [{ "element": "Nd", "occu": 1 }],
        "abc": [0.66682893, 0.16158114, 0.39611223],
        "properties": { "magmom": 0.0 },
        "label": "Nd",
        "xyz": [2.2703905473217083, 0.0945514166645336, 6.969314884205975]
      },
      {
        "species": [{ "element": "Nd", "occu": 1 }],
        "abc": [0.16162817000000002, 0.3960762, 0.6668408100000001],
        "properties": { "magmom": -0.0 },
        "label": "Nd",
        "xyz": [-1.0529437911313206, -2.0135675889992557, 6.969481800271077]
      },
      {
        "species": [{ "element": "Pt", "occu": 1 }],
        "abc": [0.95721307, 0.16655296, 0.58826274],
        "properties": { "magmom": 0.0 },
        "label": "Pt",
        "xyz": [3.553021591744736, -0.1358390182010587, 9.743933114538677]
      },
      {
        "species": [{ "element": "Pt", "occu": 1 }],
        "abc": [0.166578199999999, 0.58827951, 0.95720993],
        "properties": { "magmom": 0.0 },
        "label": "Pt",
        "xyz": [-1.8941096482149995, -3.0090183926502956, 9.744213626648886]
      },
      {
        "species": [{ "element": "Pt", "occu": 1 }],
        "abc": [0.5882525200000001, 0.95721985, 0.16655189],
        "properties": { "magmom": 0.0 },
        "label": "Pt",
        "xyz": [-1.6591070001927761, 3.1450009206801193, 9.74395525553884]
      },
      {
        "species": [{ "element": "Pt", "occu": 1 }],
        "abc": [0.04278693, 0.83344704, 0.41173626],
        "properties": { "magmom": 0.0 },
        "label": "Pt",
        "xyz": [-3.5531131133759573, 0.1358568271764482, 7.330485963978742]
      },
      {
        "species": [{ "element": "Pt", "occu": 1 }],
        "abc": [0.8334218, 0.41171849, 0.04279007],
        "properties": { "magmom": 0.0 },
        "label": "Pt",
        "xyz": [1.894027117440555, 3.009025826287012, 7.3301997603181075]
      },
      {
        "species": [{ "element": "Pt", "occu": 1 }],
        "abc": [0.41174848000000003, 0.04277915, 0.83344811],
        "properties": { "magmom": 0.0 },
        "label": "Pt",
        "xyz": [1.6590244676955963, -3.14498829805539, 7.33046951437035]
      }
    ]
  },
  "task_ids": null,
  "uncorrected_energy_per_atom": null,
  "energy_per_atom": -6.222277075333333,
  "formation_energy_per_atom": -0.9329352878333321,
  "energy_above_hull": 0.006927050916666001,
  "is_stable": false,
  "equilibrium_reaction_energy_per_atom": null,
  "decomposes_to": null,
  "xas": null,
  "grain_boundaries": null,
  "band_gap": 0.0,
  "cbm": null,
  "vbm": null,
  "efermi": 4.58074242,
  "is_gap_direct": null,
  "is_metal": null,
  "es_source_calc_id": null,
  "bandstructure": null,
  "dos": null,
  "dos_energy_up": null,
  "dos_energy_down": null,
  "is_magnetic": null,
  "ordering": null,
  "total_magnetization": 7e-7,
  "total_magnetization_normalized_vol": null,
  "total_magnetization_normalized_formula_units": null,
  "num_magnetic_sites": null,
  "num_unique_magnetic_sites": null,
  "types_of_magnetic_species": null,
  "bulk_modulus": null,
  "shear_modulus": null,
  "universal_anisotropy": null,
  "homogeneous_poisson": null,
  "e_total": null,
  "e_ionic": null,
  "e_electronic": null,
  "n": null,
  "e_ij_max": null,
  "weighted_surface_energy_EV_PER_ANG2": null,
  "weighted_surface_energy": null,
  "weighted_work_function": null,
  "surface_anisotropy": null,
  "shape_factor": null,
  "has_reconstructed": null,
  "possible_species": null,
  "has_props": null,
  "theoretical": null,
  "database_IDs": null,
  "fields_not_requested": [
    "builder_meta",
    "nsites",
    "elements",
    "nelements",
    "composition",
    "composition_reduced",
    "chemsys",
    "symmetry",
    "property_name",
    "deprecated",
    "deprecation_reasons",
    "last_updated",
    "origins",
    "warnings",
    "task_ids",
    "uncorrected_energy_per_atom",
    "equilibrium_reaction_energy_per_atom",
    "decomposes_to",
    "xas",
    "grain_boundaries",
    "cbm",
    "vbm",
    "is_gap_direct",
    "is_metal",
    "es_source_calc_id",
    "bandstructure",
    "dos",
    "dos_energy_up",
    "dos_energy_down",
    "is_magnetic",
    "ordering",
    "total_magnetization_normalized_vol",
    "total_magnetization_normalized_formula_units",
    "num_magnetic_sites",
    "num_unique_magnetic_sites",
    "types_of_magnetic_species",
    "bulk_modulus",
    "shear_modulus",
    "universal_anisotropy",
    "homogeneous_poisson",
    "e_total",
    "e_ionic",
    "e_electronic",
    "n",
    "e_ij_max",
    "weighted_surface_energy_EV_PER_ANG2",
    "weighted_surface_energy",
    "weighted_work_function",
    "surface_anisotropy",
    "shape_factor",
    "has_reconstructed",
    "possible_species",
    "has_props",
    "theoretical",
    "database_IDs"
  ]
}
