{"builder_meta": null, "nsites": null, "elements": null, "nelements": null, "composition": null, "composition_reduced": null, "formula_pretty": "Nd3Pd4", "formula_anonymous": "A3B4", "chemsys": null, "volume": 313.81906744482393, "density": 9.0843218011567, "density_atomic": 22.415647674630282, "symmetry": null, "property_name": null, "material_id": "mp-1104199", "deprecated": null, "deprecation_reasons": null, "last_updated": null, "origins": null, "warnings": null, "structure": {"@module": "pymatgen.core.structure", "@class": "Structure", "charge": 0, "lattice": {"matrix": [[1e-08, 0.0, -5.81158601], [4.957e-05, -7.89636065, 1.937195679999999], [-6.83847489, 3.9481368100000003, 1.937195679999999]], "pbc": [true, true, true], "a": 5.81158601, "b": 8.130512814081058, "c": 8.130513525863428, "alpha": 114.5096452333063, "beta": 103.78400865748785, "gamma": 103.78400980265398, "volume": 313.81906744482393}, "properties": {}, "sites": [{"species": [{"element": "Nd", "occu": 1}], "abc": [0.40552325, 0.12430485000000001, 0.37653415], "properties": {"magmom": -0.0}, "label": "Nd", "xyz": [-2.5749131641558463, 0.505052411692909, -1.3865100992542128]}, {"species": [{"element": "Nd", "occu": 1}], "abc": [0.028990099999999002, 0.62346585, 0.74777169], "properties": {"magmom": -0.0}, "label": "Nd", "xyz": [-5.113587020025778, -1.9708062697938935, 2.487876979153331]}, {"species": [{"element": "Nd", "occu": 1}], "abc": [0.2812184, 0.25222831, 0.87569515], "properties": {"magmom": -0.0}, "label": "Nd", "xyz": [-5.9884067888002726, 1.4656785541534703, 0.5506835348880676]}, {"species": [{"element": "Nd", "occu": 1}], "abc": [0.59447675, 0.87569515, 0.62346585], "properties": {"magmom": -0.0}, "label": "Nd", "xyz": [-4.263512145844153, -4.453276251692909, -0.5506845507457894]}, {"species": [{"element": "Nd", "occu": 1}], "abc": [0.9710099, 0.37653415, 0.25222831], "properties": {"magmom": -0.0}, "label": "Nd", "xyz": [-1.7248382899742214, -1.9774175702061065, -4.425071629153327]}, {"species": [{"element": "Nd", "occu": 1}], "abc": [0.7187816, 0.74777169, 0.12430485000000001], "properties": {"magmom": -0.0}, "label": "Nd", "xyz": [-0.8500185211997272, -5.41390239415347, -2.4878781848880696]}, {"species": [{"element": "Pd", "occu": 1}], "abc": [-0.0, 0.0, -0.0], "properties": {"magmom": -0.0}, "label": "Pd", "xyz": [0.0, 0.0, 0.0]}, {"species": [{"element": "Pd", "occu": 1}], "abc": [0.5, 0.0, -0.0], "properties": {"magmom": 0.0}, "label": "Pd", "xyz": [5e-09, 0.0, -2.905793005]}, {"species": [{"element": "Pd", "occu": 1}], "abc": [0.22156292, 0.66658658, 0.16453337], "properties": {"magmom": 0.0}, "label": "Pd", "xyz": [-1.1251242743996797, -4.6140077855597275, 0.322410010495066]}, {"species": [{"element": "Pd", "occu": 1}], "abc": [0.057028550000000004, 0.83546663, 0.50205422], "properties": {"magmom": 0.0}, "label": "Pd", "xyz": [-3.433243762237401, -4.614967074922271, 2.2596132891793412]}, {"species": [{"element": "Pd", "occu": 1}], "abc": [0.55497433, 0.49794578, 0.33341342], "properties": {"magmom": 0.0}, "label": "Pd", "xyz": [-2.280014611936966, -2.6155976665755665, -1.6147756013688679]}, {"species": [{"element": "Pd", "occu": 1}], "abc": [0.77843708, 0.33341342, 0.83546663], "properties": {"magmom": 0.0}, "label": "Pd", "xyz": [-5.7133010356003195, 0.6657839455597276, -2.259604660495068]}, {"species": [{"element": "Pd", "occu": 1}], "abc": [0.94297145, 0.16453337, 0.49794578], "properties": {"magmom": 0.0}, "label": "Pd", "xyz": [-3.4051815477625986, 0.6667432349222715, -4.196807939179344]}, {"species": [{"element": "Pd", "occu": 1}], "abc": [0.44502567, 0.50205422, 0.66658658], "properties": {"magmom": 0.0}, "label": "Pd", "xyz": [-4.558410698063034, -1.332626173424433, -0.3224190486311338]}]}, "task_ids": null, "uncorrected_energy_per_atom": null, "energy_per_atom": -5.821351947857145, "formation_energy_per_atom": -0.817927728214286, "energy_above_hull": 0.0, "is_stable": true, "equilibrium_reaction_energy_per_atom": null, "decomposes_to": null, "xas": null, "grain_boundaries": null, "band_gap": 0.0, "cbm": null, "vbm": null, "efermi": 4.44992372, "is_gap_direct": null, "is_metal": null, "es_source_calc_id": null, "bandstructure": null, "dos": null, "dos_energy_up": null, "dos_energy_down": null, "is_magnetic": null, "ordering": null, "total_magnetization": 1e-07, "total_magnetization_normalized_vol": null, "total_magnetization_normalized_formula_units": null, "num_magnetic_sites": null, "num_unique_magnetic_sites": null, "types_of_magnetic_species": null, "bulk_modulus": null, "shear_modulus": null, "universal_anisotropy": null, "homogeneous_poisson": null, "e_total": null, "e_ionic": null, "e_electronic": null, "n": null, "e_ij_max": null, "weighted_surface_energy_EV_PER_ANG2": null, "weighted_surface_energy": null, "weighted_work_function": null, "surface_anisotropy": null, "shape_factor": null, "has_reconstructed": null, "possible_species": null, "has_props": null, "theoretical": null, "database_IDs": null, "fields_not_requested": ["builder_meta", "nsites", "elements", "nelements", "composition", "composition_reduced", "chemsys", "symmetry", "property_name", "deprecated", "deprecation_reasons", "last_updated", "origins", "warnings", "task_ids", "uncorrected_energy_per_atom", "equilibrium_reaction_energy_per_atom", "decomposes_to", "xas", "grain_boundaries", "cbm", "vbm", "is_gap_direct", "is_metal", "es_source_calc_id", "bandstructure", "dos", "dos_energy_up", "dos_energy_down", "is_magnetic", "ordering", "total_magnetization_normalized_vol", "total_magnetization_normalized_formula_units", "num_magnetic_sites", "num_unique_magnetic_sites", "types_of_magnetic_species", "bulk_modulus", "shear_modulus", "universal_anisotropy", "homogeneous_poisson", "e_total", "e_ionic", "e_electronic", "n", "e_ij_max", "weighted_surface_energy_EV_PER_ANG2", "weighted_surface_energy", "weighted_work_function", "surface_anisotropy", "shape_factor", "has_reconstructed", "possible_species", "has_props", "theoretical", "database_IDs"]}