{
  "builder_meta": null,
  "nsites": null,
  "elements": null,
  "nelements": null,
  "composition": null,
  "composition_reduced": null,
  "formula_pretty": "Nd3Rh2",
  "formula_anonymous": "A2B3",
  "chemsys": null,
  "volume": 380.37721684894393,
  "density": 8.362611536673384,
  "density_atomic": 25.35848112326293,
  "symmetry": null,
  "property_name": null,
  "material_id": "mp-1104743",
  "deprecated": null,
  "deprecation_reasons": null,
  "last_updated": null,
  "origins": null,
  "warnings": null,
  "structure": {
    "@module": "pymatgen.core.structure",
    "@class": "Structure",
    "charge": 0,
    "lattice": {
      "matrix": [
        [4.43520423, 2.56010712, 5.58269163],
        [-4.43480234, 2.5609809500000003, 5.5826957],
        [-0.000431399999999, -5.12099059, 5.58264589]
      ],
      "pbc": [true, true, true],
      "a": 7.575726424796282,
      "b": 7.5757894968069746,
      "c": 7.575650463300719,
      "alpha": 71.66544539842367,
      "beta": 71.66462932158974,
      "gamma": 71.66539074163347,
      "volume": 380.3772168489439
    },
    "properties": {},
    "sites": [
      {
        "species": [{ "element": "Nd", "occu": 1 }],
        "abc": [
          1.2010000000000002e-5, 2.029999999999998e-6, -1.4240000000000001e-5
        ],
        "properties": { "magmom": -0.0 },
        "label": "Nd",
        "xyz": [
          4.4270297188100004e-5, 0.0001088685838413, -1.1158787263000088e-6
        ]
      },
      {
        "species": [{ "element": "Nd", "occu": 1 }],
        "abc": [0.79634088, 0.79633398, 0.7963131800000001],
        "properties": { "magmom": 0.0 },
        "label": "Nd",
        "xyz": [7.11206655828984e-6, 0.00020180797976987463, 13.336950352792552]
      },
      {
        "species": [{ "element": "Nd", "occu": 1 }],
        "abc": [0.20366694, 0.20365584, 0.20368859],
        "properties": { "magmom": 0.0 },
        "label": "Nd",
        "xyz": [
          4.3206754764663495e-5, -0.00011944288150744775, 3.4110795732969956
        ]
      },
      {
        "species": [{ "element": "Nd", "occu": 1 }],
        "abc": [0.39029428, 0.16343238000000002, 0.66709697],
        "properties": { "magmom": 0.0 },
        "label": "Nd",
        "xyz": [1.0059567547121777, -1.9984549290710774, 6.815452013061597]
      },
      {
        "species": [{ "element": "Nd", "occu": 1 }],
        "abc": [0.16343299, 0.66711391, 0.39031722],
        "properties": { "magmom": 0.0 },
        "label": "Nd",
        "xyz": [-2.233828023393709, 0.12806116559694347, 6.815692766135287]
      },
      {
        "species": [{ "element": "Nd", "occu": 1 }],
        "abc": [0.6670974, 0.3903043, 0.16343528000000002],
        "properties": { "magmom": 0.0 },
        "label": "Nd",
        "xyz": [1.2277202813701482, 1.8704521495225577, 6.8155505028492716]
      },
      {
        "species": [{ "element": "Nd", "occu": 1 }],
        "abc": [0.60967788, 0.8365660500000001, 0.33291553],
        "properties": { "magmom": 0.0 },
        "label": "Nd",
        "xyz": [-1.0061027835507665, 1.9984131025663905, 9.932486803044803]
      },
      {
        "species": [{ "element": "Nd", "occu": 1 }],
        "abc": [0.83657778, 0.33288409, 0.60969533],
        "properties": { "magmom": 0.0 },
        "label": "Nd",
        "xyz": [2.2338551447338775, -0.12800550363706487, 9.93245947626809]
      },
      {
        "species": [{ "element": "Nd", "occu": 1 }],
        "abc": [0.33289162, 0.60971164, 0.83655482],
        "properties": { "magmom": 0.0 },
        "label": "Nd",
        "xyz": [-1.2278691763910323, -1.8702912596555512, 9.932455139171779]
      },
      {
        "species": [{ "element": "Rh", "occu": 1 }],
        "abc": [0.16200486, 0.95687584, 0.58992659],
        "properties": { "magmom": 0.0 },
        "label": "Rh",
        "xyz": [-3.5252850682998336, -0.15571792286493658, 9.539721066408426]
      },
      {
        "species": [{ "element": "Rh", "occu": 1 }],
        "abc": [0.95688248, 0.58993328, 0.16199388],
        "properties": { "magmom": 0.0 },
        "label": "Rh",
        "xyz": [1.6276618481611833, 3.130960406784684, 9.539752265919692]
      },
      {
        "species": [{ "element": "Rh", "occu": 1 }],
        "abc": [0.58993347, 0.1619903, 0.95687509],
        "properties": { "magmom": 0.0 },
        "label": "Rh",
        "xyz": [1.897667664151451, -2.975001382437312, 9.539653984909446]
      },
      {
        "species": [{ "element": "Rh", "occu": 1 }],
        "abc": [0.8380029, 0.04311909, 0.410084599999999],
        "properties": { "magmom": 0.0 },
        "label": "Rh",
        "xyz": [3.5253124551051567, 0.1557649812380748, 7.208389640818929]
      },
      {
        "species": [{ "element": "Rh", "occu": 1 }],
        "abc": [0.04312694, 0.41006373, 0.83799525],
        "properties": { "magmom": 0.0 },
        "label": "Rh",
        "xyz": [-1.6276363137890213, -3.1307908027409406, 7.208256167414496]
      },
      {
        "species": [{ "element": "Rh", "occu": 1 }],
        "abc": [0.41005756, 0.83801154, 0.04312091],
        "properties": { "magmom": 0.0 },
        "label": "Rh",
        "xyz": [-1.8977451162440988, 2.9751010944437537, 7.208317099923161]
      }
    ]
  },
  "task_ids": null,
  "uncorrected_energy_per_atom": null,
  "energy_per_atom": -6.4221717080000005,
  "formation_energy_per_atom": -0.6155601004999991,
  "energy_above_hull": 0.0,
  "is_stable": true,
  "equilibrium_reaction_energy_per_atom": null,
  "decomposes_to": null,
  "xas": null,
  "grain_boundaries": null,
  "band_gap": 0.0,
  "cbm": null,
  "vbm": null,
  "efermi": 4.38371324,
  "is_gap_direct": null,
  "is_metal": null,
  "es_source_calc_id": null,
  "bandstructure": null,
  "dos": null,
  "dos_energy_up": null,
  "dos_energy_down": null,
  "is_magnetic": null,
  "ordering": null,
  "total_magnetization": 0.0068156,
  "total_magnetization_normalized_vol": null,
  "total_magnetization_normalized_formula_units": null,
  "num_magnetic_sites": null,
  "num_unique_magnetic_sites": null,
  "types_of_magnetic_species": null,
  "bulk_modulus": null,
  "shear_modulus": null,
  "universal_anisotropy": null,
  "homogeneous_poisson": null,
  "e_total": null,
  "e_ionic": null,
  "e_electronic": null,
  "n": null,
  "e_ij_max": null,
  "weighted_surface_energy_EV_PER_ANG2": null,
  "weighted_surface_energy": null,
  "weighted_work_function": null,
  "surface_anisotropy": null,
  "shape_factor": null,
  "has_reconstructed": null,
  "possible_species": null,
  "has_props": null,
  "theoretical": null,
  "database_IDs": null,
  "fields_not_requested": [
    "builder_meta",
    "nsites",
    "elements",
    "nelements",
    "composition",
    "composition_reduced",
    "chemsys",
    "symmetry",
    "property_name",
    "deprecated",
    "deprecation_reasons",
    "last_updated",
    "origins",
    "warnings",
    "task_ids",
    "uncorrected_energy_per_atom",
    "equilibrium_reaction_energy_per_atom",
    "decomposes_to",
    "xas",
    "grain_boundaries",
    "cbm",
    "vbm",
    "is_gap_direct",
    "is_metal",
    "es_source_calc_id",
    "bandstructure",
    "dos",
    "dos_energy_up",
    "dos_energy_down",
    "is_magnetic",
    "ordering",
    "total_magnetization_normalized_vol",
    "total_magnetization_normalized_formula_units",
    "num_magnetic_sites",
    "num_unique_magnetic_sites",
    "types_of_magnetic_species",
    "bulk_modulus",
    "shear_modulus",
    "universal_anisotropy",
    "homogeneous_poisson",
    "e_total",
    "e_ionic",
    "e_electronic",
    "n",
    "e_ij_max",
    "weighted_surface_energy_EV_PER_ANG2",
    "weighted_surface_energy",
    "weighted_work_function",
    "surface_anisotropy",
    "shape_factor",
    "has_reconstructed",
    "possible_species",
    "has_props",
    "theoretical",
    "database_IDs"
  ]
}
