{"builder_meta": null, "nsites": null, "elements": null, "nelements": null, "composition": null, "composition_reduced": null, "formula_pretty": "Nd3Ru", "formula_anonymous": "AB3", "chemsys": null, "volume": 470.0930640937296, "density": 7.54224369001182, "density_atomic": 29.3808165058581, "symmetry": null, "property_name": null, "material_id": "mp-1106300", "deprecated": null, "deprecation_reasons": null, "last_updated": null, "origins": null, "warnings": null, "structure": {"@module": "pymatgen.core.structure", "@class": "Structure", "charge": 0, "lattice": {"matrix": [[-0.0, 0.0, 6.52028582], [7.38442301, 0.0, -0.0], [0.0, 9.76339012, 0.0]], "pbc": [true, true, true], "a": 6.52028582, "b": 7.38442301, "c": 9.76339012, "alpha": 90.0, "beta": 90.0, "gamma": 90.0, "volume": 470.0930640937296}, "properties": {}, "sites": [{"species": [{"element": "Nd", "occu": 1}], "abc": [0.32630986, 0.67397213, 0.06872187], "properties": {"magmom": -0.0}, "label": "Nd", "xyz": [4.976895304870712, 0.6709584265859244, 2.127633553084185]}, {"species": [{"element": "Nd", "occu": 1}], "abc": [0.17369014, 0.17397213, 0.43127813], "properties": {"magmom": -0.0}, "label": "Nd", "xyz": [1.2846837998707112, 4.210736633414076, 1.1325093569158147]}, {"species": [{"element": "Nd", "occu": 1}], "abc": [0.67369014, 0.32602687, 0.56872187], "properties": {"magmom": -0.0}, "label": "Nd", "xyz": [2.4075203207062787, 5.552653486585924, 4.392652266915815]}, {"species": [{"element": "Nd", "occu": 1}], "abc": [0.8263098600000001, 0.82602787, 0.93127813], "properties": {"magmom": -0.0}, "label": "Nd", "xyz": [6.099739210129289, 9.092431693414076, 5.387776463084186]}, {"species": [{"element": "Nd", "occu": 1}], "abc": [0.67369014, 0.32602687, 0.93127813], "properties": {"magmom": -0.0}, "label": "Nd", "xyz": [2.4075203207062787, 9.092431693414076, 4.392652266915815]}, {"species": [{"element": "Nd", "occu": 1}], "abc": [0.8263098600000001, 0.82602787, 0.56872187], "properties": {"magmom": -0.0}, "label": "Nd", "xyz": [6.099739210129289, 5.552653486585924, 5.387776463084186]}, {"species": [{"element": "Nd", "occu": 1}], "abc": [0.32630986, 0.67397213, 0.43127813], "properties": {"magmom": -0.0}, "label": "Nd", "xyz": [4.976895304870712, 4.210736633414076, 2.127633553084185]}, {"species": [{"element": "Nd", "occu": 1}], "abc": [0.17369014, 0.17397213, 0.06872187], "properties": {"magmom": -0.0}, "label": "Nd", "xyz": [1.2846837998707112, 0.6709584265859244, 1.1325093569158147]}, {"species": [{"element": "Nd", "occu": 1}], "abc": [0.85594482, 0.54600773, 0.25], "properties": {"magmom": -0.0}, "label": "Nd", "xyz": [4.031952045049867, 2.44084753, 5.581004872548452]}, {"species": [{"element": "Nd", "occu": 1}], "abc": [0.6440551800000001, 0.046007730000000004, 0.25], "properties": {"magmom": -0.0}, "label": "Nd", "xyz": [0.3397405400498673, 2.44084753, 4.1994238574515474]}, {"species": [{"element": "Nd", "occu": 1}], "abc": [0.14405518, 0.45399227000000003, 0.75], "properties": {"magmom": -0.0}, "label": "Nd", "xyz": [3.352470964950133, 7.32254259, 0.9392809474515476]}, {"species": [{"element": "Nd", "occu": 1}], "abc": [0.35594482, 0.95399227, 0.75], "properties": {"magmom": -0.0}, "label": "Nd", "xyz": [7.044682469950132, 7.32254259, 2.3208619625484523]}, {"species": [{"element": "Ru", "occu": 1}], "abc": [0.0461528, 0.887487999999999, 0.25], "properties": {"magmom": 0.0}, "label": "Ru", "xyz": [6.553586808298873, 2.44084753, 0.30092944739329597]}, {"species": [{"element": "Ru", "occu": 1}], "abc": [0.4538472, 0.387488, 0.25], "properties": {"magmom": 0.0}, "label": "Ru", "xyz": [2.86137530329888, 2.44084753, 2.959213462606704]}, {"species": [{"element": "Ru", "occu": 1}], "abc": [0.9538472, 0.112512, 0.75], "properties": {"magmom": 0.0}, "label": "Ru", "xyz": [0.83083620170112, 7.32254259, 6.219356372606704]}, {"species": [{"element": "Ru", "occu": 1}], "abc": [0.5461528, 0.612512, 0.75], "properties": {"magmom": 0.0}, "label": "Ru", "xyz": [4.52304770670112, 7.32254259, 3.5610723573932956]}]}, "task_ids": null, "uncorrected_energy_per_atom": null, "energy_per_atom": -28.623574065, "formation_energy_per_atom": -0.20393350437499702, "energy_above_hull": 0.0034322184374990005, "is_stable": false, "equilibrium_reaction_energy_per_atom": null, "decomposes_to": null, "xas": null, "grain_boundaries": null, "band_gap": 0.0, "cbm": null, "vbm": null, "efermi": 3.9823528, "is_gap_direct": null, "is_metal": null, "es_source_calc_id": null, "bandstructure": null, "dos": null, "dos_energy_up": null, "dos_energy_down": null, "is_magnetic": null, "ordering": null, "total_magnetization": 4.5600000000000024e-05, "total_magnetization_normalized_vol": null, "total_magnetization_normalized_formula_units": null, "num_magnetic_sites": null, "num_unique_magnetic_sites": null, "types_of_magnetic_species": null, "bulk_modulus": null, "shear_modulus": null, "universal_anisotropy": null, "homogeneous_poisson": null, "e_total": null, "e_ionic": null, "e_electronic": null, "n": null, "e_ij_max": null, "weighted_surface_energy_EV_PER_ANG2": null, "weighted_surface_energy": null, "weighted_work_function": null, "surface_anisotropy": null, "shape_factor": null, "has_reconstructed": null, "possible_species": null, "has_props": null, "theoretical": null, "database_IDs": null, "fields_not_requested": ["builder_meta", "nsites", "elements", "nelements", "composition", "composition_reduced", "chemsys", "symmetry", "property_name", "deprecated", "deprecation_reasons", "last_updated", "origins", "warnings", "task_ids", "uncorrected_energy_per_atom", "equilibrium_reaction_energy_per_atom", "decomposes_to", "xas", "grain_boundaries", "cbm", "vbm", "is_gap_direct", "is_metal", "es_source_calc_id", "bandstructure", "dos", "dos_energy_up", "dos_energy_down", "is_magnetic", "ordering", "total_magnetization_normalized_vol", "total_magnetization_normalized_formula_units", "num_magnetic_sites", "num_unique_magnetic_sites", "types_of_magnetic_species", "bulk_modulus", "shear_modulus", "universal_anisotropy", "homogeneous_poisson", "e_total", "e_ionic", "e_electronic", "n", "e_ij_max", "weighted_surface_energy_EV_PER_ANG2", "weighted_surface_energy", "weighted_work_function", "surface_anisotropy", "shape_factor", "has_reconstructed", "possible_species", "has_props", "theoretical", "database_IDs"]}