{
  "builder_meta": null,
  "nsites": null,
  "elements": null,
  "nelements": null,
  "composition": null,
  "composition_reduced": null,
  "formula_pretty": "Nd3Sc",
  "formula_anonymous": "AB3",
  "chemsys": null,
  "volume": 265.1862612141451,
  "density": 5.982281832041406,
  "density_atomic": 33.148282651768135,
  "symmetry": null,
  "property_name": null,
  "material_id": "mp-1186283",
  "deprecated": null,
  "deprecation_reasons": null,
  "last_updated": null,
  "origins": null,
  "warnings": null,
  "structure": {
    "@module": "pymatgen.core.structure",
    "@class": "Structure",
    "charge": 0,
    "lattice": {
      "matrix": [
        [3.67340052, -6.36251322, -0.0],
        [3.67340052, 6.36251322, -0.0],
        [0.0, 0.0, 5.6731470900000005]
      ],
      "pbc": [true, true, true],
      "a": 7.3467983404344945,
      "b": 7.3467983404344945,
      "c": 5.6731470900000005,
      "alpha": 90.0,
      "beta": 90.0,
      "gamma": 119.99997568984217,
      "volume": 265.18626121414513
    },
    "properties": {},
    "sites": [
      {
        "species": [{ "element": "Nd", "occu": 1 }],
        "abc": [0.65763773, 0.82881936, 0.25],
        "properties": { "magmom": 0.043000000000000003 },
        "label": "Nd",
        "xyz": [5.460352247363687, 1.089145383896149, 1.4182867725000001]
      },
      {
        "species": [{ "element": "Nd", "occu": 1 }],
        "abc": [0.17118064, 0.34236227, 0.25],
        "properties": { "magmom": 0.043000000000000003 },
        "label": "Nd",
        "xyz": [1.8864487926363132, 1.089145383896149, 1.4182867725000001]
      },
      {
        "species": [{ "element": "Nd", "occu": 1 }],
        "abc": [0.34236227, 0.17118064, 0.75],
        "properties": { "magmom": 0.043000000000000003 },
        "label": "Nd",
        "xyz": [1.8864487926363132, -1.089145383896149, 4.2548603175]
      },
      {
        "species": [{ "element": "Nd", "occu": 1 }],
        "abc": [0.82881936, 0.65763773, 0.75],
        "properties": { "magmom": 0.043000000000000003 },
        "label": "Nd",
        "xyz": [5.460352247363687, -1.089145383896149, 4.2548603175]
      },
      {
        "species": [{ "element": "Nd", "occu": 1 }],
        "abc": [0.17118064, 0.82881936, 0.25],
        "properties": { "magmom": 0.043000000000000003 },
        "label": "Nd",
        "xyz": [3.67340052, 4.184235049983879, 1.4182867725000001]
      },
      {
        "species": [{ "element": "Nd", "occu": 1 }],
        "abc": [0.82881936, 0.17118064, 0.75],
        "properties": { "magmom": 0.043000000000000003 },
        "label": "Nd",
        "xyz": [3.67340052, -4.184235049983879, 4.2548603175]
      },
      {
        "species": [{ "element": "Sc", "occu": 1 }],
        "abc": [0.666667, 0.333333, 0.25],
        "properties": { "magmom": 0.08700000000000001 },
        "label": "Sc",
        "xyz": [3.67340052, -2.1208419816754804, 1.4182867725000001]
      },
      {
        "species": [{ "element": "Sc", "occu": 1 }],
        "abc": [0.333333, 0.666667, 0.75],
        "properties": { "magmom": 0.08700000000000001 },
        "label": "Sc",
        "xyz": [3.67340052, 2.1208419816754804, 4.2548603175]
      }
    ]
  },
  "task_ids": null,
  "uncorrected_energy_per_atom": null,
  "energy_per_atom": -24.86560023125,
  "formation_energy_per_atom": 0.047528344375002,
  "energy_above_hull": 0.047528344375002,
  "is_stable": false,
  "equilibrium_reaction_energy_per_atom": null,
  "decomposes_to": null,
  "xas": null,
  "grain_boundaries": null,
  "band_gap": 0.0,
  "cbm": null,
  "vbm": null,
  "efermi": 3.39603208,
  "is_gap_direct": null,
  "is_metal": null,
  "es_source_calc_id": null,
  "bandstructure": null,
  "dos": null,
  "dos_energy_up": null,
  "dos_energy_down": null,
  "is_magnetic": null,
  "ordering": null,
  "total_magnetization": 0.8575296,
  "total_magnetization_normalized_vol": null,
  "total_magnetization_normalized_formula_units": null,
  "num_magnetic_sites": null,
  "num_unique_magnetic_sites": null,
  "types_of_magnetic_species": null,
  "bulk_modulus": null,
  "shear_modulus": null,
  "universal_anisotropy": null,
  "homogeneous_poisson": null,
  "e_total": null,
  "e_ionic": null,
  "e_electronic": null,
  "n": null,
  "e_ij_max": null,
  "weighted_surface_energy_EV_PER_ANG2": null,
  "weighted_surface_energy": null,
  "weighted_work_function": null,
  "surface_anisotropy": null,
  "shape_factor": null,
  "has_reconstructed": null,
  "possible_species": null,
  "has_props": null,
  "theoretical": null,
  "database_IDs": null,
  "fields_not_requested": [
    "builder_meta",
    "nsites",
    "elements",
    "nelements",
    "composition",
    "composition_reduced",
    "chemsys",
    "symmetry",
    "property_name",
    "deprecated",
    "deprecation_reasons",
    "last_updated",
    "origins",
    "warnings",
    "task_ids",
    "uncorrected_energy_per_atom",
    "equilibrium_reaction_energy_per_atom",
    "decomposes_to",
    "xas",
    "grain_boundaries",
    "cbm",
    "vbm",
    "is_gap_direct",
    "is_metal",
    "es_source_calc_id",
    "bandstructure",
    "dos",
    "dos_energy_up",
    "dos_energy_down",
    "is_magnetic",
    "ordering",
    "total_magnetization_normalized_vol",
    "total_magnetization_normalized_formula_units",
    "num_magnetic_sites",
    "num_unique_magnetic_sites",
    "types_of_magnetic_species",
    "bulk_modulus",
    "shear_modulus",
    "universal_anisotropy",
    "homogeneous_poisson",
    "e_total",
    "e_ionic",
    "e_electronic",
    "n",
    "e_ij_max",
    "weighted_surface_energy_EV_PER_ANG2",
    "weighted_surface_energy",
    "weighted_work_function",
    "surface_anisotropy",
    "shape_factor",
    "has_reconstructed",
    "possible_species",
    "has_props",
    "theoretical",
    "database_IDs"
  ]
}
