{
  "builder_meta": null,
  "nsites": null,
  "elements": null,
  "nelements": null,
  "composition": null,
  "composition_reduced": null,
  "formula_pretty": "Nd3Se4",
  "formula_anonymous": "A3B4",
  "chemsys": null,
  "volume": 357.19907510128667,
  "density": 6.959833737397143,
  "density_atomic": 25.514219650091906,
  "symmetry": null,
  "property_name": null,
  "material_id": "mp-568098",
  "deprecated": null,
  "deprecation_reasons": null,
  "last_updated": null,
  "origins": null,
  "warnings": null,
  "structure": {
    "@module": "pymatgen.core.structure",
    "@class": "Structure",
    "charge": 0,
    "lattice": {
      "matrix": [
        [7.29907469, -0.0, -2.58061237],
        [-3.64953735, 6.32118398, -2.58061237],
        [1e-8, 1e-8, 7.74183813]
      ],
      "pbc": [true, true, true],
      "a": 7.741837736248133,
      "b": 7.741837636004173,
      "c": 7.74183813,
      "alpha": 109.47121923107129,
      "beta": 109.47121892185605,
      "gamma": 109.47122257241739,
      "volume": 357.1990751012867
    },
    "properties": {},
    "sites": [
      {
        "species": [{ "element": "Nd", "occu": 1 }],
        "abc": [0.125, 0.75, 0.875],
        "properties": { "magmom": -0.0 },
        "label": "Nd",
        "xyz": [-1.8247686675, 4.7408879937499995, 4.51607254]
      },
      {
        "species": [{ "element": "Nd", "occu": 1 }],
        "abc": [0.625, 0.375, 0.25],
        "properties": { "magmom": -0.0 },
        "label": "Nd",
        "xyz": [3.1933451775000004, 2.370443995, -0.6451528375]
      },
      {
        "species": [{ "element": "Nd", "occu": 1 }],
        "abc": [0.375, 0.25, 0.625],
        "properties": { "magmom": -0.0 },
        "label": "Nd",
        "xyz": [1.8247686775, 1.58029600125, 3.2257660999999995]
      },
      {
        "species": [{ "element": "Nd", "occu": 1 }],
        "abc": [0.75, 0.875, 0.125],
        "properties": { "magmom": -0.0 },
        "label": "Nd",
        "xyz": [2.2809608375, 5.53103598375, -3.225765335]
      },
      {
        "species": [{ "element": "Nd", "occu": 1 }],
        "abc": [0.25, 0.625, 0.375],
        "properties": { "magmom": -0.0 },
        "label": "Nd",
        "xyz": [-0.4561921674999999, 3.95073999125, 0.6451534749999999]
      },
      {
        "species": [{ "element": "Nd", "occu": 1 }],
        "abc": [0.875, 0.125, 0.75],
        "properties": { "magmom": -0.0 },
        "label": "Nd",
        "xyz": [5.9304981925, 0.7901480049999999, 3.2257662275000003]
      },
      {
        "species": [{ "element": "Se", "occu": 1 }],
        "abc": [0.64818043, 0.64818043, 0.64818043],
        "properties": { "magmom": 0.0 },
        "label": "Se",
        "xyz": [2.3655586888240614, 4.097267756747316, 1.6727030967939576]
      },
      {
        "species": [{ "element": "Se", "occu": 1 }],
        "abc": [-0.0, 0.85181957, 0.5],
        "properties": { "magmom": 0.0 },
        "label": "Se",
        "xyz": [-3.1087473311759397, 5.384508224734489, 1.672702945649919]
      },
      {
        "species": [{ "element": "Se", "occu": 1 }],
        "abc": [0.85181957, 0.5, -0.0],
        "properties": { "magmom": 0.0 },
        "label": "Se",
        "xyz": [4.392725988833684, 3.16059199, -3.488522304350081]
      },
      {
        "species": [{ "element": "Se", "occu": 1 }],
        "abc": [-0.0, 0.35181957, 0.5],
        "properties": { "magmom": 0.0 },
        "label": "Se",
        "xyz": [-1.2839786561759396, 2.2239162347344887, 2.963009130649919]
      },
      {
        "species": [{ "element": "Se", "occu": 1 }],
        "abc": [0.5, 0.0, 0.85181957],
        "properties": { "magmom": 0.0 },
        "label": "Se",
        "xyz": [3.6495373535181956, 8.5181957e-9, 5.304343041906204]
      },
      {
        "species": [{ "element": "Se", "occu": 1 }],
        "abc": [0.5, 0.0, 0.35181957],
        "properties": { "magmom": 0.0 },
        "label": "Se",
        "xyz": [3.6495373485181957, 3.5181957000000004e-9, 1.4334239769062043]
      },
      {
        "species": [{ "element": "Se", "occu": 1 }],
        "abc": [0.35181957, 0.5, -0.0],
        "properties": { "magmom": 0.0 },
        "label": "Se",
        "xyz": [0.7431886438336837, 3.16059199, -2.198216119350081]
      },
      {
        "species": [{ "element": "Se", "occu": 1 }],
        "abc": [0.14818043, 0.14818043, 0.14818043],
        "properties": { "magmom": 0.0 },
        "label": "Se",
        "xyz": [0.5407900138240604, 0.9366757617473157, 0.3823964017939576]
      }
    ]
  },
  "task_ids": null,
  "uncorrected_energy_per_atom": null,
  "energy_per_atom": -22.93114474142857,
  "formation_energy_per_atom": -2.145392188392857,
  "energy_above_hull": 0.021609300892858,
  "is_stable": false,
  "equilibrium_reaction_energy_per_atom": null,
  "decomposes_to": null,
  "xas": null,
  "grain_boundaries": null,
  "band_gap": 0.0,
  "cbm": null,
  "vbm": null,
  "efermi": 5.55747064,
  "is_gap_direct": null,
  "is_metal": null,
  "es_source_calc_id": null,
  "bandstructure": null,
  "dos": null,
  "dos_energy_up": null,
  "dos_energy_down": null,
  "is_magnetic": null,
  "ordering": null,
  "total_magnetization": 1.899999999999999e-6,
  "total_magnetization_normalized_vol": null,
  "total_magnetization_normalized_formula_units": null,
  "num_magnetic_sites": null,
  "num_unique_magnetic_sites": null,
  "types_of_magnetic_species": null,
  "bulk_modulus": null,
  "shear_modulus": null,
  "universal_anisotropy": null,
  "homogeneous_poisson": null,
  "e_total": null,
  "e_ionic": null,
  "e_electronic": null,
  "n": null,
  "e_ij_max": null,
  "weighted_surface_energy_EV_PER_ANG2": null,
  "weighted_surface_energy": null,
  "weighted_work_function": null,
  "surface_anisotropy": null,
  "shape_factor": null,
  "has_reconstructed": null,
  "possible_species": null,
  "has_props": null,
  "theoretical": null,
  "database_IDs": null,
  "fields_not_requested": [
    "builder_meta",
    "nsites",
    "elements",
    "nelements",
    "composition",
    "composition_reduced",
    "chemsys",
    "symmetry",
    "property_name",
    "deprecated",
    "deprecation_reasons",
    "last_updated",
    "origins",
    "warnings",
    "task_ids",
    "uncorrected_energy_per_atom",
    "equilibrium_reaction_energy_per_atom",
    "decomposes_to",
    "xas",
    "grain_boundaries",
    "cbm",
    "vbm",
    "is_gap_direct",
    "is_metal",
    "es_source_calc_id",
    "bandstructure",
    "dos",
    "dos_energy_up",
    "dos_energy_down",
    "is_magnetic",
    "ordering",
    "total_magnetization_normalized_vol",
    "total_magnetization_normalized_formula_units",
    "num_magnetic_sites",
    "num_unique_magnetic_sites",
    "types_of_magnetic_species",
    "bulk_modulus",
    "shear_modulus",
    "universal_anisotropy",
    "homogeneous_poisson",
    "e_total",
    "e_ionic",
    "e_electronic",
    "n",
    "e_ij_max",
    "weighted_surface_energy_EV_PER_ANG2",
    "weighted_surface_energy",
    "weighted_work_function",
    "surface_anisotropy",
    "shape_factor",
    "has_reconstructed",
    "possible_species",
    "has_props",
    "theoretical",
    "database_IDs"
  ]
}
