{"builder_meta": null, "nsites": null, "elements": null, "nelements": null, "composition": null, "composition_reduced": null, "formula_pretty": "Nd3Si", "formula_anonymous": "AB3", "chemsys": null, "volume": 219.8085784391999, "density": 6.9623806634116665, "density_atomic": 27.476072304899986, "symmetry": null, "property_name": null, "material_id": "mp-976593", "deprecated": null, "deprecation_reasons": null, "last_updated": null, "origins": null, "warnings": null, "structure": {"@module": "pymatgen.core.structure", "@class": "Structure", "charge": 0, "lattice": {"matrix": [[3.521674, -6.099719, 0.0], [3.521674, 6.099719, 0.0], [0.0, 0.0, 5.116296]], "pbc": [true, true, true], "a": 7.043348609946622, "b": 7.043348609946622, "c": 5.116296, "alpha": 90.0, "beta": 90.0, "gamma": 120.00000572934059, "volume": 219.8085784391999}, "properties": {}, "sites": [{"species": [{"element": "Nd", "occu": 1}], "abc": [0.180335, 0.360668999999999, 0.25], "properties": {"magmom": -0.0}, "label": "Nd", "xyz": [1.9052397206959966, 1.0999867261459941, 1.279074]}, {"species": [{"element": "Nd", "occu": 1}], "abc": [0.639331, 0.819665, 0.25], "properties": {"magmom": -0.0}, "label": "Nd", "xyz": [5.138108279303999, 1.0999867261460006, 1.279074]}, {"species": [{"element": "Nd", "occu": 1}], "abc": [0.180335, 0.819665, 0.25], "properties": {"magmom": -0.0}, "label": "Nd", "xyz": [3.521674, 3.8997333482700007, 1.279074]}, {"species": [{"element": "Nd", "occu": 1}], "abc": [0.819665, 0.639331, 0.75], "properties": {"magmom": -0.0}, "label": "Nd", "xyz": [5.138108279303999, -1.0999867261460006, 3.837222]}, {"species": [{"element": "Nd", "occu": 1}], "abc": [0.360668999999999, 0.180335, 0.75], "properties": {"magmom": -0.0}, "label": "Nd", "xyz": [1.9052397206959966, -1.0999867261459941, 3.837222]}, {"species": [{"element": "Nd", "occu": 1}], "abc": [0.819665, 0.180335, 0.75], "properties": {"magmom": -0.0}, "label": "Nd", "xyz": [3.521674, -3.8997333482700007, 3.837222]}, {"species": [{"element": "Si", "occu": 1}], "abc": [0.333333, 0.666667, 0.75], "properties": {"magmom": 0.0}, "label": "Si", "xyz": [3.521674, 2.033243733146, 3.837222]}, {"species": [{"element": "Si", "occu": 1}], "abc": [0.666667, 0.333333, 0.25], "properties": {"magmom": 0.0}, "label": "Si", "xyz": [3.521674, -2.033243733146, 1.279074]}]}, "task_ids": null, "uncorrected_energy_per_atom": null, "energy_per_atom": -24.548531555000004, "formation_energy_per_atom": -0.291583669375, "energy_above_hull": 0.153635381249998, "is_stable": false, "equilibrium_reaction_energy_per_atom": null, "decomposes_to": null, "xas": null, "grain_boundaries": null, "band_gap": 0.0, "cbm": null, "vbm": null, "efermi": 4.65583417, "is_gap_direct": null, "is_metal": null, "es_source_calc_id": null, "bandstructure": null, "dos": null, "dos_energy_up": null, "dos_energy_down": null, "is_magnetic": null, "ordering": null, "total_magnetization": 0.0009496999999990001, "total_magnetization_normalized_vol": null, "total_magnetization_normalized_formula_units": null, "num_magnetic_sites": null, "num_unique_magnetic_sites": null, "types_of_magnetic_species": null, "bulk_modulus": null, "shear_modulus": null, "universal_anisotropy": null, "homogeneous_poisson": null, "e_total": null, "e_ionic": null, "e_electronic": null, "n": null, "e_ij_max": null, "weighted_surface_energy_EV_PER_ANG2": null, "weighted_surface_energy": null, "weighted_work_function": null, "surface_anisotropy": null, "shape_factor": null, "has_reconstructed": null, "possible_species": null, "has_props": null, "theoretical": null, "database_IDs": null, "fields_not_requested": ["builder_meta", "nsites", "elements", "nelements", "composition", "composition_reduced", "chemsys", "symmetry", "property_name", "deprecated", "deprecation_reasons", "last_updated", "origins", "warnings", "task_ids", "uncorrected_energy_per_atom", "equilibrium_reaction_energy_per_atom", "decomposes_to", "xas", "grain_boundaries", "cbm", "vbm", "is_gap_direct", "is_metal", "es_source_calc_id", "bandstructure", "dos", "dos_energy_up", "dos_energy_down", "is_magnetic", "ordering", "total_magnetization_normalized_vol", "total_magnetization_normalized_formula_units", "num_magnetic_sites", "num_unique_magnetic_sites", "types_of_magnetic_species", "bulk_modulus", "shear_modulus", "universal_anisotropy", "homogeneous_poisson", "e_total", "e_ionic", "e_electronic", "n", "e_ij_max", "weighted_surface_energy_EV_PER_ANG2", "weighted_surface_energy", "weighted_work_function", "surface_anisotropy", "shape_factor", "has_reconstructed", "possible_species", "has_props", "theoretical", "database_IDs"]}