{
  "builder_meta": null,
  "nsites": null,
  "elements": null,
  "nelements": null,
  "composition": null,
  "composition_reduced": null,
  "formula_pretty": "Nd3Sn7",
  "formula_anonymous": "A3B7",
  "chemsys": null,
  "volume": 275.72585578487616,
  "density": 7.610517955716699,
  "density_atomic": 27.572585578487615,
  "symmetry": null,
  "property_name": null,
  "material_id": "mp-1206318",
  "deprecated": null,
  "deprecation_reasons": null,
  "last_updated": null,
  "origins": null,
  "warnings": null,
  "structure": {
    "@module": "pymatgen.core.structure",
    "@class": "Structure",
    "charge": 0,
    "lattice": {
      "matrix": [
        [4.5017593300000005, -0.0, 0.0],
        [0.0, 0.0, 4.596553529999999],
        [-2.250879669999999, -13.32486746, 0.0]
      ],
      "pbc": [true, true, true],
      "a": 4.5017593300000005,
      "b": 4.596553529999999,
      "c": 13.513643184403907,
      "alpha": 90.0,
      "beta": 99.58807325976498,
      "gamma": 90.0,
      "volume": 275.7258557848761
    },
    "properties": {},
    "sites": [
      {
        "species": [{ "element": "Nd", "occu": 1 }],
        "abc": [0.8155010300000001, 0.0, 0.63100207],
        "properties": { "magmom": -0.0 },
        "label": "Nd",
        "xyz": [2.250879639336195, -8.408018949735641, 0.0]
      },
      {
        "species": [{ "element": "Nd", "occu": 1 }],
        "abc": [0.18449897, 0.0, 0.36899793000000003],
        "properties": { "magmom": -0.0 },
        "label": "Nd",
        "xyz": [2.066380755394448e-8, -4.916848510264359, 0.0]
      },
      {
        "species": [{ "element": "Nd", "occu": 1 }],
        "abc": [-0.0, 0.0, -0.0],
        "properties": { "magmom": -0.0 },
        "label": "Nd",
        "xyz": [0.0, 0.0, 0.0]
      },
      {
        "species": [{ "element": "Sn", "occu": 1 }],
        "abc": [0.90435149, 0.5, 0.80870398],
        "properties": { "magmom": 0.0 },
        "label": "Sn",
        "xyz": [2.250877410076817, -10.77587334787449, 2.2982767649999993]
      },
      {
        "species": [{ "element": "Sn", "occu": 1 }],
        "abc": [0.09564851, 0.5, 0.19129602],
        "properties": { "magmom": 0.0 },
        "label": "Sn",
        "xyz": [2.2499231851491608e-6, -2.5489941121255093, 2.2982767649999993]
      },
      {
        "species": [{ "element": "Sn", "occu": 1 }],
        "abc": [0.71340112, 0.5, 0.42680423],
        "properties": { "magmom": -0.0 },
        "label": "Sn",
        "xyz": [2.250875183615446, -5.687109796117356, 2.2982767649999993]
      },
      {
        "species": [{ "element": "Sn", "occu": 1 }],
        "abc": [0.28659888, 0.5, 0.57319577],
        "properties": { "magmom": -0.0 },
        "label": "Sn",
        "xyz": [4.476384555252011e-6, -7.6377576638826445, 2.2982767649999993]
      },
      {
        "species": [{ "element": "Sn", "occu": 1 }],
        "abc": [0.5948050300000001, 0.0, 0.18961006],
        "properties": { "magmom": 0.0 },
        "label": "Sn",
        "xyz": [2.2508796640519506, -2.5265289185826476, 0.0]
      },
      {
        "species": [{ "element": "Sn", "occu": 1 }],
        "abc": [0.40519497, 0.0, 0.81038994],
        "properties": { "magmom": 0.0 },
        "label": "Sn",
        "xyz": [-4.051948554462115e-9, -10.798338541417353, 0.0]
      },
      {
        "species": [{ "element": "Sn", "occu": 1 }],
        "abc": [0.5, 0.5, -0.0],
        "properties": { "magmom": 0.0 },
        "label": "Sn",
        "xyz": [2.2508796650000003, 0.0, 2.2982767649999993]
      }
    ]
  },
  "task_ids": null,
  "uncorrected_energy_per_atom": null,
  "energy_per_atom": -4.831049350000001,
  "formation_energy_per_atom": -0.593904821749999,
  "energy_above_hull": 0.0,
  "is_stable": true,
  "equilibrium_reaction_energy_per_atom": null,
  "decomposes_to": null,
  "xas": null,
  "grain_boundaries": null,
  "band_gap": 0.0,
  "cbm": null,
  "vbm": null,
  "efermi": 6.91245052,
  "is_gap_direct": null,
  "is_metal": null,
  "es_source_calc_id": null,
  "bandstructure": null,
  "dos": null,
  "dos_energy_up": null,
  "dos_energy_down": null,
  "is_magnetic": null,
  "ordering": null,
  "total_magnetization": 3e-7,
  "total_magnetization_normalized_vol": null,
  "total_magnetization_normalized_formula_units": null,
  "num_magnetic_sites": null,
  "num_unique_magnetic_sites": null,
  "types_of_magnetic_species": null,
  "bulk_modulus": null,
  "shear_modulus": null,
  "universal_anisotropy": null,
  "homogeneous_poisson": null,
  "e_total": null,
  "e_ionic": null,
  "e_electronic": null,
  "n": null,
  "e_ij_max": null,
  "weighted_surface_energy_EV_PER_ANG2": null,
  "weighted_surface_energy": null,
  "weighted_work_function": null,
  "surface_anisotropy": null,
  "shape_factor": null,
  "has_reconstructed": null,
  "possible_species": null,
  "has_props": null,
  "theoretical": null,
  "database_IDs": null,
  "fields_not_requested": [
    "builder_meta",
    "nsites",
    "elements",
    "nelements",
    "composition",
    "composition_reduced",
    "chemsys",
    "symmetry",
    "property_name",
    "deprecated",
    "deprecation_reasons",
    "last_updated",
    "origins",
    "warnings",
    "task_ids",
    "uncorrected_energy_per_atom",
    "equilibrium_reaction_energy_per_atom",
    "decomposes_to",
    "xas",
    "grain_boundaries",
    "cbm",
    "vbm",
    "is_gap_direct",
    "is_metal",
    "es_source_calc_id",
    "bandstructure",
    "dos",
    "dos_energy_up",
    "dos_energy_down",
    "is_magnetic",
    "ordering",
    "total_magnetization_normalized_vol",
    "total_magnetization_normalized_formula_units",
    "num_magnetic_sites",
    "num_unique_magnetic_sites",
    "types_of_magnetic_species",
    "bulk_modulus",
    "shear_modulus",
    "universal_anisotropy",
    "homogeneous_poisson",
    "e_total",
    "e_ionic",
    "e_electronic",
    "n",
    "e_ij_max",
    "weighted_surface_energy_EV_PER_ANG2",
    "weighted_surface_energy",
    "weighted_work_function",
    "surface_anisotropy",
    "shape_factor",
    "has_reconstructed",
    "possible_species",
    "has_props",
    "theoretical",
    "database_IDs"
  ]
}
