{"builder_meta": null, "nsites": null, "elements": null, "nelements": null, "composition": null, "composition_reduced": null, "formula_pretty": "Nd3S4", "formula_anonymous": "A3B4", "chemsys": null, "volume": 315.9997935836399, "density": 5.895821375396592, "density_atomic": 22.571413827402854, "symmetry": null, "property_name": null, "material_id": "mp-2656", "deprecated": null, "deprecation_reasons": null, "last_updated": null, "origins": null, "warnings": null, "structure": {"@module": "pymatgen.core.structure", "@class": "Structure", "charge": 0, "lattice": {"matrix": [[7.00691194, -1e-08, -2.47731752], [-3.50345649, 6.06816263, -2.47731752], [0.0, -0.0, 7.43195255]], "pbc": [true, true, true], "a": 7.4319524372679835, "b": 7.431951774355817, "c": 7.43195255, "alpha": 109.47122277590479, "beta": 109.47122096901877, "gamma": 109.47122618249419, "volume": 315.9997935836399}, "properties": {}, "sites": [{"species": [{"element": "Nd", "occu": 1}], "abc": [0.75, 0.875, 0.125], "properties": {"magmom": 0.0}, "label": "Nd", "xyz": [2.18965952625, 5.30964229375, -3.0966469012500006]}, {"species": [{"element": "Nd", "occu": 1}], "abc": [0.625, 0.375, 0.25], "properties": {"magmom": 0.0}, "label": "Nd", "xyz": [3.0655237787500003, 2.27556098, -0.6193293825000001]}, {"species": [{"element": "Nd", "occu": 1}], "abc": [0.875, 0.125, 0.75], "properties": {"magmom": 0.0}, "label": "Nd", "xyz": [5.69311588625, 0.75852032, 3.0966468925000004]}, {"species": [{"element": "Nd", "occu": 1}], "abc": [0.125, 0.75, 0.875], "properties": {"magmom": 0.0}, "label": "Nd", "xyz": [-1.7517283750000001, 4.55112197125, 4.33530565125]}, {"species": [{"element": "Nd", "occu": 1}], "abc": [0.375, 0.25, 0.625], "properties": {"magmom": 0.0}, "label": "Nd", "xyz": [1.751727855, 1.5170406537499999, 3.0966468937499996]}, {"species": [{"element": "Nd", "occu": 1}], "abc": [0.25, 0.625, 0.375], "properties": {"magmom": 0.0}, "label": "Nd", "xyz": [-0.4379323212499999, 3.7926016412499997, 0.6193293762500001]}, {"species": [{"element": "S", "occu": 1}], "abc": [0.64789631, 0.64789631, 0.64789631], "properties": {"magmom": 0.0}, "label": "S", "xyz": [2.2698758583043896, 3.931540169977932, 1.605044873427388]}, {"species": [{"element": "S", "occu": 1}], "abc": [0.35210369, 0.5, -0.0], "properties": {"magmom": 0.0}, "label": "S", "xyz": [0.7154313045790588, 3.034081311478963, -2.1109314000936488]}, {"species": [{"element": "S", "occu": 1}], "abc": [0.5, -0.0, 0.35210369], "properties": {"magmom": 0.0}, "label": "S", "xyz": [3.50345597, -5e-09, 1.3781591567599099]}, {"species": [{"element": "S", "occu": 1}], "abc": [-0.0, 0.35210369, 0.5], "properties": {"magmom": 0.0}, "label": "S", "xyz": [-1.233579957883448, 2.136622453543105, 2.843703634906351]}, {"species": [{"element": "S", "occu": 1}], "abc": [0.5, -0.0, 0.85210369], "properties": {"magmom": 0.0}, "label": "S", "xyz": [3.50345597, -5e-09, 5.094135431759909]}, {"species": [{"element": "S", "occu": 1}], "abc": [-0.0, 0.85210369, 0.5], "properties": {"magmom": 0.0}, "label": "S", "xyz": [-2.985308202883448, 5.170703768543104, 1.6050448749063513]}, {"species": [{"element": "S", "occu": 1}], "abc": [0.14789631, 0.14789631, 0.14789631], "properties": {"magmom": 0.0}, "label": "S", "xyz": [0.5181481333043896, 0.8974588599779322, 0.3663861184273881]}, {"species": [{"element": "S", "occu": 1}], "abc": [0.85210369, 0.5, -0.0], "properties": {"magmom": 0.0}, "label": "S", "xyz": [4.218887274579059, 3.034081306478963, -3.3495901600936486]}]}, "task_ids": null, "uncorrected_energy_per_atom": null, "energy_per_atom": -19.514547107142857, "formation_energy_per_atom": -2.315400924821428, "energy_above_hull": 0.037913265, "is_stable": false, "equilibrium_reaction_energy_per_atom": null, "decomposes_to": null, "xas": null, "grain_boundaries": null, "band_gap": 0.0, "cbm": null, "vbm": null, "efermi": 6.3841979, "is_gap_direct": null, "is_metal": null, "es_source_calc_id": null, "bandstructure": null, "dos": null, "dos_energy_up": null, "dos_energy_down": null, "is_magnetic": null, "ordering": null, "total_magnetization": 2.899999999999999e-06, "total_magnetization_normalized_vol": null, "total_magnetization_normalized_formula_units": null, "num_magnetic_sites": null, "num_unique_magnetic_sites": null, "types_of_magnetic_species": null, "bulk_modulus": null, "shear_modulus": null, "universal_anisotropy": null, "homogeneous_poisson": null, "e_total": null, "e_ionic": null, "e_electronic": null, "n": null, "e_ij_max": null, "weighted_surface_energy_EV_PER_ANG2": null, "weighted_surface_energy": null, "weighted_work_function": null, "surface_anisotropy": null, "shape_factor": null, "has_reconstructed": null, "possible_species": null, "has_props": null, "theoretical": null, "database_IDs": null, "fields_not_requested": ["builder_meta", "nsites", "elements", "nelements", "composition", "composition_reduced", "chemsys", "symmetry", "property_name", "deprecated", "deprecation_reasons", "last_updated", "origins", "warnings", "task_ids", "uncorrected_energy_per_atom", "equilibrium_reaction_energy_per_atom", "decomposes_to", "xas", "grain_boundaries", "cbm", "vbm", "is_gap_direct", "is_metal", "es_source_calc_id", "bandstructure", "dos", "dos_energy_up", "dos_energy_down", "is_magnetic", "ordering", "total_magnetization_normalized_vol", "total_magnetization_normalized_formula_units", "num_magnetic_sites", "num_unique_magnetic_sites", "types_of_magnetic_species", "bulk_modulus", "shear_modulus", "universal_anisotropy", "homogeneous_poisson", "e_total", "e_ionic", "e_electronic", "n", "e_ij_max", "weighted_surface_energy_EV_PER_ANG2", "weighted_surface_energy", "weighted_work_function", "surface_anisotropy", "shape_factor", "has_reconstructed", "possible_species", "has_props", "theoretical", "database_IDs"]}