{"builder_meta": null, "nsites": null, "elements": null, "nelements": null, "composition": null, "composition_reduced": null, "formula_pretty": "Nd3Te4", "formula_anonymous": "A3B4", "chemsys": null, "volume": 436.72102124829905, "density": 7.17207320705445, "density_atomic": 31.19435866059279, "symmetry": null, "property_name": null, "material_id": "mp-2204", "deprecated": null, "deprecation_reasons": null, "last_updated": null, "origins": null, "warnings": null, "structure": {"@module": "pymatgen.core.structure", "@class": "Structure", "charge": 0, "lattice": {"matrix": [[7.80487085, -1e-08, -2.75943848], [-3.90243595, 6.75921639, -2.75943848], [1e-08, 1e-08, 8.27831648]], "pbc": [true, true, true], "a": 8.278315632426953, "b": 8.278315847779773, "c": 8.27831648, "alpha": 109.47121961131644, "beta": 109.47122009440825, "gamma": 109.47122427195382, "volume": 436.72102124829905}, "properties": {}, "sites": [{"species": [{"element": "Nd", "occu": 1}], "abc": [0.75, 0.875, 0.125], "properties": {"magmom": -0.0}, "label": "Nd", "xyz": [2.4390216825000004, 5.914314335, -3.44929797]}, {"species": [{"element": "Nd", "occu": 1}], "abc": [0.625, 0.375, 0.25], "properties": {"magmom": -0.0}, "label": "Nd", "xyz": [3.4146308025000005, 2.5347061425, -0.6898593599999998]}, {"species": [{"element": "Nd", "occu": 1}], "abc": [0.875, 0.125, 0.75], "properties": {"magmom": -0.0}, "label": "Nd", "xyz": [6.3414575075, 0.8449020475, 3.4492988800000006]}, {"species": [{"element": "Nd", "occu": 1}], "abc": [0.125, 0.75, 0.875], "properties": {"magmom": -0.0}, "label": "Nd", "xyz": [-1.9512180974999997, 5.0694123, 4.829018250000001]}, {"species": [{"element": "Nd", "occu": 1}], "abc": [0.375, 0.25, 0.625], "properties": {"magmom": -0.0}, "label": "Nd", "xyz": [1.9512175875000002, 1.6898041, 3.4492987500000005]}, {"species": [{"element": "Nd", "occu": 1}], "abc": [0.25, 0.625, 0.375], "properties": {"magmom": -0.0}, "label": "Nd", "xyz": [-0.4878047525000001, 4.224510245, 0.6898600100000003]}, {"species": [{"element": "Te", "occu": 1}], "abc": [0.64615097, 0.64615097, 0.64615097], "properties": {"magmom": 0.0}, "label": "Te", "xyz": [2.5215621024583625, 4.367474226838398, 1.783014522504335]}, {"species": [{"element": "Te", "occu": 1}], "abc": [0.35384903, 0.5, -0.0], "properties": {"magmom": 0.0}, "label": "Te", "xyz": [0.8105280045477756, 3.3796081914615095, -2.3561438694926746]}, {"species": [{"element": "Te", "occu": 1}], "abc": [0.5, 0.0, 0.35384903], "properties": {"magmom": 0.0}, "label": "Te", "xyz": [3.9024354285384906, -1.4615096999999998e-09, 1.5495550164810146]}, {"species": [{"element": "Te", "occu": 1}], "abc": [-0.0, 0.35384903, 0.5], "properties": {"magmom": 0.0}, "label": "Te", "xyz": [-1.3808731705446287, 2.391742168161602, 3.162733610507326]}, {"species": [{"element": "Te", "occu": 1}], "abc": [0.5, 0.0, 0.85384903], "properties": {"magmom": 0.0}, "label": "Te", "xyz": [3.9024354335384905, 3.5384903000000008e-09, 5.688713256481015]}, {"species": [{"element": "Te", "occu": 1}], "abc": [-0.0, 0.85384903, 0.5], "properties": {"magmom": 0.0}, "label": "Te", "xyz": [-3.3320911455446285, 5.771350363161602, 1.7830143705073258]}, {"species": [{"element": "Te", "occu": 1}], "abc": [0.14615097, 0.14615097, 0.14615097], "properties": {"magmom": 0.0}, "label": "Te", "xyz": [0.5703446474583627, 0.9878660318383982, 0.4032947625043345]}, {"species": [{"element": "Te", "occu": 1}], "abc": [0.85384903, 0.5, -0.0], "properties": {"magmom": 0.0}, "label": "Te", "xyz": [4.712963429547775, 3.3796081864615095, -3.7358631094926746]}]}, "task_ids": null, "uncorrected_energy_per_atom": null, "energy_per_atom": -28.80821989142857, "formation_energy_per_atom": -1.676373578928572, "energy_above_hull": 0.036054504285711005, "is_stable": false, "equilibrium_reaction_energy_per_atom": null, "decomposes_to": null, "xas": null, "grain_boundaries": null, "band_gap": 0.0, "cbm": null, "vbm": null, "efermi": 6.60628194, "is_gap_direct": null, "is_metal": null, "es_source_calc_id": null, "bandstructure": null, "dos": null, "dos_energy_up": null, "dos_energy_down": null, "is_magnetic": null, "ordering": null, "total_magnetization": 2.899999999999999e-06, "total_magnetization_normalized_vol": null, "total_magnetization_normalized_formula_units": null, "num_magnetic_sites": null, "num_unique_magnetic_sites": null, "types_of_magnetic_species": null, "bulk_modulus": null, "shear_modulus": null, "universal_anisotropy": null, "homogeneous_poisson": null, "e_total": null, "e_ionic": null, "e_electronic": null, "n": null, "e_ij_max": null, "weighted_surface_energy_EV_PER_ANG2": null, "weighted_surface_energy": null, "weighted_work_function": null, "surface_anisotropy": null, "shape_factor": null, "has_reconstructed": null, "possible_species": null, "has_props": null, "theoretical": null, "database_IDs": null, "fields_not_requested": ["builder_meta", "nsites", "elements", "nelements", "composition", "composition_reduced", "chemsys", "symmetry", "property_name", "deprecated", "deprecation_reasons", "last_updated", "origins", "warnings", "task_ids", "uncorrected_energy_per_atom", "equilibrium_reaction_energy_per_atom", "decomposes_to", "xas", "grain_boundaries", "cbm", "vbm", "is_gap_direct", "is_metal", "es_source_calc_id", "bandstructure", "dos", "dos_energy_up", "dos_energy_down", "is_magnetic", "ordering", "total_magnetization_normalized_vol", "total_magnetization_normalized_formula_units", "num_magnetic_sites", "num_unique_magnetic_sites", "types_of_magnetic_species", "bulk_modulus", "shear_modulus", "universal_anisotropy", "homogeneous_poisson", "e_total", "e_ionic", "e_electronic", "n", "e_ij_max", "weighted_surface_energy_EV_PER_ANG2", "weighted_surface_energy", "weighted_work_function", "surface_anisotropy", "shape_factor", "has_reconstructed", "possible_species", "has_props", "theoretical", "database_IDs"]}