{
  "builder_meta": null,
  "nsites": null,
  "elements": null,
  "nelements": null,
  "composition": null,
  "composition_reduced": null,
  "formula_pretty": "Nd3Tl5",
  "formula_anonymous": "A3B5",
  "chemsys": null,
  "volume": 456.7122994995034,
  "density": 10.577734393550381,
  "density_atomic": 28.54451871871896,
  "symmetry": null,
  "property_name": null,
  "material_id": "mp-1189917",
  "deprecated": null,
  "deprecation_reasons": null,
  "last_updated": null,
  "origins": null,
  "warnings": null,
  "structure": {
    "@module": "pymatgen.core.structure",
    "@class": "Structure",
    "charge": 0.0,
    "lattice": {
      "matrix": [
        [5.14090069, 4.17969307, -0.0],
        [-5.14090069, 4.17969307, -0.0],
        [-0.0, -0.0, 10.62745088]
      ],
      "pbc": [true, true, true],
      "a": 6.625608957963675,
      "b": 6.625608957963675,
      "c": 10.62745088,
      "alpha": 90.0,
      "beta": 90.0,
      "gamma": 101.77588876145764,
      "volume": 456.7122994995034
    },
    "properties": {},
    "sites": [
      {
        "species": [{ "element": "Nd", "occu": 1 }],
        "abc": [0.6271157900000001, 0.6271157900000001, 0.25],
        "properties": { "magmom": -0.0 },
        "label": "Nd",
        "xyz": [0.0, 5.242303043101151, 2.65686272]
      },
      {
        "species": [{ "element": "Nd", "occu": 1 }],
        "abc": [0.37288421, 0.37288421, 0.75],
        "properties": { "magmom": -0.0 },
        "label": "Nd",
        "xyz": [0.0, 3.1170830968988494, 7.97058816]
      },
      {
        "species": [{ "element": "Nd", "occu": 1 }],
        "abc": [0.79696777, 0.20303223, 0.5],
        "properties": { "magmom": 0.0 },
        "label": "Nd",
        "xyz": [3.053363627401523, 4.17969307, 5.31372544]
      },
      {
        "species": [{ "element": "Nd", "occu": 1 }],
        "abc": [0.79696777, 0.20303223, 0.0],
        "properties": { "magmom": 0.0 },
        "label": "Nd",
        "xyz": [3.053363627401523, 4.17969307, 0.0]
      },
      {
        "species": [{ "element": "Nd", "occu": 1 }],
        "abc": [0.20303223, 0.79696777, 0.5],
        "properties": { "magmom": 0.0 },
        "label": "Nd",
        "xyz": [-3.053363627401523, 4.17969307, 5.31372544]
      },
      {
        "species": [{ "element": "Nd", "occu": 1 }],
        "abc": [0.20303223, 0.79696777, 0.0],
        "properties": { "magmom": 0.0 },
        "label": "Nd",
        "xyz": [-3.053363627401523, 4.17969307, 0.0]
      },
      {
        "species": [{ "element": "Tl", "occu": 1 }],
        "abc": [0.00877612, 0.00877612, 0.25],
        "properties": { "magmom": -0.0 },
        "label": "Tl",
        "xyz": [0.0, 0.0733629758909768, 2.65686272]
      },
      {
        "species": [{ "element": "Tl", "occu": 1 }],
        "abc": [0.9912238800000001, 0.9912238800000001, 0.75],
        "properties": { "magmom": -0.0 },
        "label": "Tl",
        "xyz": [0.0, 8.286023164109023, 7.97058816]
      },
      {
        "species": [{ "element": "Tl", "occu": 1 }],
        "abc": [0.30693419, 0.30693419, 0.0440457],
        "properties": { "magmom": -0.0 },
        "label": "Tl",
        "xyz": [0.0, 2.5657814137781263, 0.468093513225216]
      },
      {
        "species": [{ "element": "Tl", "occu": 1 }],
        "abc": [0.69306581, 0.69306581, 0.955954299999999],
        "properties": { "magmom": -0.0 },
        "label": "Tl",
        "xyz": [0.0, 5.793604726221873, 10.159357366774774]
      },
      {
        "species": [{ "element": "Tl", "occu": 1 }],
        "abc": [0.30693419, 0.30693419, 0.4559543],
        "properties": { "magmom": -0.0 },
        "label": "Tl",
        "xyz": [0.0, 2.5657814137781263, 4.845631926774783]
      },
      {
        "species": [{ "element": "Tl", "occu": 1 }],
        "abc": [0.69306581, 0.69306581, 0.5440457],
        "properties": { "magmom": -0.0 },
        "label": "Tl",
        "xyz": [0.0, 5.793604726221873, 5.7818189532252156]
      },
      {
        "species": [{ "element": "Tl", "occu": 1 }],
        "abc": [0.07552886, 0.5081898300000001, 0.25],
        "properties": { "magmom": -0.0 },
        "label": "Tl",
        "xyz": [-2.2242670792090693, 2.4397649634224785, 2.65686272]
      },
      {
        "species": [{ "element": "Tl", "occu": 1 }],
        "abc": [0.49181017, 0.92447114, 0.75],
        "properties": { "magmom": -0.0 },
        "label": "Tl",
        "xyz": [-2.2242670792090684, 5.919621176577522, 7.97058816]
      },
      {
        "species": [{ "element": "Tl", "occu": 1 }],
        "abc": [0.92447114, 0.49181017, 0.75],
        "properties": { "magmom": -0.0 },
        "label": "Tl",
        "xyz": [2.2242670792090684, 5.919621176577522, 7.97058816]
      },
      {
        "species": [{ "element": "Tl", "occu": 1 }],
        "abc": [0.5081898300000001, 0.07552886, 0.25],
        "properties": { "magmom": -0.0 },
        "label": "Tl",
        "xyz": [2.2242670792090693, 2.4397649634224785, 2.65686272]
      }
    ]
  },
  "task_ids": null,
  "uncorrected_energy_per_atom": null,
  "energy_per_atom": -3.635809145625003,
  "formation_energy_per_atom": -0.36558378552084103,
  "energy_above_hull": 0.0,
  "is_stable": true,
  "equilibrium_reaction_energy_per_atom": null,
  "decomposes_to": null,
  "xas": null,
  "grain_boundaries": null,
  "band_gap": 0.0,
  "cbm": null,
  "vbm": null,
  "efermi": 5.63662975,
  "is_gap_direct": null,
  "is_metal": null,
  "es_source_calc_id": null,
  "bandstructure": null,
  "dos": null,
  "dos_energy_up": null,
  "dos_energy_down": null,
  "is_magnetic": null,
  "ordering": null,
  "total_magnetization": 8e-7,
  "total_magnetization_normalized_vol": null,
  "total_magnetization_normalized_formula_units": null,
  "num_magnetic_sites": null,
  "num_unique_magnetic_sites": null,
  "types_of_magnetic_species": null,
  "bulk_modulus": null,
  "shear_modulus": null,
  "universal_anisotropy": null,
  "homogeneous_poisson": null,
  "e_total": null,
  "e_ionic": null,
  "e_electronic": null,
  "n": null,
  "e_ij_max": null,
  "weighted_surface_energy_EV_PER_ANG2": null,
  "weighted_surface_energy": null,
  "weighted_work_function": null,
  "surface_anisotropy": null,
  "shape_factor": null,
  "has_reconstructed": null,
  "possible_species": null,
  "has_props": null,
  "theoretical": null,
  "database_IDs": null,
  "fields_not_requested": [
    "builder_meta",
    "nsites",
    "elements",
    "nelements",
    "composition",
    "composition_reduced",
    "chemsys",
    "symmetry",
    "property_name",
    "deprecated",
    "deprecation_reasons",
    "last_updated",
    "origins",
    "warnings",
    "task_ids",
    "uncorrected_energy_per_atom",
    "equilibrium_reaction_energy_per_atom",
    "decomposes_to",
    "xas",
    "grain_boundaries",
    "cbm",
    "vbm",
    "is_gap_direct",
    "is_metal",
    "es_source_calc_id",
    "bandstructure",
    "dos",
    "dos_energy_up",
    "dos_energy_down",
    "is_magnetic",
    "ordering",
    "total_magnetization_normalized_vol",
    "total_magnetization_normalized_formula_units",
    "num_magnetic_sites",
    "num_unique_magnetic_sites",
    "types_of_magnetic_species",
    "bulk_modulus",
    "shear_modulus",
    "universal_anisotropy",
    "homogeneous_poisson",
    "e_total",
    "e_ionic",
    "e_electronic",
    "n",
    "e_ij_max",
    "weighted_surface_energy_EV_PER_ANG2",
    "weighted_surface_energy",
    "weighted_work_function",
    "surface_anisotropy",
    "shape_factor",
    "has_reconstructed",
    "possible_species",
    "has_props",
    "theoretical",
    "database_IDs"
  ]
}
