{
  "builder_meta": null,
  "nsites": null,
  "elements": null,
  "nelements": null,
  "composition": null,
  "composition_reduced": null,
  "formula_pretty": "Nd3Tm",
  "formula_anonymous": "AB3",
  "chemsys": null,
  "volume": 278.06767599612067,
  "density": 7.185878617101098,
  "density_atomic": 34.758459499515084,
  "symmetry": null,
  "property_name": null,
  "material_id": "mp-1186286",
  "deprecated": null,
  "deprecation_reasons": null,
  "last_updated": null,
  "origins": null,
  "warnings": null,
  "structure": {
    "@module": "pymatgen.core.structure",
    "@class": "Structure",
    "charge": 0,
    "lattice": {
      "matrix": [
        [3.70704558, -6.42079112, 0.0],
        [3.70704558, 6.42079112, -0.0],
        [0.0, 0.0, 5.84122646]
      ],
      "pbc": [true, true, true],
      "a": 7.414091012313538,
      "b": 7.414091012313538,
      "c": 5.84122646,
      "alpha": 90.0,
      "beta": 90.0,
      "gamma": 119.99999868212332,
      "volume": 278.06767599612067
    },
    "properties": {},
    "sites": [
      {
        "species": [{ "element": "Nd", "occu": 1 }],
        "abc": [0.16849886, 0.33699872000000003, 0.25],
        "properties": { "magmom": 0.145 },
        "label": "Nd",
        "xyz": [1.8739025696396965, 1.0819024048092436, 1.460306615]
      },
      {
        "species": [{ "element": "Nd", "occu": 1 }],
        "abc": [0.66300128, 0.83150114, 0.25],
        "properties": { "magmom": 0.145 },
        "label": "Nd",
        "xyz": [5.540188590360303, 1.0819024048092425, 1.460306615]
      },
      {
        "species": [{ "element": "Nd", "occu": 1 }],
        "abc": [0.16849886, 0.83150114, 0.25],
        "properties": { "magmom": 0.145 },
        "label": "Nd",
        "xyz": [3.70704558, 4.256999151963753, 1.460306615]
      },
      {
        "species": [{ "element": "Nd", "occu": 1 }],
        "abc": [0.83150114, 0.66300128, 0.75],
        "properties": { "magmom": 0.145 },
        "label": "Nd",
        "xyz": [5.540188590360303, -1.0819024048092425, 4.380919844999999]
      },
      {
        "species": [{ "element": "Nd", "occu": 1 }],
        "abc": [0.33699872000000003, 0.16849886, 0.75],
        "properties": { "magmom": 0.145 },
        "label": "Nd",
        "xyz": [1.8739025696396965, -1.0819024048092436, 4.380919844999999]
      },
      {
        "species": [{ "element": "Nd", "occu": 1 }],
        "abc": [0.83150114, 0.16849886, 0.75],
        "properties": { "magmom": 0.145 },
        "label": "Nd",
        "xyz": [3.70704558, -4.256999151963753, 4.380919844999999]
      },
      {
        "species": [{ "element": "Tm", "occu": 1 }],
        "abc": [0.333333, 0.666667, 0.75],
        "properties": { "magmom": 0.233 },
        "label": "Tm",
        "xyz": [3.70704558, 2.14026798719408, 4.380919844999999]
      },
      {
        "species": [{ "element": "Tm", "occu": 1 }],
        "abc": [0.666667, 0.333333, 0.25],
        "properties": { "magmom": 0.233 },
        "label": "Tm",
        "xyz": [3.70704558, -2.14026798719408, 1.460306615]
      }
    ]
  },
  "task_ids": null,
  "uncorrected_energy_per_atom": null,
  "energy_per_atom": -30.82250569,
  "formation_energy_per_atom": 0.021263119374999,
  "energy_above_hull": 0.021263119374999,
  "is_stable": false,
  "equilibrium_reaction_energy_per_atom": null,
  "decomposes_to": null,
  "xas": null,
  "grain_boundaries": null,
  "band_gap": 0.0,
  "cbm": null,
  "vbm": null,
  "efermi": 3.20036788,
  "is_gap_direct": null,
  "is_metal": null,
  "es_source_calc_id": null,
  "bandstructure": null,
  "dos": null,
  "dos_energy_up": null,
  "dos_energy_down": null,
  "is_magnetic": null,
  "ordering": null,
  "total_magnetization": 2.5016332,
  "total_magnetization_normalized_vol": null,
  "total_magnetization_normalized_formula_units": null,
  "num_magnetic_sites": null,
  "num_unique_magnetic_sites": null,
  "types_of_magnetic_species": null,
  "bulk_modulus": null,
  "shear_modulus": null,
  "universal_anisotropy": null,
  "homogeneous_poisson": null,
  "e_total": null,
  "e_ionic": null,
  "e_electronic": null,
  "n": null,
  "e_ij_max": null,
  "weighted_surface_energy_EV_PER_ANG2": null,
  "weighted_surface_energy": null,
  "weighted_work_function": null,
  "surface_anisotropy": null,
  "shape_factor": null,
  "has_reconstructed": null,
  "possible_species": null,
  "has_props": null,
  "theoretical": null,
  "database_IDs": null,
  "fields_not_requested": [
    "builder_meta",
    "nsites",
    "elements",
    "nelements",
    "composition",
    "composition_reduced",
    "chemsys",
    "symmetry",
    "property_name",
    "deprecated",
    "deprecation_reasons",
    "last_updated",
    "origins",
    "warnings",
    "task_ids",
    "uncorrected_energy_per_atom",
    "equilibrium_reaction_energy_per_atom",
    "decomposes_to",
    "xas",
    "grain_boundaries",
    "cbm",
    "vbm",
    "is_gap_direct",
    "is_metal",
    "es_source_calc_id",
    "bandstructure",
    "dos",
    "dos_energy_up",
    "dos_energy_down",
    "is_magnetic",
    "ordering",
    "total_magnetization_normalized_vol",
    "total_magnetization_normalized_formula_units",
    "num_magnetic_sites",
    "num_unique_magnetic_sites",
    "types_of_magnetic_species",
    "bulk_modulus",
    "shear_modulus",
    "universal_anisotropy",
    "homogeneous_poisson",
    "e_total",
    "e_ionic",
    "e_electronic",
    "n",
    "e_ij_max",
    "weighted_surface_energy_EV_PER_ANG2",
    "weighted_surface_energy",
    "weighted_work_function",
    "surface_anisotropy",
    "shape_factor",
    "has_reconstructed",
    "possible_species",
    "has_props",
    "theoretical",
    "database_IDs"
  ]
}
