{"builder_meta": null, "nsites": null, "elements": null, "nelements": null, "composition": null, "composition_reduced": null, "formula_pretty": "Nd3Y", "formula_anonymous": "AB3", "chemsys": null, "volume": 138.8578705395968, "density": 6.237961607374842, "density_atomic": 34.7144676348992, "symmetry": null, "property_name": null, "material_id": "mp-1220208", "deprecated": null, "deprecation_reasons": null, "last_updated": null, "origins": null, "warnings": null, "structure": {"@module": "pymatgen.core.structure", "@class": "Structure", "charge": 0, "lattice": {"matrix": [[-1.84037031, -3.18760984, 0.0], [-3.68073853, -3.0000000000000004e-08, 0.0], [0.0, 0.0, -11.83505762]], "pbc": [true, true, true], "a": 3.6807362537941133, "b": 3.68073853, "c": 11.83505762, "alpha": 90.0, "beta": 90.0, "gamma": 59.99996029277327, "volume": 138.8578705395968}, "properties": {}, "sites": [{"species": [{"element": "Nd", "occu": 1}], "abc": [0.66654661, 0.6667272, 0.25], "properties": {"magmom": -0.0}, "label": "Nd", "xyz": [-3.6807410853141653, -2.1246905528564586, -2.958764405]}, {"species": [{"element": "Nd", "occu": 1}], "abc": [1.263e-05, 0.99999319, 0.50342294], "properties": {"magmom": -0.0}, "label": "Nd", "xyz": [-3.680736708047626, -4.02895120749e-05, -5.958039502129803]}, {"species": [{"element": "Nd", "occu": 1}], "abc": [1.263e-05, 0.99999319, 0.99657706], "properties": {"magmom": -0.0}, "label": "Nd", "xyz": [-3.680736708047626, -4.02895120749e-05, -11.794546927870197]}, {"species": [{"element": "Y", "occu": 1}], "abc": [0.33342913, 0.33328543, 0.75], "properties": {"magmom": 0.0}, "label": "Y", "xyz": [-1.840369595029748, -1.0628419857292022, -8.876293215]}]}, "task_ids": null, "uncorrected_energy_per_atom": null, "energy_per_atom": -27.13004955, "formation_energy_per_atom": 0.011857426875003001, "energy_above_hull": 0.011857426875003001, "is_stable": false, "equilibrium_reaction_energy_per_atom": null, "decomposes_to": null, "xas": null, "grain_boundaries": null, "band_gap": 0.0, "cbm": null, "vbm": null, "efermi": 3.43340236, "is_gap_direct": null, "is_metal": null, "es_source_calc_id": null, "bandstructure": null, "dos": null, "dos_energy_up": null, "dos_energy_down": null, "is_magnetic": null, "ordering": null, "total_magnetization": 0.0001069, "total_magnetization_normalized_vol": null, "total_magnetization_normalized_formula_units": null, "num_magnetic_sites": null, "num_unique_magnetic_sites": null, "types_of_magnetic_species": null, "bulk_modulus": null, "shear_modulus": null, "universal_anisotropy": null, "homogeneous_poisson": null, "e_total": null, "e_ionic": null, "e_electronic": null, "n": null, "e_ij_max": null, "weighted_surface_energy_EV_PER_ANG2": null, "weighted_surface_energy": null, "weighted_work_function": null, "surface_anisotropy": null, "shape_factor": null, "has_reconstructed": null, "possible_species": null, "has_props": null, "theoretical": null, "database_IDs": null, "fields_not_requested": ["builder_meta", "nsites", "elements", "nelements", "composition", "composition_reduced", "chemsys", "symmetry", "property_name", "deprecated", "deprecation_reasons", "last_updated", "origins", "warnings", "task_ids", "uncorrected_energy_per_atom", "equilibrium_reaction_energy_per_atom", "decomposes_to", "xas", "grain_boundaries", "cbm", "vbm", "is_gap_direct", "is_metal", "es_source_calc_id", "bandstructure", "dos", "dos_energy_up", "dos_energy_down", "is_magnetic", "ordering", "total_magnetization_normalized_vol", "total_magnetization_normalized_formula_units", "num_magnetic_sites", "num_unique_magnetic_sites", "types_of_magnetic_species", "bulk_modulus", "shear_modulus", "universal_anisotropy", "homogeneous_poisson", "e_total", "e_ionic", "e_electronic", "n", "e_ij_max", "weighted_surface_energy_EV_PER_ANG2", "weighted_surface_energy", "weighted_work_function", "surface_anisotropy", "shape_factor", "has_reconstructed", "possible_species", "has_props", "theoretical", "database_IDs"]}