{"builder_meta": null, "nsites": null, "elements": null, "nelements": null, "composition": null, "composition_reduced": null, "formula_pretty": "Nd3Zn", "formula_anonymous": "AB3", "chemsys": null, "volume": 236.07241194957908, "density": 7.007787323471414, "density_atomic": 29.509051493697385, "symmetry": null, "property_name": null, "material_id": "mp-1186290", "deprecated": null, "deprecation_reasons": null, "last_updated": null, "origins": null, "warnings": null, "structure": {"@module": "pymatgen.core.structure", "@class": "Structure", "charge": 0, "lattice": {"matrix": [[3.5556, -6.15848, 0.0], [3.5556, 6.15848, 0.0], [0.0, 0.0, 5.390497]], "pbc": [true, true, true], "a": 7.11120012869839, "b": 7.11120012869839, "c": 5.390497, "alpha": 90.0, "beta": 90.0, "gamma": 120.00000119735303, "volume": 236.07241194957908}, "properties": {}, "sites": [{"species": [{"element": "Nd", "occu": 1}], "abc": [0.823538, 0.647075, 0.75], "properties": {"magmom": 0.0}, "label": "Nd", "xyz": [5.2289115828, -1.08674385624, 4.04287275]}, {"species": [{"element": "Nd", "occu": 1}], "abc": [0.352925, 0.176461999999999, 0.75], "properties": {"magmom": -0.001}, "label": "Nd", "xyz": [1.8822884171999963, -1.086743856240006, 4.04287275]}, {"species": [{"element": "Nd", "occu": 1}], "abc": [0.823538, 0.176461999999999, 0.75], "properties": {"magmom": 0.0}, "label": "Nd", "xyz": [3.5555999999999965, -3.9850046044800056, 4.04287275]}, {"species": [{"element": "Nd", "occu": 1}], "abc": [0.176461999999999, 0.352925, 0.25], "properties": {"magmom": 0.0}, "label": "Nd", "xyz": [1.8822884171999963, 1.086743856240006, 1.34762425]}, {"species": [{"element": "Nd", "occu": 1}], "abc": [0.647075, 0.823538, 0.25], "properties": {"magmom": -0.001}, "label": "Nd", "xyz": [5.2289115828, 1.08674385624, 1.34762425]}, {"species": [{"element": "Nd", "occu": 1}], "abc": [0.176461999999999, 0.823538, 0.25], "properties": {"magmom": 0.0}, "label": "Nd", "xyz": [3.5555999999999965, 3.9850046044800056, 1.34762425]}, {"species": [{"element": "Zn", "occu": 1}], "abc": [0.333333, 0.666667, 0.75], "properties": {"magmom": 0.001}, "label": "Zn", "xyz": [3.5556, 2.0528307723199997, 4.04287275]}, {"species": [{"element": "Zn", "occu": 1}], "abc": [0.666667, 0.333333, 0.25], "properties": {"magmom": 0.001}, "label": "Zn", "xyz": [3.5556, -2.0528307723199997, 1.34762425]}]}, "task_ids": null, "uncorrected_energy_per_atom": null, "energy_per_atom": -3.93274003625, "formation_energy_per_atom": -0.041693559374998, "energy_above_hull": 0.11567371999999901, "is_stable": false, "equilibrium_reaction_energy_per_atom": null, "decomposes_to": null, "xas": null, "grain_boundaries": null, "band_gap": 0.0, "cbm": null, "vbm": null, "efermi": 3.36482146, "is_gap_direct": null, "is_metal": null, "es_source_calc_id": null, "bandstructure": null, "dos": null, "dos_energy_up": null, "dos_energy_down": null, "is_magnetic": null, "ordering": null, "total_magnetization": 0.006369199999999, "total_magnetization_normalized_vol": null, "total_magnetization_normalized_formula_units": null, "num_magnetic_sites": null, "num_unique_magnetic_sites": null, "types_of_magnetic_species": null, "bulk_modulus": null, "shear_modulus": null, "universal_anisotropy": null, "homogeneous_poisson": null, "e_total": null, "e_ionic": null, "e_electronic": null, "n": null, "e_ij_max": null, "weighted_surface_energy_EV_PER_ANG2": null, "weighted_surface_energy": null, "weighted_work_function": null, "surface_anisotropy": null, "shape_factor": null, "has_reconstructed": null, "possible_species": null, "has_props": null, "theoretical": null, "database_IDs": null, "fields_not_requested": ["builder_meta", "nsites", "elements", "nelements", "composition", "composition_reduced", "chemsys", "symmetry", "property_name", "deprecated", "deprecation_reasons", "last_updated", "origins", "warnings", "task_ids", "uncorrected_energy_per_atom", "equilibrium_reaction_energy_per_atom", "decomposes_to", "xas", "grain_boundaries", "cbm", "vbm", "is_gap_direct", "is_metal", "es_source_calc_id", "bandstructure", "dos", "dos_energy_up", "dos_energy_down", "is_magnetic", "ordering", "total_magnetization_normalized_vol", "total_magnetization_normalized_formula_units", "num_magnetic_sites", "num_unique_magnetic_sites", "types_of_magnetic_species", "bulk_modulus", "shear_modulus", "universal_anisotropy", "homogeneous_poisson", "e_total", "e_ionic", "e_electronic", "n", "e_ij_max", "weighted_surface_energy_EV_PER_ANG2", "weighted_surface_energy", "weighted_work_function", "surface_anisotropy", "shape_factor", "has_reconstructed", "possible_species", "has_props", "theoretical", "database_IDs"]}