{
  "builder_meta": null,
  "nsites": null,
  "elements": null,
  "nelements": null,
  "composition": null,
  "composition_reduced": null,
  "formula_pretty": "Nd4Al",
  "formula_anonymous": "AB4",
  "chemsys": null,
  "volume": 374.7554961663643,
  "density": 5.352192634181609,
  "density_atomic": 37.47554961663643,
  "symmetry": null,
  "property_name": null,
  "material_id": "mp-1209964",
  "deprecated": null,
  "deprecation_reasons": null,
  "last_updated": null,
  "origins": null,
  "warnings": null,
  "structure": {
    "@module": "pymatgen.core.structure",
    "@class": "Structure",
    "charge": 0,
    "lattice": {
      "matrix": [
        [0.0, 5.722327, 5.722327],
        [5.722327, 0.0, 5.722327],
        [5.722327, 5.722327, 0.0]
      ],
      "pbc": [true, true, true],
      "a": 8.092592451733745,
      "b": 8.092592451733745,
      "c": 8.092592451733745,
      "alpha": 59.99999999999999,
      "beta": 59.99999999999999,
      "gamma": 59.99999999999999,
      "volume": 374.7554961663643
    },
    "properties": {},
    "sites": [
      {
        "species": [{ "element": "Nd", "occu": 1 }],
        "abc": [0.893566, 0.893566, 0.893566],
        "properties": { "magmom": -0.0 },
        "label": "Nd",
        "xyz": [10.226553696164, 10.226553696164, 10.226553696164]
      },
      {
        "species": [{ "element": "Nd", "occu": 1 }],
        "abc": [0.893566, 0.893566, 0.319301],
        "properties": { "magmom": -0.0 },
        "label": "Nd",
        "xyz": [6.940421581509, 6.940421581509, 10.226553696164]
      },
      {
        "species": [{ "element": "Nd", "occu": 1 }],
        "abc": [0.893566, 0.319301, 0.893566],
        "properties": { "magmom": -0.0 },
        "label": "Nd",
        "xyz": [6.940421581509, 10.226553696164, 6.940421581509]
      },
      {
        "species": [{ "element": "Nd", "occu": 1 }],
        "abc": [0.356434, 0.356434, 0.930698999999999],
        "properties": { "magmom": -0.0 },
        "label": "Nd",
        "xyz": [7.365395918490995, 7.365395918490995, 4.079263803836]
      },
      {
        "species": [{ "element": "Nd", "occu": 1 }],
        "abc": [0.356434, 0.356434, 0.356434],
        "properties": { "magmom": -0.0 },
        "label": "Nd",
        "xyz": [4.079263803836, 4.079263803836, 4.079263803836]
      },
      {
        "species": [{ "element": "Nd", "occu": 1 }],
        "abc": [0.319301, 0.893566, 0.893566],
        "properties": { "magmom": -0.0 },
        "label": "Nd",
        "xyz": [10.226553696164, 6.940421581509, 6.940421581509]
      },
      {
        "species": [{ "element": "Nd", "occu": 1 }],
        "abc": [0.356434, 0.930698999999999, 0.356434],
        "properties": { "magmom": -0.0 },
        "label": "Nd",
        "xyz": [7.365395918490995, 4.079263803836, 7.365395918490995]
      },
      {
        "species": [{ "element": "Nd", "occu": 1 }],
        "abc": [0.930698999999999, 0.356434, 0.356434],
        "properties": { "magmom": -0.0 },
        "label": "Nd",
        "xyz": [4.079263803836, 7.365395918490995, 7.365395918490995]
      },
      {
        "species": [{ "element": "Al", "occu": 1 }],
        "abc": [0.5, 0.5, 0.5],
        "properties": { "magmom": 0.0 },
        "label": "Al",
        "xyz": [5.722327, 5.722327, 5.722327]
      },
      {
        "species": [{ "element": "Al", "occu": 1 }],
        "abc": [0.75, 0.75, 0.75],
        "properties": { "magmom": 0.0 },
        "label": "Al",
        "xyz": [8.5834905, 8.5834905, 8.5834905]
      }
    ]
  },
  "task_ids": null,
  "uncorrected_energy_per_atom": null,
  "energy_per_atom": -24.44584926,
  "formation_energy_per_atom": 0.434977592000001,
  "energy_above_hull": 0.618212954500002,
  "is_stable": false,
  "equilibrium_reaction_energy_per_atom": null,
  "decomposes_to": null,
  "xas": null,
  "grain_boundaries": null,
  "band_gap": 0.0,
  "cbm": null,
  "vbm": null,
  "efermi": 2.63162155,
  "is_gap_direct": null,
  "is_metal": null,
  "es_source_calc_id": null,
  "bandstructure": null,
  "dos": null,
  "dos_energy_up": null,
  "dos_energy_down": null,
  "is_magnetic": null,
  "ordering": null,
  "total_magnetization": 0.0053148,
  "total_magnetization_normalized_vol": null,
  "total_magnetization_normalized_formula_units": null,
  "num_magnetic_sites": null,
  "num_unique_magnetic_sites": null,
  "types_of_magnetic_species": null,
  "bulk_modulus": null,
  "shear_modulus": null,
  "universal_anisotropy": null,
  "homogeneous_poisson": null,
  "e_total": null,
  "e_ionic": null,
  "e_electronic": null,
  "n": null,
  "e_ij_max": null,
  "weighted_surface_energy_EV_PER_ANG2": null,
  "weighted_surface_energy": null,
  "weighted_work_function": null,
  "surface_anisotropy": null,
  "shape_factor": null,
  "has_reconstructed": null,
  "possible_species": null,
  "has_props": null,
  "theoretical": null,
  "database_IDs": null,
  "fields_not_requested": [
    "builder_meta",
    "nsites",
    "elements",
    "nelements",
    "composition",
    "composition_reduced",
    "chemsys",
    "symmetry",
    "property_name",
    "deprecated",
    "deprecation_reasons",
    "last_updated",
    "origins",
    "warnings",
    "task_ids",
    "uncorrected_energy_per_atom",
    "equilibrium_reaction_energy_per_atom",
    "decomposes_to",
    "xas",
    "grain_boundaries",
    "cbm",
    "vbm",
    "is_gap_direct",
    "is_metal",
    "es_source_calc_id",
    "bandstructure",
    "dos",
    "dos_energy_up",
    "dos_energy_down",
    "is_magnetic",
    "ordering",
    "total_magnetization_normalized_vol",
    "total_magnetization_normalized_formula_units",
    "num_magnetic_sites",
    "num_unique_magnetic_sites",
    "types_of_magnetic_species",
    "bulk_modulus",
    "shear_modulus",
    "universal_anisotropy",
    "homogeneous_poisson",
    "e_total",
    "e_ionic",
    "e_electronic",
    "n",
    "e_ij_max",
    "weighted_surface_energy_EV_PER_ANG2",
    "weighted_surface_energy",
    "weighted_work_function",
    "surface_anisotropy",
    "shape_factor",
    "has_reconstructed",
    "possible_species",
    "has_props",
    "theoretical",
    "database_IDs"
  ]
}
