{"builder_meta": null, "nsites": null, "elements": null, "nelements": null, "composition": null, "composition_reduced": null, "formula_pretty": "Nd4Bi3", "formula_anonymous": "A3B4", "chemsys": null, "volume": 453.3745147593192, "density": 8.818926490830327, "density_atomic": 32.38389391137994, "symmetry": null, "property_name": null, "material_id": "mp-23175", "deprecated": null, "deprecation_reasons": null, "last_updated": null, "origins": null, "warnings": null, "structure": {"@module": "pymatgen.core.structure", "@class": "Structure", "charge": 0, "lattice": {"matrix": [[7.90283889, 7.3e-07, -2.7940801200000003], [-3.95141875, 6.84406064, -2.7940801], [2.5e-07, 4.8e-07, 8.38223985]], "pbc": [true, true, true], "a": 8.382227999659529, "b": 8.382228807844891, "c": 8.382239850000017, "alpha": 109.47124642029759, "beta": 109.47124879656887, "gamma": 109.47117978685375, "volume": 453.3745147593192}, "properties": {}, "sites": [{"species": [{"element": "Nd", "occu": 1}], "abc": [0.14195264, 0.14195335, 0.14195391000000002], "properties": {"magmom": 0.062}, "label": "Nd", "xyz": [0.5609117506033345, 0.9715375072144481, 0.3966356414964617]}, {"species": [{"element": "Nd", "occu": 1}], "abc": [0.85804592, 0.50000096, 4e-07], "properties": {"magmom": 0.062}, "label": "Nd", "xyz": [4.805285497619929, 3.4220375166719283, -3.794488426540067]}, {"species": [{"element": "Nd", "occu": 1}], "abc": [0.99999963, 0.85804511, 0.49999984000000003], "properties": {"magmom": 0.062}, "label": "Nd", "xyz": [4.512340554949757, 5.872513734695124, -1.000407269102043]}, {"species": [{"element": "Nd", "occu": 1}], "abc": [0.50000007, -3.2e-07, 0.8580455], "properties": {"magmom": 0.062}, "label": "Nd", "xyz": [3.9514214771640974, -1.4132375137000002e-06, 5.795303821733198]}, {"species": [{"element": "Nd", "occu": 1}], "abc": [1.399999999999999e-07, 0.35804656, 0.49999974], "properties": {"magmom": 0.062}, "label": "Nd", "xyz": [-1.4147906591596204, 2.450492608583376, 3.190706586276966]}, {"species": [{"element": "Nd", "occu": 1}], "abc": [0.49999998, 1.7000000000000001e-07, 0.35804707], "properties": {"magmom": 0.062}, "label": "Nd", "xyz": [3.951418704713802, 1.7003528878000001e-06, 1.6041959392177245]}, {"species": [{"element": "Nd", "occu": 1}], "abc": [0.35804602, 0.49999904, -2.4e-07], "properties": {"magmom": 0.062}, "label": "Nd", "xyz": [0.8538744296276581, 3.4220240110752655, -2.3974486459477906]}, {"species": [{"element": "Nd", "occu": 1}], "abc": [0.64195536, 0.64195451, 0.64195419], "properties": {"magmom": 0.062}, "label": "Nd", "xyz": [2.536638857679435, 4.39357637132691, 1.7936669624927761]}, {"species": [{"element": "Bi", "occu": 1}], "abc": [0.25000039, 0.62499944, 0.37500043], "properties": {"magmom": -0.014}, "label": "Bi", "xyz": [-0.49392160759822507, 4.277534429826534, 0.6985239306067443]}, {"species": [{"element": "Bi", "occu": 1}], "abc": [0.37499939, 0.25000002, 0.62499955], "properties": {"magmom": -0.014}, "label": "Bi", "xyz": [1.9757051527397895, 1.7110158706305516, 3.4925977127493377]}, {"species": [{"element": "Bi", "occu": 1}], "abc": [0.12500034000000002, 0.75000036, 0.8750000800000001], "properties": {"magmom": -0.014}, "label": "Bi", "xyz": [-1.9757077180455074, 5.133048455112117, 4.889638493473111]}, {"species": [{"element": "Bi", "occu": 1}], "abc": [0.8750004, 0.12500006, 0.74999972], "properties": {"magmom": -0.014}, "label": "Bi", "xyz": [6.421059796550361, 0.855508989393796, 3.4925961376959873]}, {"species": [{"element": "Bi", "occu": 1}], "abc": [0.6250001, 0.37499987, 0.25000051], "properties": {"magmom": -0.014}, "label": "Bi", "xyz": [3.4574936414684534, 2.5665224265224347, -0.6985157912352755]}, {"species": [{"element": "Bi", "occu": 1}], "abc": [0.74999961, 0.8749998600000001, 0.125000299999999], "properties": {"magmom": -0.014}, "label": "Bi", "xyz": [2.4696352635915333, 5.988552709331371, -3.4925962007155924]}]}, "task_ids": null, "uncorrected_energy_per_atom": null, "energy_per_atom": -5.221537970714288, "formation_energy_per_atom": -0.8297247335714311, "energy_above_hull": 0.014698113571427002, "is_stable": false, "equilibrium_reaction_energy_per_atom": null, "decomposes_to": null, "xas": null, "grain_boundaries": null, "band_gap": 0.0, "cbm": null, "vbm": null, "efermi": 5.0134127, "is_gap_direct": null, "is_metal": null, "es_source_calc_id": null, "bandstructure": null, "dos": null, "dos_energy_up": null, "dos_energy_down": null, "is_magnetic": null, "ordering": null, "total_magnetization": 0.9914259, "total_magnetization_normalized_vol": null, "total_magnetization_normalized_formula_units": null, "num_magnetic_sites": null, "num_unique_magnetic_sites": null, "types_of_magnetic_species": null, "bulk_modulus": null, "shear_modulus": null, "universal_anisotropy": null, "homogeneous_poisson": null, "e_total": null, "e_ionic": null, "e_electronic": null, "n": null, "e_ij_max": null, "weighted_surface_energy_EV_PER_ANG2": null, "weighted_surface_energy": null, "weighted_work_function": null, "surface_anisotropy": null, "shape_factor": null, "has_reconstructed": null, "possible_species": null, "has_props": null, "theoretical": null, "database_IDs": null, "fields_not_requested": ["builder_meta", "nsites", "elements", "nelements", "composition", "composition_reduced", "chemsys", "symmetry", "property_name", "deprecated", "deprecation_reasons", "last_updated", "origins", "warnings", "task_ids", "uncorrected_energy_per_atom", "equilibrium_reaction_energy_per_atom", "decomposes_to", "xas", "grain_boundaries", "cbm", "vbm", "is_gap_direct", "is_metal", "es_source_calc_id", "bandstructure", "dos", "dos_energy_up", "dos_energy_down", "is_magnetic", "ordering", "total_magnetization_normalized_vol", "total_magnetization_normalized_formula_units", "num_magnetic_sites", "num_unique_magnetic_sites", "types_of_magnetic_species", "bulk_modulus", "shear_modulus", "universal_anisotropy", "homogeneous_poisson", "e_total", "e_ionic", "e_electronic", "n", "e_ij_max", "weighted_surface_energy_EV_PER_ANG2", "weighted_surface_energy", "weighted_work_function", "surface_anisotropy", "shape_factor", "has_reconstructed", "possible_species", "has_props", "theoretical", "database_IDs"]}