{"builder_meta": null, "nsites": null, "elements": null, "nelements": null, "composition": null, "composition_reduced": null, "formula_pretty": "Nd4Fe", "formula_anonymous": "AB4", "chemsys": null, "volume": 333.1080463452094, "density": 6.309128343680779, "density_atomic": 33.31080463452094, "symmetry": null, "property_name": null, "material_id": "mp-1210178", "deprecated": null, "deprecation_reasons": null, "last_updated": null, "origins": null, "warnings": null, "structure": {"@module": "pymatgen.core.structure", "@class": "Structure", "charge": 0, "lattice": {"matrix": [[-5.501972, -5.501972, 0.0], [-5.501972, 0.0, -5.501972], [0.0, -5.501972, -5.501972]], "pbc": [true, true, true], "a": 7.780963422197023, "b": 7.780963422197023, "c": 7.780963422197023, "alpha": 59.99999999999999, "beta": 59.99999999999999, "gamma": 59.99999999999999, "volume": 333.1080463452094}, "properties": {}, "sites": [{"species": [{"element": "Nd", "occu": 1}], "abc": [0.616058, 0.616058, 0.616058], "properties": {"magmom": 0.0}, "label": "Nd", "xyz": [-6.779067732752, -6.779067732752, -6.779067732752]}, {"species": [{"element": "Nd", "occu": 1}], "abc": [0.151827, 0.616058, 0.616058], "properties": {"magmom": -0.0}, "label": "Nd", "xyz": [-4.22488176922, -4.22488176922, -6.779067732752]}, {"species": [{"element": "Nd", "occu": 1}], "abc": [0.616058, 0.151827, 0.616058], "properties": {"magmom": -0.0}, "label": "Nd", "xyz": [-4.22488176922, -6.779067732752, -4.22488176922]}, {"species": [{"element": "Nd", "occu": 1}], "abc": [0.598173, 0.133942, 0.133942], "properties": {"magmom": -0.0}, "label": "Nd", "xyz": [-4.02807623078, -4.02807623078, -1.473890267248]}, {"species": [{"element": "Nd", "occu": 1}], "abc": [0.133942, 0.133942, 0.133942], "properties": {"magmom": 0.0}, "label": "Nd", "xyz": [-1.473890267248, -1.473890267248, -1.473890267248]}, {"species": [{"element": "Nd", "occu": 1}], "abc": [0.616058, 0.616058, 0.151827], "properties": {"magmom": 0.0}, "label": "Nd", "xyz": [-6.779067732752, -4.22488176922, -4.22488176922]}, {"species": [{"element": "Nd", "occu": 1}], "abc": [0.133942, 0.598173, 0.133942], "properties": {"magmom": -0.0}, "label": "Nd", "xyz": [-4.02807623078, -1.473890267248, -4.02807623078]}, {"species": [{"element": "Nd", "occu": 1}], "abc": [0.133942, 0.133942, 0.598173], "properties": {"magmom": 0.0}, "label": "Nd", "xyz": [-1.473890267248, -4.02807623078, -4.02807623078]}, {"species": [{"element": "Fe", "occu": 1}], "abc": [0.0, 0.0, 0.0], "properties": {"magmom": 0.001}, "label": "Fe", "xyz": [0.0, 0.0, 0.0]}, {"species": [{"element": "Fe", "occu": 1}], "abc": [0.75, 0.75, 0.75], "properties": {"magmom": 0.001}, "label": "Fe", "xyz": [-8.252958, -8.252958, -8.252958]}]}, "task_ids": null, "uncorrected_energy_per_atom": null, "energy_per_atom": -5.079226178, "formation_energy_per_atom": 0.42929601, "energy_above_hull": 0.42929601, "is_stable": false, "equilibrium_reaction_energy_per_atom": null, "decomposes_to": null, "xas": null, "grain_boundaries": null, "band_gap": 0.0, "cbm": null, "vbm": null, "efermi": 3.02744583, "is_gap_direct": null, "is_metal": null, "es_source_calc_id": null, "bandstructure": null, "dos": null, "dos_energy_up": null, "dos_energy_down": null, "is_magnetic": null, "ordering": null, "total_magnetization": 0.0024525, "total_magnetization_normalized_vol": null, "total_magnetization_normalized_formula_units": null, "num_magnetic_sites": null, "num_unique_magnetic_sites": null, "types_of_magnetic_species": null, "bulk_modulus": null, "shear_modulus": null, "universal_anisotropy": null, "homogeneous_poisson": null, "e_total": null, "e_ionic": null, "e_electronic": null, "n": null, "e_ij_max": null, "weighted_surface_energy_EV_PER_ANG2": null, "weighted_surface_energy": null, "weighted_work_function": null, "surface_anisotropy": null, "shape_factor": null, "has_reconstructed": null, "possible_species": null, "has_props": null, "theoretical": null, "database_IDs": null, "fields_not_requested": ["builder_meta", "nsites", "elements", "nelements", "composition", "composition_reduced", "chemsys", "symmetry", "property_name", "deprecated", "deprecation_reasons", "last_updated", "origins", "warnings", "task_ids", "uncorrected_energy_per_atom", "equilibrium_reaction_energy_per_atom", "decomposes_to", "xas", "grain_boundaries", "cbm", "vbm", "is_gap_direct", "is_metal", "es_source_calc_id", "bandstructure", "dos", "dos_energy_up", "dos_energy_down", "is_magnetic", "ordering", "total_magnetization_normalized_vol", "total_magnetization_normalized_formula_units", "num_magnetic_sites", "num_unique_magnetic_sites", "types_of_magnetic_species", "bulk_modulus", "shear_modulus", "universal_anisotropy", "homogeneous_poisson", "e_total", "e_ionic", "e_electronic", "n", "e_ij_max", "weighted_surface_energy_EV_PER_ANG2", "weighted_surface_energy", "weighted_work_function", "surface_anisotropy", "shape_factor", "has_reconstructed", "possible_species", "has_props", "theoretical", "database_IDs"]}