{"builder_meta": null, "nsites": null, "elements": null, "nelements": null, "composition": null, "composition_reduced": null, "formula_pretty": "Nd4Ge7", "formula_anonymous": "A4B7", "chemsys": null, "volume": 507.8414460685327, "density": 7.098391920219919, "density_atomic": 23.083702094024215, "symmetry": null, "property_name": null, "material_id": "mp-29778", "deprecated": null, "deprecation_reasons": null, "last_updated": null, "origins": null, "warnings": null, "structure": {"@module": "pymatgen.core.structure", "@class": "Structure", "charge": 0, "lattice": {"matrix": [[6.03140039, -0.0, 0.0], [-3.01570071, 6.97955374, -0.0], [-0.0, 0.0, 12.06374994]], "pbc": [true, true, true], "a": 6.03140039, "b": 7.603198089083468, "c": 12.06374994, "alpha": 90.0, "beta": 90.0, "gamma": 113.36803509803383, "volume": 507.8414460685327}, "properties": {}, "sites": [{"species": [{"element": "Nd", "occu": 1}], "abc": [0.51292772, 0.0, 0.5], "properties": {"magmom": -0.0}, "label": "Nd", "xyz": [3.0936724504498105, 0.0, 6.03187497]}, {"species": [{"element": "Nd", "occu": 1}], "abc": [0.48707228, -0.0, -0.0], "properties": {"magmom": -0.0}, "label": "Nd", "xyz": [2.9377279395501894, 0.0, 0.0]}, {"species": [{"element": "Nd", "occu": 1}], "abc": [0.9968195, 0.9936409900000001, 0.25], "properties": {"magmom": 0.0}, "label": "Nd", "xyz": [3.015693682031502, 6.935170687971803, 3.015937485]}, {"species": [{"element": "Nd", "occu": 1}], "abc": [0.003180499999999, 0.00635901, 0.75], "properties": {"magmom": 0.0}, "label": "Nd", "xyz": [5.9979684918706755e-06, 0.0443830520281974, 9.047812454999999]}, {"species": [{"element": "Nd", "occu": 1}], "abc": [0.51010894, 0.48978131, 0.61913317], "properties": {"magmom": 0.0}, "label": "Nd", "xyz": [1.5996374153467563, 3.4184549739925996, 7.46906774243951]}, {"species": [{"element": "Nd", "occu": 1}], "abc": [0.02032863, 0.51021869, 0.38086683], "properties": {"magmom": 0.0}, "label": "Nd", "xyz": [-1.416056758778104, 3.5610987660074005, 4.5946821975604895]}, {"species": [{"element": "Nd", "occu": 1}], "abc": [0.48989106, 0.51021869, 0.11913317], "properties": {"magmom": 0.0}, "label": "Nd", "xyz": [1.4160622646532437, 3.5610987660074005, 1.4371927724395097]}, {"species": [{"element": "Nd", "occu": 1}], "abc": [0.97967137, 0.48978131, 0.88086683], "properties": {"magmom": 0.0}, "label": "Nd", "xyz": [4.4317564387781045, 3.4184549739925996, 10.62655716756049]}, {"species": [{"element": "Ge", "occu": 1}], "abc": [0.43511852, 0.87023704, 0.25], "properties": {"magmom": -0.0}, "label": "Ge", "xyz": [-4.481720754512253e-07, 6.073866187218529, 3.015937485]}, {"species": [{"element": "Ge", "occu": 1}], "abc": [0.56488148, 0.12976296, 0.75], "properties": {"magmom": -0.0}, "label": "Ge", "xyz": [3.015700128172076, 0.9056875527814705, 9.047812454999999]}, {"species": [{"element": "Ge", "occu": 1}], "abc": [0.522970199999999, 0.69988113, 0.83748044], "properties": {"magmom": -0.0}, "label": "Ge", "xyz": [1.0436106475817701, 4.884857958446926, 10.103154607801173]}, {"species": [{"element": "Ge", "occu": 1}], "abc": [0.82308806, 0.30011887, 0.16251956], "properties": {"magmom": -0.0}, "label": "Ge", "xyz": [4.0593049567449455, 2.0946957815530736, 1.9605953321988263]}, {"species": [{"element": "Ge", "occu": 1}], "abc": [0.4770298, 0.30011887, 0.33748044], "properties": {"magmom": -0.0}, "label": "Ge", "xyz": [1.9720890324182243, 2.0946957815530736, 4.071279637801173]}, {"species": [{"element": "Ge", "occu": 1}], "abc": [0.17691094000000002, 0.69988113, 0.66251956], "properties": {"magmom": -0.0}, "label": "Ge", "xyz": [-1.0436113081453353, 4.884857958446926, 7.992470302198826]}, {"species": [{"element": "Ge", "occu": 1}], "abc": [0.42323962, 0.34291114, 0.87151546], "properties": {"magmom": 0.0}, "label": "Ge", "xyz": [1.518610240766542, 2.3933667296746637, 10.513744578284072]}, {"species": [{"element": "Ge", "occu": 1}], "abc": [0.08032747, 0.65708886, 0.12848454], "properties": {"magmom": 0.0}, "label": "Ge", "xyz": [-1.4970962077493772, 4.586187010325337, 1.5500053617159275]}, {"species": [{"element": "Ge", "occu": 1}], "abc": [0.10567106, 0.1757503, 0.49010651], "properties": {"magmom": 0.0}, "label": "Ge", "xyz": [0.10733416800300033, 1.226658663671122, 5.912522380606109]}, {"species": [{"element": "Ge", "occu": 1}], "abc": [0.92992177, 0.8242497, 0.5098934900000001], "properties": {"magmom": 0.0}, "label": "Ge", "xyz": [3.1230401207402037, 5.752895076328878, 6.151227559393891]}, {"species": [{"element": "Ge", "occu": 1}], "abc": [0.8943289400000001, 0.8242497, 0.99010651], "properties": {"magmom": 0.0}, "label": "Ge", "xyz": [2.9083655119969998, 5.752895076328878, 11.94439735060611]}, {"species": [{"element": "Ge", "occu": 1}], "abc": [0.07007823, 0.1757503, 0.00989349], "properties": {"magmom": 0.0}, "label": "Ge", "xyz": [-0.10734044074020332, 1.226658663671122, 0.11935258939389058]}, {"species": [{"element": "Ge", "occu": 1}], "abc": [0.91967253, 0.34291114, 0.62848454], "properties": {"magmom": 0.0}, "label": "Ge", "xyz": [4.512795887749378, 2.3933667296746637, 7.581880331715927]}, {"species": [{"element": "Ge", "occu": 1}], "abc": [0.57676038, 0.65708886, 0.37151546], "properties": {"magmom": 0.0}, "label": "Ge", "xyz": [1.4970894392334575, 4.586187010325337, 4.4818696082840725]}]}, "task_ids": null, "uncorrected_energy_per_atom": null, "energy_per_atom": -20.318142576363638, "formation_energy_per_atom": -0.793062668181815, "energy_above_hull": 0.004484542424243, "is_stable": false, "equilibrium_reaction_energy_per_atom": null, "decomposes_to": null, "xas": null, "grain_boundaries": null, "band_gap": 0.0, "cbm": null, "vbm": null, "efermi": 5.26054932, "is_gap_direct": null, "is_metal": null, "es_source_calc_id": null, "bandstructure": null, "dos": null, "dos_energy_up": null, "dos_energy_down": null, "is_magnetic": null, "ordering": null, "total_magnetization": 1e-07, "total_magnetization_normalized_vol": null, "total_magnetization_normalized_formula_units": null, "num_magnetic_sites": null, "num_unique_magnetic_sites": null, "types_of_magnetic_species": null, "bulk_modulus": null, "shear_modulus": null, "universal_anisotropy": null, "homogeneous_poisson": null, "e_total": null, "e_ionic": null, "e_electronic": null, "n": null, "e_ij_max": null, "weighted_surface_energy_EV_PER_ANG2": null, "weighted_surface_energy": null, "weighted_work_function": null, "surface_anisotropy": null, "shape_factor": null, "has_reconstructed": null, "possible_species": null, "has_props": null, "theoretical": null, "database_IDs": null, "fields_not_requested": ["builder_meta", "nsites", "elements", "nelements", "composition", "composition_reduced", "chemsys", "symmetry", "property_name", "deprecated", "deprecation_reasons", "last_updated", "origins", "warnings", "task_ids", "uncorrected_energy_per_atom", "equilibrium_reaction_energy_per_atom", "decomposes_to", "xas", "grain_boundaries", "cbm", "vbm", "is_gap_direct", "is_metal", "es_source_calc_id", "bandstructure", "dos", "dos_energy_up", "dos_energy_down", "is_magnetic", "ordering", "total_magnetization_normalized_vol", "total_magnetization_normalized_formula_units", "num_magnetic_sites", "num_unique_magnetic_sites", "types_of_magnetic_species", "bulk_modulus", "shear_modulus", "universal_anisotropy", "homogeneous_poisson", "e_total", "e_ionic", "e_electronic", "n", "e_ij_max", "weighted_surface_energy_EV_PER_ANG2", "weighted_surface_energy", "weighted_work_function", "surface_anisotropy", "shape_factor", "has_reconstructed", "possible_species", "has_props", "theoretical", "database_IDs"]}