{
  "builder_meta": null,
  "nsites": null,
  "elements": null,
  "nelements": null,
  "composition": null,
  "composition_reduced": null,
  "formula_pretty": "Nd4Ir",
  "formula_anonymous": "AB4",
  "chemsys": null,
  "volume": 356.53503835750917,
  "density": 7.164859576364942,
  "density_atomic": 35.65350383575092,
  "symmetry": null,
  "property_name": null,
  "material_id": "mp-1209970",
  "deprecated": null,
  "deprecation_reasons": null,
  "last_updated": null,
  "origins": null,
  "warnings": null,
  "structure": {
    "@module": "pymatgen.core.structure",
    "@class": "Structure",
    "charge": 0,
    "lattice": {
      "matrix": [
        [-5.628043, -5.628043, 0.0],
        [-5.628043, 0.0, -5.628043],
        [0.0, -5.628043, -5.628043]
      ],
      "pbc": [true, true, true],
      "a": 7.959254740218961,
      "b": 7.959254740218961,
      "c": 7.959254740218961,
      "alpha": 60.00000000000001,
      "beta": 60.00000000000001,
      "gamma": 60.00000000000001,
      "volume": 356.53503835750917
    },
    "properties": {},
    "sites": [
      {
        "species": [{ "element": "Nd", "occu": 1 }],
        "abc": [0.611827, 0.611827, 0.611827],
        "properties": { "magmom": 0.02 },
        "label": "Nd",
        "xyz": [-6.886777329122, -6.886777329122, -6.886777329122]
      },
      {
        "species": [{ "element": "Nd", "occu": 1 }],
        "abc": [0.164519, 0.611827, 0.611827],
        "properties": { "magmom": 0.02 },
        "label": "Nd",
        "xyz": [-4.3693086708780005, -4.3693086708780005, -6.886777329122]
      },
      {
        "species": [{ "element": "Nd", "occu": 1 }],
        "abc": [0.611827, 0.164519, 0.611827],
        "properties": { "magmom": 0.02 },
        "label": "Nd",
        "xyz": [-4.3693086708780005, -6.886777329122, -4.3693086708780005]
      },
      {
        "species": [{ "element": "Nd", "occu": 1 }],
        "abc": [0.585480999999999, 0.138173, 0.138173],
        "properties": { "magmom": 0.02 },
        "label": "Nd",
        "xyz": [-4.072755829121994, -4.072755829121994, -1.5552871708779998]
      },
      {
        "species": [{ "element": "Nd", "occu": 1 }],
        "abc": [0.138173, 0.138173, 0.138173],
        "properties": { "magmom": 0.02 },
        "label": "Nd",
        "xyz": [-1.5552871708779998, -1.5552871708779998, -1.5552871708779998]
      },
      {
        "species": [{ "element": "Nd", "occu": 1 }],
        "abc": [0.611827, 0.611827, 0.164519],
        "properties": { "magmom": 0.02 },
        "label": "Nd",
        "xyz": [-6.886777329122, -4.3693086708780005, -4.3693086708780005]
      },
      {
        "species": [{ "element": "Nd", "occu": 1 }],
        "abc": [0.138173, 0.585480999999999, 0.138173],
        "properties": { "magmom": 0.02 },
        "label": "Nd",
        "xyz": [-4.072755829121994, -1.5552871708779998, -4.072755829121994]
      },
      {
        "species": [{ "element": "Nd", "occu": 1 }],
        "abc": [0.138173, 0.138173, 0.585480999999999],
        "properties": { "magmom": 0.02 },
        "label": "Nd",
        "xyz": [-1.5552871708779998, -4.072755829121994, -4.072755829121994]
      },
      {
        "species": [{ "element": "Ir", "occu": 1 }],
        "abc": [0.0, 0.0, 0.0],
        "properties": { "magmom": 0.016 },
        "label": "Ir",
        "xyz": [0.0, 0.0, 0.0]
      },
      {
        "species": [{ "element": "Ir", "occu": 1 }],
        "abc": [0.75, 0.75, 0.75],
        "properties": { "magmom": 0.016 },
        "label": "Ir",
        "xyz": [-8.4420645, -8.4420645, -8.4420645]
      }
    ]
  },
  "task_ids": null,
  "uncorrected_energy_per_atom": null,
  "energy_per_atom": -33.93318681275,
  "formation_energy_per_atom": 0.073091063250001,
  "energy_above_hull": 0.48676162099999903,
  "is_stable": false,
  "equilibrium_reaction_energy_per_atom": null,
  "decomposes_to": null,
  "xas": null,
  "grain_boundaries": null,
  "band_gap": 0.0,
  "cbm": null,
  "vbm": null,
  "efermi": 3.09422462,
  "is_gap_direct": null,
  "is_metal": null,
  "es_source_calc_id": null,
  "bandstructure": null,
  "dos": null,
  "dos_energy_up": null,
  "dos_energy_down": null,
  "is_magnetic": null,
  "ordering": null,
  "total_magnetization": 0.403237099999999,
  "total_magnetization_normalized_vol": null,
  "total_magnetization_normalized_formula_units": null,
  "num_magnetic_sites": null,
  "num_unique_magnetic_sites": null,
  "types_of_magnetic_species": null,
  "bulk_modulus": null,
  "shear_modulus": null,
  "universal_anisotropy": null,
  "homogeneous_poisson": null,
  "e_total": null,
  "e_ionic": null,
  "e_electronic": null,
  "n": null,
  "e_ij_max": null,
  "weighted_surface_energy_EV_PER_ANG2": null,
  "weighted_surface_energy": null,
  "weighted_work_function": null,
  "surface_anisotropy": null,
  "shape_factor": null,
  "has_reconstructed": null,
  "possible_species": null,
  "has_props": null,
  "theoretical": null,
  "database_IDs": null,
  "fields_not_requested": [
    "builder_meta",
    "nsites",
    "elements",
    "nelements",
    "composition",
    "composition_reduced",
    "chemsys",
    "symmetry",
    "property_name",
    "deprecated",
    "deprecation_reasons",
    "last_updated",
    "origins",
    "warnings",
    "task_ids",
    "uncorrected_energy_per_atom",
    "equilibrium_reaction_energy_per_atom",
    "decomposes_to",
    "xas",
    "grain_boundaries",
    "cbm",
    "vbm",
    "is_gap_direct",
    "is_metal",
    "es_source_calc_id",
    "bandstructure",
    "dos",
    "dos_energy_up",
    "dos_energy_down",
    "is_magnetic",
    "ordering",
    "total_magnetization_normalized_vol",
    "total_magnetization_normalized_formula_units",
    "num_magnetic_sites",
    "num_unique_magnetic_sites",
    "types_of_magnetic_species",
    "bulk_modulus",
    "shear_modulus",
    "universal_anisotropy",
    "homogeneous_poisson",
    "e_total",
    "e_ionic",
    "e_electronic",
    "n",
    "e_ij_max",
    "weighted_surface_energy_EV_PER_ANG2",
    "weighted_surface_energy",
    "weighted_work_function",
    "surface_anisotropy",
    "shape_factor",
    "has_reconstructed",
    "possible_species",
    "has_props",
    "theoretical",
    "database_IDs"
  ]
}
