{
  "builder_meta": null,
  "nsites": null,
  "elements": null,
  "nelements": null,
  "composition": null,
  "composition_reduced": null,
  "formula_pretty": "Nd4Ni",
  "formula_anonymous": "AB4",
  "chemsys": null,
  "volume": 332.9560450143492,
  "density": 6.34042002621793,
  "density_atomic": 33.295604501434916,
  "symmetry": null,
  "property_name": null,
  "material_id": "mp-1210201",
  "deprecated": null,
  "deprecation_reasons": null,
  "last_updated": null,
  "origins": null,
  "warnings": null,
  "structure": {
    "@module": "pymatgen.core.structure",
    "@class": "Structure",
    "charge": 0,
    "lattice": {
      "matrix": [
        [0.0, 5.501135, 5.501135],
        [5.501135, 0.0, 5.501135],
        [5.501135, 5.501135, 0.0]
      ],
      "pbc": [true, true, true],
      "a": 7.779779725445316,
      "b": 7.779779725445316,
      "c": 7.779779725445316,
      "alpha": 60.00000000000001,
      "beta": 60.00000000000001,
      "gamma": 60.00000000000001,
      "volume": 332.9560450143492
    },
    "properties": {},
    "sites": [
      {
        "species": [{ "element": "Nd", "occu": 1 }],
        "abc": [0.386297, 0.386297, 0.386297],
        "properties": { "magmom": 0.001 },
        "label": "Nd",
        "xyz": [4.25014389419, 4.25014389419, 4.25014389419]
      },
      {
        "species": [{ "element": "Nd", "occu": 1 }],
        "abc": [0.386297, 0.386297, 0.841109],
        "properties": { "magmom": 0.001 },
        "label": "Nd",
        "xyz": [6.7521261058099995, 6.7521261058099995, 4.25014389419]
      },
      {
        "species": [{ "element": "Nd", "occu": 1 }],
        "abc": [0.386297, 0.841109, 0.386297],
        "properties": { "magmom": 0.002 },
        "label": "Nd",
        "xyz": [6.7521261058099995, 4.25014389419, 6.7521261058099995]
      },
      {
        "species": [{ "element": "Nd", "occu": 1 }],
        "abc": [0.863703, 0.863703, 0.408891],
        "properties": { "magmom": 0.001 },
        "label": "Nd",
        "xyz": [7.0007113941900005, 7.0007113941900005, 9.50269360581]
      },
      {
        "species": [{ "element": "Nd", "occu": 1 }],
        "abc": [0.863703, 0.863703, 0.863703],
        "properties": { "magmom": 0.001 },
        "label": "Nd",
        "xyz": [9.50269360581, 9.50269360581, 9.50269360581]
      },
      {
        "species": [{ "element": "Nd", "occu": 1 }],
        "abc": [0.841109, 0.386297, 0.386297],
        "properties": { "magmom": 0.002 },
        "label": "Nd",
        "xyz": [4.25014389419, 6.7521261058099995, 6.7521261058099995]
      },
      {
        "species": [{ "element": "Nd", "occu": 1 }],
        "abc": [0.863703, 0.408891, 0.863703],
        "properties": { "magmom": 0.002 },
        "label": "Nd",
        "xyz": [7.0007113941900005, 9.50269360581, 7.0007113941900005]
      },
      {
        "species": [{ "element": "Nd", "occu": 1 }],
        "abc": [0.408891, 0.863703, 0.863703],
        "properties": { "magmom": 0.002 },
        "label": "Nd",
        "xyz": [9.50269360581, 7.0007113941900005, 7.0007113941900005]
      },
      {
        "species": [{ "element": "Ni", "occu": 1 }],
        "abc": [0.0, 0.0, 0.0],
        "properties": { "magmom": -0.0 },
        "label": "Ni",
        "xyz": [0.0, 0.0, 0.0]
      },
      {
        "species": [{ "element": "Ni", "occu": 1 }],
        "abc": [0.25, 0.25, 0.25],
        "properties": { "magmom": -0.0 },
        "label": "Ni",
        "xyz": [2.7505675, 2.7505675, 2.7505675]
      }
    ]
  },
  "task_ids": null,
  "uncorrected_energy_per_atom": null,
  "energy_per_atom": -4.7518214610000005,
  "formation_energy_per_atom": 0.218723821000001,
  "energy_above_hull": 0.354058692,
  "is_stable": false,
  "equilibrium_reaction_energy_per_atom": null,
  "decomposes_to": null,
  "xas": null,
  "grain_boundaries": null,
  "band_gap": 0.0,
  "cbm": null,
  "vbm": null,
  "efermi": 3.1479312,
  "is_gap_direct": null,
  "is_metal": null,
  "es_source_calc_id": null,
  "bandstructure": null,
  "dos": null,
  "dos_energy_up": null,
  "dos_energy_down": null,
  "is_magnetic": null,
  "ordering": null,
  "total_magnetization": 0.0513531,
  "total_magnetization_normalized_vol": null,
  "total_magnetization_normalized_formula_units": null,
  "num_magnetic_sites": null,
  "num_unique_magnetic_sites": null,
  "types_of_magnetic_species": null,
  "bulk_modulus": null,
  "shear_modulus": null,
  "universal_anisotropy": null,
  "homogeneous_poisson": null,
  "e_total": null,
  "e_ionic": null,
  "e_electronic": null,
  "n": null,
  "e_ij_max": null,
  "weighted_surface_energy_EV_PER_ANG2": null,
  "weighted_surface_energy": null,
  "weighted_work_function": null,
  "surface_anisotropy": null,
  "shape_factor": null,
  "has_reconstructed": null,
  "possible_species": null,
  "has_props": null,
  "theoretical": null,
  "database_IDs": null,
  "fields_not_requested": [
    "builder_meta",
    "nsites",
    "elements",
    "nelements",
    "composition",
    "composition_reduced",
    "chemsys",
    "symmetry",
    "property_name",
    "deprecated",
    "deprecation_reasons",
    "last_updated",
    "origins",
    "warnings",
    "task_ids",
    "uncorrected_energy_per_atom",
    "equilibrium_reaction_energy_per_atom",
    "decomposes_to",
    "xas",
    "grain_boundaries",
    "cbm",
    "vbm",
    "is_gap_direct",
    "is_metal",
    "es_source_calc_id",
    "bandstructure",
    "dos",
    "dos_energy_up",
    "dos_energy_down",
    "is_magnetic",
    "ordering",
    "total_magnetization_normalized_vol",
    "total_magnetization_normalized_formula_units",
    "num_magnetic_sites",
    "num_unique_magnetic_sites",
    "types_of_magnetic_species",
    "bulk_modulus",
    "shear_modulus",
    "universal_anisotropy",
    "homogeneous_poisson",
    "e_total",
    "e_ionic",
    "e_electronic",
    "n",
    "e_ij_max",
    "weighted_surface_energy_EV_PER_ANG2",
    "weighted_surface_energy",
    "weighted_work_function",
    "surface_anisotropy",
    "shape_factor",
    "has_reconstructed",
    "possible_species",
    "has_props",
    "theoretical",
    "database_IDs"
  ]
}
