{"builder_meta": null, "nsites": null, "elements": null, "nelements": null, "composition": null, "composition_reduced": null, "formula_pretty": "Nd4Rh", "formula_anonymous": "AB4", "chemsys": null, "volume": 472.8427355881276, "density": 7.162782181850789, "density_atomic": 31.522849039208506, "symmetry": null, "property_name": null, "material_id": "mp-1220520", "deprecated": null, "deprecation_reasons": null, "last_updated": null, "origins": null, "warnings": null, "structure": {"@module": "pymatgen.core.structure", "@class": "Structure", "charge": 0, "lattice": {"matrix": [[0.01454246, 0.0, 6.51934052], [7.21616073, 0.0, 0.01840472], [0.0, 10.05100128, 0.0]], "pbc": [true, true, true], "a": 6.519356739652825, "b": 7.216184200456112, "c": 10.05100128, "alpha": 90.0, "beta": 90.0, "gamma": 89.72606077233154, "volume": 472.8427355881276}, "properties": {}, "sites": [{"species": [{"element": "Nd", "occu": 1}], "abc": [0.841869699999999, 0.52256007, 0.25], "properties": {"magmom": 0.019}, "label": "Nd", "xyz": [3.7831203126375135, 2.51275032, 5.498052819541768]}, {"species": [{"element": "Nd", "occu": 1}], "abc": [0.649925499999999, 0.04026297, 0.25], "properties": {"magmom": 0.055}, "label": "Nd", "xyz": [0.2999955785738981, 2.51275032, 4.237826675820473]}, {"species": [{"element": "Nd", "occu": 1}], "abc": [0.14151257, 0.46381603, 0.75], "properties": {"magmom": 0.054}, "label": "Nd", "xyz": [3.3490289625192244, 7.538250959999999, 0.9311050358539981]}, {"species": [{"element": "Nd", "occu": 1}], "abc": [0.34394304000000003, 0.96450939, 0.75], "properties": {"magmom": 0.034}, "label": "Nd", "xyz": [6.965056561735733, 7.538250959999999, 2.260033322504302]}, {"species": [{"element": "Nd", "occu": 1}], "abc": [0.32855761, 0.6740267400000001, 0.06607802], "properties": {"magmom": 0.111}, "label": "Nd", "xyz": [4.868663328059041, 0.6641502635998656, 2.15438421344957]}, {"species": [{"element": "Nd", "occu": 1}], "abc": [0.16588912, 0.17581169, 0.43146142], "properties": {"magmom": 0.079}, "label": "Nd", "xyz": [1.271097849144969, 4.3366192846906175, 1.0847234267703192]}, {"species": [{"element": "Nd", "occu": 1}], "abc": [0.66764635, 0.32674715, 0.56586371], "properties": {"magmom": 0.051000000000000004}, "label": "Nd", "xyz": [2.367569172808441, 5.687496873515549, 4.358627592391651]}, {"species": [{"element": "Nd", "occu": 1}], "abc": [0.81788773, 0.82701068, 0.92908415], "properties": {"magmom": 0.049}, "label": "Nd", "xyz": [5.979736091904613, 9.338225980877711, 5.34730951900223]}, {"species": [{"element": "Nd", "occu": 1}], "abc": [0.66764635, 0.32674715, 0.93413629], "properties": {"magmom": 0.051000000000000004}, "label": "Nd", "xyz": [2.367569172808441, 9.389005046484451, 4.358627592391651]}, {"species": [{"element": "Nd", "occu": 1}], "abc": [0.81788773, 0.82701068, 0.57091585], "properties": {"magmom": 0.049}, "label": "Nd", "xyz": [5.979736091904613, 5.738275939122288, 5.34730951900223]}, {"species": [{"element": "Nd", "occu": 1}], "abc": [0.32855761, 0.6740267400000001, 0.43392198], "properties": {"magmom": 0.111}, "label": "Nd", "xyz": [4.868663328059041, 4.361350376400134, 2.15438421344957]}, {"species": [{"element": "Nd", "occu": 1}], "abc": [0.16588912, 0.17581169, 0.06853858], "properties": {"magmom": 0.079}, "label": "Nd", "xyz": [1.271097849144969, 0.6888813553093824, 1.0847234267703192]}, {"species": [{"element": "Rh", "occu": 1}], "abc": [0.42018489000000003, 0.38020629, 0.25], "properties": {"magmom": 0.017}, "label": "Rh", "xyz": [2.7497402211524213, 2.51275032, 2.746325969578432]}, {"species": [{"element": "Rh", "occu": 1}], "abc": [0.9264245, 0.12164585, 0.75], "properties": {"magmom": 0.017}, "label": "Rh", "xyz": [0.8912884969717405, 7.538250959999999, 6.041915639379152]}, {"species": [{"element": "Rh", "occu": 1}], "abc": [0.55817721, 0.62180589, 0.75], "properties": {"magmom": 0.042}, "label": "Rh", "xyz": [4.495168514850037, 7.538250959999999, 3.65039146579335]}]}, "task_ids": null, "uncorrected_energy_per_atom": null, "energy_per_atom": -5.598475765333334, "formation_energy_per_atom": -0.311096245333333, "energy_above_hull": 0.020122422833332, "is_stable": false, "equilibrium_reaction_energy_per_atom": null, "decomposes_to": null, "xas": null, "grain_boundaries": null, "band_gap": 0.0, "cbm": null, "vbm": null, "efermi": 3.59171859, "is_gap_direct": null, "is_metal": null, "es_source_calc_id": null, "bandstructure": null, "dos": null, "dos_energy_up": null, "dos_energy_down": null, "is_magnetic": null, "ordering": null, "total_magnetization": 1.873663, "total_magnetization_normalized_vol": null, "total_magnetization_normalized_formula_units": null, "num_magnetic_sites": null, "num_unique_magnetic_sites": null, "types_of_magnetic_species": null, "bulk_modulus": null, "shear_modulus": null, "universal_anisotropy": null, "homogeneous_poisson": null, "e_total": null, "e_ionic": null, "e_electronic": null, "n": null, "e_ij_max": null, "weighted_surface_energy_EV_PER_ANG2": null, "weighted_surface_energy": null, "weighted_work_function": null, "surface_anisotropy": null, "shape_factor": null, "has_reconstructed": null, "possible_species": null, "has_props": null, "theoretical": null, "database_IDs": null, "fields_not_requested": ["builder_meta", "nsites", "elements", "nelements", "composition", "composition_reduced", "chemsys", "symmetry", "property_name", "deprecated", "deprecation_reasons", "last_updated", "origins", "warnings", "task_ids", "uncorrected_energy_per_atom", "equilibrium_reaction_energy_per_atom", "decomposes_to", "xas", "grain_boundaries", "cbm", "vbm", "is_gap_direct", "is_metal", "es_source_calc_id", "bandstructure", "dos", "dos_energy_up", "dos_energy_down", "is_magnetic", "ordering", "total_magnetization_normalized_vol", "total_magnetization_normalized_formula_units", "num_magnetic_sites", "num_unique_magnetic_sites", "types_of_magnetic_species", "bulk_modulus", "shear_modulus", "universal_anisotropy", "homogeneous_poisson", "e_total", "e_ionic", "e_electronic", "n", "e_ij_max", "weighted_surface_energy_EV_PER_ANG2", "weighted_surface_energy", "weighted_work_function", "surface_anisotropy", "shape_factor", "has_reconstructed", "possible_species", "has_props", "theoretical", "database_IDs"]}