{
  "builder_meta": null,
  "nsites": null,
  "elements": null,
  "nelements": null,
  "composition": null,
  "composition_reduced": null,
  "formula_pretty": "Nd4Sb3",
  "formula_anonymous": "A3B4",
  "chemsys": null,
  "volume": 430.8291384661152,
  "density": 7.26338807999996,
  "density_atomic": 30.7735098904368,
  "symmetry": null,
  "property_name": null,
  "material_id": "mp-530",
  "deprecated": null,
  "deprecation_reasons": null,
  "last_updated": null,
  "origins": null,
  "warnings": null,
  "structure": {
    "@module": "pymatgen.core.structure",
    "@class": "Structure",
    "charge": 0,
    "lattice": {
      "matrix": [
        [7.76961392, -0.0, -2.74697272],
        [-3.88480696, 6.72868154, -2.74697272],
        [1e-8, 1e-8, 8.24091918]
      ],
      "pbc": [true, true, true],
      "a": 8.240919826711213,
      "b": 8.24091860823934,
      "c": 8.24091918,
      "alpha": 109.47121950721906,
      "beta": 109.4712164679993,
      "gamma": 109.47122772659927,
      "volume": 430.8291384661152
    },
    "properties": {},
    "sites": [
      {
        "species": [{ "element": "Nd", "occu": 1 }],
        "abc": [0.35948036, 0.5, -0.0],
        "properties": { "magmom": -0.0 },
        "label": "Nd",
        "xyz": [0.8506201290226112, 3.36434077, -2.3609691022957793]
      },
      {
        "species": [{ "element": "Nd", "occu": 1 }],
        "abc": [0.6405196400000001, 0.6405196400000001, 0.6405196400000001],
        "properties": { "magmom": -0.0 },
        "label": "Nd",
        "xyz": [2.488295161893891, 4.309852684080642, 1.7594906310342537]
      },
      {
        "species": [{ "element": "Nd", "occu": 1 }],
        "abc": [0.5, -0.0, 0.35948036],
        "properties": { "magmom": -0.0 },
        "label": "Nd",
        "xyz": [3.8848069635948037, 3.5948036e-9, 1.5889622335573048]
      },
      {
        "species": [{ "element": "Nd", "occu": 1 }],
        "abc": [0.0, 0.35948036, 0.5],
        "properties": { "magmom": -0.0 },
        "label": "Nd",
        "xyz": [-1.3965117995113057, 2.4188288673245544, 3.132976847704221]
      },
      {
        "species": [{ "element": "Nd", "occu": 1 }],
        "abc": [0.5, -0.0, 0.85948036],
        "properties": { "magmom": -0.0 },
        "label": "Nd",
        "xyz": [3.8848069685948037, 8.5948036e-9, 5.709421823557306]
      },
      {
        "species": [{ "element": "Nd", "occu": 1 }],
        "abc": [0.0, 0.85948036, 0.5],
        "properties": { "magmom": -0.0 },
        "label": "Nd",
        "xyz": [-3.338915279511306, 5.783169637324555, 1.759490487704221]
      },
      {
        "species": [{ "element": "Nd", "occu": 1 }],
        "abc": [0.85948036, 0.5, -0.0],
        "properties": { "magmom": -0.0 },
        "label": "Nd",
        "xyz": [4.735427089022612, 3.36434077, -3.734455462295779]
      },
      {
        "species": [{ "element": "Nd", "occu": 1 }],
        "abc": [0.14051964, 0.14051964, 0.14051964],
        "properties": { "magmom": -0.0 },
        "label": "Nd",
        "xyz": [0.5458916768938908, 0.9455119090806421, 0.3860037610342536]
      },
      {
        "species": [{ "element": "Sb", "occu": 1 }],
        "abc": [0.75, 0.875, 0.125],
        "properties": { "magmom": 0.0 },
        "label": "Sb",
        "xyz": [2.42800435125, 5.887596348750001, -3.4337157725000003]
      },
      {
        "species": [{ "element": "Sb", "occu": 1 }],
        "abc": [0.625, 0.375, 0.25],
        "properties": { "magmom": 0.0 },
        "label": "Sb",
        "xyz": [3.3992060925000005, 2.5232555800000003, -0.6867429249999999]
      },
      {
        "species": [{ "element": "Sb", "occu": 1 }],
        "abc": [0.875, 0.125, 0.75],
        "properties": { "magmom": 0.0 },
        "label": "Sb",
        "xyz": [6.3128113175000005, 0.8410852, 3.433716665000001]
      },
      {
        "species": [{ "element": "Sb", "occu": 1 }],
        "abc": [0.125, 0.75, 0.875],
        "properties": { "magmom": 0.0 },
        "label": "Sb",
        "xyz": [-1.9424034712499998, 5.04651116375, 4.807203152500001]
      },
      {
        "species": [{ "element": "Sb", "occu": 1 }],
        "abc": [0.375, 0.25, 0.625],
        "properties": { "magmom": 0.0 },
        "label": "Sb",
        "xyz": [1.94240348625, 1.6821703912500001, 3.4337165375]
      },
      {
        "species": [{ "element": "Sb", "occu": 1 }],
        "abc": [0.25, 0.625, 0.375],
        "properties": { "magmom": 0.0 },
        "label": "Sb",
        "xyz": [-0.4856008662500001, 4.20542596625, 0.6867435625000002]
      }
    ]
  },
  "task_ids": null,
  "uncorrected_energy_per_atom": null,
  "energy_per_atom": -29.073870919285717,
  "formation_energy_per_atom": -1.24658761642857,
  "energy_above_hull": 0.014205981785714,
  "is_stable": false,
  "equilibrium_reaction_energy_per_atom": null,
  "decomposes_to": null,
  "xas": null,
  "grain_boundaries": null,
  "band_gap": 0.0,
  "cbm": null,
  "vbm": null,
  "efermi": 5.44846394,
  "is_gap_direct": null,
  "is_metal": null,
  "es_source_calc_id": null,
  "bandstructure": null,
  "dos": null,
  "dos_energy_up": null,
  "dos_energy_down": null,
  "is_magnetic": null,
  "ordering": null,
  "total_magnetization": 0.0003325,
  "total_magnetization_normalized_vol": null,
  "total_magnetization_normalized_formula_units": null,
  "num_magnetic_sites": null,
  "num_unique_magnetic_sites": null,
  "types_of_magnetic_species": null,
  "bulk_modulus": null,
  "shear_modulus": null,
  "universal_anisotropy": null,
  "homogeneous_poisson": null,
  "e_total": null,
  "e_ionic": null,
  "e_electronic": null,
  "n": null,
  "e_ij_max": null,
  "weighted_surface_energy_EV_PER_ANG2": null,
  "weighted_surface_energy": null,
  "weighted_work_function": null,
  "surface_anisotropy": null,
  "shape_factor": null,
  "has_reconstructed": null,
  "possible_species": null,
  "has_props": null,
  "theoretical": null,
  "database_IDs": null,
  "fields_not_requested": [
    "builder_meta",
    "nsites",
    "elements",
    "nelements",
    "composition",
    "composition_reduced",
    "chemsys",
    "symmetry",
    "property_name",
    "deprecated",
    "deprecation_reasons",
    "last_updated",
    "origins",
    "warnings",
    "task_ids",
    "uncorrected_energy_per_atom",
    "equilibrium_reaction_energy_per_atom",
    "decomposes_to",
    "xas",
    "grain_boundaries",
    "cbm",
    "vbm",
    "is_gap_direct",
    "is_metal",
    "es_source_calc_id",
    "bandstructure",
    "dos",
    "dos_energy_up",
    "dos_energy_down",
    "is_magnetic",
    "ordering",
    "total_magnetization_normalized_vol",
    "total_magnetization_normalized_formula_units",
    "num_magnetic_sites",
    "num_unique_magnetic_sites",
    "types_of_magnetic_species",
    "bulk_modulus",
    "shear_modulus",
    "universal_anisotropy",
    "homogeneous_poisson",
    "e_total",
    "e_ionic",
    "e_electronic",
    "n",
    "e_ij_max",
    "weighted_surface_energy_EV_PER_ANG2",
    "weighted_surface_energy",
    "weighted_work_function",
    "surface_anisotropy",
    "shape_factor",
    "has_reconstructed",
    "possible_species",
    "has_props",
    "theoretical",
    "database_IDs"
  ]
}
