{
  "builder_meta": null,
  "nsites": null,
  "elements": null,
  "nelements": null,
  "composition": null,
  "composition_reduced": null,
  "formula_pretty": "Nd4Si5",
  "formula_anonymous": "A4B5",
  "chemsys": null,
  "volume": 213.27244191017635,
  "density": 5.585640804238378,
  "density_atomic": 23.696937990019595,
  "symmetry": null,
  "property_name": null,
  "material_id": "mp-1220181",
  "deprecated": null,
  "deprecation_reasons": null,
  "last_updated": null,
  "origins": null,
  "warnings": null,
  "structure": {
    "@module": "pymatgen.core.structure",
    "@class": "Structure",
    "charge": 0,
    "lattice": {
      "matrix": [
        [2.13988841, -12.57681797, 0.0],
        [2.13988841, 12.57681797, 0.0],
        [0.0, 0.0, 3.96225885]
      ],
      "pbc": [true, true, true],
      "a": 12.757565310738851,
      "b": 12.757565310738851,
      "c": 3.96225885,
      "alpha": 90.0,
      "beta": 90.0,
      "gamma": 160.68771006732848,
      "volume": 213.27244191017635
    },
    "properties": {},
    "sites": [
      {
        "species": [{ "element": "Nd", "occu": 1 }],
        "abc": [0.42980546000000003, 0.57019454, 0.5],
        "properties": { "magmom": 0.008 },
        "label": "Nd",
        "xyz": [2.13988841, 1.7656479041357676, 1.981129425]
      },
      {
        "species": [{ "element": "Nd", "occu": 1 }],
        "abc": [0.5697481, 0.430251899999999, -0.0],
        "properties": { "magmom": 0.004 },
        "label": "Nd",
        "xyz": [2.139888409999998, -1.7544183149067258, 0.0]
      },
      {
        "species": [{ "element": "Nd", "occu": 1 }],
        "abc": [0.70178757, 0.29821243000000003, 0.5],
        "properties": { "magmom": 0.189 },
        "label": "Nd",
        "xyz": [2.13988841, -5.075691072997266, 1.981129425]
      },
      {
        "species": [{ "element": "Nd", "occu": 1 }],
        "abc": [0.29691422, 0.70308578, -0.0],
        "properties": { "magmom": 0.193 },
        "label": "Nd",
        "xyz": [2.13988841, 5.1083457747109335, 0.0]
      },
      {
        "species": [{ "element": "Si", "occu": 1 }],
        "abc": [0.83083955, 0.16916045, 0.5],
        "properties": { "magmom": -0.013000000000000001 },
        "label": "Si",
        "xyz": [2.13988841, -8.321817595253428, 1.981129425]
      },
      {
        "species": [{ "element": "Si", "occu": 1 }],
        "abc": [0.16877918, 0.83122082, 0.0],
        "properties": { "magmom": -0.009000000000000001 },
        "label": "Si",
        "xyz": [2.13988841, 8.33140792202827, 0.0]
      },
      {
        "species": [{ "element": "Si", "occu": 1 }],
        "abc": [0.11246001, 0.8875399900000001, 0.5],
        "properties": { "magmom": -0.002 },
        "label": "Si",
        "xyz": [2.13988841, 9.748039820651242, 1.981129425]
      },
      {
        "species": [{ "element": "Si", "occu": 1 }],
        "abc": [0.88787021, 0.11212979000000001, 0.0],
        "properties": { "magmom": 0.004 },
        "label": "Si",
        "xyz": [2.13988841, -9.756346054311347, 0.0]
      },
      {
        "species": [{ "element": "Si", "occu": 1 }],
        "abc": [0.01979769, 0.98020231, 0.5],
        "properties": { "magmom": 0.007 },
        "label": "Si",
        "xyz": [2.13988841, 12.078834083287022, 1.981129425]
      }
    ]
  },
  "task_ids": null,
  "uncorrected_energy_per_atom": null,
  "energy_per_atom": -18.688100991111114,
  "formation_energy_per_atom": -0.739116668333335,
  "energy_above_hull": 0.025759314999998003,
  "is_stable": false,
  "equilibrium_reaction_energy_per_atom": null,
  "decomposes_to": null,
  "xas": null,
  "grain_boundaries": null,
  "band_gap": 0.0,
  "cbm": null,
  "vbm": null,
  "efermi": 5.27721383,
  "is_gap_direct": null,
  "is_metal": null,
  "es_source_calc_id": null,
  "bandstructure": null,
  "dos": null,
  "dos_energy_up": null,
  "dos_energy_down": null,
  "is_magnetic": null,
  "ordering": null,
  "total_magnetization": 0.9965394,
  "total_magnetization_normalized_vol": null,
  "total_magnetization_normalized_formula_units": null,
  "num_magnetic_sites": null,
  "num_unique_magnetic_sites": null,
  "types_of_magnetic_species": null,
  "bulk_modulus": null,
  "shear_modulus": null,
  "universal_anisotropy": null,
  "homogeneous_poisson": null,
  "e_total": null,
  "e_ionic": null,
  "e_electronic": null,
  "n": null,
  "e_ij_max": null,
  "weighted_surface_energy_EV_PER_ANG2": null,
  "weighted_surface_energy": null,
  "weighted_work_function": null,
  "surface_anisotropy": null,
  "shape_factor": null,
  "has_reconstructed": null,
  "possible_species": null,
  "has_props": null,
  "theoretical": null,
  "database_IDs": null,
  "fields_not_requested": [
    "builder_meta",
    "nsites",
    "elements",
    "nelements",
    "composition",
    "composition_reduced",
    "chemsys",
    "symmetry",
    "property_name",
    "deprecated",
    "deprecation_reasons",
    "last_updated",
    "origins",
    "warnings",
    "task_ids",
    "uncorrected_energy_per_atom",
    "equilibrium_reaction_energy_per_atom",
    "decomposes_to",
    "xas",
    "grain_boundaries",
    "cbm",
    "vbm",
    "is_gap_direct",
    "is_metal",
    "es_source_calc_id",
    "bandstructure",
    "dos",
    "dos_energy_up",
    "dos_energy_down",
    "is_magnetic",
    "ordering",
    "total_magnetization_normalized_vol",
    "total_magnetization_normalized_formula_units",
    "num_magnetic_sites",
    "num_unique_magnetic_sites",
    "types_of_magnetic_species",
    "bulk_modulus",
    "shear_modulus",
    "universal_anisotropy",
    "homogeneous_poisson",
    "e_total",
    "e_ionic",
    "e_electronic",
    "n",
    "e_ij_max",
    "weighted_surface_energy_EV_PER_ANG2",
    "weighted_surface_energy",
    "weighted_work_function",
    "surface_anisotropy",
    "shape_factor",
    "has_reconstructed",
    "possible_species",
    "has_props",
    "theoretical",
    "database_IDs"
  ]
}
