{"builder_meta": null, "nsites": null, "elements": null, "nelements": null, "composition": null, "composition_reduced": null, "formula_pretty": "Nd4S7", "formula_anonymous": "A4B7", "chemsys": null, "volume": 254.7835510948666, "density": 5.223234367576034, "density_atomic": 23.162141008624236, "symmetry": null, "property_name": null, "material_id": "mp-1209822", "deprecated": null, "deprecation_reasons": null, "last_updated": null, "origins": null, "warnings": null, "structure": {"@module": "pymatgen.core.structure", "@class": "Structure", "charge": 0, "lattice": {"matrix": [[5.61914122, 0.0, 0.0], [0.0, 5.6191401800000005, -0.0], [0.0, -0.0, 8.06922031]], "pbc": [true, true, true], "a": 5.61914122, "b": 5.6191401800000005, "c": 8.06922031, "alpha": 90.0, "beta": 90.0, "gamma": 90.0, "volume": 254.78355109486662}, "properties": {}, "sites": [{"species": [{"element": "Nd", "occu": 1}], "abc": [0.24582953000000002, 0.24582953000000002, 0.27028344], "properties": {"magmom": -0.0}, "label": "Nd", "xyz": [1.3813508451162269, 1.3813505894535156, 2.1809766235046664]}, {"species": [{"element": "Nd", "occu": 1}], "abc": [0.75417047, 0.75417047, 0.27028344], "properties": {"magmom": -0.0}, "label": "Nd", "xyz": [4.237790374883774, 4.237789590546485, 2.1809766235046664]}, {"species": [{"element": "Nd", "occu": 1}], "abc": [0.24582953000000002, 0.75417047, 0.7297165600000001], "properties": {"magmom": -0.0}, "label": "Nd", "xyz": [1.3813508451162269, 4.237789590546485, 5.8882436864953345]}, {"species": [{"element": "Nd", "occu": 1}], "abc": [0.75417047, 0.24582953000000002, 0.7297165600000001], "properties": {"magmom": -0.0}, "label": "Nd", "xyz": [4.237790374883774, 1.3813505894535156, 5.8882436864953345]}, {"species": [{"element": "S", "occu": 1}], "abc": [0.25289657, 0.25289657, 0.63604527], "properties": {"magmom": -0.0}, "label": "S", "xyz": [1.4210615408836154, 1.4210612778711826, 5.132389410763434]}, {"species": [{"element": "S", "occu": 1}], "abc": [0.74710343, 0.74710343, 0.63604527], "properties": {"magmom": -0.0}, "label": "S", "xyz": [4.198079679116385, 4.198078902128818, 5.132389410763434]}, {"species": [{"element": "S", "occu": 1}], "abc": [0.25289657, 0.74710343, 0.36395473], "properties": {"magmom": -0.0}, "label": "S", "xyz": [1.4210615408836154, 4.198078902128818, 2.9368308992365666]}, {"species": [{"element": "S", "occu": 1}], "abc": [0.74710343, 0.25289657, 0.36395473], "properties": {"magmom": -0.0}, "label": "S", "xyz": [4.198079679116385, 1.4210612778711826, 2.9368308992365666]}, {"species": [{"element": "S", "occu": 1}], "abc": [0.0, 0.0, -0.0], "properties": {"magmom": 0.0}, "label": "S", "xyz": [0.0, 0.0, 0.0]}, {"species": [{"element": "S", "occu": 1}], "abc": [0.5, 0.0, -0.0], "properties": {"magmom": -0.0}, "label": "S", "xyz": [2.80957061, 0.0, 0.0]}, {"species": [{"element": "S", "occu": 1}], "abc": [0.0, 0.5, -0.0], "properties": {"magmom": -0.0}, "label": "S", "xyz": [0.0, 2.8095700900000002, 0.0]}]}, "task_ids": null, "uncorrected_energy_per_atom": null, "energy_per_atom": -17.934259073636362, "formation_energy_per_atom": -2.123620027698861, "energy_above_hull": 0.059381074886363, "is_stable": false, "equilibrium_reaction_energy_per_atom": null, "decomposes_to": null, "xas": null, "grain_boundaries": null, "band_gap": 0.0, "cbm": null, "vbm": null, "efermi": 4.66623474, "is_gap_direct": null, "is_metal": null, "es_source_calc_id": null, "bandstructure": null, "dos": null, "dos_energy_up": null, "dos_energy_down": null, "is_magnetic": null, "ordering": null, "total_magnetization": 1e-07, "total_magnetization_normalized_vol": null, "total_magnetization_normalized_formula_units": null, "num_magnetic_sites": null, "num_unique_magnetic_sites": null, "types_of_magnetic_species": null, "bulk_modulus": null, "shear_modulus": null, "universal_anisotropy": null, "homogeneous_poisson": null, "e_total": null, "e_ionic": null, "e_electronic": null, "n": null, "e_ij_max": null, "weighted_surface_energy_EV_PER_ANG2": null, "weighted_surface_energy": null, "weighted_work_function": null, "surface_anisotropy": null, "shape_factor": null, "has_reconstructed": null, "possible_species": null, "has_props": null, "theoretical": null, "database_IDs": null, "fields_not_requested": ["builder_meta", "nsites", "elements", "nelements", "composition", "composition_reduced", "chemsys", "symmetry", "property_name", "deprecated", "deprecation_reasons", "last_updated", "origins", "warnings", "task_ids", "uncorrected_energy_per_atom", "equilibrium_reaction_energy_per_atom", "decomposes_to", "xas", "grain_boundaries", "cbm", "vbm", "is_gap_direct", "is_metal", "es_source_calc_id", "bandstructure", "dos", "dos_energy_up", "dos_energy_down", "is_magnetic", "ordering", "total_magnetization_normalized_vol", "total_magnetization_normalized_formula_units", "num_magnetic_sites", "num_unique_magnetic_sites", "types_of_magnetic_species", "bulk_modulus", "shear_modulus", "universal_anisotropy", "homogeneous_poisson", "e_total", "e_ionic", "e_electronic", "n", "e_ij_max", "weighted_surface_energy_EV_PER_ANG2", "weighted_surface_energy", "weighted_work_function", "surface_anisotropy", "shape_factor", "has_reconstructed", "possible_species", "has_props", "theoretical", "database_IDs"]}