{"builder_meta": null, "nsites": null, "elements": null, "nelements": null, "composition": null, "composition_reduced": null, "formula_pretty": "Nd4Si7", "formula_anonymous": "A4B7", "chemsys": null, "volume": 240.71106432202626, "density": 5.336428541334346, "density_atomic": 21.882824029275113, "symmetry": null, "property_name": null, "material_id": "mp-1220187", "deprecated": null, "deprecation_reasons": null, "last_updated": null, "origins": null, "warnings": null, "structure": {"@module": "pymatgen.core.structure", "@class": "Structure", "charge": 0, "lattice": {"matrix": [[4.09947922, 0.0, 0.0], [0.0, 4.2426021800000004, 0.0], [0.0, 0.0, 13.83996695]], "pbc": [true, true, true], "a": 4.09947922, "b": 4.2426021800000004, "c": 13.83996695, "alpha": 90.0, "beta": 90.0, "gamma": 90.0, "volume": 240.71106432202632}, "properties": {}, "sites": [{"species": [{"element": "Nd", "occu": 1}], "abc": [-0.0, -0.0, 0.6256242], "properties": {"magmom": -0.0}, "label": "Nd", "xyz": [0.0, 0.0, 8.65861825112019]}, {"species": [{"element": "Nd", "occu": 1}], "abc": [0.5, 0.5, 0.12608335], "properties": {"magmom": -0.0}, "label": "Nd", "xyz": [2.04973961, 2.1213010900000002, 1.7449893969452828]}, {"species": [{"element": "Nd", "occu": 1}], "abc": [0.5, 0.0, 0.87487093], "properties": {"magmom": 0.0}, "label": "Nd", "xyz": [2.04973961, 0.0, 12.108184756715765]}, {"species": [{"element": "Nd", "occu": 1}], "abc": [-0.0, 0.5, 0.37403766], "properties": {"magmom": 0.0}, "label": "Nd", "xyz": [0.0, 2.1213010900000002, 5.176668852455337]}, {"species": [{"element": "Si", "occu": 1}], "abc": [0.5, 0.5, 0.697261199999999], "properties": {"magmom": 0.0}, "label": "Si", "xyz": [2.04973961, 2.1213010900000002, 9.650071963517327]}, {"species": [{"element": "Si", "occu": 1}], "abc": [-0.0, 0.0, 0.2103401], "properties": {"magmom": -0.0}, "label": "Si", "xyz": [0.0, 0.0, 2.911100032259695]}, {"species": [{"element": "Si", "occu": 1}], "abc": [-0.0, 0.5, 0.78915884], "properties": {"magmom": -0.0}, "label": "Si", "xyz": [0.0, 2.1213010900000002, 10.92193226390034]}, {"species": [{"element": "Si", "occu": 1}], "abc": [0.5, -0.0, 0.29599988], "properties": {"magmom": 0.0}, "label": "Si", "xyz": [2.04973961, 0.0, 4.096628556403966]}, {"species": [{"element": "Si", "occu": 1}], "abc": [-0.0, -0.0, 0.04071903], "properties": {"magmom": -0.0}, "label": "Si", "xyz": [0.0, 0.0, 0.5635500294360586]}, {"species": [{"element": "Si", "occu": 1}], "abc": [-0.0, 0.5, 0.9606868900000001], "properties": {"magmom": -0.0}, "label": "Si", "xyz": [0.0, 2.1213010900000002, 13.295874806898288]}, {"species": [{"element": "Si", "occu": 1}], "abc": [0.5, 0.0, 0.46191891], "properties": {"magmom": 0.0}, "label": "Si", "xyz": [2.04973961, 0.0, 6.392942447980025]}]}, "task_ids": null, "uncorrected_energy_per_atom": null, "energy_per_atom": -16.94518876181818, "formation_energy_per_atom": -0.664426207727271, "energy_above_hull": 0.0076443168181830005, "is_stable": false, "equilibrium_reaction_energy_per_atom": null, "decomposes_to": null, "xas": null, "grain_boundaries": null, "band_gap": 0.0, "cbm": null, "vbm": null, "efermi": 6.11708744, "is_gap_direct": null, "is_metal": null, "es_source_calc_id": null, "bandstructure": null, "dos": null, "dos_energy_up": null, "dos_energy_down": null, "is_magnetic": null, "ordering": null, "total_magnetization": 0.0, "total_magnetization_normalized_vol": null, "total_magnetization_normalized_formula_units": null, "num_magnetic_sites": null, "num_unique_magnetic_sites": null, "types_of_magnetic_species": null, "bulk_modulus": null, "shear_modulus": null, "universal_anisotropy": null, "homogeneous_poisson": null, "e_total": null, "e_ionic": null, "e_electronic": null, "n": null, "e_ij_max": null, "weighted_surface_energy_EV_PER_ANG2": null, "weighted_surface_energy": null, "weighted_work_function": null, "surface_anisotropy": null, "shape_factor": null, "has_reconstructed": null, "possible_species": null, "has_props": null, "theoretical": null, "database_IDs": null, "fields_not_requested": ["builder_meta", "nsites", "elements", "nelements", "composition", "composition_reduced", "chemsys", "symmetry", "property_name", "deprecated", "deprecation_reasons", "last_updated", "origins", "warnings", "task_ids", "uncorrected_energy_per_atom", "equilibrium_reaction_energy_per_atom", "decomposes_to", "xas", "grain_boundaries", "cbm", "vbm", "is_gap_direct", "is_metal", "es_source_calc_id", "bandstructure", "dos", "dos_energy_up", "dos_energy_down", "is_magnetic", "ordering", "total_magnetization_normalized_vol", "total_magnetization_normalized_formula_units", "num_magnetic_sites", "num_unique_magnetic_sites", "types_of_magnetic_species", "bulk_modulus", "shear_modulus", "universal_anisotropy", "homogeneous_poisson", "e_total", "e_ionic", "e_electronic", "n", "e_ij_max", "weighted_surface_energy_EV_PER_ANG2", "weighted_surface_energy", "weighted_work_function", "surface_anisotropy", "shape_factor", "has_reconstructed", "possible_species", "has_props", "theoretical", "database_IDs"]}