{
  "builder_meta": null,
  "nsites": null,
  "elements": null,
  "nelements": null,
  "composition": null,
  "composition_reduced": null,
  "formula_pretty": "Nd4Te7",
  "formula_anonymous": "A4B7",
  "chemsys": null,
  "volume": 369.2760557905057,
  "density": 6.61096586194624,
  "density_atomic": 33.57055052640961,
  "symmetry": null,
  "property_name": null,
  "material_id": "mp-1220206",
  "deprecated": null,
  "deprecation_reasons": null,
  "last_updated": null,
  "origins": null,
  "warnings": null,
  "structure": {
    "@module": "pymatgen.core.structure",
    "@class": "Structure",
    "charge": 0,
    "lattice": {
      "matrix": [
        [4.578079, 0.0, 0.0],
        [0.0, 4.578079, 0.0],
        [0.0, 0.0, 17.619135]
      ],
      "pbc": [true, true, true],
      "a": 4.578079,
      "b": 4.578079,
      "c": 17.619135,
      "alpha": 90.0,
      "beta": 90.0,
      "gamma": 90.0,
      "volume": 369.2760557905057
    },
    "properties": {},
    "sites": [
      {
        "species": [{ "element": "Nd", "occu": 1 }],
        "abc": [0.0, 0.0, 0.365112],
        "properties": { "magmom": 0.015 },
        "label": "Nd",
        "xyz": [0.0, 0.0, 6.43295761812]
      },
      {
        "species": [{ "element": "Nd", "occu": 1 }],
        "abc": [0.0, 0.0, 0.866784],
        "properties": { "magmom": 0.004 },
        "label": "Nd",
        "xyz": [0.0, 0.0, 15.27198431184]
      },
      {
        "species": [{ "element": "Nd", "occu": 1 }],
        "abc": [0.5, 0.5, 0.129322],
        "properties": { "magmom": 0.053 },
        "label": "Nd",
        "xyz": [2.2890395, 2.2890395, 2.27854177647]
      },
      {
        "species": [{ "element": "Nd", "occu": 1 }],
        "abc": [0.5, 0.5, 0.635373],
        "properties": { "magmom": 0.0 },
        "label": "Nd",
        "xyz": [2.2890395, 2.2890395, 11.194722662355]
      },
      {
        "species": [{ "element": "Te", "occu": 1 }],
        "abc": [0.5, 0.0, 0.007977999999999],
        "properties": { "magmom": -0.002 },
        "label": "Te",
        "xyz": [2.2890395, 0.0, 0.14056545902998238]
      },
      {
        "species": [{ "element": "Te", "occu": 1 }],
        "abc": [0.5, 0.0, 0.497036],
        "properties": { "magmom": -0.007 },
        "label": "Te",
        "xyz": [2.2890395, 0.0, 8.75734438386]
      },
      {
        "species": [{ "element": "Te", "occu": 1 }],
        "abc": [0.0, 0.5, 0.007977999999999],
        "properties": { "magmom": -0.002 },
        "label": "Te",
        "xyz": [0.0, 2.2890395, 0.14056545902998238]
      },
      {
        "species": [{ "element": "Te", "occu": 1 }],
        "abc": [0.0, 0.5, 0.497036],
        "properties": { "magmom": -0.007 },
        "label": "Te",
        "xyz": [0.0, 2.2890395, 8.75734438386]
      },
      {
        "species": [{ "element": "Te", "occu": 1 }],
        "abc": [0.0, 0.0, 0.683094],
        "properties": { "magmom": -0.001 },
        "label": "Te",
        "xyz": [0.0, 0.0, 12.03552540369]
      },
      {
        "species": [{ "element": "Te", "occu": 1 }],
        "abc": [0.5, 0.5, 0.305662],
        "properties": { "magmom": -0.002 },
        "label": "Te",
        "xyz": [2.2890395, 2.2890395, 5.3855000423699995]
      },
      {
        "species": [{ "element": "Te", "occu": 1 }],
        "abc": [0.5, 0.5, 0.820726],
        "properties": { "magmom": -0.0 },
        "label": "Te",
        "xyz": [2.2890395, 2.2890395, 14.46048219201]
      }
    ]
  },
  "task_ids": null,
  "uncorrected_energy_per_atom": null,
  "energy_per_atom": -28.211665839772728,
  "formation_energy_per_atom": -1.3396107397727262,
  "energy_above_hull": 0.25110028386363503,
  "is_stable": false,
  "equilibrium_reaction_energy_per_atom": null,
  "decomposes_to": null,
  "xas": null,
  "grain_boundaries": null,
  "band_gap": 0.0,
  "cbm": null,
  "vbm": null,
  "efermi": 5.67018808,
  "is_gap_direct": null,
  "is_metal": null,
  "es_source_calc_id": null,
  "bandstructure": null,
  "dos": null,
  "dos_energy_up": null,
  "dos_energy_down": null,
  "is_magnetic": null,
  "ordering": null,
  "total_magnetization": 0.1979203,
  "total_magnetization_normalized_vol": null,
  "total_magnetization_normalized_formula_units": null,
  "num_magnetic_sites": null,
  "num_unique_magnetic_sites": null,
  "types_of_magnetic_species": null,
  "bulk_modulus": null,
  "shear_modulus": null,
  "universal_anisotropy": null,
  "homogeneous_poisson": null,
  "e_total": null,
  "e_ionic": null,
  "e_electronic": null,
  "n": null,
  "e_ij_max": null,
  "weighted_surface_energy_EV_PER_ANG2": null,
  "weighted_surface_energy": null,
  "weighted_work_function": null,
  "surface_anisotropy": null,
  "shape_factor": null,
  "has_reconstructed": null,
  "possible_species": null,
  "has_props": null,
  "theoretical": null,
  "database_IDs": null,
  "fields_not_requested": [
    "builder_meta",
    "nsites",
    "elements",
    "nelements",
    "composition",
    "composition_reduced",
    "chemsys",
    "symmetry",
    "property_name",
    "deprecated",
    "deprecation_reasons",
    "last_updated",
    "origins",
    "warnings",
    "task_ids",
    "uncorrected_energy_per_atom",
    "equilibrium_reaction_energy_per_atom",
    "decomposes_to",
    "xas",
    "grain_boundaries",
    "cbm",
    "vbm",
    "is_gap_direct",
    "is_metal",
    "es_source_calc_id",
    "bandstructure",
    "dos",
    "dos_energy_up",
    "dos_energy_down",
    "is_magnetic",
    "ordering",
    "total_magnetization_normalized_vol",
    "total_magnetization_normalized_formula_units",
    "num_magnetic_sites",
    "num_unique_magnetic_sites",
    "types_of_magnetic_species",
    "bulk_modulus",
    "shear_modulus",
    "universal_anisotropy",
    "homogeneous_poisson",
    "e_total",
    "e_ionic",
    "e_electronic",
    "n",
    "e_ij_max",
    "weighted_surface_energy_EV_PER_ANG2",
    "weighted_surface_energy",
    "weighted_work_function",
    "surface_anisotropy",
    "shape_factor",
    "has_reconstructed",
    "possible_species",
    "has_props",
    "theoretical",
    "database_IDs"
  ]
}
