{"builder_meta": null, "nsites": null, "elements": null, "nelements": null, "composition": null, "composition_reduced": null, "formula_pretty": "Nd5Bi3", "formula_anonymous": "A3B5", "chemsys": null, "volume": 518.9653071494986, "density": 8.627388784733458, "density_atomic": 32.43533169684366, "symmetry": null, "property_name": null, "material_id": "mp-1105838", "deprecated": null, "deprecation_reasons": null, "last_updated": null, "origins": null, "warnings": null, "structure": {"@module": "pymatgen.core.structure", "@class": "Structure", "charge": 0, "lattice": {"matrix": [[0.0, 0.0, -6.581773], [-4.773377, -8.267731, 0.0], [-4.766017, 8.263482, 0.0]], "pbc": [true, true, true], "a": 6.581773, "b": 9.546753577656125, "c": 9.539394782092467, "alpha": 120.02552022000211, "beta": 90.0, "gamma": 90.0, "volume": 518.9653071494986}, "properties": {}, "sites": [{"species": [{"element": "Nd", "occu": 1}], "abc": [0.499998999999999, 0.333368999999999, 0.666733999999999], "properties": {"magmom": 0.17400000000000002}, "label": "Nd", "xyz": [-4.768961495590991, 2.7533391920490002, -3.2908799182269934]}, {"species": [{"element": "Nd", "occu": 1}], "abc": [0.499998999999999, 0.666635, 0.333266], "properties": {"magmom": 0.20800000000000002}, "label": "Nd", "xyz": [-4.770451597917, -2.7576212629729993, -3.2908799182269934]}, {"species": [{"element": "Nd", "occu": 1}], "abc": [0.999999, 0.666631, 0.333266], "properties": {"magmom": 0.20700000000000002}, "label": "Nd", "xyz": [-4.7704325044089995, -2.757588192048999, -6.581766418227]}, {"species": [{"element": "Nd", "occu": 1}], "abc": [0.999999, 0.333364999999999, 0.666733999999999], "properties": {"magmom": 0.17400000000000002}, "label": "Nd", "xyz": [-4.768942402082991, 2.753372262973, -6.581766418227]}, {"species": [{"element": "Nd", "occu": 1}], "abc": [0.75, 0.248687, 0.0], "properties": {"magmom": 0.003}, "label": "Nd", "xyz": [-1.187076805999, -2.056077219197, -4.9363297500000005]}, {"species": [{"element": "Nd", "occu": 1}], "abc": [0.750000999999999, 0.751844, 0.751568], "properties": {"magmom": 0.01}, "label": "Nd", "xyz": [-7.170820721844, -0.005475306187999962, -4.936336331772994]}, {"species": [{"element": "Nd", "occu": 1}], "abc": [0.750000999999999, 0.000277, 0.248432], "properties": {"magmom": 0.002}, "label": "Nd", "xyz": [-1.1853533607729998, 2.0506231987369996, -4.936336331772994]}, {"species": [{"element": "Nd", "occu": 1}], "abc": [0.25, 0.751313, 0.0], "properties": {"magmom": -0.005}, "label": "Nd", "xyz": [-3.586300194001, -6.211653780803, -1.64544325]}, {"species": [{"element": "Nd", "occu": 1}], "abc": [0.250001, 0.248156, 0.248432], "properties": {"magmom": -0.003}, "label": "Nd", "xyz": [-2.368573278156, 0.0012263061879997927, -1.6454498317729997]}, {"species": [{"element": "Nd", "occu": 1}], "abc": [0.250001, 0.999722999999999, 0.751568], "properties": {"magmom": -0.008}, "label": "Nd", "xyz": [-8.354040639226994, -2.0548721987369927, -1.6454498317729997]}, {"species": [{"element": "Bi", "occu": 1}], "abc": [0.749997999999999, 0.613177, 0.0], "properties": {"magmom": -0.003}, "label": "Bi", "xyz": [-2.9269249887289996, -5.069582491386999, -4.9363165864539935]}, {"species": [{"element": "Bi", "occu": 1}], "abc": [0.75, 0.38701, 0.387023], "properties": {"magmom": -0.003}, "label": "Bi", "xyz": [-3.691902830161, -0.0015369802239999508, -4.9363297500000005]}, {"species": [{"element": "Bi", "occu": 1}], "abc": [0.75, 0.999987, 0.612977], "properties": {"magmom": -0.003}, "label": "Bi", "xyz": [-7.694773748708, -3.202299113582999, -4.9363297500000005]}, {"species": [{"element": "Bi", "occu": 1}], "abc": [0.249998, 0.386823, 0.0], "properties": {"magmom": -0.002}, "label": "Bi", "xyz": [-1.846452011271, -3.1981485086129995, -1.645430086454]}, {"species": [{"element": "Bi", "occu": 1}], "abc": [0.25, 0.61299, 0.612977], "properties": {"magmom": -0.003}, "label": "Bi", "xyz": [-5.8474911698389995, -0.0027120197760002185, -1.64544325]}, {"species": [{"element": "Bi", "occu": 1}], "abc": [0.25, 1.3000000000000001e-05, 0.387023], "properties": {"magmom": -0.002}, "label": "Bi", "xyz": [-1.8446202512919998, 3.198050113583, -1.64544325]}]}, "task_ids": null, "uncorrected_energy_per_atom": null, "energy_per_atom": -5.21007884375, "formation_energy_per_atom": -0.7712238321875, "energy_above_hull": 0.0, "is_stable": true, "equilibrium_reaction_energy_per_atom": null, "decomposes_to": null, "xas": null, "grain_boundaries": null, "band_gap": 0.0, "cbm": null, "vbm": null, "efermi": 4.83536655, "is_gap_direct": null, "is_metal": null, "es_source_calc_id": null, "bandstructure": null, "dos": null, "dos_energy_up": null, "dos_energy_down": null, "is_magnetic": null, "ordering": null, "total_magnetization": 1.2703983, "total_magnetization_normalized_vol": null, "total_magnetization_normalized_formula_units": null, "num_magnetic_sites": null, "num_unique_magnetic_sites": null, "types_of_magnetic_species": null, "bulk_modulus": null, "shear_modulus": null, "universal_anisotropy": null, "homogeneous_poisson": null, "e_total": null, "e_ionic": null, "e_electronic": null, "n": null, "e_ij_max": null, "weighted_surface_energy_EV_PER_ANG2": null, "weighted_surface_energy": null, "weighted_work_function": null, "surface_anisotropy": null, "shape_factor": null, "has_reconstructed": null, "possible_species": null, "has_props": null, "theoretical": null, "database_IDs": null, "fields_not_requested": ["builder_meta", "nsites", "elements", "nelements", "composition", "composition_reduced", "chemsys", "symmetry", "property_name", "deprecated", "deprecation_reasons", "last_updated", "origins", "warnings", "task_ids", "uncorrected_energy_per_atom", "equilibrium_reaction_energy_per_atom", "decomposes_to", "xas", "grain_boundaries", "cbm", "vbm", "is_gap_direct", "is_metal", "es_source_calc_id", "bandstructure", "dos", "dos_energy_up", "dos_energy_down", "is_magnetic", "ordering", "total_magnetization_normalized_vol", "total_magnetization_normalized_formula_units", "num_magnetic_sites", "num_unique_magnetic_sites", "types_of_magnetic_species", "bulk_modulus", "shear_modulus", "universal_anisotropy", "homogeneous_poisson", "e_total", "e_ionic", "e_electronic", "n", "e_ij_max", "weighted_surface_energy_EV_PER_ANG2", "weighted_surface_energy", "weighted_work_function", "surface_anisotropy", "shape_factor", "has_reconstructed", "possible_species", "has_props", "theoretical", "database_IDs"]}