{"builder_meta": null, "nsites": null, "elements": null, "nelements": null, "composition": null, "composition_reduced": null, "formula_pretty": "Nd5Co2", "formula_anonymous": "A2B5", "chemsys": null, "volume": 379.35035770199704, "density": 7.3458168533017965, "density_atomic": 27.096454121571217, "symmetry": null, "property_name": null, "material_id": "mp-1104652", "deprecated": null, "deprecation_reasons": null, "last_updated": null, "origins": null, "warnings": null, "structure": {"@module": "pymatgen.core.structure", "@class": "Structure", "charge": 0, "lattice": {"matrix": [[1e-08, 6.5506831, 0.0], [0.08234926000000001, 0.0, 7.00343276], [8.25887814, -3.27534103, -0.8445484600000001]], "pbc": [true, true, true], "a": 6.5506831, "b": 7.003916891601711, "c": 8.92469546233706, "alpha": 94.80377673825083, "beta": 111.53056472789987, "gamma": 89.9999999989716, "volume": 379.35035770199704}, "properties": {}, "sites": [{"species": [{"element": "Nd", "occu": 1}], "abc": [0.98767193, 0.9091167, 0.18916258], "properties": {"magmom": -0.0}, "label": "Nd", "xyz": [1.6371357942433624, 5.850353860580725, 6.2071807138144655]}, {"species": [{"element": "Nd", "occu": 1}], "abc": [0.79850935, 0.5908833, 0.81083742], "properties": {"magmom": -0.0}, "label": "Nd", "xyz": [6.745266253618451, 2.575012633851642, 3.453419966185535]}, {"species": [{"element": "Nd", "occu": 1}], "abc": [0.01232807, 0.0908833, 0.81083742], "properties": {"magmom": -0.0}, "label": "Nd", "xyz": [6.704091615756638, -2.5750117905807257, -0.048296413814465367]}, {"species": [{"element": "Nd", "occu": 1}], "abc": [0.20149065, 0.4091167, 0.18916258], "properties": {"magmom": -0.0}, "label": "Nd", "xyz": [1.5959611563815497, 0.7003294361483574, 2.7054643338144655]}, {"species": [{"element": "Nd", "occu": 1}], "abc": [0.6464756500000001, 0.8245526, 0.42651294], "properties": {"magmom": -0.0}, "label": "Nd", "xyz": [3.5904196994989643, 2.837881782808587, 5.414487844536103]}, {"species": [{"element": "Nd", "occu": 1}], "abc": [0.21996471, 0.675447399999999, 0.57348706], "properties": {"magmom": -0.0}, "label": "Nd", "xyz": [4.79198233916544, -0.437446589398671, 4.246112835463889]}, {"species": [{"element": "Nd", "occu": 1}], "abc": [0.35352435, 0.1754474, 0.57348706], "properties": {"magmom": -0.0}, "label": "Nd", "xyz": [4.750807710501036, 0.43746028719141283, 0.7443964554638963]}, {"species": [{"element": "Nd", "occu": 1}], "abc": [0.78003529, 0.324552599999999, 0.42651294], "properties": {"magmom": -0.0}, "label": "Nd", "xyz": [3.549245070834561, 3.7127886593986705, 1.912771464536097]}, {"species": [{"element": "Nd", "occu": 1}], "abc": [0.43332085000000004, 0.75, -0.0], "properties": {"magmom": -0.0}, "label": "Nd", "xyz": [0.061761949333208506, 2.838547568972635, 5.25257457]}, {"species": [{"element": "Nd", "occu": 1}], "abc": [0.56667915, 0.25, 0.0], "properties": {"magmom": -0.0}, "label": "Nd", "xyz": [0.020587320666791503, 3.712135531027365, 1.75085819]}, {"species": [{"element": "Co", "occu": 1}], "abc": [0.82687736, 0.57291382, 0.22197505], "properties": {"magmom": 0.001}, "label": "Co", "xyz": [1.8804439254599539, 4.689567559023314, 3.82489472900882]}, {"species": [{"element": "Co", "occu": 1}], "abc": [0.60490331, 0.92708618, 0.77802495], "properties": {"magmom": 0.001}, "label": "Co", "xyz": [6.5019581188578535, 1.4142328488523623, 5.835705950991179]}, {"species": [{"element": "Co", "occu": 1}], "abc": [0.17312264, 0.42708618, 0.77802495], "properties": {"magmom": 0.001}, "label": "Co", "xyz": [6.460783484540047, -1.4142254890233146, 2.3339895709911795]}, {"species": [{"element": "Co", "occu": 1}], "abc": [0.39509669000000003, 0.07291382, 0.22197505], "properties": {"magmom": 0.001}, "label": "Co", "xyz": [1.839269291142147, 1.8611092211476374, 0.3231783490088202]}]}, "task_ids": null, "uncorrected_energy_per_atom": null, "energy_per_atom": -24.773133038571427, "formation_energy_per_atom": 0.020939414642859002, "energy_above_hull": 0.029407746547622002, "is_stable": false, "equilibrium_reaction_energy_per_atom": null, "decomposes_to": null, "xas": null, "grain_boundaries": null, "band_gap": 0.0, "cbm": null, "vbm": null, "efermi": 3.75893971, "is_gap_direct": null, "is_metal": null, "es_source_calc_id": null, "bandstructure": null, "dos": null, "dos_energy_up": null, "dos_energy_down": null, "is_magnetic": null, "ordering": null, "total_magnetization": 0.0017894999999990002, "total_magnetization_normalized_vol": null, "total_magnetization_normalized_formula_units": null, "num_magnetic_sites": null, "num_unique_magnetic_sites": null, "types_of_magnetic_species": null, "bulk_modulus": null, "shear_modulus": null, "universal_anisotropy": null, "homogeneous_poisson": null, "e_total": null, "e_ionic": null, "e_electronic": null, "n": null, "e_ij_max": null, "weighted_surface_energy_EV_PER_ANG2": null, "weighted_surface_energy": null, "weighted_work_function": null, "surface_anisotropy": null, "shape_factor": null, "has_reconstructed": null, "possible_species": null, "has_props": null, "theoretical": null, "database_IDs": null, "fields_not_requested": ["builder_meta", "nsites", "elements", "nelements", "composition", "composition_reduced", "chemsys", "symmetry", "property_name", "deprecated", "deprecation_reasons", "last_updated", "origins", "warnings", "task_ids", "uncorrected_energy_per_atom", "equilibrium_reaction_energy_per_atom", "decomposes_to", "xas", "grain_boundaries", "cbm", "vbm", "is_gap_direct", "is_metal", "es_source_calc_id", "bandstructure", "dos", "dos_energy_up", "dos_energy_down", "is_magnetic", "ordering", "total_magnetization_normalized_vol", "total_magnetization_normalized_formula_units", "num_magnetic_sites", "num_unique_magnetic_sites", "types_of_magnetic_species", "bulk_modulus", "shear_modulus", "universal_anisotropy", "homogeneous_poisson", "e_total", "e_ionic", "e_electronic", "n", "e_ij_max", "weighted_surface_energy_EV_PER_ANG2", "weighted_surface_energy", "weighted_work_function", "surface_anisotropy", "shape_factor", "has_reconstructed", "possible_species", "has_props", "theoretical", "database_IDs"]}