{
  "builder_meta": null,
  "nsites": null,
  "elements": null,
  "nelements": null,
  "composition": null,
  "composition_reduced": null,
  "formula_pretty": "Nd5Ge4",
  "formula_anonymous": "A4B5",
  "chemsys": null,
  "volume": 970.3972209074326,
  "density": 6.925343870390771,
  "density_atomic": 26.955478358539793,
  "symmetry": null,
  "property_name": null,
  "material_id": "mp-172",
  "deprecated": null,
  "deprecation_reasons": null,
  "last_updated": null,
  "origins": null,
  "warnings": null,
  "structure": {
    "@module": "pymatgen.core.structure",
    "@class": "Structure",
    "charge": 0,
    "lattice": {
      "matrix": [
        [7.94699638, -0.0, 0.0],
        [0.0, 8.03119926, 0.0],
        [0.0, 0.0, 15.20428941]
      ],
      "pbc": [true, true, true],
      "a": 7.94699638,
      "b": 8.03119926,
      "c": 15.20428941,
      "alpha": 90.0,
      "beta": 90.0,
      "gamma": 90.0,
      "volume": 970.3972209074326
    },
    "properties": {},
    "sites": [
      {
        "species": [{ "element": "Nd", "occu": 1 }],
        "abc": [0.3915673, 0.16161049, 0.88717501],
        "properties": { "magmom": 0.061 },
        "label": "Nd",
        "xyz": [3.111783915626374, 1.2979260476962373, 13.488865609359644]
      },
      {
        "species": [{ "element": "Nd", "occu": 1 }],
        "abc": [0.8915673, 0.33838951, 0.61282499],
        "properties": { "magmom": 0.061 },
        "label": "Nd",
        "xyz": [7.085282105626374, 2.7176735823037625, 9.317568505640356]
      },
      {
        "species": [{ "element": "Nd", "occu": 1 }],
        "abc": [0.10843269999999901, 0.66161049, 0.11282499],
        "properties": { "magmom": 0.061 },
        "label": "Nd",
        "xyz": [0.8617142743736181, 5.313525677696237, 1.715423800640356]
      },
      {
        "species": [{ "element": "Nd", "occu": 1 }],
        "abc": [0.608432699999999, 0.8383895100000001, 0.38717501],
        "properties": { "magmom": 0.061 },
        "label": "Nd",
        "xyz": [4.835212464373618, 6.733273212303763, 5.886720904359644]
      },
      {
        "species": [{ "element": "Nd", "occu": 1 }],
        "abc": [0.3915673, 0.16161049, 0.61282499],
        "properties": { "magmom": 0.061 },
        "label": "Nd",
        "xyz": [3.111783915626374, 1.2979260476962373, 9.317568505640356]
      },
      {
        "species": [{ "element": "Nd", "occu": 1 }],
        "abc": [0.8915673, 0.33838951, 0.88717501],
        "properties": { "magmom": 0.061 },
        "label": "Nd",
        "xyz": [7.085282105626374, 2.7176735823037625, 13.488865609359644]
      },
      {
        "species": [{ "element": "Nd", "occu": 1 }],
        "abc": [0.10843269999999901, 0.66161049, 0.38717501],
        "properties": { "magmom": 0.061 },
        "label": "Nd",
        "xyz": [0.8617142743736181, 5.313525677696237, 5.886720904359644]
      },
      {
        "species": [{ "element": "Nd", "occu": 1 }],
        "abc": [0.608432699999999, 0.8383895100000001, 0.11282499],
        "properties": { "magmom": 0.061 },
        "label": "Nd",
        "xyz": [4.835212464373618, 6.733273212303763, 1.715423800640356]
      },
      {
        "species": [{ "element": "Nd", "occu": 1 }],
        "abc": [0.03961995, 0.8249036200000001, 0.6048759300000001],
        "properties": { "magmom": 0.061 },
        "label": "Nd",
        "xyz": [0.314859599225781, 6.624965342515321, 9.196708696862903]
      },
      {
        "species": [{ "element": "Nd", "occu": 1 }],
        "abc": [0.53961895, 0.67509638, 0.89512407],
        "properties": { "magmom": 0.061 },
        "label": "Nd",
        "xyz": [4.288349842229401, 5.421833547484678, 13.6097254181371]
      },
      {
        "species": [{ "element": "Nd", "occu": 1 }],
        "abc": [0.46038105, 0.32490362, 0.39512507],
        "properties": { "magmom": 0.061 },
        "label": "Nd",
        "xyz": [3.6586465377705992, 2.609365712515321, 6.007595917426509]
      },
      {
        "species": [{ "element": "Nd", "occu": 1 }],
        "abc": [0.96038005, 0.17509638, 0.10487493],
        "properties": { "magmom": 0.061 },
        "label": "Nd",
        "xyz": [7.6321367807742195, 1.4062339174846787, 1.5945487875734914]
      },
      {
        "species": [{ "element": "Nd", "occu": 1 }],
        "abc": [0.96038005, 0.17509638, 0.39512507],
        "properties": { "magmom": 0.061 },
        "label": "Nd",
        "xyz": [7.6321367807742195, 1.4062339174846787, 6.007595917426509]
      },
      {
        "species": [{ "element": "Nd", "occu": 1 }],
        "abc": [0.46038105, 0.32490362, 0.10487493],
        "properties": { "magmom": 0.061 },
        "label": "Nd",
        "xyz": [3.6586465377705992, 2.609365712515321, 1.5945487875734914]
      },
      {
        "species": [{ "element": "Nd", "occu": 1 }],
        "abc": [0.53961895, 0.67509638, 0.6048759300000001],
        "properties": { "magmom": 0.061 },
        "label": "Nd",
        "xyz": [4.288349842229401, 5.421833547484678, 9.196708696862903]
      },
      {
        "species": [{ "element": "Nd", "occu": 1 }],
        "abc": [0.03961995, 0.8249036200000001, 0.89512407],
        "properties": { "magmom": 0.061 },
        "label": "Nd",
        "xyz": [0.314859599225781, 6.624965342515321, 13.6097254181371]
      },
      {
        "species": [{ "element": "Nd", "occu": 1 }],
        "abc": [0.27706741, 0.99880906, 0.25],
        "properties": { "magmom": 0.159 },
        "label": "Nd",
        "xyz": [2.201853704285976, 8.021634583553295, 3.8010723525]
      },
      {
        "species": [{ "element": "Nd", "occu": 1 }],
        "abc": [0.77706741, 0.50119094, 0.25],
        "properties": { "magmom": 0.159 },
        "label": "Nd",
        "xyz": [6.175351894285976, 4.025164306446704, 3.8010723525]
      },
      {
        "species": [{ "element": "Nd", "occu": 1 }],
        "abc": [0.22293259, 0.49880906, 0.75],
        "properties": { "magmom": 0.159 },
        "label": "Nd",
        "xyz": [1.7716444857140243, 4.0060349535532955, 11.4032170575]
      },
      {
        "species": [{ "element": "Nd", "occu": 1 }],
        "abc": [0.72293259, 0.00119094, 0.75],
        "properties": { "magmom": 0.159 },
        "label": "Nd",
        "xyz": [5.745142675714024, 0.009564676446704399, 11.4032170575]
      },
      {
        "species": [{ "element": "Ge", "occu": 1 }],
        "abc": [0.7687540900000001, 0.5239439300000001, 0.45340077],
        "properties": { "magmom": -0.013000000000000001 },
        "label": "Ge",
        "xyz": [6.109285970340195, 4.2078981028974916, 6.893636525796846]
      },
      {
        "species": [{ "element": "Ge", "occu": 1 }],
        "abc": [0.26875409, 0.97605607, 0.04659923],
        "properties": { "magmom": -0.013000000000000001 },
        "label": "Ge",
        "xyz": [2.1357877803401943, 7.838900787102508, 0.7085081792031542]
      },
      {
        "species": [{ "element": "Ge", "occu": 1 }],
        "abc": [0.73124591, 0.023943930000000002, 0.54659923],
        "properties": { "magmom": -0.013000000000000001 },
        "label": "Ge",
        "xyz": [5.811208599659806, 0.1922984728974918, 8.310652884203154]
      },
      {
        "species": [{ "element": "Ge", "occu": 1 }],
        "abc": [0.23124591, 0.47605607, 0.95340077],
        "properties": { "magmom": -0.013000000000000001 },
        "label": "Ge",
        "xyz": [1.8377104096598058, 3.8233011571025077, 14.495781230796846]
      },
      {
        "species": [{ "element": "Ge", "occu": 1 }],
        "abc": [0.23124591, 0.47605607, 0.54659923],
        "properties": { "magmom": -0.013000000000000001 },
        "label": "Ge",
        "xyz": [1.8377104096598058, 3.8233011571025077, 8.310652884203154]
      },
      {
        "species": [{ "element": "Ge", "occu": 1 }],
        "abc": [0.73124591, 0.023943930000000002, 0.95340077],
        "properties": { "magmom": -0.013000000000000001 },
        "label": "Ge",
        "xyz": [5.811208599659806, 0.1922984728974918, 14.495781230796846]
      },
      {
        "species": [{ "element": "Ge", "occu": 1 }],
        "abc": [0.26875409, 0.97605607, 0.45340077],
        "properties": { "magmom": -0.013000000000000001 },
        "label": "Ge",
        "xyz": [2.1357877803401943, 7.838900787102508, 6.893636525796846]
      },
      {
        "species": [{ "element": "Ge", "occu": 1 }],
        "abc": [0.7687540900000001, 0.5239439300000001, 0.04659923],
        "properties": { "magmom": -0.013000000000000001 },
        "label": "Ge",
        "xyz": [6.109285970340195, 4.2078981028974916, 0.7085081792031542]
      },
      {
        "species": [{ "element": "Ge", "occu": 1 }],
        "abc": [0.89909247, 0.8892903400000001, 0.25],
        "properties": { "magmom": 0.015 },
        "label": "Ge",
        "xyz": [7.145084604375259, 7.142067920533148, 3.8010723525]
      },
      {
        "species": [{ "element": "Ge", "occu": 1 }],
        "abc": [0.39909247000000003, 0.61070866, 0.25],
        "properties": { "magmom": 0.015 },
        "label": "Ge",
        "xyz": [3.171586414375259, 4.904722938267591, 3.8010723525]
      },
      {
        "species": [{ "element": "Ge", "occu": 1 }],
        "abc": [0.60090753, 0.38929134, 0.75],
        "properties": { "magmom": 0.015 },
        "label": "Ge",
        "xyz": [4.775409965624741, 3.126476321732408, 11.4032170575]
      },
      {
        "species": [{ "element": "Ge", "occu": 1 }],
        "abc": [0.10090753, 0.11070966, 0.75],
        "properties": { "magmom": 0.015 },
        "label": "Ge",
        "xyz": [0.8019117756247414, 0.8891313394668515, 11.4032170575]
      },
      {
        "species": [{ "element": "Ge", "occu": 1 }],
        "abc": [0.16344218, 0.37222558, 0.25],
        "properties": { "magmom": 0.005 },
        "label": "Ge",
        "xyz": [1.2988744127993084, 2.9894178026490708, 3.8010723525]
      },
      {
        "species": [{ "element": "Ge", "occu": 1 }],
        "abc": [0.66344218, 0.12777442, 0.25],
        "properties": { "magmom": 0.005 },
        "label": "Ge",
        "xyz": [5.272372602799308, 1.026181827350929, 3.8010723525]
      },
      {
        "species": [{ "element": "Ge", "occu": 1 }],
        "abc": [0.33655782, 0.8722255800000001, 0.75],
        "properties": { "magmom": 0.005 },
        "label": "Ge",
        "xyz": [2.6746237772006918, 7.005017432649071, 11.4032170575]
      },
      {
        "species": [{ "element": "Ge", "occu": 1 }],
        "abc": [0.83655782, 0.62777442, 0.75],
        "properties": { "magmom": 0.005 },
        "label": "Ge",
        "xyz": [6.648121967200692, 5.041781457350929, 11.4032170575]
      }
    ]
  },
  "task_ids": null,
  "uncorrected_energy_per_atom": null,
  "energy_per_atom": -23.448706360555555,
  "formation_energy_per_atom": -0.9400446680555521,
  "energy_above_hull": 0.0,
  "is_stable": true,
  "equilibrium_reaction_energy_per_atom": null,
  "decomposes_to": null,
  "xas": null,
  "grain_boundaries": null,
  "band_gap": 0.0,
  "cbm": null,
  "vbm": null,
  "efermi": 3.45853986,
  "is_gap_direct": null,
  "is_metal": null,
  "es_source_calc_id": null,
  "bandstructure": null,
  "dos": null,
  "dos_energy_up": null,
  "dos_energy_down": null,
  "is_magnetic": null,
  "ordering": null,
  "total_magnetization": 3.4701193,
  "total_magnetization_normalized_vol": null,
  "total_magnetization_normalized_formula_units": null,
  "num_magnetic_sites": null,
  "num_unique_magnetic_sites": null,
  "types_of_magnetic_species": null,
  "bulk_modulus": null,
  "shear_modulus": null,
  "universal_anisotropy": null,
  "homogeneous_poisson": null,
  "e_total": null,
  "e_ionic": null,
  "e_electronic": null,
  "n": null,
  "e_ij_max": null,
  "weighted_surface_energy_EV_PER_ANG2": null,
  "weighted_surface_energy": null,
  "weighted_work_function": null,
  "surface_anisotropy": null,
  "shape_factor": null,
  "has_reconstructed": null,
  "possible_species": null,
  "has_props": null,
  "theoretical": null,
  "database_IDs": null,
  "fields_not_requested": [
    "builder_meta",
    "nsites",
    "elements",
    "nelements",
    "composition",
    "composition_reduced",
    "chemsys",
    "symmetry",
    "property_name",
    "deprecated",
    "deprecation_reasons",
    "last_updated",
    "origins",
    "warnings",
    "task_ids",
    "uncorrected_energy_per_atom",
    "equilibrium_reaction_energy_per_atom",
    "decomposes_to",
    "xas",
    "grain_boundaries",
    "cbm",
    "vbm",
    "is_gap_direct",
    "is_metal",
    "es_source_calc_id",
    "bandstructure",
    "dos",
    "dos_energy_up",
    "dos_energy_down",
    "is_magnetic",
    "ordering",
    "total_magnetization_normalized_vol",
    "total_magnetization_normalized_formula_units",
    "num_magnetic_sites",
    "num_unique_magnetic_sites",
    "types_of_magnetic_species",
    "bulk_modulus",
    "shear_modulus",
    "universal_anisotropy",
    "homogeneous_poisson",
    "e_total",
    "e_ionic",
    "e_electronic",
    "n",
    "e_ij_max",
    "weighted_surface_energy_EV_PER_ANG2",
    "weighted_surface_energy",
    "weighted_work_function",
    "surface_anisotropy",
    "shape_factor",
    "has_reconstructed",
    "possible_species",
    "has_props",
    "theoretical",
    "database_IDs"
  ]
}
