{"builder_meta": null, "nsites": null, "elements": null, "nelements": null, "composition": null, "composition_reduced": null, "formula_pretty": "Nd5Ga3", "formula_anonymous": "A3B5", "chemsys": null, "volume": 451.56409170183406, "density": 6.842575415692497, "density_atomic": 28.22275573136463, "symmetry": null, "property_name": null, "material_id": "mp-1106252", "deprecated": null, "deprecation_reasons": null, "last_updated": null, "origins": null, "warnings": null, "structure": {"@module": "pymatgen.core.structure", "@class": "Structure", "charge": 0, "lattice": {"matrix": [[-3.93853906, 3.93844277, 7.27784332], [3.93844277, -3.93853906, 7.27784332], [3.93851195, 3.93851195, -7.27789693]], "pbc": [true, true, true], "a": 9.164629003411953, "b": 9.164629003411953, "c": 9.16468965564514, "alpha": 129.09709335631948, "beta": 129.09709335631948, "gamma": 74.85498859081744, "volume": 451.56409170183406}, "properties": {}, "sites": [{"species": [{"element": "Nd", "occu": 1}], "abc": [0.5, 0.5, 0.0], "properties": {"magmom": 0.023}, "label": "Nd", "xyz": [-4.814500000005495e-05, -4.814500000005495e-05, 7.27784332]}, {"species": [{"element": "Nd", "occu": 1}], "abc": [0.0, 0.0, 0.0], "properties": {"magmom": 0.023}, "label": "Nd", "xyz": [0.0, 0.0, 0.0]}, {"species": [{"element": "Nd", "occu": 1}], "abc": [0.52578403, 0.02578403, 0.84914881], "properties": {"magmom": 0.11900000000000001}, "label": "Nd", "xyz": [1.3751107227690311, 5.313601637769031, -2.1657915964157937]}, {"species": [{"element": "Nd", "occu": 1}], "abc": [0.17669576, 0.67669576, 0.15081326], "properties": {"magmom": 0.122}, "label": "Nd", "xyz": [2.563184197693726, -1.375306717306273, 5.113246411219354]}, {"species": [{"element": "Nd", "occu": 1}], "abc": [0.0257213, 0.17673113000000001, 0.50011339], "properties": {"magmom": 0.12}, "label": "Nd", "xyz": [2.5644436593284627, 1.3749419722670735, -2.166356640439625]}, {"species": [{"element": "Nd", "occu": 1}], "abc": [0.6767311300000001, 0.5257213, 0.50011339], "properties": {"magmom": 0.12}, "label": "Nd", "xyz": [1.3748938272670728, 2.564395514328463, 5.111486679560375]}, {"species": [{"element": "Nd", "occu": 1}], "abc": [0.47421597, 0.97421597, 0.15085119], "properties": {"magmom": 0.11900000000000001}, "label": "Nd", "xyz": [2.5633049372309697, -1.3751859777690312, 9.443581306415794]}, {"species": [{"element": "Nd", "occu": 1}], "abc": [0.82330424, 0.32330424, 0.84918674], "properties": {"magmom": 0.122}, "label": "Nd", "xyz": [1.3752314623062734, 5.313722377306274, 2.1645432987806448]}, {"species": [{"element": "Nd", "occu": 1}], "abc": [0.974278699999999, 0.82326887, 0.49988661], "properties": {"magmom": 0.12}, "label": "Nd", "xyz": [1.3739720006715412, 2.5634736877329227, 9.444146350439617]}, {"species": [{"element": "Nd", "occu": 1}], "abc": [0.32326887, 0.4742787, 0.49988661], "properties": {"magmom": 0.12}, "label": "Nd", "xyz": [2.5635218327329263, 1.3740201456715375, 2.1663030304396242]}, {"species": [{"element": "Ga", "occu": 1}], "abc": [0.24999618, 0.25000382, 0.0], "properties": {"magmom": -0.007}, "label": "Ga", "xyz": [6.0175705904885746e-06, -5.4162570590543524e-05, 3.63892166]}, {"species": [{"element": "Ga", "occu": 1}], "abc": [0.75000382, 0.74999618, 0.0], "properties": {"magmom": -0.007}, "label": "Ga", "xyz": [-0.00010230757059037643, -4.212742940978842e-05, 10.91676498]}, {"species": [{"element": "Ga", "occu": 1}], "abc": [0.88408341, 0.38408341, 0.2681948], "properties": {"magmom": -0.008}, "label": "Ga", "xyz": [-0.9130180886636889, 3.025472826336311, 7.277625308020678]}, {"species": [{"element": "Ga", "occu": 1}], "abc": [0.11591659, 0.61591659, 0.731805199999999], "properties": {"magmom": -0.008}, "label": "Ga", "xyz": [4.851433748663685, 0.9129428336636851, 0.00016440197932787726]}, {"species": [{"element": "Ga", "occu": 1}], "abc": [0.38400657, 0.11599343000000001, 0.5], "properties": {"magmom": -0.008}, "label": "Ga", "xyz": [0.913664585509377, 3.0247992194906232, -2.680500000007413e-05]}, {"species": [{"element": "Ga", "occu": 1}], "abc": [0.6159934300000001, 0.88400657, 0.5], "properties": {"magmom": -0.008}, "label": "Ga", "xyz": [3.0247510744906227, 0.913616440509377, 7.277816515]}]}, "task_ids": null, "uncorrected_energy_per_atom": null, "energy_per_atom": -23.20737729, "formation_energy_per_atom": -0.5300806946874981, "energy_above_hull": 0.008376320572917, "is_stable": false, "equilibrium_reaction_energy_per_atom": null, "decomposes_to": null, "xas": null, "grain_boundaries": null, "band_gap": 0.0, "cbm": null, "vbm": null, "efermi": 3.38397919, "is_gap_direct": null, "is_metal": null, "es_source_calc_id": null, "bandstructure": null, "dos": null, "dos_energy_up": null, "dos_energy_down": null, "is_magnetic": null, "ordering": null, "total_magnetization": 2.5552978, "total_magnetization_normalized_vol": null, "total_magnetization_normalized_formula_units": null, "num_magnetic_sites": null, "num_unique_magnetic_sites": null, "types_of_magnetic_species": null, "bulk_modulus": null, "shear_modulus": null, "universal_anisotropy": null, "homogeneous_poisson": null, "e_total": null, "e_ionic": null, "e_electronic": null, "n": null, "e_ij_max": null, "weighted_surface_energy_EV_PER_ANG2": null, "weighted_surface_energy": null, "weighted_work_function": null, "surface_anisotropy": null, "shape_factor": null, "has_reconstructed": null, "possible_species": null, "has_props": null, "theoretical": null, "database_IDs": null, "fields_not_requested": ["builder_meta", "nsites", "elements", "nelements", "composition", "composition_reduced", "chemsys", "symmetry", "property_name", "deprecated", "deprecation_reasons", "last_updated", "origins", "warnings", "task_ids", "uncorrected_energy_per_atom", "equilibrium_reaction_energy_per_atom", "decomposes_to", "xas", "grain_boundaries", "cbm", "vbm", "is_gap_direct", "is_metal", "es_source_calc_id", "bandstructure", "dos", "dos_energy_up", "dos_energy_down", "is_magnetic", "ordering", "total_magnetization_normalized_vol", "total_magnetization_normalized_formula_units", "num_magnetic_sites", "num_unique_magnetic_sites", "types_of_magnetic_species", "bulk_modulus", "shear_modulus", "universal_anisotropy", "homogeneous_poisson", "e_total", "e_ionic", "e_electronic", "n", "e_ij_max", "weighted_surface_energy_EV_PER_ANG2", "weighted_surface_energy", "weighted_work_function", "surface_anisotropy", "shape_factor", "has_reconstructed", "possible_species", "has_props", "theoretical", "database_IDs"]}