{"builder_meta": null, "nsites": null, "elements": null, "nelements": null, "composition": null, "composition_reduced": null, "formula_pretty": "Nd5Ge3", "formula_anonymous": "A3B5", "chemsys": null, "volume": 454.8674882556954, "density": 6.856775187851785, "density_atomic": 28.42921801598096, "symmetry": null, "property_name": null, "material_id": "mp-1464", "deprecated": null, "deprecation_reasons": null, "last_updated": null, "origins": null, "warnings": null, "structure": {"@module": "pymatgen.core.structure", "@class": "Structure", "charge": 0, "lattice": {"matrix": [[8.82572249, -1.029999999999998e-06, 0.0], [-4.41286176, 7.6433011, 0.0], [0.0, 0.0, 6.74300823]], "pbc": [true, true, true], "a": 8.82572249000006, "b": 8.825723801373547, "c": 6.74300823, "alpha": 90.0, "beta": 90.0, "gamma": 120.00000563204797, "volume": 454.8674882556954}, "properties": {}, "sites": [{"species": [{"element": "Nd", "occu": 1}], "abc": [-0.0, 0.75453999, 0.75], "properties": {"magmom": 0.063}, "label": "Nd", "xyz": [-3.3296806682617826, 5.76717633556099, 5.0572561725]}, {"species": [{"element": "Nd", "occu": 1}], "abc": [0.0, 0.24546001, 0.25], "properties": {"magmom": 0.063}, "label": "Nd", "xyz": [-1.0831810917382176, 1.876124764439011, 1.6857520575]}, {"species": [{"element": "Nd", "occu": 1}], "abc": [0.75453999, 0.75453999, 0.25], "properties": {"magmom": 0.063}, "label": "Nd", "xyz": [3.3296798910855934, 5.7671755583848, 1.6857520575]}, {"species": [{"element": "Nd", "occu": 1}], "abc": [0.75453999, -0.0, 0.75], "properties": {"magmom": 0.063}, "label": "Nd", "xyz": [6.659360559347376, -7.771761896999985e-07, 5.0572561725]}, {"species": [{"element": "Nd", "occu": 1}], "abc": [0.24546001, 0.24546001, 0.75], "properties": {"magmom": 0.063}, "label": "Nd", "xyz": [1.0831808389144073, 1.8761245116152008, 5.0572561725]}, {"species": [{"element": "Nd", "occu": 1}], "abc": [0.24546001, 0.0, 0.25], "properties": {"magmom": 0.063}, "label": "Nd", "xyz": [2.166361930652625, -2.528238102999995e-07, 1.6857520575]}, {"species": [{"element": "Nd", "occu": 1}], "abc": [0.333333, 0.666667, 0.5], "properties": {"magmom": 0.09}, "label": "Nd", "xyz": [-4.756194750044074e-06, 5.095536271100711, 3.371504115]}, {"species": [{"element": "Nd", "occu": 1}], "abc": [0.666667, 0.333333, -0.0], "properties": {"magmom": 0.09}, "label": "Nd", "xyz": [4.41286548619475, 2.54776379889929, 0.0]}, {"species": [{"element": "Nd", "occu": 1}], "abc": [0.666667, 0.333333, 0.5], "properties": {"magmom": 0.09}, "label": "Nd", "xyz": [4.41286548619475, 2.54776379889929, 3.371504115]}, {"species": [{"element": "Nd", "occu": 1}], "abc": [0.333333, 0.666667, -0.0], "properties": {"magmom": 0.09}, "label": "Nd", "xyz": [-4.756194750044074e-06, 5.095536271100711, 0.0]}, {"species": [{"element": "Ge", "occu": 1}], "abc": [0.39231604000000003, 0.0, 0.75], "properties": {"magmom": -0.018000000000000002}, "label": "Ge", "xyz": [3.46247249741574, -4.040855211999992e-07, 5.0572561725]}, {"species": [{"element": "Ge", "occu": 1}], "abc": [0.39231604000000003, 0.39231604000000003, 0.25], "properties": {"magmom": -0.018000000000000002}, "label": "Ge", "xyz": [1.7312360466651096, 2.9985892159941234, 1.6857520575]}, {"species": [{"element": "Ge", "occu": 1}], "abc": [-0.0, 0.60768396, 0.25], "properties": {"magmom": -0.018000000000000002}, "label": "Ge", "xyz": [-2.68162530924937, 4.644711479920357, 1.6857520575]}, {"species": [{"element": "Ge", "occu": 1}], "abc": [0.0, 0.39231604000000003, 0.75], "properties": {"magmom": -0.018000000000000002}, "label": "Ge", "xyz": [-1.7312364507506306, 2.9985896200796445, 5.0572561725]}, {"species": [{"element": "Ge", "occu": 1}], "abc": [0.60768396, 0.60768396, 0.75], "properties": {"magmom": -0.018000000000000002}, "label": "Ge", "xyz": [2.6816246833348907, 4.644710854005878, 5.0572561725]}, {"species": [{"element": "Ge", "occu": 1}], "abc": [0.60768396, -0.0, 0.25], "properties": {"magmom": -0.018000000000000002}, "label": "Ge", "xyz": [5.363249992584261, -6.259144787999988e-07, 1.6857520575]}]}, "task_ids": null, "uncorrected_energy_per_atom": null, "energy_per_atom": -24.41141856625, "formation_energy_per_atom": -0.8231713596874961, "energy_above_hull": 0.0, "is_stable": true, "equilibrium_reaction_energy_per_atom": null, "decomposes_to": null, "xas": null, "grain_boundaries": null, "band_gap": 0.0, "cbm": null, "vbm": null, "efermi": 4.03504788, "is_gap_direct": null, "is_metal": null, "es_source_calc_id": null, "bandstructure": null, "dos": null, "dos_energy_up": null, "dos_energy_down": null, "is_magnetic": null, "ordering": null, "total_magnetization": 1.416035299999999, "total_magnetization_normalized_vol": null, "total_magnetization_normalized_formula_units": null, "num_magnetic_sites": null, "num_unique_magnetic_sites": null, "types_of_magnetic_species": null, "bulk_modulus": null, "shear_modulus": null, "universal_anisotropy": null, "homogeneous_poisson": null, "e_total": null, "e_ionic": null, "e_electronic": null, "n": null, "e_ij_max": null, "weighted_surface_energy_EV_PER_ANG2": null, "weighted_surface_energy": null, "weighted_work_function": null, "surface_anisotropy": null, "shape_factor": null, "has_reconstructed": null, "possible_species": null, "has_props": null, "theoretical": null, "database_IDs": null, "fields_not_requested": ["builder_meta", "nsites", "elements", "nelements", "composition", "composition_reduced", "chemsys", "symmetry", "property_name", "deprecated", "deprecation_reasons", "last_updated", "origins", "warnings", "task_ids", "uncorrected_energy_per_atom", "equilibrium_reaction_energy_per_atom", "decomposes_to", "xas", "grain_boundaries", "cbm", "vbm", "is_gap_direct", "is_metal", "es_source_calc_id", "bandstructure", "dos", "dos_energy_up", "dos_energy_down", "is_magnetic", "ordering", "total_magnetization_normalized_vol", "total_magnetization_normalized_formula_units", "num_magnetic_sites", "num_unique_magnetic_sites", "types_of_magnetic_species", "bulk_modulus", "shear_modulus", "universal_anisotropy", "homogeneous_poisson", "e_total", "e_ionic", "e_electronic", "n", "e_ij_max", "weighted_surface_energy_EV_PER_ANG2", "weighted_surface_energy", "weighted_work_function", "surface_anisotropy", "shape_factor", "has_reconstructed", "possible_species", "has_props", "theoretical", "database_IDs"]}