{
  "builder_meta": null,
  "nsites": null,
  "elements": null,
  "nelements": null,
  "composition": null,
  "composition_reduced": null,
  "formula_pretty": "Nd5Ir2",
  "formula_anonymous": "A2B5",
  "chemsys": null,
  "volume": 404.5607556251268,
  "density": 9.076337881142026,
  "density_atomic": 28.897196830366198,
  "symmetry": null,
  "property_name": null,
  "material_id": "mp-1104605",
  "deprecated": null,
  "deprecation_reasons": null,
  "last_updated": null,
  "origins": null,
  "warnings": null,
  "structure": {
    "@module": "pymatgen.core.structure",
    "@class": "Structure",
    "charge": 0,
    "lattice": {
      "matrix": [
        [-1e-8, 6.7197837, -0.0],
        [0.00684594, -0.0, 7.29768453],
        [8.24890899, -3.35989237, -0.94884523]
      ],
      "pbc": [true, true, true],
      "a": 6.7197837,
      "b": 7.297687741079074,
      "c": 8.957325690951556,
      "alpha": 96.0309443734371,
      "beta": 112.03049023843869,
      "gamma": 90.00000000007998,
      "volume": 404.5607556251268
    },
    "properties": {},
    "sites": [
      {
        "species": [{ "element": "Nd", "occu": 1 }],
        "abc": [0.98002597, 0.91793461, 0.18507394],
        "properties": { "magmom": 0.002 },
        "label": "Nd",
        "xyz": [1.5329422029444442, 5.963734019890851, 6.523190677782277]
      },
      {
        "species": [{ "element": "Nd", "occu": 1 }],
        "abc": [0.79495203, 0.58206539, 0.81492606],
        "properties": { "magmom": 0.002 },
        "label": "Nd",
        "xyz": [6.726235679305776, 2.603841842367749, 3.4744908872177227]
      },
      {
        "species": [{ "element": "Nd", "occu": 1 }],
        "abc": [0.01997403, 0.08206539, 0.81492606],
        "properties": { "magmom": 0.002 },
        "label": "Nd",
        "xyz": [6.722812717055556, -2.603842689890851, -0.17435137778227716]
      },
      {
        "species": [{ "element": "Nd", "occu": 1 }],
        "abc": [0.20504797, 0.41793461, 0.18507394],
        "properties": { "magmom": 0.002 },
        "label": "Nd",
        "xyz": [1.5295192406942242, 0.7560494876322512, 2.8743484127822767]
      },
      {
        "species": [{ "element": "Nd", "occu": 1 }],
        "abc": [0.6500341, 0.81846361, 0.43501529],
        "properties": { "magmom": 0.0 },
        "label": "Nd",
        "xyz": [3.5940046827343597, 2.9064839959198325, 5.560127042171386]
      },
      {
        "species": [{ "element": "Nd", "occu": 1 }],
        "abc": [0.21501981, 0.68153639, 0.5649847100000001],
        "properties": { "magmom": 0.0 },
        "label": "Nd",
        "xyz": [4.665173208615102, -0.453401201880566, 4.437554522828614]
      },
      {
        "species": [{ "element": "Nd", "occu": 1 }],
        "abc": [0.3499659, 0.18153639, 0.5649847100000001],
        "properties": { "magmom": 0.0 },
        "label": "Nd",
        "xyz": [4.661750237265641, 0.453407334080167, 0.7887122578286131]
      },
      {
        "species": [{ "element": "Nd", "occu": 1 }],
        "abc": [0.78498019, 0.31846361, 0.43501529],
        "properties": { "magmom": 0.0 },
        "label": "Nd",
        "xyz": [3.590581711384899, 3.813292531880566, 1.9112847771713866]
      },
      {
        "species": [{ "element": "Nd", "occu": 1 }],
        "abc": [0.4327262, 0.75, 0.0],
        "properties": { "magmom": 0.001 },
        "label": "Nd",
        "xyz": [0.0051344506727379995, 2.9078264653229398, 5.4732633975]
      },
      {
        "species": [{ "element": "Nd", "occu": 1 }],
        "abc": [0.567273799999999, 0.25, -0.0],
        "properties": { "magmom": 0.001 },
        "label": "Nd",
        "xyz": [0.001711479327262, 3.8119572346770534, 1.8244211325]
      },
      {
        "species": [{ "element": "Ir", "occu": 1 }],
        "abc": [0.82343011, 0.5741227, 0.22272449],
        "properties": { "magmom": 0.0 },
        "label": "Ir",
        "xyz": [1.841164449176702, 4.784941916704065, 3.978435276171148]
      },
      {
        "species": [{ "element": "Ir", "occu": 1 }],
        "abc": [0.60070662, 0.9258772999999991, 0.7772755100000001],
        "properties": { "magmom": 0.0 },
        "label": "Ir",
        "xyz": [6.418013436581932, 1.4250564981212346, 6.019246288828844]
      },
      {
        "species": [{ "element": "Ir", "occu": 1 }],
        "abc": [0.17656989, 0.425877299999999, 0.7772755100000001],
        "properties": { "magmom": 0.0 },
        "label": "Ir",
        "xyz": [6.414590470823299, -1.4250505867040657, 2.3704040238288444]
      },
      {
        "species": [{ "element": "Ir", "occu": 1 }],
        "abc": [0.39929338000000003, 0.0741227, 0.22272449],
        "properties": { "magmom": 0.0 },
        "label": "Ir",
        "xyz": [1.8377414834180692, 1.9348348318787647, 0.3295930111711483]
      }
    ]
  },
  "task_ids": null,
  "uncorrected_energy_per_atom": null,
  "energy_per_atom": -36.56363677,
  "formation_energy_per_atom": -0.590957939642854,
  "energy_above_hull": 0.0,
  "is_stable": true,
  "equilibrium_reaction_energy_per_atom": null,
  "decomposes_to": null,
  "xas": null,
  "grain_boundaries": null,
  "band_gap": 0.0,
  "cbm": null,
  "vbm": null,
  "efermi": 4.25434882,
  "is_gap_direct": null,
  "is_metal": null,
  "es_source_calc_id": null,
  "bandstructure": null,
  "dos": null,
  "dos_energy_up": null,
  "dos_energy_down": null,
  "is_magnetic": null,
  "ordering": null,
  "total_magnetization": 0.023468299999999002,
  "total_magnetization_normalized_vol": null,
  "total_magnetization_normalized_formula_units": null,
  "num_magnetic_sites": null,
  "num_unique_magnetic_sites": null,
  "types_of_magnetic_species": null,
  "bulk_modulus": null,
  "shear_modulus": null,
  "universal_anisotropy": null,
  "homogeneous_poisson": null,
  "e_total": null,
  "e_ionic": null,
  "e_electronic": null,
  "n": null,
  "e_ij_max": null,
  "weighted_surface_energy_EV_PER_ANG2": null,
  "weighted_surface_energy": null,
  "weighted_work_function": null,
  "surface_anisotropy": null,
  "shape_factor": null,
  "has_reconstructed": null,
  "possible_species": null,
  "has_props": null,
  "theoretical": null,
  "database_IDs": null,
  "fields_not_requested": [
    "builder_meta",
    "nsites",
    "elements",
    "nelements",
    "composition",
    "composition_reduced",
    "chemsys",
    "symmetry",
    "property_name",
    "deprecated",
    "deprecation_reasons",
    "last_updated",
    "origins",
    "warnings",
    "task_ids",
    "uncorrected_energy_per_atom",
    "equilibrium_reaction_energy_per_atom",
    "decomposes_to",
    "xas",
    "grain_boundaries",
    "cbm",
    "vbm",
    "is_gap_direct",
    "is_metal",
    "es_source_calc_id",
    "bandstructure",
    "dos",
    "dos_energy_up",
    "dos_energy_down",
    "is_magnetic",
    "ordering",
    "total_magnetization_normalized_vol",
    "total_magnetization_normalized_formula_units",
    "num_magnetic_sites",
    "num_unique_magnetic_sites",
    "types_of_magnetic_species",
    "bulk_modulus",
    "shear_modulus",
    "universal_anisotropy",
    "homogeneous_poisson",
    "e_total",
    "e_ionic",
    "e_electronic",
    "n",
    "e_ij_max",
    "weighted_surface_energy_EV_PER_ANG2",
    "weighted_surface_energy",
    "weighted_work_function",
    "surface_anisotropy",
    "shape_factor",
    "has_reconstructed",
    "possible_species",
    "has_props",
    "theoretical",
    "database_IDs"
  ]
}
