{"builder_meta": null, "nsites": null, "elements": null, "nelements": null, "composition": null, "composition_reduced": null, "formula_pretty": "Nd5Ir3", "formula_anonymous": "A3B5", "chemsys": null, "volume": 827.9051121731039, "density": 10.412540576586894, "density_atomic": 25.872034755409498, "symmetry": null, "property_name": null, "material_id": "mp-30522", "deprecated": null, "deprecation_reasons": null, "last_updated": null, "origins": null, "warnings": null, "structure": {"@module": "pymatgen.core.structure", "@class": "Structure", "charge": 0, "lattice": {"matrix": [[6.56010523, 0.0, 0.0], [-0.0, 11.23401189, -0.0], [0.0, -0.0, 11.23401189]], "pbc": [true, true, true], "a": 6.56010523, "b": 11.23401189, "c": 11.23401189, "alpha": 90.0, "beta": 90.0, "gamma": 90.0, "volume": 827.9051121731039}, "properties": {}, "sites": [{"species": [{"element": "Nd", "occu": 1}], "abc": [0.1127671, 0.04250346, 0.34072195], "properties": {"magmom": -0.0}, "label": "Nd", "xyz": [0.739764042481933, 0.4774843750061394, 3.8276744374839855]}, {"species": [{"element": "Nd", "occu": 1}], "abc": [0.1127671, 0.15927805, 0.04250346], "properties": {"magmom": -0.0}, "label": "Nd", "xyz": [0.739764042481933, 1.7893315075160146, 0.4774843750061394]}, {"species": [{"element": "Nd", "occu": 1}], "abc": [0.1127671, 0.34072195, 0.45749654], "properties": {"magmom": -0.0}, "label": "Nd", "xyz": [0.739764042481933, 3.8276744374839855, 5.13952156999386]}, {"species": [{"element": "Nd", "occu": 1}], "abc": [0.1127671, 0.45749654, 0.15927805], "properties": {"magmom": -0.0}, "label": "Nd", "xyz": [0.739764042481933, 5.13952156999386, 1.7893315075160146]}, {"species": [{"element": "Nd", "occu": 1}], "abc": [0.3872329, 0.54250346, 0.6592780500000001], "properties": {"magmom": -0.0}, "label": "Nd", "xyz": [2.5402885725180666, 6.094490320006139, 7.406337452516015]}, {"species": [{"element": "Nd", "occu": 1}], "abc": [0.3872329, 0.9574965400000001, 0.84072195], "properties": {"magmom": -0.0}, "label": "Nd", "xyz": [2.5402885725180666, 10.756527514993861, 9.444680382483986]}, {"species": [{"element": "Nd", "occu": 1}], "abc": [0.3872329, 0.84072195, 0.54250346], "properties": {"magmom": -0.0}, "label": "Nd", "xyz": [2.5402885725180666, 9.444680382483986, 6.094490320006139]}, {"species": [{"element": "Nd", "occu": 1}], "abc": [0.3872329, 0.6592780500000001, 0.9574965400000001], "properties": {"magmom": -0.0}, "label": "Nd", "xyz": [2.5402885725180666, 7.406337452516015, 10.756527514993861]}, {"species": [{"element": "Nd", "occu": 1}], "abc": [0.8872329, 0.9574965400000001, 0.6592780500000001], "properties": {"magmom": -0.0}, "label": "Nd", "xyz": [5.820341187518067, 10.756527514993861, 7.406337452516015]}, {"species": [{"element": "Nd", "occu": 1}], "abc": [0.8872329, 0.84072195, 0.9574965400000001], "properties": {"magmom": -0.0}, "label": "Nd", "xyz": [5.820341187518067, 9.444680382483986, 10.756527514993861]}, {"species": [{"element": "Nd", "occu": 1}], "abc": [0.8872329, 0.6592780500000001, 0.54250346], "properties": {"magmom": -0.0}, "label": "Nd", "xyz": [5.820341187518067, 7.406337452516015, 6.094490320006139]}, {"species": [{"element": "Nd", "occu": 1}], "abc": [0.8872329, 0.54250346, 0.84072195], "properties": {"magmom": -0.0}, "label": "Nd", "xyz": [5.820341187518067, 6.094490320006139, 9.444680382483986]}, {"species": [{"element": "Nd", "occu": 1}], "abc": [0.6127671, 0.45749654, 0.34072195], "properties": {"magmom": -0.0}, "label": "Nd", "xyz": [4.0198166574819325, 5.13952156999386, 3.8276744374839855]}, {"species": [{"element": "Nd", "occu": 1}], "abc": [0.6127671, 0.04250346, 0.15927805], "properties": {"magmom": -0.0}, "label": "Nd", "xyz": [4.0198166574819325, 0.4774843750061394, 1.7893315075160146]}, {"species": [{"element": "Nd", "occu": 1}], "abc": [0.6127671, 0.15927805, 0.45749654], "properties": {"magmom": -0.0}, "label": "Nd", "xyz": [4.0198166574819325, 1.7893315075160146, 5.13952156999386]}, {"species": [{"element": "Nd", "occu": 1}], "abc": [0.6127671, 0.34072195, 0.04250346], "properties": {"magmom": -0.0}, "label": "Nd", "xyz": [4.0198166574819325, 3.8276744374839855, 0.4774843750061394]}, {"species": [{"element": "Nd", "occu": 1}], "abc": [0.0, 0.75, 0.25], "properties": {"magmom": 0.0}, "label": "Nd", "xyz": [0.0, 8.4255089175, 2.8085029725]}, {"species": [{"element": "Nd", "occu": 1}], "abc": [0.0, 0.25, 0.75], "properties": {"magmom": 0.0}, "label": "Nd", "xyz": [0.0, 2.8085029725, 8.4255089175]}, {"species": [{"element": "Nd", "occu": 1}], "abc": [0.5, 0.25, 0.75], "properties": {"magmom": 0.0}, "label": "Nd", "xyz": [3.280052615, 2.8085029725, 8.4255089175]}, {"species": [{"element": "Nd", "occu": 1}], "abc": [0.5, 0.75, 0.25], "properties": {"magmom": 0.0}, "label": "Nd", "xyz": [3.280052615, 8.4255089175, 2.8085029725]}, {"species": [{"element": "Ir", "occu": 1}], "abc": [0.25, 0.5963931, 0.4036069], "properties": {"magmom": 0.0}, "label": "Ir", "xyz": [1.6400263075, 6.6998871765139585, 4.534124713486041]}, {"species": [{"element": "Ir", "occu": 1}], "abc": [0.25, 0.0963931, 0.5963931], "properties": {"magmom": 0.0}, "label": "Ir", "xyz": [1.6400263075, 1.0828812315139589, 6.6998871765139585]}, {"species": [{"element": "Ir", "occu": 1}], "abc": [0.25, 0.4036069, 0.9036069], "properties": {"magmom": 0.0}, "label": "Ir", "xyz": [1.6400263075, 4.534124713486041, 10.151130658486041]}, {"species": [{"element": "Ir", "occu": 1}], "abc": [0.25, 0.9036069, 0.0963931], "properties": {"magmom": 0.0}, "label": "Ir", "xyz": [1.6400263075, 10.151130658486041, 1.0828812315139589]}, {"species": [{"element": "Ir", "occu": 1}], "abc": [0.75, 0.4036069, 0.5963931], "properties": {"magmom": 0.0}, "label": "Ir", "xyz": [4.9200789225, 4.534124713486041, 6.6998871765139585]}, {"species": [{"element": "Ir", "occu": 1}], "abc": [0.75, 0.9036069, 0.4036069], "properties": {"magmom": 0.0}, "label": "Ir", "xyz": [4.9200789225, 10.151130658486041, 4.534124713486041]}, {"species": [{"element": "Ir", "occu": 1}], "abc": [0.75, 0.5963931, 0.0963931], "properties": {"magmom": 0.0}, "label": "Ir", "xyz": [4.9200789225, 6.6998871765139585, 1.0828812315139589]}, {"species": [{"element": "Ir", "occu": 1}], "abc": [0.75, 0.0963931, 0.9036069], "properties": {"magmom": 0.0}, "label": "Ir", "xyz": [4.9200789225, 1.0828812315139589, 10.151130658486041]}, {"species": [{"element": "Ir", "occu": 1}], "abc": [0.3755133, 0.25, 0.25], "properties": {"magmom": -0.0}, "label": "Ir", "xyz": [2.4634067632645587, 2.8085029725, 2.8085029725]}, {"species": [{"element": "Ir", "occu": 1}], "abc": [0.124485699999999, 0.75, 0.75], "properties": {"magmom": -0.0}, "label": "Ir", "xyz": [0.8166392916302044, 8.4255089175, 8.4255089175]}, {"species": [{"element": "Ir", "occu": 1}], "abc": [0.6244867, 0.75, 0.75], "properties": {"magmom": -0.0}, "label": "Ir", "xyz": [4.0966984667354405, 8.4255089175, 8.4255089175]}, {"species": [{"element": "Ir", "occu": 1}], "abc": [0.875513299999999, 0.25, 0.25], "properties": {"magmom": -0.0}, "label": "Ir", "xyz": [5.743459378264553, 2.8085029725, 2.8085029725]}]}, "task_ids": null, "uncorrected_energy_per_atom": null, "energy_per_atom": -38.737660568125, "formation_energy_per_atom": -0.716647410312496, "energy_above_hull": 0.0, "is_stable": true, "equilibrium_reaction_energy_per_atom": null, "decomposes_to": null, "xas": null, "grain_boundaries": null, "band_gap": 0.0, "cbm": null, "vbm": null, "efermi": 4.77766663, "is_gap_direct": null, "is_metal": null, "es_source_calc_id": null, "bandstructure": null, "dos": null, "dos_energy_up": null, "dos_energy_down": null, "is_magnetic": null, "ordering": null, "total_magnetization": 4e-07, "total_magnetization_normalized_vol": null, "total_magnetization_normalized_formula_units": null, "num_magnetic_sites": null, "num_unique_magnetic_sites": null, "types_of_magnetic_species": null, "bulk_modulus": null, "shear_modulus": null, "universal_anisotropy": null, "homogeneous_poisson": null, "e_total": null, "e_ionic": null, "e_electronic": null, "n": null, "e_ij_max": null, "weighted_surface_energy_EV_PER_ANG2": null, "weighted_surface_energy": null, "weighted_work_function": null, "surface_anisotropy": null, "shape_factor": null, "has_reconstructed": null, "possible_species": null, "has_props": null, "theoretical": null, "database_IDs": null, "fields_not_requested": ["builder_meta", "nsites", "elements", "nelements", "composition", "composition_reduced", "chemsys", "symmetry", "property_name", "deprecated", "deprecation_reasons", "last_updated", "origins", "warnings", "task_ids", "uncorrected_energy_per_atom", "equilibrium_reaction_energy_per_atom", "decomposes_to", "xas", "grain_boundaries", "cbm", "vbm", "is_gap_direct", "is_metal", "es_source_calc_id", "bandstructure", "dos", "dos_energy_up", "dos_energy_down", "is_magnetic", "ordering", "total_magnetization_normalized_vol", "total_magnetization_normalized_formula_units", "num_magnetic_sites", "num_unique_magnetic_sites", "types_of_magnetic_species", "bulk_modulus", "shear_modulus", "universal_anisotropy", "homogeneous_poisson", "e_total", "e_ionic", "e_electronic", "n", "e_ij_max", "weighted_surface_energy_EV_PER_ANG2", "weighted_surface_energy", "weighted_work_function", "surface_anisotropy", "shape_factor", "has_reconstructed", "possible_species", "has_props", "theoretical", "database_IDs"]}