{"builder_meta": null, "nsites": null, "elements": null, "nelements": null, "composition": null, "composition_reduced": null, "formula_pretty": "Nd5Mg", "formula_anonymous": "AB5", "chemsys": null, "volume": 198.36974739819655, "density": 6.240653116078693, "density_atomic": 33.06162456636609, "symmetry": null, "property_name": null, "material_id": "mp-1186293", "deprecated": null, "deprecation_reasons": null, "last_updated": null, "origins": null, "warnings": null, "structure": {"@module": "pymatgen.core.structure", "@class": "Structure", "charge": 0, "lattice": {"matrix": [[5.99054291, -3.16837467, -0.00668368], [5.99054291, 3.16837467, -0.00668472], [4.32063562, -2e-08, 5.22085807]], "pbc": [true, true, true], "a": 6.776816883878981, "b": 6.776816884904767, "c": 6.776817184187347, "alpha": 55.748344966681586, "beta": 55.74833657418829, "gamma": 55.748346342217296, "volume": 198.36974739819655}, "properties": {}, "sites": [{"species": [{"element": "Nd", "occu": 1}], "abc": [0.62114818, 0.37885182, 0.0], "properties": {"magmom": -0.0}, "label": "Nd", "xyz": [5.99054291, -0.7676856496572013, -0.0066840740058928]}, {"species": [{"element": "Nd", "occu": 1}], "abc": [-0.0, 0.62114818, 0.37885182], "properties": {"magmom": -0.0}, "label": "Nd", "xyz": [5.357895493952233, 1.9680301522515644, 1.973779380119378]}, {"species": [{"element": "Nd", "occu": 1}], "abc": [0.37885182, -0.0, 0.62114818], "properties": {"magmom": -0.0}, "label": "Nd", "xyz": [4.953283036047768, -1.200344522594363, 3.2403943638865154]}, {"species": [{"element": "Nd", "occu": 1}], "abc": [0.15502896, 0.15502896, 0.15502896], "properties": {"magmom": 0.0}, "label": "Nd", "xyz": [2.527238921052902, -3.1005792e-09, 0.8073117077508432]}, {"species": [{"element": "Nd", "occu": 1}], "abc": [0.84497104, 0.84497104, 0.84497104], "properties": {"magmom": 0.0}, "label": "Nd", "xyz": [13.774482518947098, -1.68994208e-08, 4.400177962249157]}, {"species": [{"element": "Mg", "occu": 1}], "abc": [0.5, 0.5, 0.5], "properties": {"magmom": 0.0}, "label": "Mg", "xyz": [8.15086072, -1e-08, 2.603744835]}]}, "task_ids": null, "uncorrected_energy_per_atom": null, "energy_per_atom": -4.232325911666668, "formation_energy_per_atom": 0.012875284583332001, "energy_above_hull": 0.04413744166666601, "is_stable": false, "equilibrium_reaction_energy_per_atom": null, "decomposes_to": null, "xas": null, "grain_boundaries": null, "band_gap": 0.0, "cbm": null, "vbm": null, "efermi": 3.24888852, "is_gap_direct": null, "is_metal": null, "es_source_calc_id": null, "bandstructure": null, "dos": null, "dos_energy_up": null, "dos_energy_down": null, "is_magnetic": null, "ordering": null, "total_magnetization": 0.0, "total_magnetization_normalized_vol": null, "total_magnetization_normalized_formula_units": null, "num_magnetic_sites": null, "num_unique_magnetic_sites": null, "types_of_magnetic_species": null, "bulk_modulus": null, "shear_modulus": null, "universal_anisotropy": null, "homogeneous_poisson": null, "e_total": null, "e_ionic": null, "e_electronic": null, "n": null, "e_ij_max": null, "weighted_surface_energy_EV_PER_ANG2": null, "weighted_surface_energy": null, "weighted_work_function": null, "surface_anisotropy": null, "shape_factor": null, "has_reconstructed": null, "possible_species": null, "has_props": null, "theoretical": null, "database_IDs": null, "fields_not_requested": ["builder_meta", "nsites", "elements", "nelements", "composition", "composition_reduced", "chemsys", "symmetry", "property_name", "deprecated", "deprecation_reasons", "last_updated", "origins", "warnings", "task_ids", "uncorrected_energy_per_atom", "equilibrium_reaction_energy_per_atom", "decomposes_to", "xas", "grain_boundaries", "cbm", "vbm", "is_gap_direct", "is_metal", "es_source_calc_id", "bandstructure", "dos", "dos_energy_up", "dos_energy_down", "is_magnetic", "ordering", "total_magnetization_normalized_vol", "total_magnetization_normalized_formula_units", "num_magnetic_sites", "num_unique_magnetic_sites", "types_of_magnetic_species", "bulk_modulus", "shear_modulus", "universal_anisotropy", "homogeneous_poisson", "e_total", "e_ionic", "e_electronic", "n", "e_ij_max", "weighted_surface_energy_EV_PER_ANG2", "weighted_surface_energy", "weighted_work_function", "surface_anisotropy", "shape_factor", "has_reconstructed", "possible_species", "has_props", "theoretical", "database_IDs"]}