{"builder_meta": null, "nsites": null, "elements": null, "nelements": null, "composition": null, "composition_reduced": null, "formula_pretty": "Nd5Pb4", "formula_anonymous": "A4B5", "chemsys": null, "volume": 1164.6824309556887, "density": 8.839670249026327, "density_atomic": 32.35228974876913, "symmetry": null, "property_name": null, "material_id": "mp-1204902", "deprecated": null, "deprecation_reasons": null, "last_updated": null, "origins": null, "warnings": null, "structure": {"@module": "pymatgen.core.structure", "@class": "Structure", "charge": 0, "lattice": {"matrix": [[-8.45988879, 0.00048428, 2.094e-05], [2.042e-05, 2.155e-05, -8.54481689], [0.0009137700000000001, -16.11165342, 3.3390000000000004e-05]], "pbc": [true, true, true], "a": 8.45988880388704, "b": 8.544816890051575, "c": 16.11165344594676, "alpha": 90.00026323251919, "beta": 90.00652937521673, "gamma": 90.00027873355408, "volume": 1164.6824309556887}, "properties": {}, "sites": [{"species": [{"element": "Nd", "occu": 1}], "abc": [0.3841735, 0.8419261100000001, 0.88290053], "properties": {"magmom": 0.029}, "label": "Nd", "xyz": [-3.249241125916601, -14.224783152644061, -7.194066920218211]}, {"species": [{"element": "Nd", "occu": 1}], "abc": [0.884100999999999, 0.6580461200000001, 0.61711903], "properties": {"magmom": 0.029}, "label": "Nd", "xyz": [-7.478818796969969, -9.942365596920416, -5.622844481895616]}, {"species": [{"element": "Nd", "occu": 1}], "abc": [0.6158945100000001, 0.15805027, 0.38282276], "properties": {"magmom": -0.029}, "label": "Nd", "xyz": [-5.210046021631626, -6.167605959031217, -1.3504849372820644]}, {"species": [{"element": "Nd", "occu": 1}], "abc": [0.11582054, 0.34191774, 0.11716058], "properties": {"magmom": -0.029}, "label": "Nd", "xyz": [-0.9797148482143092, -1.8875872015477753, -2.921618142468755]}, {"species": [{"element": "Nd", "occu": 1}], "abc": [0.61582046, 0.15808169, 0.11716062000000001], "properties": {"magmom": -0.029}, "label": "Nd", "xyz": [-5.209662320318797, -1.887349667719532, -1.3507622874382097]}, {"species": [{"element": "Nd", "occu": 1}], "abc": [0.11589183, 0.34194546000000003, 0.38282383000000003], "properties": {"magmom": -0.029}, "label": "Nd", "xyz": [-0.9800751980121535, -6.167861376856903, -2.9218461328042156]}, {"species": [{"element": "Nd", "occu": 1}], "abc": [0.38409948, 0.84195664, 0.61711796], "properties": {"magmom": 0.029}, "label": "Nd", "xyz": [-3.2488577884639316, -9.942586534915657, -7.194336669507854]}, {"species": [{"element": "Nd", "occu": 1}], "abc": [0.8841798200000001, 0.6580785, 0.88289912], "properties": {"magmom": 0.029}, "label": "Nd", "xyz": [-7.479242742870367, -14.224522254068086, -5.6231122870188175]}, {"species": [{"element": "Nd", "occu": 1}], "abc": [0.53829187, 0.32485705, 0.89711403], "properties": {"magmom": 0.02}, "label": "Nd", "xyz": [-4.553062967292984, -14.453722644923252, -2.775802781206355]}, {"species": [{"element": "Nd", "occu": 1}], "abc": [0.03820798, 0.17518147, 0.60286935], "properties": {"magmom": 0.02}, "label": "Nd", "xyz": [-0.32268080055897735, -9.713199746219445, -1.4968726537883306]}, {"species": [{"element": "Nd", "occu": 1}], "abc": [0.46179916, 0.67519956, 0.39708338], "properties": {"magmom": -0.02}, "label": "Nd", "xyz": [-3.906392906460259, -6.397431606754436, -5.7694336757201]}, {"species": [{"element": "Nd", "occu": 1}], "abc": [0.96171984, 0.82483448, 0.10294333], "properties": {"magmom": -0.02}, "label": "Nd", "xyz": [-8.13593198388986, -1.6581037379935293, -7.048036020467129]}, {"species": [{"element": "Nd", "occu": 1}], "abc": [0.46172092000000003, 0.67516271, 0.10294292000000001], "properties": {"magmom": -0.02}, "label": "Nd", "xyz": [-3.9059997822419406, -1.6583424971192484, -5.769128622206008]}, {"species": [{"element": "Nd", "occu": 1}], "abc": [0.961799699999999, 0.82479863, 0.39708343], "properties": {"magmom": -0.02}, "label": "Nd", "xyz": [-8.1363388149415, -6.397187048215638, -7.047719865771414]}, {"species": [{"element": "Nd", "occu": 1}], "abc": [0.53820647, 0.32482183000000003, 0.60287036], "properties": {"magmom": 0.02}, "label": "Nd", "xyz": [-4.5526093645478465, -9.712970654970905, -2.7755116593399065]}, {"species": [{"element": "Nd", "occu": 1}], "abc": [0.03828991, 0.17514831, 0.8971153], "properties": {"magmom": 0.02}, "label": "Nd", "xyz": [-0.3231050468029378, -14.45398847389563, -1.4965794810723736]}, {"species": [{"element": "Nd", "occu": 1}], "abc": [0.21671806000000002, 0.50298613, 0.74998165], "properties": {"magmom": 0.079}, "label": "Nd", "xyz": [-1.8327151046754524, -12.083328624586544, -4.297894799096266]}, {"species": [{"element": "Nd", "occu": 1}], "abc": [0.71672229, 0.99701509, 0.74998151], "properties": {"magmom": 0.079}, "label": "Nd", "xyz": [-6.062685197061599, -12.083073580582473, -8.519271330569499]}, {"species": [{"element": "Nd", "occu": 1}], "abc": [0.78328341, 0.4970323, 0.25002207], "properties": {"magmom": -0.079}, "label": "Nd", "xyz": [-6.626251927585505, -4.02787889965512, -4.247025241724025]}, {"species": [{"element": "Nd", "occu": 1}], "abc": [0.28328013, 0.00296558, 0.25002117], "properties": {"magmom": -0.079}, "label": "Nd", "xyz": [-2.396289873815088, -4.0281171878932955, -0.0253260579798577]}, {"species": [{"element": "Pb", "occu": 1}], "abc": [0.27379012, 0.02939885, 0.04418779], "properties": {"magmom": 0.003}, "label": "Pb", "xyz": [-2.31619298919937, -0.7118051332512106, -0.2512005814311556]}, {"species": [{"element": "Pb", "occu": 1}], "abc": [0.77385946, 0.47052475, 0.45582639], "properties": {"magmom": 0.003}, "label": "Pb", "xyz": [-6.54633884209367, -7.343731910902103, -4.020516406302773]}, {"species": [{"element": "Pb", "occu": 1}], "abc": [0.72613039, 0.9704782, 0.54409647], "properties": {"magmom": -0.003}, "label": "Pb", "xyz": [-6.142465350243093, -8.765921187454948, -8.292525142185296]}, {"species": [{"element": "Pb", "occu": 1}], "abc": [0.22620504, 0.52943459, 0.95587542], "properties": {"magmom": -0.003}, "label": "Pb", "xyz": [-1.9127852208006406, -15.400612523844751, -4.523884973368414]}, {"species": [{"element": "Pb", "occu": 1}], "abc": [0.72620755, 0.97056542, 0.9558765300000001], "properties": {"magmom": -0.003}, "label": "Pb", "xyz": [-6.142741841215671, -15.400378760195117, -8.29325667016251]}, {"species": [{"element": "Pb", "occu": 1}], "abc": [0.22612775000000002, 0.52952154, 0.5440970900000001], "properties": {"magmom": -0.003}, "label": "Pb", "xyz": [-1.9125076249051467, -8.76618282057459, -4.52464169609389]}, {"species": [{"element": "Pb", "occu": 1}], "abc": [0.27386766, 0.02947208, 0.45582068000000003], "properties": {"magmom": 0.003}, "label": "Pb", "xyz": [-2.3164728296948947, -7.343891554075017, -0.25181257232612564]}, {"species": [{"element": "Pb", "occu": 1}], "abc": [0.77380922, 0.47059653, 0.04418096], "properties": {"magmom": 0.003}, "label": "Pb", "xyz": [-6.546289965059683, -0.7114434335986001, -4.02114349915207]}, {"species": [{"element": "Pb", "occu": 1}], "abc": [0.5821609, 0.62403414, 0.75001344], "properties": {"magmom": 0.014}, "label": "Pb", "xyz": [-4.924318389328104, -12.083661228805596, -5.332220226010617]}, {"species": [{"element": "Pb", "occu": 1}], "abc": [0.0821599, 0.87596744, 0.75001315], "properties": {"magmom": 0.014}, "label": "Pb", "xyz": [-0.6943603902263208, -12.083893267747769, -7.484954613034677]}, {"species": [{"element": "Pb", "occu": 1}], "abc": [0.41779975, 0.37603944, 0.24998418], "properties": {"magmom": -0.014}, "label": "Pb", "xyz": [-3.5343033147202796, -4.0274480329300335, -3.2131710625196064]}, {"species": [{"element": "Pb", "occu": 1}], "abc": [0.91780282, 0.12395279000000001, 0.24998295], "properties": {"magmom": -0.014}, "label": "Pb", "xyz": [-7.764278830312195, -4.027191506576895, -1.059126327832872]}, {"species": [{"element": "Pb", "occu": 1}], "abc": [0.34648341, 0.1445328, 0.7499939], "properties": {"magmom": 0.005}, "label": "Pb", "xyz": [-2.930522842894195, -12.083470874246503, -1.2349740129400655]}, {"species": [{"element": "Pb", "occu": 1}], "abc": [0.84648466, 0.35546972, 0.74999309], "properties": {"magmom": 0.005}, "label": "Pb", "xyz": [-7.160473506163431, -12.083211137511256, -3.0373808996815153]}, {"species": [{"element": "Pb", "occu": 1}], "abc": [0.65354627, 0.85545389, 0.25001343], "properties": {"magmom": -0.005}, "label": "Pb", "xyz": [-5.528682840178949, -4.027794800086466, -7.30967481468088]}, {"species": [{"element": "Pb", "occu": 1}], "abc": [0.15354624, 0.6445471500000001, 0.2500136], "properties": {"magmom": -0.005}, "label": "Pb", "xyz": [-1.2987424979425748, -4.028044224122322, -5.507525810508994]}]}, "task_ids": null, "uncorrected_energy_per_atom": null, "energy_per_atom": -42.14000879638889, "formation_energy_per_atom": -0.7810553127777731, "energy_above_hull": 0.0, "is_stable": true, "equilibrium_reaction_energy_per_atom": null, "decomposes_to": null, "xas": null, "grain_boundaries": null, "band_gap": 0.0, "cbm": null, "vbm": null, "efermi": 4.87704016, "is_gap_direct": null, "is_metal": null, "es_source_calc_id": null, "bandstructure": null, "dos": null, "dos_energy_up": null, "dos_energy_down": null, "is_magnetic": null, "ordering": null, "total_magnetization": 0.0010419, "total_magnetization_normalized_vol": null, "total_magnetization_normalized_formula_units": null, "num_magnetic_sites": null, "num_unique_magnetic_sites": null, "types_of_magnetic_species": null, "bulk_modulus": null, "shear_modulus": null, "universal_anisotropy": null, "homogeneous_poisson": null, "e_total": null, "e_ionic": null, "e_electronic": null, "n": null, "e_ij_max": null, "weighted_surface_energy_EV_PER_ANG2": null, "weighted_surface_energy": null, "weighted_work_function": null, "surface_anisotropy": null, "shape_factor": null, "has_reconstructed": null, "possible_species": null, "has_props": null, "theoretical": null, "database_IDs": null, "fields_not_requested": ["builder_meta", "nsites", "elements", "nelements", "composition", "composition_reduced", "chemsys", "symmetry", "property_name", "deprecated", "deprecation_reasons", "last_updated", "origins", "warnings", "task_ids", "uncorrected_energy_per_atom", "equilibrium_reaction_energy_per_atom", "decomposes_to", "xas", "grain_boundaries", "cbm", "vbm", "is_gap_direct", "is_metal", "es_source_calc_id", "bandstructure", "dos", "dos_energy_up", "dos_energy_down", "is_magnetic", "ordering", "total_magnetization_normalized_vol", "total_magnetization_normalized_formula_units", "num_magnetic_sites", "num_unique_magnetic_sites", "types_of_magnetic_species", "bulk_modulus", "shear_modulus", "universal_anisotropy", "homogeneous_poisson", "e_total", "e_ionic", "e_electronic", "n", "e_ij_max", "weighted_surface_energy_EV_PER_ANG2", "weighted_surface_energy", "weighted_work_function", "surface_anisotropy", "shape_factor", "has_reconstructed", "possible_species", "has_props", "theoretical", "database_IDs"]}