{
  "builder_meta": null,
  "nsites": null,
  "elements": null,
  "nelements": null,
  "composition": null,
  "composition_reduced": null,
  "formula_pretty": "Nd5Pb3",
  "formula_anonymous": "A3B5",
  "chemsys": null,
  "volume": 526.1986231670923,
  "density": 8.47508285217647,
  "density_atomic": 32.887413947943266,
  "symmetry": null,
  "property_name": null,
  "material_id": "mp-1106152",
  "deprecated": null,
  "deprecation_reasons": null,
  "last_updated": null,
  "origins": null,
  "warnings": null,
  "structure": {
    "@module": "pymatgen.core.structure",
    "@class": "Structure",
    "charge": 0,
    "lattice": {
      "matrix": [
        [0.0, -0.0, -6.92763083],
        [-4.68254381, -8.11043145, -0.0],
        [-4.6826923, 8.11051669, 0.0]
      ],
      "pbc": [true, true, true],
      "a": 6.92763083,
      "b": 9.365111576362473,
      "c": 9.365259641635562,
      "alpha": 119.99964324359821,
      "beta": 90.0,
      "gamma": 90.0,
      "volume": 526.1986231670923
    },
    "properties": {},
    "sites": [
      {
        "species": [{ "element": "Nd", "occu": 1 }],
        "abc": [0.49989121000000003, 0.3333544, 0.66660565],
        "properties": { "magmom": -0.0 },
        "label": "Nd",
        "xyz": [-4.68245572664776, 2.70286824021742, -3.4630617580420044]
      },
      {
        "species": [{ "element": "Nd", "occu": 1 }],
        "abc": [0.49989121000000003, 0.66674875, 0.33339435],
        "properties": { "magmom": -0.0 },
        "label": "Nd",
        "xyz": [-4.683263387746243, -2.7036195912214858, -3.4630617580420044]
      },
      {
        "species": [{ "element": "Nd", "occu": 1 }],
        "abc": [0.99989121, 0.6666456, 0.33339435],
        "properties": { "magmom": -0.0 },
        "label": "Nd",
        "xyz": [-4.682780383352241, -2.7027830002174174, -6.926877173042005]
      },
      {
        "species": [{ "element": "Nd", "occu": 1 }],
        "abc": [0.99989121, 0.33325125, 0.66660565],
        "properties": { "magmom": -0.0 },
        "label": "Nd",
        "xyz": [-4.681972722253758, 2.7037048312214873, -6.926877173042005]
      },
      {
        "species": [{ "element": "Nd", "occu": 1 }],
        "abc": [0.750358699999999, 0.24017187, 0.0],
        "properties": { "magmom": -0.0 },
        "label": "Nd",
        "xyz": [-1.1246153032046249, -1.9478974878533115, -5.198208063678714]
      },
      {
        "species": [{ "element": "Nd", "occu": 1 }],
        "abc": [0.7503544, 0.75990158, 0.75993309],
        "properties": { "magmom": -0.0 },
        "label": "Nd",
        "xyz": [-7.116805268696426, 0.0003203363915815771, -5.198178274866152]
      },
      {
        "species": [{ "element": "Nd", "occu": 1 }],
        "abc": [0.7503544, 0.99996849, 0.24006691],
        "properties": { "magmom": -0.0 },
        "label": "Nd",
        "xyz": [-5.80655573398634, -6.163109210033282, -5.198178274866152]
      },
      {
        "species": [{ "element": "Nd", "occu": 1 }],
        "abc": [0.2503587, 0.75982813, -0.0],
        "properties": { "magmom": -0.0 },
        "label": "Nd",
        "xyz": [-3.557928506795376, -6.162533962146689, -1.734392648678721]
      },
      {
        "species": [{ "element": "Nd", "occu": 1 }],
        "abc": [0.2503544, 0.24009842, 0.24006691],
        "properties": { "magmom": -0.0 },
        "label": "Nd",
        "xyz": [
          -2.2484308413035734, -0.0002350963915811466, -1.7343628598661518
        ]
      },
      {
        "species": [{ "element": "Nd", "occu": 1 }],
        "abc": [0.2503544, 3.151e-5, 0.75993309],
        "properties": { "magmom": -0.0 },
        "label": "Nd",
        "xyz": [-3.55868037601366, 6.163194450033283, -1.7343628598661518]
      },
      {
        "species": [{ "element": "Pb", "occu": 1 }],
        "abc": [0.74979295, 0.60675382, -0.0],
        "properties": { "magmom": 0.0 },
        "label": "Pb",
        "xyz": [-2.8411513440348544, -4.921035264135639, -5.194288756536649]
      },
      {
        "species": [{ "element": "Pb", "occu": 1 }],
        "abc": [0.74967756, 0.39317327, 0.39316363],
        "properties": { "magmom": 0.0 },
        "label": "Pb",
        "xyz": [-3.682115364537008, -4.467129135665715e-5, -5.193489377215174]
      },
      {
        "species": [{ "element": "Pb", "occu": 1 }],
        "abc": [0.74967756, 8.64e-6, 0.60683637],
        "properties": { "magmom": 0.0 },
        "label": "Pb",
        "xyz": [-2.8416684543374697, 4.921686432856288, -5.193489377215174]
      },
      {
        "species": [{ "element": "Pb", "occu": 1 }],
        "abc": [0.24979295, 0.39324618, 0.0],
        "properties": { "magmom": 0.0 },
        "label": "Pb",
        "xyz": [-1.841392465965146, -3.189396185864361, -1.7304733415366487]
      },
      {
        "species": [{ "element": "Pb", "occu": 1 }],
        "abc": [0.24967756, 0.60682673, 0.60683637],
        "properties": { "magmom": 0.0 },
        "label": "Pb",
        "xyz": [-5.683120745462993, 0.00012991129135730972, -1.7296739622151747]
      },
      {
        "species": [{ "element": "Pb", "occu": 1 }],
        "abc": [0.24967756, 0.99999136, 0.39316363],
        "properties": { "magmom": 0.0 },
        "label": "Pb",
        "xyz": [-6.52356765566253, -4.921601192856286, -1.7296739622151747]
      }
    ]
  },
  "task_ids": null,
  "uncorrected_energy_per_atom": null,
  "energy_per_atom": -40.214880589375,
  "formation_energy_per_atom": -0.7216996840625001,
  "energy_above_hull": 0.0,
  "is_stable": true,
  "equilibrium_reaction_energy_per_atom": null,
  "decomposes_to": null,
  "xas": null,
  "grain_boundaries": null,
  "band_gap": 0.0,
  "cbm": null,
  "vbm": null,
  "efermi": 4.57972961,
  "is_gap_direct": null,
  "is_metal": null,
  "es_source_calc_id": null,
  "bandstructure": null,
  "dos": null,
  "dos_energy_up": null,
  "dos_energy_down": null,
  "is_magnetic": null,
  "ordering": null,
  "total_magnetization": 0.0081384,
  "total_magnetization_normalized_vol": null,
  "total_magnetization_normalized_formula_units": null,
  "num_magnetic_sites": null,
  "num_unique_magnetic_sites": null,
  "types_of_magnetic_species": null,
  "bulk_modulus": null,
  "shear_modulus": null,
  "universal_anisotropy": null,
  "homogeneous_poisson": null,
  "e_total": null,
  "e_ionic": null,
  "e_electronic": null,
  "n": null,
  "e_ij_max": null,
  "weighted_surface_energy_EV_PER_ANG2": null,
  "weighted_surface_energy": null,
  "weighted_work_function": null,
  "surface_anisotropy": null,
  "shape_factor": null,
  "has_reconstructed": null,
  "possible_species": null,
  "has_props": null,
  "theoretical": null,
  "database_IDs": null,
  "fields_not_requested": [
    "builder_meta",
    "nsites",
    "elements",
    "nelements",
    "composition",
    "composition_reduced",
    "chemsys",
    "symmetry",
    "property_name",
    "deprecated",
    "deprecation_reasons",
    "last_updated",
    "origins",
    "warnings",
    "task_ids",
    "uncorrected_energy_per_atom",
    "equilibrium_reaction_energy_per_atom",
    "decomposes_to",
    "xas",
    "grain_boundaries",
    "cbm",
    "vbm",
    "is_gap_direct",
    "is_metal",
    "es_source_calc_id",
    "bandstructure",
    "dos",
    "dos_energy_up",
    "dos_energy_down",
    "is_magnetic",
    "ordering",
    "total_magnetization_normalized_vol",
    "total_magnetization_normalized_formula_units",
    "num_magnetic_sites",
    "num_unique_magnetic_sites",
    "types_of_magnetic_species",
    "bulk_modulus",
    "shear_modulus",
    "universal_anisotropy",
    "homogeneous_poisson",
    "e_total",
    "e_ionic",
    "e_electronic",
    "n",
    "e_ij_max",
    "weighted_surface_energy_EV_PER_ANG2",
    "weighted_surface_energy",
    "weighted_work_function",
    "surface_anisotropy",
    "shape_factor",
    "has_reconstructed",
    "possible_species",
    "has_props",
    "theoretical",
    "database_IDs"
  ]
}
