{"builder_meta": null, "nsites": null, "elements": null, "nelements": null, "composition": null, "composition_reduced": null, "formula_pretty": "Nd5Ru2", "formula_anonymous": "A2B5", "chemsys": null, "volume": 397.2730516865026, "density": 7.7189164512222685, "density_atomic": 28.3766465490359, "symmetry": null, "property_name": null, "material_id": "mp-1103979", "deprecated": null, "deprecation_reasons": null, "last_updated": null, "origins": null, "warnings": null, "structure": {"@module": "pymatgen.core.structure", "@class": "Structure", "charge": 0, "lattice": {"matrix": [[-0.0, 6.61774499, -0.0], [0.011833399999999002, -0.0, 7.32925358], [8.18916586, -3.30887249, -0.93047501]], "pbc": [true, true, true], "a": 6.61774499, "b": 7.329263132764328, "c": 8.881264458504928, "alpha": 95.92804696141799, "beta": 111.87406291698674, "gamma": 90.0, "volume": 397.2730516865026}, "properties": {}, "sites": [{"species": [{"element": "Nd", "occu": 1}], "abc": [0.98223406, 0.90913094, 0.18561978], "properties": {"magmom": -0.0}, "label": "Nd", "xyz": [1.5308292753821058, 5.885982345930508, 6.490536630032067]}, {"species": [{"element": "Nd", "occu": 1}], "abc": [0.79661328, 0.5908690600000001, 0.81438022], "properties": {"magmom": -0.0}, "label": "Nd", "xyz": [6.676086684617892, 2.57710323632932, 3.572868729967933]}, {"species": [{"element": "Nd", "occu": 1}], "abc": [0.01776594, 0.09086906, 0.81438022], "properties": {"magmom": -0.0}, "label": "Nd", "xyz": [6.670169984617892, -2.577109845930507, -0.09175806003206743]}, {"species": [{"element": "Nd", "occu": 1}], "abc": [0.20338672, 0.40913094, 0.18561978], "properties": {"magmom": -0.0}, "label": "Nd", "xyz": [1.5249125753821062, 0.7317692636706805, 2.8259098400320672]}, {"species": [{"element": "Nd", "occu": 1}], "abc": [0.64216582, 0.81412796, 0.431323499999999], "properties": {"magmom": 0.0}, "label": "Nd", "xyz": [3.541813582617565, 2.8224951746137306, 5.565614527432362]}, {"species": [{"element": "Nd", "occu": 1}], "abc": [0.21084232, 0.68587204, 0.5686765], "properties": {"magmom": 0.0}, "label": "Nd", "xyz": [4.665102377382425, -0.4863773196995085, 4.497790832567638]}, {"species": [{"element": "Nd", "occu": 1}], "abc": [0.35783418, 0.18587204000000002, 0.5686765], "properties": {"magmom": 0.0}, "label": "Nd", "xyz": [4.659185677382426, 0.4863773253862731, 0.8331640425676382]}, {"species": [{"element": "Nd", "occu": 1}], "abc": [0.78915768, 0.31412796, 0.431323499999999], "properties": {"magmom": 0.0}, "label": "Nd", "xyz": [3.5358968826175654, 3.795249819699511, 1.9009877374323623]}, {"species": [{"element": "Nd", "occu": 1}], "abc": [0.42523373000000003, 0.75, -0.0], "properties": {"magmom": 0.0}, "label": "Nd", "xyz": [0.008875049999999251, 2.814088386286513, 5.496940185]}, {"species": [{"element": "Nd", "occu": 1}], "abc": [0.57476627, 0.25, -0.0], "properties": {"magmom": 0.0}, "label": "Nd", "xyz": [0.0029583499999997504, 3.803656603713488, 1.832313395]}, {"species": [{"element": "Ru", "occu": 1}], "abc": [0.82800595, 0.57264022, 0.22182223], "properties": {"magmom": -0.0}, "label": "Ru", "xyz": [1.8233153136844151, 4.745550752785237, 3.9906253408095154]}, {"species": [{"element": "Ru", "occu": 1}], "abc": [0.60618472, 0.92735978, 0.77817777], "properties": {"magmom": -0.0}, "label": "Ru", "xyz": [6.383600646315583, 1.4366848783120054, 6.072780019190484]}, {"species": [{"element": "Ru", "occu": 1}], "abc": [0.17199405, 0.42735978, 0.77817777], "properties": {"magmom": -0.0}, "label": "Ru", "xyz": [6.377683946315583, -1.4366782527852378, 2.4081532291904844]}, {"species": [{"element": "Ru", "occu": 1}], "abc": [0.39381528, 0.07264022, 0.22182223], "properties": {"magmom": -0.0}, "label": "Ru", "xyz": [1.8173986136844156, 1.8721876216879942, 0.32599855080951534]}]}, "task_ids": null, "uncorrected_energy_per_atom": null, "energy_per_atom": -28.514005897857142, "formation_energy_per_atom": -0.236989397499996, "energy_above_hull": 0.0, "is_stable": true, "equilibrium_reaction_energy_per_atom": null, "decomposes_to": null, "xas": null, "grain_boundaries": null, "band_gap": 0.0, "cbm": null, "vbm": null, "efermi": 4.0919903, "is_gap_direct": null, "is_metal": null, "es_source_calc_id": null, "bandstructure": null, "dos": null, "dos_energy_up": null, "dos_energy_down": null, "is_magnetic": null, "ordering": null, "total_magnetization": 0.0, "total_magnetization_normalized_vol": null, "total_magnetization_normalized_formula_units": null, "num_magnetic_sites": null, "num_unique_magnetic_sites": null, "types_of_magnetic_species": null, "bulk_modulus": null, "shear_modulus": null, "universal_anisotropy": null, "homogeneous_poisson": null, "e_total": null, "e_ionic": null, "e_electronic": null, "n": null, "e_ij_max": null, "weighted_surface_energy_EV_PER_ANG2": null, "weighted_surface_energy": null, "weighted_work_function": null, "surface_anisotropy": null, "shape_factor": null, "has_reconstructed": null, "possible_species": null, "has_props": null, "theoretical": null, "database_IDs": null, "fields_not_requested": ["builder_meta", "nsites", "elements", "nelements", "composition", "composition_reduced", "chemsys", "symmetry", "property_name", "deprecated", "deprecation_reasons", "last_updated", "origins", "warnings", "task_ids", "uncorrected_energy_per_atom", "equilibrium_reaction_energy_per_atom", "decomposes_to", "xas", "grain_boundaries", "cbm", "vbm", "is_gap_direct", "is_metal", "es_source_calc_id", "bandstructure", "dos", "dos_energy_up", "dos_energy_down", "is_magnetic", "ordering", "total_magnetization_normalized_vol", "total_magnetization_normalized_formula_units", "num_magnetic_sites", "num_unique_magnetic_sites", "types_of_magnetic_species", "bulk_modulus", "shear_modulus", "universal_anisotropy", "homogeneous_poisson", "e_total", "e_ionic", "e_electronic", "n", "e_ij_max", "weighted_surface_energy_EV_PER_ANG2", "weighted_surface_energy", "weighted_work_function", "surface_anisotropy", "shape_factor", "has_reconstructed", "possible_species", "has_props", "theoretical", "database_IDs"]}