{"builder_meta": null, "nsites": null, "elements": null, "nelements": null, "composition": null, "composition_reduced": null, "formula_pretty": "Nd5S8", "formula_anonymous": "A5B8", "chemsys": null, "volume": 413.67177623176127, "density": 3.92475134846331, "density_atomic": 31.820905863981636, "symmetry": null, "property_name": null, "material_id": "mp-1220218", "deprecated": null, "deprecation_reasons": null, "last_updated": null, "origins": null, "warnings": null, "structure": {"@module": "pymatgen.core.structure", "@class": "Structure", "charge": 0, "lattice": {"matrix": [[0.0, 5.913918, 5.913918], [5.913918, 0.0, 5.913918], [5.913918, 5.913918, 0.0]], "pbc": [true, true, true], "a": 8.36354304236237, "b": 8.36354304236237, "c": 8.36354304236237, "alpha": 60.00000000000001, "beta": 60.00000000000001, "gamma": 60.00000000000001, "volume": 413.67177623176127}, "properties": {}, "sites": [{"species": [{"element": "Nd", "occu": 1}], "abc": [0.11322499999999901, 0.628925, 0.628925], "properties": {"magmom": -0.001}, "label": "Nd", "xyz": [7.438821756299999, 4.389014243699994, 4.389014243699994]}, {"species": [{"element": "Nd", "occu": 1}], "abc": [0.628925, 0.11322499999999901, 0.628925], "properties": {"magmom": -0.001}, "label": "Nd", "xyz": [4.389014243699994, 7.438821756299999, 4.389014243699994]}, {"species": [{"element": "Nd", "occu": 1}], "abc": [0.628925, 0.628925, 0.11322499999999901], "properties": {"magmom": -0.0}, "label": "Nd", "xyz": [4.389014243699994, 4.389014243699994, 7.438821756299999]}, {"species": [{"element": "Nd", "occu": 1}], "abc": [0.628925, 0.628925, 0.628925], "properties": {"magmom": 0.0}, "label": "Nd", "xyz": [7.438821756299999, 7.438821756299999, 7.438821756299999]}, {"species": [{"element": "Nd", "occu": 1}], "abc": [0.25, 0.25, 0.25], "properties": {"magmom": 0.01}, "label": "Nd", "xyz": [2.956959, 2.956959, 2.956959]}, {"species": [{"element": "S", "occu": 1}], "abc": [0.85, 0.383333, 0.383333], "properties": {"magmom": 0.031}, "label": "S", "xyz": [4.533999857387999, 7.293830228693999, 7.293830228693999]}, {"species": [{"element": "S", "occu": 1}], "abc": [0.383333, 0.85, 0.383333], "properties": {"magmom": 0.034}, "label": "S", "xyz": [7.293830228693999, 4.533999857387999, 7.293830228693999]}, {"species": [{"element": "S", "occu": 1}], "abc": [0.383333, 0.383333, 0.85], "properties": {"magmom": 0.027}, "label": "S", "xyz": [7.293830228693999, 7.293830228693999, 4.533999857387999]}, {"species": [{"element": "S", "occu": 1}], "abc": [0.383333, 0.383333, 0.383333], "properties": {"magmom": 0.025}, "label": "S", "xyz": [4.533999857387999, 4.533999857387999, 4.533999857387999]}, {"species": [{"element": "S", "occu": 1}], "abc": [0.408447, 0.863850999999999, 0.863850999999999], "properties": {"magmom": 0.077}, "label": "S", "xyz": [10.217487956435988, 7.524266043563994, 7.524266043563994]}, {"species": [{"element": "S", "occu": 1}], "abc": [0.863850999999999, 0.408447, 0.863850999999999], "properties": {"magmom": 0.121}, "label": "S", "xyz": [7.524266043563994, 10.217487956435988, 7.524266043563994]}, {"species": [{"element": "S", "occu": 1}], "abc": [0.863850999999999, 0.863850999999999, 0.408447], "properties": {"magmom": 0.156}, "label": "S", "xyz": [7.524266043563994, 7.524266043563994, 10.217487956435988]}, {"species": [{"element": "S", "occu": 1}], "abc": [0.863850999999999, 0.863850999999999, 0.863850999999999], "properties": {"magmom": 0.136}, "label": "S", "xyz": [10.217487956435988, 10.217487956435988, 10.217487956435988]}]}, "task_ids": null, "uncorrected_energy_per_atom": null, "energy_per_atom": -18.329842259158653, "formation_energy_per_atom": -2.070608599927882, "energy_above_hull": 0.22374103117788302, "is_stable": false, "equilibrium_reaction_energy_per_atom": null, "decomposes_to": null, "xas": null, "grain_boundaries": null, "band_gap": 0.0, "cbm": null, "vbm": null, "efermi": 0.88014166, "is_gap_direct": null, "is_metal": null, "es_source_calc_id": null, "bandstructure": null, "dos": null, "dos_energy_up": null, "dos_energy_down": null, "is_magnetic": null, "ordering": null, "total_magnetization": 1.0011562, "total_magnetization_normalized_vol": null, "total_magnetization_normalized_formula_units": null, "num_magnetic_sites": null, "num_unique_magnetic_sites": null, "types_of_magnetic_species": null, "bulk_modulus": null, "shear_modulus": null, "universal_anisotropy": null, "homogeneous_poisson": null, "e_total": null, "e_ionic": null, "e_electronic": null, "n": null, "e_ij_max": null, "weighted_surface_energy_EV_PER_ANG2": null, "weighted_surface_energy": null, "weighted_work_function": null, "surface_anisotropy": null, "shape_factor": null, "has_reconstructed": null, "possible_species": null, "has_props": null, "theoretical": null, "database_IDs": null, "fields_not_requested": ["builder_meta", "nsites", "elements", "nelements", "composition", "composition_reduced", "chemsys", "symmetry", "property_name", "deprecated", "deprecation_reasons", "last_updated", "origins", "warnings", "task_ids", "uncorrected_energy_per_atom", "equilibrium_reaction_energy_per_atom", "decomposes_to", "xas", "grain_boundaries", "cbm", "vbm", "is_gap_direct", "is_metal", "es_source_calc_id", "bandstructure", "dos", "dos_energy_up", "dos_energy_down", "is_magnetic", "ordering", "total_magnetization_normalized_vol", "total_magnetization_normalized_formula_units", "num_magnetic_sites", "num_unique_magnetic_sites", "types_of_magnetic_species", "bulk_modulus", "shear_modulus", "universal_anisotropy", "homogeneous_poisson", "e_total", "e_ionic", "e_electronic", "n", "e_ij_max", "weighted_surface_energy_EV_PER_ANG2", "weighted_surface_energy", "weighted_work_function", "surface_anisotropy", "shape_factor", "has_reconstructed", "possible_species", "has_props", "theoretical", "database_IDs"]}