{"builder_meta": null, "nsites": null, "elements": null, "nelements": null, "composition": null, "composition_reduced": null, "formula_pretty": "Nd5Si4", "formula_anonymous": "A4B5", "chemsys": null, "volume": 946.2080395681933, "density": 5.8513375585953575, "density_atomic": 26.283556654672037, "symmetry": null, "property_name": null, "material_id": "mp-355", "deprecated": null, "deprecation_reasons": null, "last_updated": null, "origins": null, "warnings": null, "structure": {"@module": "pymatgen.core.structure", "@class": "Structure", "charge": 0, "lattice": {"matrix": [[7.90158778, 1.04e-06, -0.0], [1.04e-06, 7.90158674, -0.0], [0.0, -0.0, 15.15507021]], "pbc": [true, true, true], "a": 7.901587780000068, "b": 7.901586740000068, "c": 15.15507021, "alpha": 90.0, "beta": 90.0, "gamma": 89.99998491755929, "volume": 946.2080395681933}, "properties": {}, "sites": [{"species": [{"element": "Nd", "occu": 1}], "abc": [0.48138447, 0.37268928, 0.12505031], "properties": {"magmom": 0.031}, "label": "Nd", "xyz": [3.8037020332306275, 2.944837173627996, 1.895146227832265]}, {"species": [{"element": "Nd", "occu": 1}], "abc": [0.98138647, 0.12731072000000002, 0.62494969], "properties": {"magmom": 0.031}, "label": "Nd", "xyz": [7.754511471212486, 1.0059577176537817, 9.471156429667735]}, {"species": [{"element": "Nd", "occu": 1}], "abc": [0.87268928, 0.01861453, 0.87505031], "properties": {"magmom": 0.031}, "label": "Nd", "xyz": [6.895630969944109, 0.1470852310161834, 13.261448885332266]}, {"species": [{"element": "Nd", "occu": 1}], "abc": [0.12731072000000002, 0.98138547, 0.37505031], "properties": {"magmom": 0.031}, "label": "Nd", "xyz": [1.0059578500558903, 7.754502548983816, 5.683913780332265]}, {"species": [{"element": "Nd", "occu": 1}], "abc": [0.51861553, 0.62731072, 0.62505031], "properties": {"magmom": 0.031}, "label": "Nd", "xyz": [4.097886786769372, 4.956750606372004, 9.472681332832265]}, {"species": [{"element": "Nd", "occu": 1}], "abc": [0.37268928, 0.48138547000000004, 0.87494869], "properties": {"magmom": 0.031}, "label": "Nd", "xyz": [2.9448375612258872, 3.8037094341775193, 13.259908827097524]}, {"species": [{"element": "Nd", "occu": 1}], "abc": [0.62731072, 0.51861453, 0.37494869000000003], "properties": {"magmom": 0.031}, "label": "Nd", "xyz": [4.956751258774113, 4.097878345822481, 5.682373722097525]}, {"species": [{"element": "Nd", "occu": 1}], "abc": [0.01861353, 0.87268928, 0.12494969], "properties": {"magmom": 0.031}, "label": "Nd", "xyz": [0.1470773487875146, 6.895630062346219, 1.893621324667735]}, {"species": [{"element": "Nd", "occu": 1}], "abc": [0.6221396, 0.98964211, 0.44802646], "properties": {"magmom": 0.018000000000000002}, "label": "Nd", "xyz": [4.9158916900418825, 7.819743620746805, 6.789872457237757]}, {"species": [{"element": "Nd", "occu": 1}], "abc": [0.3778604, 0.01035789, 0.94802646], "properties": {"magmom": 0.018000000000000002}, "label": "Nd", "xyz": [2.9856971299581176, 0.08184415925319459, 14.367407562237757]}, {"species": [{"element": "Nd", "occu": 1}], "abc": [0.98964411, 0.6221396, 0.55197354], "properties": {"magmom": 0.018000000000000002}, "label": "Nd", "xyz": [7.819760453150159, 4.915891043018779, 8.365197752762244]}, {"species": [{"element": "Nd", "occu": 1}], "abc": [0.48964211, 0.8778604, 0.19802646000000002], "properties": {"magmom": 0.018000000000000002}, "label": "Nd", "xyz": [3.868951025924232, 6.93649060543889, 3.001104904737757]}, {"species": [{"element": "Nd", "occu": 1}], "abc": [0.51035789, 0.1221396, 0.69802646], "properties": {"magmom": 0.018000000000000002}, "label": "Nd", "xyz": [4.032637794075768, 0.9650971745611097, 10.578640009737757]}, {"species": [{"element": "Nd", "occu": 1}], "abc": [0.8778604, 0.48964411, 0.80197354], "properties": {"magmom": 0.018000000000000002}, "label": "Nd", "xyz": [6.936491518415786, 3.8689663198699176, 12.153965305262243]}, {"species": [{"element": "Nd", "occu": 1}], "abc": [0.1221396, 0.51035589, 0.30197354], "properties": {"magmom": 0.018000000000000002}, "label": "Nd", "xyz": [0.9650973015842136, 4.032621460130083, 4.5764302002622435]}, {"species": [{"element": "Nd", "occu": 1}], "abc": [0.01035589, 0.3778604, 0.05197354], "properties": {"magmom": 0.018000000000000002}, "label": "Nd", "xyz": [0.08182836684984018, 2.9856967369812217, 0.7876626477622434]}, {"species": [{"element": "Nd", "occu": 1}], "abc": [0.30906866, 0.30906666, 0.5], "properties": {"magmom": 0.20800000000000002}, "label": "Nd", "xyz": [2.442133468466301, 2.4421173438634947, 7.577535105]}, {"species": [{"element": "Nd", "occu": 1}], "abc": [0.19093434, 0.80906666, 0.750000999999999], "properties": {"magmom": 0.20800000000000002}, "label": "Nd", "xyz": [1.5086852891556917, 6.392910591003803, 11.366317812570195]}, {"species": [{"element": "Nd", "occu": 1}], "abc": [0.80906566, 0.19093334, 0.250001], "properties": {"magmom": 0.20800000000000002}, "label": "Nd", "xyz": [6.3929035308443085, 1.508677188996198, 3.7887827075702094]}, {"species": [{"element": "Nd", "occu": 1}], "abc": [0.69093134, 0.6909333400000001, 0.0], "properties": {"magmom": 0.20800000000000002}, "label": "Nd", "xyz": [5.459455351533698, 5.459470436136506, 0.0]}, {"species": [{"element": "Si", "occu": 1}], "abc": [0.28828847, 0.9223760400000001, 0.55912847], "properties": {"magmom": -0.012}, "label": "Si", "xyz": [2.2779376109379785, 7.288234586777719, 8.473631219259879]}, {"species": [{"element": "Si", "occu": 1}], "abc": [0.71171153, 0.07762396, 0.05912847], "properties": {"magmom": -0.012}, "label": "Si", "xyz": [5.623651209062022, 0.6133531932222817, 0.8960961142598788]}, {"species": [{"element": "Si", "occu": 1}], "abc": [0.9223760400000001, 0.28828747, 0.44087253], "properties": {"magmom": -0.012}, "label": "Si", "xyz": [7.28823554604776, 2.2779294095312292, 6.681454145810331]}, {"species": [{"element": "Si", "occu": 1}], "abc": [0.42237604, 0.21171053, 0.30912747], "properties": {"magmom": -0.012}, "label": "Si", "xyz": [3.337441576407742, 1.6728495558374537, 4.684848511689669]}, {"species": [{"element": "Si", "occu": 1}], "abc": [0.57762396, 0.78828947, 0.8091274700000001], "properties": {"magmom": -0.012}, "label": "Si", "xyz": [4.564147243592258, 6.228738224162546, 12.26238361668967]}, {"species": [{"element": "Si", "occu": 1}], "abc": [0.21171253, 0.42237504000000003, 0.69087153], "properties": {"magmom": -0.012}, "label": "Si", "xyz": [1.672865579190925, 3.337433235552001, 10.47020654324012]}, {"species": [{"element": "Si", "occu": 1}], "abc": [0.78828747, 0.57762496, 0.19087153], "properties": {"magmom": -0.012}, "label": "Si", "xyz": [6.2287232408090745, 4.564154544447999, 2.8926714382401215]}, {"species": [{"element": "Si", "occu": 1}], "abc": [0.07762396, 0.71171253, 0.94087253], "properties": {"magmom": -0.012}, "label": "Si", "xyz": [0.61335327395224, 5.623658370468771, 14.258989250810332]}, {"species": [{"element": "Si", "occu": 1}], "abc": [0.80365561, 0.83019329, 0.70108521], "properties": {"magmom": 0.001}, "label": "Si", "xyz": [6.350156210705467, 6.5598451277028085, 10.624995580742594]}, {"species": [{"element": "Si", "occu": 1}], "abc": [0.19634439, 0.16980671, 0.20108521000000001], "properties": {"magmom": 0.001}, "label": "Si", "xyz": [1.5514326092945325, 1.3417426522971911, 3.0474604757425943]}, {"species": [{"element": "Si", "occu": 1}], "abc": [0.83019329, 0.80365561, 0.29891479], "properties": {"magmom": 0.001}, "label": "Si", "xyz": [6.559845991103829, 6.350155374903633, 4.530074629257405]}, {"species": [{"element": "Si", "occu": 1}], "abc": [0.33019429, 0.6963453900000001, 0.45108521], "properties": {"magmom": 0.001}, "label": "Si", "xyz": [2.6090598910889815, 5.502233843486191, 6.836228028242594]}, {"species": [{"element": "Si", "occu": 1}], "abc": [0.66980571, 0.30365461, 0.95108521], "properties": {"magmom": 0.001}, "label": "Si", "xyz": [5.292528928911018, 2.3993539365138097, 14.413763133242595]}, {"species": [{"element": "Si", "occu": 1}], "abc": [0.69634439, 0.33019329000000003, 0.54891379], "properties": {"magmom": 0.001}, "label": "Si", "xyz": [5.5022266660965755, 2.6090516460991404, 8.318827026687195]}, {"species": [{"element": "Si", "occu": 1}], "abc": [0.30365561, 0.66980671, 0.04891379], "properties": {"magmom": 0.001}, "label": "Si", "xyz": [2.399362153903424, 5.29253613390086, 0.7412919216871958]}, {"species": [{"element": "Si", "occu": 1}], "abc": [0.16980671, 0.19634439, 0.79891479], "properties": {"magmom": 0.001}, "label": "Si", "xyz": [1.3417428288961695, 1.551432405096367, 12.107609734257405]}]}, "task_ids": null, "uncorrected_energy_per_atom": null, "energy_per_atom": -21.00953647972222, "formation_energy_per_atom": -0.766747224999998, "energy_above_hull": 0.0, "is_stable": true, "equilibrium_reaction_energy_per_atom": null, "decomposes_to": null, "xas": null, "grain_boundaries": null, "band_gap": 0.0, "cbm": null, "vbm": null, "efermi": 4.6340840199999995, "is_gap_direct": null, "is_metal": null, "es_source_calc_id": null, "bandstructure": null, "dos": null, "dos_energy_up": null, "dos_energy_down": null, "is_magnetic": null, "ordering": null, "total_magnetization": 2.077846, "total_magnetization_normalized_vol": null, "total_magnetization_normalized_formula_units": null, "num_magnetic_sites": null, "num_unique_magnetic_sites": null, "types_of_magnetic_species": null, "bulk_modulus": null, "shear_modulus": null, "universal_anisotropy": null, "homogeneous_poisson": null, "e_total": null, "e_ionic": null, "e_electronic": null, "n": null, "e_ij_max": null, "weighted_surface_energy_EV_PER_ANG2": null, "weighted_surface_energy": null, "weighted_work_function": null, "surface_anisotropy": null, "shape_factor": null, "has_reconstructed": null, "possible_species": null, "has_props": null, "theoretical": null, "database_IDs": null, "fields_not_requested": ["builder_meta", "nsites", "elements", "nelements", "composition", "composition_reduced", "chemsys", "symmetry", "property_name", "deprecated", "deprecation_reasons", "last_updated", "origins", "warnings", "task_ids", "uncorrected_energy_per_atom", "equilibrium_reaction_energy_per_atom", "decomposes_to", "xas", "grain_boundaries", "cbm", "vbm", "is_gap_direct", "is_metal", "es_source_calc_id", "bandstructure", "dos", "dos_energy_up", "dos_energy_down", "is_magnetic", "ordering", "total_magnetization_normalized_vol", "total_magnetization_normalized_formula_units", "num_magnetic_sites", "num_unique_magnetic_sites", "types_of_magnetic_species", "bulk_modulus", "shear_modulus", "universal_anisotropy", "homogeneous_poisson", "e_total", "e_ionic", "e_electronic", "n", "e_ij_max", "weighted_surface_energy_EV_PER_ANG2", "weighted_surface_energy", "weighted_work_function", "surface_anisotropy", "shape_factor", "has_reconstructed", "possible_species", "has_props", "theoretical", "database_IDs"]}