{"builder_meta": null, "nsites": null, "elements": null, "nelements": null, "composition": null, "composition_reduced": null, "formula_pretty": "Nd5Sn4", "formula_anonymous": "A4B5", "chemsys": null, "volume": 1126.7539006896866, "density": 7.050653206139316, "density_atomic": 31.298719463602406, "symmetry": null, "property_name": null, "material_id": "mp-569347", "deprecated": null, "deprecation_reasons": null, "last_updated": null, "origins": null, "warnings": null, "structure": {"@module": "pymatgen.core.structure", "@class": "Structure", "charge": 0, "lattice": {"matrix": [[8.34756647, -0.0, 0.0], [0.0, 8.4465895, 0.0], [0.0, 0.0, 15.98040553]], "pbc": [true, true, true], "a": 8.34756647, "b": 8.4465895, "c": 15.98040553, "alpha": 90.0, "beta": 90.0, "gamma": 90.0, "volume": 1126.7539006896866}, "properties": {}, "sites": [{"species": [{"element": "Nd", "occu": 1}], "abc": [0.02808443, 0.17849185, 0.39899054], "properties": {"magmom": -0.035}, "label": "Nd", "xyz": [0.23443664619706212, 1.507647386045575, 6.376030631833687]}, {"species": [{"element": "Nd", "occu": 1}], "abc": [0.37916686, 0.8383871900000001, 0.11821432], "properties": {"magmom": -0.049}, "label": "Nd", "xyz": [3.165120567071184, 7.081512435988506, 1.8891127730531896]}, {"species": [{"element": "Nd", "occu": 1}], "abc": [0.12083314, 0.33838719, 0.61821432], "properties": {"magmom": -0.049}, "label": "Nd", "xyz": [1.008662667928816, 2.858217685988505, 9.87931553805319]}, {"species": [{"element": "Nd", "occu": 1}], "abc": [0.47191557, 0.67849185, 0.89899054], "properties": {"magmom": -0.035}, "label": "Nd", "xyz": [3.939346588802938, 5.7309421360455755, 14.366233396833687]}, {"species": [{"element": "Nd", "occu": 1}], "abc": [0.87916686, 0.66161281, 0.11821432], "properties": {"magmom": -0.049}, "label": "Nd", "xyz": [7.338903802071185, 5.588371814011495, 1.8891127730531896]}, {"species": [{"element": "Nd", "occu": 1}], "abc": [0.12083314, 0.33838719, 0.88178568], "properties": {"magmom": -0.049}, "label": "Nd", "xyz": [1.008662667928816, 2.858217685988505, 14.09129275694681]}, {"species": [{"element": "Nd", "occu": 1}], "abc": [0.20807491, 0.50322042, 0.25], "properties": {"magmom": -0.127}, "label": "Nd", "xyz": [1.7369191419642678, 4.25049631575759, 3.9951013825]}, {"species": [{"element": "Nd", "occu": 1}], "abc": [0.70807491, 0.99677958, 0.25], "properties": {"magmom": -0.127}, "label": "Nd", "xyz": [5.9107023769642675, 8.41938793424241, 3.9951013825]}, {"species": [{"element": "Nd", "occu": 1}], "abc": [0.47191557, 0.67849185, 0.60100946], "properties": {"magmom": -0.035}, "label": "Nd", "xyz": [3.939346588802938, 5.7309421360455755, 9.604374898166315]}, {"species": [{"element": "Nd", "occu": 1}], "abc": [0.29192509, 0.00322042, 0.75], "properties": {"magmom": -0.127}, "label": "Nd", "xyz": [2.4368640930357324, 0.027201565757589998, 11.9853041475]}, {"species": [{"element": "Nd", "occu": 1}], "abc": [0.62083314, 0.16161281, 0.61821432], "properties": {"magmom": -0.049}, "label": "Nd", "xyz": [5.182445902928816, 1.3650770640114949, 9.87931553805319]}, {"species": [{"element": "Nd", "occu": 1}], "abc": [0.79192509, 0.49677958, 0.75], "properties": {"magmom": -0.127}, "label": "Nd", "xyz": [6.610647328035733, 4.19609318424241, 11.9853041475]}, {"species": [{"element": "Nd", "occu": 1}], "abc": [0.87916686, 0.66161281, 0.38178568], "properties": {"magmom": -0.049}, "label": "Nd", "xyz": [7.338903802071185, 5.588371814011495, 6.101089991946811]}, {"species": [{"element": "Nd", "occu": 1}], "abc": [0.02808443, 0.17849185, 0.10100946], "properties": {"magmom": -0.035}, "label": "Nd", "xyz": [0.23443664619706212, 1.507647386045575, 1.6141721331663137]}, {"species": [{"element": "Nd", "occu": 1}], "abc": [0.9719155700000001, 0.82150815, 0.89899054], "properties": {"magmom": -0.035}, "label": "Nd", "xyz": [8.11312982380294, 6.9389421139544245, 14.366233396833687]}, {"species": [{"element": "Nd", "occu": 1}], "abc": [0.62083314, 0.16161281, 0.88178568], "properties": {"magmom": -0.049}, "label": "Nd", "xyz": [5.182445902928816, 1.3650770640114949, 14.09129275694681]}, {"species": [{"element": "Nd", "occu": 1}], "abc": [0.52808443, 0.32150815, 0.10100946], "properties": {"magmom": -0.035}, "label": "Nd", "xyz": [4.408219881197063, 2.715647363954425, 1.6141721331663137]}, {"species": [{"element": "Nd", "occu": 1}], "abc": [0.37916686, 0.8383871900000001, 0.38178568], "properties": {"magmom": -0.049}, "label": "Nd", "xyz": [3.165120567071184, 7.081512435988506, 6.101089991946811]}, {"species": [{"element": "Nd", "occu": 1}], "abc": [0.9719155700000001, 0.82150815, 0.60100946], "properties": {"magmom": -0.035}, "label": "Nd", "xyz": [8.11312982380294, 6.9389421139544245, 9.604374898166315]}, {"species": [{"element": "Nd", "occu": 1}], "abc": [0.52808443, 0.32150815, 0.39899054], "properties": {"magmom": -0.035}, "label": "Nd", "xyz": [4.408219881197063, 2.715647363954425, 6.376030631833687]}, {"species": [{"element": "Sn", "occu": 1}], "abc": [0.7808009300000001, 0.46810848, 0.5433917500000001], "properties": {"magmom": 0.005}, "label": "Sn", "xyz": [6.517787663012818, 3.95392017202896, 8.683620526656378]}, {"species": [{"element": "Sn", "occu": 1}], "abc": [0.71919907, 0.96810848, 0.45660825], "properties": {"magmom": 0.005}, "label": "Sn", "xyz": [6.003562041987183, 8.177214922028961, 7.296785003343623]}, {"species": [{"element": "Sn", "occu": 1}], "abc": [0.66859639, 0.860067799999999, 0.75], "properties": {"magmom": -0.005}, "label": "Sn", "xyz": [5.581152807127044, 7.2646396487680915, 11.9853041475]}, {"species": [{"element": "Sn", "occu": 1}], "abc": [0.21919907, 0.5318915200000001, 0.45660825], "properties": {"magmom": 0.005}, "label": "Sn", "xyz": [1.829778806987183, 4.492669327971041, 7.296785003343623]}, {"species": [{"element": "Sn", "occu": 1}], "abc": [0.28080093, 0.03189152, 0.95660825], "properties": {"magmom": 0.005}, "label": "Sn", "xyz": [2.344004428012817, 0.26937457797104, 15.286987768343623]}, {"species": [{"element": "Sn", "occu": 1}], "abc": [0.8314036100000001, 0.3600678, 0.25], "properties": {"magmom": -0.005}, "label": "Sn", "xyz": [6.940196897872958, 3.0413448987681, 3.9951013825]}, {"species": [{"element": "Sn", "occu": 1}], "abc": [0.7808009300000001, 0.46810848, 0.95660825], "properties": {"magmom": 0.005}, "label": "Sn", "xyz": [6.517787663012818, 3.95392017202896, 15.286987768343623]}, {"species": [{"element": "Sn", "occu": 1}], "abc": [0.57989583, 0.61443347, 0.25], "properties": {"magmom": -0.015}, "label": "Sn", "xyz": [4.8407189866008205, 5.189867296150565, 3.9951013825]}, {"species": [{"element": "Sn", "occu": 1}], "abc": [0.21919907, 0.5318915200000001, 0.04339175], "properties": {"magmom": 0.005}, "label": "Sn", "xyz": [1.829778806987183, 4.492669327971041, 0.6934177616563775]}, {"species": [{"element": "Sn", "occu": 1}], "abc": [0.42010417, 0.38556653, 0.75], "properties": {"magmom": -0.015}, "label": "Sn", "xyz": [3.50684748339918, 3.256722203849435, 11.9853041475]}, {"species": [{"element": "Sn", "occu": 1}], "abc": [0.16859639, 0.6399322, 0.75], "properties": {"magmom": -0.005}, "label": "Sn", "xyz": [1.4073695721270434, 5.4052446012318995, 11.9853041475]}, {"species": [{"element": "Sn", "occu": 1}], "abc": [0.92010417, 0.11443347, 0.75], "properties": {"magmom": -0.015}, "label": "Sn", "xyz": [7.68063071839918, 0.966572546150565, 11.9853041475]}, {"species": [{"element": "Sn", "occu": 1}], "abc": [0.28080093, 0.03189152, 0.5433917500000001], "properties": {"magmom": 0.005}, "label": "Sn", "xyz": [2.344004428012817, 0.26937457797104, 8.683620526656378]}, {"species": [{"element": "Sn", "occu": 1}], "abc": [0.71919907, 0.96810848, 0.04339175], "properties": {"magmom": 0.005}, "label": "Sn", "xyz": [6.003562041987183, 8.177214922028961, 0.6934177616563775]}, {"species": [{"element": "Sn", "occu": 1}], "abc": [0.33140361, 0.1399322, 0.25], "properties": {"magmom": -0.005}, "label": "Sn", "xyz": [2.766413662872957, 1.1819498512319, 3.9951013825]}, {"species": [{"element": "Sn", "occu": 1}], "abc": [0.07989583, 0.8855665300000001, 0.25], "properties": {"magmom": -0.015}, "label": "Sn", "xyz": [0.6669357516008201, 7.480016953849436, 3.9951013825]}]}, "task_ids": null, "uncorrected_energy_per_atom": null, "energy_per_atom": -5.184108551666674, "formation_energy_per_atom": -0.753105820277784, "energy_above_hull": 0.0, "is_stable": true, "equilibrium_reaction_energy_per_atom": null, "decomposes_to": null, "xas": null, "grain_boundaries": null, "band_gap": 0.0, "cbm": null, "vbm": null, "efermi": 4.9694419, "is_gap_direct": null, "is_metal": null, "es_source_calc_id": null, "bandstructure": null, "dos": null, "dos_energy_up": null, "dos_energy_down": null, "is_magnetic": null, "ordering": null, "total_magnetization": 2.805886, "total_magnetization_normalized_vol": null, "total_magnetization_normalized_formula_units": null, "num_magnetic_sites": null, "num_unique_magnetic_sites": null, "types_of_magnetic_species": null, "bulk_modulus": null, "shear_modulus": null, "universal_anisotropy": null, "homogeneous_poisson": null, "e_total": null, "e_ionic": null, "e_electronic": null, "n": null, "e_ij_max": null, "weighted_surface_energy_EV_PER_ANG2": null, "weighted_surface_energy": null, "weighted_work_function": null, "surface_anisotropy": null, "shape_factor": null, "has_reconstructed": null, "possible_species": null, "has_props": null, "theoretical": null, "database_IDs": null, "fields_not_requested": ["builder_meta", "nsites", "elements", "nelements", "composition", "composition_reduced", "chemsys", "symmetry", "property_name", "deprecated", "deprecation_reasons", "last_updated", "origins", "warnings", "task_ids", "uncorrected_energy_per_atom", "equilibrium_reaction_energy_per_atom", "decomposes_to", "xas", "grain_boundaries", "cbm", "vbm", "is_gap_direct", "is_metal", "es_source_calc_id", "bandstructure", "dos", "dos_energy_up", "dos_energy_down", "is_magnetic", "ordering", "total_magnetization_normalized_vol", "total_magnetization_normalized_formula_units", "num_magnetic_sites", "num_unique_magnetic_sites", "types_of_magnetic_species", "bulk_modulus", "shear_modulus", "universal_anisotropy", "homogeneous_poisson", "e_total", "e_ionic", "e_electronic", "n", "e_ij_max", "weighted_surface_energy_EV_PER_ANG2", "weighted_surface_energy", "weighted_work_function", "surface_anisotropy", "shape_factor", "has_reconstructed", "possible_species", "has_props", "theoretical", "database_IDs"]}