{
  "builder_meta": null,
  "nsites": null,
  "elements": null,
  "nelements": null,
  "composition": null,
  "composition_reduced": null,
  "formula_pretty": "Nd5Sb3",
  "formula_anonymous": "A3B5",
  "chemsys": null,
  "volume": 494.21566730328914,
  "density": 7.301100348820231,
  "density_atomic": 30.88847920645557,
  "symmetry": null,
  "property_name": null,
  "material_id": "mp-1188779",
  "deprecated": null,
  "deprecation_reasons": null,
  "last_updated": null,
  "origins": null,
  "warnings": null,
  "structure": {
    "@module": "pymatgen.core.structure",
    "@class": "Structure",
    "charge": 0,
    "lattice": {
      "matrix": [
        [-1.497e-5, 2.3490000000000004e-5, -6.5355547],
        [-4.67219694, -8.09276329, 1.889e-5],
        [-4.67197213, 8.09263396, -3.964e-5]
      ],
      "pbc": [true, true, true],
      "a": 6.535554700059358,
      "b": 9.344637067028009,
      "c": 9.34441266188589,
      "alpha": 120.00251902539001,
      "beta": 89.99951298403339,
      "gamma": 90.00022854826676,
      "volume": 494.21566730328914
    },
    "properties": {},
    "sites": [
      {
        "species": [{ "element": "Nd", "occu": 1 }],
        "abc": [0.50000089, 0.33333774, 0.66667268],
        "properties": { "magmom": 0.10200000000000001 },
        "label": "Nd",
        "xyz": [-4.672103234620248, 2.697526289949555, -3.2678032967988098]
      },
      {
        "species": [{ "element": "Nd", "occu": 1 }],
        "abc": [0.50000377, 0.66665675, 0.33332246],
        "properties": { "magmom": -0.278 },
        "label": "Nd",
        "xyz": [-4.672032355859821, -2.6976268689154086, -3.267802608797526]
      },
      {
        "species": [{ "element": "Nd", "occu": 1 }],
        "abc": [-3.46e-6, 0.66665908, 0.33332262],
        "properties": { "magmom": -0.278 },
        "label": "Nd",
        "xyz": [-4.672036504486, -2.6976561754022734, 2.19933006264e-5]
      },
      {
        "species": [{ "element": "Nd", "occu": 1 }],
        "abc": [9.4e-7, 0.33334015, 0.6666728],
        "properties": { "magmom": 0.10200000000000001 },
        "label": "Nd",
        "xyz": [-4.672107570252277, 2.6974960125072753, -2.6273535776499996e-5]
      },
      {
        "species": [{ "element": "Nd", "occu": 1 }],
        "abc": [0.74998841, 0.2510112, -4.55e-6],
        "properties": { "magmom": -0.07100000000000001 },
        "label": "Nd",
        "xyz": [-1.1727637303990341, -2.031393428995615, -4.9015855361390965]
      },
      {
        "species": [{ "element": "Nd", "occu": 1 }],
        "abc": [0.74998978, 0.74903651, 0.749022899999999],
        "properties": { "magmom": -0.07100000000000001 },
        "label": "Nd",
        "xyz": [-6.9990714308490585, -0.000189396380110729, -4.901614773599048]
      },
      {
        "species": [{ "element": "Nd", "occu": 1 }],
        "abc": [0.7499884, 2.1850000000000003e-5, 0.25096725000000003],
        "properties": { "magmom": -0.07100000000000001 },
        "label": "Nd",
        "xyz": [-1.1726253123722297, 2.03082688054744, -4.901600160494524]
      },
      {
        "species": [{ "element": "Nd", "occu": 1 }],
        "abc": [0.25001247, 0.74898582, -8.8e-7],
        "properties": { "magmom": -0.07100000000000001 },
        "label": "Nd",
        "xyz": [-3.4994088876585923, -6.0613661975515125, -1.6339560249900857]
      },
      {
        "species": [{ "element": "Nd", "occu": 1 }],
        "abc": [0.25001213, 0.25094718, 0.250979399999999],
        "properties": { "magmom": -0.07100000000000001 },
        "label": "Nd",
        "xyz": [
          -2.3450471511833326, 0.00023416245232787958, -1.6339731597096965
        ]
      },
      {
        "species": [{ "element": "Nd", "occu": 1 }],
        "abc": [0.25001245, 0.9999900700000001, 0.74903467],
        "properties": { "magmom": -0.07100000000000001 },
        "label": "Nd",
        "xyz": [-8.17162339041451, -2.0310136484086883, -1.6339808445779114]
      },
      {
        "species": [{ "element": "Sb", "occu": 1 }],
        "abc": [0.7499796200000001, 0.6146260100000001, 5.967e-5],
        "properties": { "magmom": 0.017 },
        "label": "Sb",
        "xyz": [-2.8719437669383185, -4.973522306317507, -4.901521222475204]
      },
      {
        "species": [{ "element": "Sb", "occu": 1 }],
        "abc": [0.74998684, 0.38554441, 0.38545678],
        "properties": { "magmom": 0.017 },
        "label": "Sb",
        "xyz": [-3.602193973418642, -0.0007414027815886293, -4.901588013673003]
      },
      {
        "species": [{ "element": "Sb", "occu": 1 }],
        "abc": [0.74998621, -6.828e-5, 0.6144836300000001],
        "properties": { "magmom": 0.017 },
        "label": "Sb",
        "xyz": [-2.870542603387733, 4.973361283055589, -4.901600259121589]
      },
      {
        "species": [{ "element": "Sb", "occu": 1 }],
        "abc": [0.24999794, 0.38545329, 7.934000000000002e-5],
        "properties": { "magmom": 0.017 },
        "label": "Sb",
        "xyz": [-1.8012880987888886, -3.1187342932917272, -1.6338679336897073]
      },
      {
        "species": [{ "element": "Sb", "occu": 1 }],
        "abc": [0.25002188000000003, 0.61453964, 0.61446671],
        "properties": { "magmom": 0.017 },
        "label": "Sb",
        "xyz": [-5.742025312277038, -0.0006638011923829623, -1.634044421743421]
      },
      {
        "species": [{ "element": "Sb", "occu": 1 }],
        "abc": [0.25002273, -8.343e-5, 0.38546353],
        "properties": { "magmom": 0.017 },
        "label": "Sb",
        "xyz": [-1.8004888107409829, 3.1200963054946915, -1.6340525095086529]
      }
    ]
  },
  "task_ids": null,
  "uncorrected_energy_per_atom": null,
  "energy_per_atom": -29.157966146875,
  "formation_energy_per_atom": -1.131842134062498,
  "energy_above_hull": 0.0,
  "is_stable": true,
  "equilibrium_reaction_energy_per_atom": null,
  "decomposes_to": null,
  "xas": null,
  "grain_boundaries": null,
  "band_gap": 0.0,
  "cbm": null,
  "vbm": null,
  "efermi": 5.25955469,
  "is_gap_direct": null,
  "is_metal": null,
  "es_source_calc_id": null,
  "bandstructure": null,
  "dos": null,
  "dos_energy_up": null,
  "dos_energy_down": null,
  "is_magnetic": null,
  "ordering": null,
  "total_magnetization": 1.5725421,
  "total_magnetization_normalized_vol": null,
  "total_magnetization_normalized_formula_units": null,
  "num_magnetic_sites": null,
  "num_unique_magnetic_sites": null,
  "types_of_magnetic_species": null,
  "bulk_modulus": null,
  "shear_modulus": null,
  "universal_anisotropy": null,
  "homogeneous_poisson": null,
  "e_total": null,
  "e_ionic": null,
  "e_electronic": null,
  "n": null,
  "e_ij_max": null,
  "weighted_surface_energy_EV_PER_ANG2": null,
  "weighted_surface_energy": null,
  "weighted_work_function": null,
  "surface_anisotropy": null,
  "shape_factor": null,
  "has_reconstructed": null,
  "possible_species": null,
  "has_props": null,
  "theoretical": null,
  "database_IDs": null,
  "fields_not_requested": [
    "builder_meta",
    "nsites",
    "elements",
    "nelements",
    "composition",
    "composition_reduced",
    "chemsys",
    "symmetry",
    "property_name",
    "deprecated",
    "deprecation_reasons",
    "last_updated",
    "origins",
    "warnings",
    "task_ids",
    "uncorrected_energy_per_atom",
    "equilibrium_reaction_energy_per_atom",
    "decomposes_to",
    "xas",
    "grain_boundaries",
    "cbm",
    "vbm",
    "is_gap_direct",
    "is_metal",
    "es_source_calc_id",
    "bandstructure",
    "dos",
    "dos_energy_up",
    "dos_energy_down",
    "is_magnetic",
    "ordering",
    "total_magnetization_normalized_vol",
    "total_magnetization_normalized_formula_units",
    "num_magnetic_sites",
    "num_unique_magnetic_sites",
    "types_of_magnetic_species",
    "bulk_modulus",
    "shear_modulus",
    "universal_anisotropy",
    "homogeneous_poisson",
    "e_total",
    "e_ionic",
    "e_electronic",
    "n",
    "e_ij_max",
    "weighted_surface_energy_EV_PER_ANG2",
    "weighted_surface_energy",
    "weighted_work_function",
    "surface_anisotropy",
    "shape_factor",
    "has_reconstructed",
    "possible_species",
    "has_props",
    "theoretical",
    "database_IDs"
  ]
}
