{
  "builder_meta": null,
  "nsites": null,
  "elements": null,
  "nelements": null,
  "composition": null,
  "composition_reduced": null,
  "formula_pretty": "Nd5Si3",
  "formula_anonymous": "A3B5",
  "chemsys": null,
  "volume": 426.39564122867114,
  "density": 6.273556578737529,
  "density_atomic": 26.649727576791946,
  "symmetry": null,
  "property_name": null,
  "material_id": "mp-567735",
  "deprecated": null,
  "deprecation_reasons": null,
  "last_updated": null,
  "origins": null,
  "warnings": null,
  "structure": {
    "@module": "pymatgen.core.structure",
    "@class": "Structure",
    "charge": 0,
    "lattice": {
      "matrix": [
        [7.02734361, 0.00030496, -3.44381206],
        [-1.68755496, 6.8216985999999995, -3.44382189],
        [0.00105454, 0.00125223, 8.8932574]
      ],
      "pbc": [true, true, true],
      "a": 7.825816239256444,
      "b": 7.825811315276247,
      "c": 8.893257550683515,
      "alpha": 116.1014712810764,
      "beta": 116.10077919471121,
      "gamma": 89.99726153760149,
      "volume": 426.3956412286711
    },
    "properties": {},
    "sites": [
      {
        "species": [{ "element": "Nd", "occu": 1 }],
        "abc": [0.67637705, 0.17634994, 0.70820222],
        "properties": { "magmom": 0.067 },
        "label": "Nd",
        "xyz": [4.456280551894527, 1.2040992388192024, 3.3615914081420177]
      },
      {
        "species": [{ "element": "Nd", "occu": 1 }],
        "abc": [0.17635322, 0.03176826, 0.70816835],
        "properties": { "magmom": 0.067 },
        "label": "Nd",
        "xyz": [1.1864307807881636, 0.21765406509732768, 5.581191844032245]
      },
      {
        "species": [{ "element": "Nd", "occu": 1 }],
        "abc": [0.03180255, 0.53182367, 0.70818032],
        "properties": { "magmom": 0.067 },
        "label": "Nd",
        "xyz": [-0.6732474211550448, 3.628837288233623, 4.357001869779479]
      },
      {
        "species": [{ "element": "Nd", "occu": 1 }],
        "abc": [0.46819947, 0.3236251, 0.29182889],
        "properties": { "magmom": 0.067 },
        "label": "Nd",
        "xyz": [2.7443711562620514, 2.2081811105961555, -0.13158874927876107]
      },
      {
        "species": [{ "element": "Nd", "occu": 1 }],
        "abc": [0.32362295, 0.8236500600000001, 0.29179778],
        "properties": { "magmom": 0.067 },
        "label": "Nd",
        "xyz": [0.884562638105473, 5.619156551180797, -1.3559679581420188]
      },
      {
        "species": [{ "element": "Nd", "occu": 1 }],
        "abc": [0.53180053, 0.6763749, 0.70817111],
        "properties": { "magmom": 0.067 },
        "label": "Nd",
        "xyz": [2.596472033737949, 4.615074679403844, 2.1372121992787605]
      },
      {
        "species": [{ "element": "Nd", "occu": 1 }],
        "abc": [0.82364678, 0.96823174, 0.29183165],
        "properties": { "magmom": 0.067 },
        "label": "Nd",
        "xyz": [4.154412409211836, 6.605601724902671, -3.5755683940322456]
      },
      {
        "species": [{ "element": "Nd", "occu": 1 }],
        "abc": [0.0, -0.0, -0.0],
        "properties": { "magmom": 0.393 },
        "label": "Nd",
        "xyz": [0.0, 0.0, 0.0]
      },
      {
        "species": [{ "element": "Nd", "occu": 1 }],
        "abc": [0.96819745, 0.46817633000000003, 0.29181968],
        "properties": { "magmom": 0.067 },
        "label": "Nd",
        "xyz": [6.014090611155045, 3.194418501766376, -2.3513784197794787]
      },
      {
        "species": [{ "element": "Nd", "occu": 1 }],
        "abc": [0.5, 0.5, -0.0],
        "properties": { "magmom": 0.393 },
        "label": "Nd",
        "xyz": [2.669894325, 3.41100178, -3.443816975]
      },
      {
        "species": [{ "element": "Si", "occu": 1 }],
        "abc": [0.11403892, 0.38594215, 0.99999646],
        "properties": { "magmom": -0.021 },
        "label": "Si",
        "xyz": [0.15114662251466568, 2.634068027212139, 7.171381285419764]
      },
      {
        "species": [{ "element": "Si", "occu": 1 }],
        "abc": [0.61405335, 0.11403846000000001, 2.2460000000000002e-5],
        "properties": { "magmom": -0.021 },
        "label": "Si",
        "xyz": [4.122717740202801, 0.7781232927628579, -2.5072127345020867]
      },
      {
        "species": [{ "element": "Si", "occu": 1 }],
        "abc": [0.38594665, 0.88596154, 0.99997754],
        "properties": { "magmom": -0.021 },
        "label": "Si",
        "xyz": [1.2181254497971996, 6.045132497237142, 4.512836184502086]
      },
      {
        "species": [{ "element": "Si", "occu": 1 }],
        "abc": [0.8859610800000001, 0.61405785, 3.54e-6],
        "properties": { "magmom": -0.021 },
        "label": "Si",
        "xyz": [5.189696567485335, 4.189187762787861, -5.1657578354197655]
      },
      {
        "species": [{ "element": "Si", "occu": 1 }],
        "abc": [0.24998414, 0.24997641, 0.4999646],
        "properties": { "magmom": -0.04 },
        "label": "Si",
        "xyz": [1.3354027509211357, 1.705966031964418, 2.7245412498056965]
      },
      {
        "species": [{ "element": "Si", "occu": 1 }],
        "abc": [0.75001586, 0.75002359, 0.5000354],
        "properties": { "magmom": -0.04 },
        "label": "Si",
        "xyz": [4.005440439078865, 5.1172897580355805, -0.7189177998056966]
      }
    ]
  },
  "task_ids": null,
  "uncorrected_energy_per_atom": null,
  "energy_per_atom": -22.344245913125,
  "formation_energy_per_atom": -0.667828575937498,
  "energy_above_hull": 0.0,
  "is_stable": true,
  "equilibrium_reaction_energy_per_atom": null,
  "decomposes_to": null,
  "xas": null,
  "grain_boundaries": null,
  "band_gap": 0.0,
  "cbm": null,
  "vbm": null,
  "efermi": 4.66671794,
  "is_gap_direct": null,
  "is_metal": null,
  "es_source_calc_id": null,
  "bandstructure": null,
  "dos": null,
  "dos_energy_up": null,
  "dos_energy_down": null,
  "is_magnetic": null,
  "ordering": null,
  "total_magnetization": 1.9185321,
  "total_magnetization_normalized_vol": null,
  "total_magnetization_normalized_formula_units": null,
  "num_magnetic_sites": null,
  "num_unique_magnetic_sites": null,
  "types_of_magnetic_species": null,
  "bulk_modulus": null,
  "shear_modulus": null,
  "universal_anisotropy": null,
  "homogeneous_poisson": null,
  "e_total": null,
  "e_ionic": null,
  "e_electronic": null,
  "n": null,
  "e_ij_max": null,
  "weighted_surface_energy_EV_PER_ANG2": null,
  "weighted_surface_energy": null,
  "weighted_work_function": null,
  "surface_anisotropy": null,
  "shape_factor": null,
  "has_reconstructed": null,
  "possible_species": null,
  "has_props": null,
  "theoretical": null,
  "database_IDs": null,
  "fields_not_requested": [
    "builder_meta",
    "nsites",
    "elements",
    "nelements",
    "composition",
    "composition_reduced",
    "chemsys",
    "symmetry",
    "property_name",
    "deprecated",
    "deprecation_reasons",
    "last_updated",
    "origins",
    "warnings",
    "task_ids",
    "uncorrected_energy_per_atom",
    "equilibrium_reaction_energy_per_atom",
    "decomposes_to",
    "xas",
    "grain_boundaries",
    "cbm",
    "vbm",
    "is_gap_direct",
    "is_metal",
    "es_source_calc_id",
    "bandstructure",
    "dos",
    "dos_energy_up",
    "dos_energy_down",
    "is_magnetic",
    "ordering",
    "total_magnetization_normalized_vol",
    "total_magnetization_normalized_formula_units",
    "num_magnetic_sites",
    "num_unique_magnetic_sites",
    "types_of_magnetic_species",
    "bulk_modulus",
    "shear_modulus",
    "universal_anisotropy",
    "homogeneous_poisson",
    "e_total",
    "e_ionic",
    "e_electronic",
    "n",
    "e_ij_max",
    "weighted_surface_energy_EV_PER_ANG2",
    "weighted_surface_energy",
    "weighted_work_function",
    "surface_anisotropy",
    "shape_factor",
    "has_reconstructed",
    "possible_species",
    "has_props",
    "theoretical",
    "database_IDs"
  ]
}
