{
  "builder_meta": null,
  "nsites": null,
  "elements": null,
  "nelements": null,
  "composition": null,
  "composition_reduced": null,
  "formula_pretty": "Nd5S4",
  "formula_anonymous": "A4B5",
  "chemsys": null,
  "volume": 233.04590187578754,
  "density": 6.052790928958424,
  "density_atomic": 25.893989097309728,
  "symmetry": null,
  "property_name": null,
  "material_id": "mp-1220205",
  "deprecated": null,
  "deprecation_reasons": null,
  "last_updated": null,
  "origins": null,
  "warnings": null,
  "structure": {
    "@module": "pymatgen.core.structure",
    "@class": "Structure",
    "charge": 0,
    "lattice": {
      "matrix": [
        [16.676041, -2.010974, 0.0],
        [16.676041, 2.010974, 0.0],
        [16.433537, 0.0, 3.474658]
      ],
      "pbc": [true, true, true],
      "a": 16.796855654031116,
      "b": 16.796855654031116,
      "c": 16.796856448375483,
      "alpha": 13.752263344509828,
      "beta": 13.752263344509828,
      "gamma": 13.752260629667225,
      "volume": 233.04590187578754
    },
    "properties": {},
    "sites": [
      {
        "species": [{ "element": "Nd", "occu": 1 }],
        "abc": [0.097820999999999, 0.097820999999999, 0.097820999999999],
        "properties": { "magmom": -0.0 },
        "label": "Nd",
        "xyz": [4.870079036198951, 0.0, 0.33989452021799654]
      },
      {
        "species": [{ "element": "Nd", "occu": 1 }],
        "abc": [0.5, 0.5, 0.5],
        "properties": { "magmom": -0.0 },
        "label": "Nd",
        "xyz": [24.892809500000002, 0.0, 1.737329]
      },
      {
        "species": [{ "element": "Nd", "occu": 1 }],
        "abc": [0.902179, 0.902179, 0.902179],
        "properties": { "magmom": -0.0 },
        "label": "Nd",
        "xyz": [44.915539963800995, 0.0, 3.134763479782]
      },
      {
        "species": [{ "element": "Nd", "occu": 1 }],
        "abc": [0.698629, 0.698629, 0.698629],
        "properties": { "magmom": 0.0 },
        "label": "Nd",
        "xyz": [34.781677216351, 0.0, 2.4274968438819995]
      },
      {
        "species": [{ "element": "Nd", "occu": 1 }],
        "abc": [0.301371, 0.301371, 0.301371],
        "properties": { "magmom": 0.0 },
        "label": "Nd",
        "xyz": [15.003941783649001, 0.0, 1.0471611561179999]
      },
      {
        "species": [{ "element": "S", "occu": 1 }],
        "abc": [0.601673, 0.601673, 0.601673],
        "properties": { "magmom": -0.0 },
        "label": "S",
        "xyz": [29.954662740587004, 0.0, 2.090607902834]
      },
      {
        "species": [{ "element": "S", "occu": 1 }],
        "abc": [0.200750999999999, 0.200750999999999, 0.200750999999999],
        "properties": { "magmom": 0.0 },
        "label": "S",
        "xyz": [9.994512799868952, 0.0, 0.6975410681579965]
      },
      {
        "species": [{ "element": "S", "occu": 1 }],
        "abc": [0.799249, 0.799249, 0.799249],
        "properties": { "magmom": 0.0 },
        "label": "S",
        "xyz": [39.791106200131004, 0.0, 2.777116931842]
      },
      {
        "species": [{ "element": "S", "occu": 1 }],
        "abc": [0.398327, 0.398327, 0.398327],
        "properties": { "magmom": -0.0 },
        "label": "S",
        "xyz": [19.830956259413, 0.0, 1.384050097166]
      }
    ]
  },
  "task_ids": null,
  "uncorrected_energy_per_atom": null,
  "energy_per_atom": -21.90252508444444,
  "formation_energy_per_atom": -1.988076057638882,
  "energy_above_hull": 0.053334269166668,
  "is_stable": false,
  "equilibrium_reaction_energy_per_atom": null,
  "decomposes_to": null,
  "xas": null,
  "grain_boundaries": null,
  "band_gap": 0.0,
  "cbm": null,
  "vbm": null,
  "efermi": 5.33359663,
  "is_gap_direct": null,
  "is_metal": null,
  "es_source_calc_id": null,
  "bandstructure": null,
  "dos": null,
  "dos_energy_up": null,
  "dos_energy_down": null,
  "is_magnetic": null,
  "ordering": null,
  "total_magnetization": 0.0008655,
  "total_magnetization_normalized_vol": null,
  "total_magnetization_normalized_formula_units": null,
  "num_magnetic_sites": null,
  "num_unique_magnetic_sites": null,
  "types_of_magnetic_species": null,
  "bulk_modulus": null,
  "shear_modulus": null,
  "universal_anisotropy": null,
  "homogeneous_poisson": null,
  "e_total": null,
  "e_ionic": null,
  "e_electronic": null,
  "n": null,
  "e_ij_max": null,
  "weighted_surface_energy_EV_PER_ANG2": null,
  "weighted_surface_energy": null,
  "weighted_work_function": null,
  "surface_anisotropy": null,
  "shape_factor": null,
  "has_reconstructed": null,
  "possible_species": null,
  "has_props": null,
  "theoretical": null,
  "database_IDs": null,
  "fields_not_requested": [
    "builder_meta",
    "nsites",
    "elements",
    "nelements",
    "composition",
    "composition_reduced",
    "chemsys",
    "symmetry",
    "property_name",
    "deprecated",
    "deprecation_reasons",
    "last_updated",
    "origins",
    "warnings",
    "task_ids",
    "uncorrected_energy_per_atom",
    "equilibrium_reaction_energy_per_atom",
    "decomposes_to",
    "xas",
    "grain_boundaries",
    "cbm",
    "vbm",
    "is_gap_direct",
    "is_metal",
    "es_source_calc_id",
    "bandstructure",
    "dos",
    "dos_energy_up",
    "dos_energy_down",
    "is_magnetic",
    "ordering",
    "total_magnetization_normalized_vol",
    "total_magnetization_normalized_formula_units",
    "num_magnetic_sites",
    "num_unique_magnetic_sites",
    "types_of_magnetic_species",
    "bulk_modulus",
    "shear_modulus",
    "universal_anisotropy",
    "homogeneous_poisson",
    "e_total",
    "e_ionic",
    "e_electronic",
    "n",
    "e_ij_max",
    "weighted_surface_energy_EV_PER_ANG2",
    "weighted_surface_energy",
    "weighted_work_function",
    "surface_anisotropy",
    "shape_factor",
    "has_reconstructed",
    "possible_species",
    "has_props",
    "theoretical",
    "database_IDs"
  ]
}
