{
  "builder_meta": null,
  "nsites": null,
  "elements": null,
  "nelements": null,
  "composition": null,
  "composition_reduced": null,
  "formula_pretty": "Nd5Tl3",
  "formula_anonymous": "A3B5",
  "chemsys": null,
  "volume": 504.91996552731274,
  "density": 8.77666519104843,
  "density_atomic": 31.557497845457046,
  "symmetry": null,
  "property_name": null,
  "material_id": "mp-1105755",
  "deprecated": null,
  "deprecation_reasons": null,
  "last_updated": null,
  "origins": null,
  "warnings": null,
  "structure": {
    "@module": "pymatgen.core.structure",
    "@class": "Structure",
    "charge": 0,
    "lattice": {
      "matrix": [
        [0.0, 0.0, -6.358232],
        [-6.30127, -6.30127, -3.179116],
        [-6.30127, 6.30127, -3.179116]
      ],
      "pbc": [true, true, true],
      "a": 6.358232,
      "b": 9.461436770768803,
      "c": 9.461436770768803,
      "alpha": 83.5174156333835,
      "beta": 70.3661701717195,
      "gamma": 70.3661701717195,
      "volume": 504.91996552731274
    },
    "properties": {},
    "sites": [
      {
        "species": [{ "element": "Nd", "occu": 1 }],
        "abc": [0.21742000000000003, 0.696473, 0.868688],
        "properties": { "magmom": 0.045 },
        "label": "Nd",
        "xyz": [-9.86250205447, 1.08517321305, -6.358235179116001]
      },
      {
        "species": [{ "element": "Nd", "occu": 1 }],
        "abc": [0.78258, 0.303527, 0.131311999999999],
        "properties": { "magmom": 0.045 },
        "label": "Nd",
        "xyz": [-2.7400379455299935, -1.0851732130500062, -6.358228820883998]
      },
      {
        "species": [{ "element": "Nd", "occu": 1 }],
        "abc": [0.28258, 0.131311999999999, 0.303527],
        "properties": { "magmom": 0.045 },
        "label": "Nd",
        "xyz": [-2.7400379455299935, 1.0851732130500062, -3.179112820883997]
      },
      {
        "species": [{ "element": "Nd", "occu": 1 }],
        "abc": [0.7174200000000001, 0.868688, 0.696473],
        "properties": { "magmom": 0.045 },
        "label": "Nd",
        "xyz": [-9.86250205447, -1.08517321305, -9.537351179116001]
      },
      {
        "species": [{ "element": "Nd", "occu": 1 }],
        "abc": [0.086107999999999, 0.131311999999999, 0.696473],
        "properties": { "magmom": 0.045 },
        "label": "Nd",
        "xyz": [-5.2160967869499935, 3.561232054470006, -3.1791191791159905]
      },
      {
        "species": [{ "element": "Nd", "occu": 1 }],
        "abc": [0.913891999999999, 0.868688, 0.303527],
        "properties": { "magmom": 0.045 },
        "label": "Nd",
        "xyz": [-7.38644321305, -3.5612320544699996, -9.537344820883995]
      },
      {
        "species": [{ "element": "Nd", "occu": 1 }],
        "abc": [0.586108, 0.696473, 0.131311999999999],
        "properties": { "magmom": 0.045 },
        "label": "Nd",
        "xyz": [-5.2160967869499935, -3.561232054470006, -6.358235179115996]
      },
      {
        "species": [{ "element": "Nd", "occu": 1 }],
        "abc": [0.413892, 0.303527, 0.868688],
        "properties": { "magmom": 0.045 },
        "label": "Nd",
        "xyz": [-7.38644321305, 3.5612320544699996, -6.358228820884]
      },
      {
        "species": [{ "element": "Nd", "occu": 1 }],
        "abc": [0.75, 0.5, 0.5],
        "properties": { "magmom": 0.022 },
        "label": "Nd",
        "xyz": [-6.30127, 0.0, -7.94779]
      },
      {
        "species": [{ "element": "Nd", "occu": 1 }],
        "abc": [0.25, 0.5, 0.5],
        "properties": { "magmom": 0.022 },
        "label": "Nd",
        "xyz": [-6.30127, 0.0, -4.768674]
      },
      {
        "species": [{ "element": "Tl", "occu": 1 }],
        "abc": [0.659956, 0.180088, 0.5],
        "properties": { "magmom": -0.001 },
        "label": "Tl",
        "xyz": [-4.28541811176, 2.01585188824, -6.358232000000001]
      },
      {
        "species": [{ "element": "Tl", "occu": 1 }],
        "abc": [0.340043999999999, 0.819912, 0.5],
        "properties": { "magmom": -0.001 },
        "label": "Tl",
        "xyz": [-8.317121888239999, -2.01585188824, -6.358231999999994]
      },
      {
        "species": [{ "element": "Tl", "occu": 1 }],
        "abc": [0.840044, 0.5, 0.819912],
        "properties": { "magmom": -0.001 },
        "label": "Tl",
        "xyz": [-8.317121888239999, 2.01585188824, -9.537348000000001]
      },
      {
        "species": [{ "element": "Tl", "occu": 1 }],
        "abc": [0.159956, 0.5, 0.180088],
        "properties": { "magmom": -0.001 },
        "label": "Tl",
        "xyz": [-4.28541811176, -2.01585188824, -3.179116]
      },
      {
        "species": [{ "element": "Tl", "occu": 1 }],
        "abc": [0.25, 0.0, 0.0],
        "properties": { "magmom": 0.005 },
        "label": "Tl",
        "xyz": [0.0, 0.0, -1.589558]
      },
      {
        "species": [{ "element": "Tl", "occu": 1 }],
        "abc": [0.75, 0.0, 0.0],
        "properties": { "magmom": 0.005 },
        "label": "Tl",
        "xyz": [0.0, 0.0, -4.768674]
      }
    ]
  },
  "task_ids": null,
  "uncorrected_energy_per_atom": null,
  "energy_per_atom": -4.18491193375,
  "formation_energy_per_atom": -0.31551774468750104,
  "energy_above_hull": 0.0,
  "is_stable": true,
  "equilibrium_reaction_energy_per_atom": null,
  "decomposes_to": null,
  "xas": null,
  "grain_boundaries": null,
  "band_gap": 0.0,
  "cbm": null,
  "vbm": null,
  "efermi": 4.64199691,
  "is_gap_direct": null,
  "is_metal": null,
  "es_source_calc_id": null,
  "bandstructure": null,
  "dos": null,
  "dos_energy_up": null,
  "dos_energy_down": null,
  "is_magnetic": null,
  "ordering": null,
  "total_magnetization": 0.9875761,
  "total_magnetization_normalized_vol": null,
  "total_magnetization_normalized_formula_units": null,
  "num_magnetic_sites": null,
  "num_unique_magnetic_sites": null,
  "types_of_magnetic_species": null,
  "bulk_modulus": null,
  "shear_modulus": null,
  "universal_anisotropy": null,
  "homogeneous_poisson": null,
  "e_total": null,
  "e_ionic": null,
  "e_electronic": null,
  "n": null,
  "e_ij_max": null,
  "weighted_surface_energy_EV_PER_ANG2": null,
  "weighted_surface_energy": null,
  "weighted_work_function": null,
  "surface_anisotropy": null,
  "shape_factor": null,
  "has_reconstructed": null,
  "possible_species": null,
  "has_props": null,
  "theoretical": null,
  "database_IDs": null,
  "fields_not_requested": [
    "builder_meta",
    "nsites",
    "elements",
    "nelements",
    "composition",
    "composition_reduced",
    "chemsys",
    "symmetry",
    "property_name",
    "deprecated",
    "deprecation_reasons",
    "last_updated",
    "origins",
    "warnings",
    "task_ids",
    "uncorrected_energy_per_atom",
    "equilibrium_reaction_energy_per_atom",
    "decomposes_to",
    "xas",
    "grain_boundaries",
    "cbm",
    "vbm",
    "is_gap_direct",
    "is_metal",
    "es_source_calc_id",
    "bandstructure",
    "dos",
    "dos_energy_up",
    "dos_energy_down",
    "is_magnetic",
    "ordering",
    "total_magnetization_normalized_vol",
    "total_magnetization_normalized_formula_units",
    "num_magnetic_sites",
    "num_unique_magnetic_sites",
    "types_of_magnetic_species",
    "bulk_modulus",
    "shear_modulus",
    "universal_anisotropy",
    "homogeneous_poisson",
    "e_total",
    "e_ionic",
    "e_electronic",
    "n",
    "e_ij_max",
    "weighted_surface_energy_EV_PER_ANG2",
    "weighted_surface_energy",
    "weighted_work_function",
    "surface_anisotropy",
    "shape_factor",
    "has_reconstructed",
    "possible_species",
    "has_props",
    "theoretical",
    "database_IDs"
  ]
}
