{"builder_meta": null, "nsites": null, "elements": null, "nelements": null, "composition": null, "composition_reduced": null, "formula_pretty": "Nd7Co3", "formula_anonymous": "A3B7", "chemsys": null, "volume": 526.3860073156026, "density": 7.485833296406429, "density_atomic": 26.31930036578013, "symmetry": null, "property_name": null, "material_id": "mp-1006282", "deprecated": null, "deprecation_reasons": null, "last_updated": null, "origins": null, "warnings": null, "structure": {"@module": "pymatgen.core.structure", "@class": "Structure", "charge": 0, "lattice": {"matrix": [[9.7298947, -0.00049286, 0.00084712], [-4.86537809, 8.4261257, -0.00082084], [0.0001635, -7.44e-05, 6.42067912]], "pbc": [true, true, true], "a": 9.729894749359387, "b": 9.729928003054845, "c": 6.420679122512788, "alpha": 90.00613813179841, "beta": 89.99355257368195, "gamma": 120.00571830172626, "volume": 526.3860073156026}, "properties": {}, "sites": [{"species": [{"element": "Nd", "occu": 1}], "abc": [0.33326625, 0.66667438, 0.00719334], "properties": {"magmom": 0.0}, "label": "Nd", "xyz": [-0.0009762259413695528, 5.6173173380610955, 0.0459212114486816]}, {"species": [{"element": "Nd", "occu": 1}], "abc": [0.66671271, 0.33325127, 0.50716], "properties": {"magmom": 0.0}, "label": "Nd", "xyz": [4.8657339565889615, 2.8076507619743882, 3.256602862197629]}, {"species": [{"element": "Nd", "occu": 1}], "abc": [0.53806889, 0.46192478000000003, 0.059509690000000004], "properties": {"magmom": 0.0}, "label": "Nd", "xyz": [2.9879246670401276, 3.891966640070785, 0.38216926660235445]}, {"species": [{"element": "Nd", "occu": 1}], "abc": [0.46196897000000003, 0.5380367500000001, 0.55953677], "properties": {"magmom": 0.0}, "label": "Nd", "xyz": [1.877248701964546, 4.533295971157234, 3.592555757079239]}, {"species": [{"element": "Nd", "occu": 1}], "abc": [0.5381007, 0.07629383, 0.05933628], "properties": {"magmom": 0.0}, "label": "Nd", "xyz": [4.864474521593885, 0.6425917787841972, 0.38137242489204043]}, {"species": [{"element": "Nd", "occu": 1}], "abc": [0.92372731, 0.46190718000000003, 0.05918325], "properties": {"magmom": 0.0}, "label": "Nd", "xyz": [6.740426061089945, 3.89162828893672, 0.380400013517956]}, {"species": [{"element": "Nd", "occu": 1}], "abc": [0.07632351, 0.53814625, 0.55929276], "properties": {"magmom": -0.0}, "label": "Nd", "xyz": [-1.8755738141650058, 4.534408719297143, 3.5906622693031127]}, {"species": [{"element": "Nd", "occu": 1}], "abc": [0.46186936, 0.92369011, 0.55914151], "properties": {"magmom": -0.0}, "label": "Nd", "xyz": [-6.996555041335739e-05, 7.782859737645714, 3.589701275364622]}, {"species": [{"element": "Nd", "occu": 1}], "abc": [0.12531476, 0.87471979, 0.25738178], "properties": {"magmom": 0.0}, "label": "Nd", "xyz": [-3.0365010000785992, 7.370417990980558, 1.651953972361501]}, {"species": [{"element": "Nd", "occu": 1}], "abc": [0.87471411, 0.12533295, 0.75730988], "properties": {"magmom": 0.0}, "label": "Nd", "xyz": [7.901207814184531, 1.0555837356004885, 4.863081843403891]}, {"species": [{"element": "Nd", "occu": 1}], "abc": [0.12530958, 0.25062549, 0.25717373], "properties": {"magmom": 0.0}, "label": "Nd", "xyz": [-9.670163543325215e-05, 2.1117209885589823, 1.6511304272477154]}, {"species": [{"element": "Nd", "occu": 1}], "abc": [0.7493525400000001, 0.8746923600000001, 0.25720262], "properties": {"magmom": 0.0}, "label": "Nd", "xyz": [3.0354543161715157, 7.36987931242186, 1.6513323008901968]}, {"species": [{"element": "Nd", "occu": 1}], "abc": [0.25061792, 0.1253158, 0.75719825], "properties": {"magmom": -0.0}, "label": "Nd", "xyz": [1.8289010257960767, 1.055746827898209, 4.861836432706658]}, {"species": [{"element": "Nd", "occu": 1}], "abc": [0.8746874800000001, 0.74935062, 0.75723384], "properties": {"magmom": -0.0}, "label": "Nd", "xyz": [4.864866795265281, 6.313635080823845, 4.8620813737405575]}, {"species": [{"element": "Co", "occu": 1}], "abc": [0.81369598, 0.18625015, 0.29069463], "properties": {"magmom": -0.0}, "label": "Co", "xyz": [7.011046332716097, 1.5689445096626802, 1.8669933577025772]}, {"species": [{"element": "Co", "occu": 1}], "abc": [0.18624273, 0.81370031, 0.79057336], "properties": {"magmom": 0.0}, "label": "Co", "xyz": [-2.146708249815317, 6.856190483939075, 5.07550771755922]}, {"species": [{"element": "Co", "occu": 1}], "abc": [0.8135823600000001, 0.62732043, 0.29120034], "properties": {"magmom": -0.0}, "label": "Co", "xyz": [4.863967228301703, 5.285458149850806, 1.8698782149619426]}, {"species": [{"element": "Co", "occu": 1}], "abc": [0.3727337, 0.18642698, 0.29121243], "properties": {"magmom": -0.0}, "label": "Co", "xyz": [2.7196695214968263, 1.570651795615212, 1.8699442922351426]}, {"species": [{"element": "Co", "occu": 1}], "abc": [0.62730799, 0.81359229, 0.79123734], "properties": {"magmom": 0.0}, "label": "Co", "xyz": [2.145335952514817, 6.855062861016806, 5.080144643951506]}, {"species": [{"element": "Co", "occu": 1}], "abc": [0.18640315000000002, 0.37274129, 0.7912332], "properties": {"magmom": 0.0}, "label": "Co", "xyz": [0.0002850822721688789, 3.140614224713564, 5.080106431166728]}]}, "task_ids": null, "uncorrected_energy_per_atom": null, "energy_per_atom": -24.50698135, "formation_energy_per_atom": 0.055894276750001005, "energy_above_hull": 0.064786025249999, "is_stable": false, "equilibrium_reaction_energy_per_atom": null, "decomposes_to": null, "xas": null, "grain_boundaries": null, "band_gap": 0.0, "cbm": null, "vbm": null, "efermi": 3.78303599, "is_gap_direct": null, "is_metal": null, "es_source_calc_id": null, "bandstructure": null, "dos": null, "dos_energy_up": null, "dos_energy_down": null, "is_magnetic": null, "ordering": null, "total_magnetization": 0.00036409999999900005, "total_magnetization_normalized_vol": null, "total_magnetization_normalized_formula_units": null, "num_magnetic_sites": null, "num_unique_magnetic_sites": null, "types_of_magnetic_species": null, "bulk_modulus": null, "shear_modulus": null, "universal_anisotropy": null, "homogeneous_poisson": null, "e_total": null, "e_ionic": null, "e_electronic": null, "n": null, "e_ij_max": null, "weighted_surface_energy_EV_PER_ANG2": null, "weighted_surface_energy": null, "weighted_work_function": null, "surface_anisotropy": null, "shape_factor": null, "has_reconstructed": null, "possible_species": null, "has_props": null, "theoretical": null, "database_IDs": null, "fields_not_requested": ["builder_meta", "nsites", "elements", "nelements", "composition", "composition_reduced", "chemsys", "symmetry", "property_name", "deprecated", "deprecation_reasons", "last_updated", "origins", "warnings", "task_ids", "uncorrected_energy_per_atom", "equilibrium_reaction_energy_per_atom", "decomposes_to", "xas", "grain_boundaries", "cbm", "vbm", "is_gap_direct", "is_metal", "es_source_calc_id", "bandstructure", "dos", "dos_energy_up", "dos_energy_down", "is_magnetic", "ordering", "total_magnetization_normalized_vol", "total_magnetization_normalized_formula_units", "num_magnetic_sites", "num_unique_magnetic_sites", "types_of_magnetic_species", "bulk_modulus", "shear_modulus", "universal_anisotropy", "homogeneous_poisson", "e_total", "e_ionic", "e_electronic", "n", "e_ij_max", "weighted_surface_energy_EV_PER_ANG2", "weighted_surface_energy", "weighted_work_function", "surface_anisotropy", "shape_factor", "has_reconstructed", "possible_species", "has_props", "theoretical", "database_IDs"]}