{
  "builder_meta": null,
  "nsites": null,
  "elements": null,
  "nelements": null,
  "composition": null,
  "composition_reduced": null,
  "formula_pretty": "Nd7Ni3",
  "formula_anonymous": "A3B7",
  "chemsys": null,
  "volume": 542.8168785829587,
  "density": 7.254838458253413,
  "density_atomic": 27.140843929147934,
  "symmetry": null,
  "property_name": null,
  "material_id": "mp-1105619",
  "deprecated": null,
  "deprecation_reasons": null,
  "last_updated": null,
  "origins": null,
  "warnings": null,
  "structure": {
    "@module": "pymatgen.core.structure",
    "@class": "Structure",
    "charge": 0,
    "lattice": {
      "matrix": [
        [0.0, 0.0, -6.35824],
        [-4.964206, -8.598776, 0.0],
        [-4.964206, 8.598776, 0.0]
      ],
      "pbc": [true, true, true],
      "a": 6.35824,
      "b": 9.928861460842931,
      "c": 9.928861460842931,
      "alpha": 120.00299489178924,
      "beta": 90.0,
      "gamma": 90.0,
      "volume": 542.8168785829587
    },
    "properties": {},
    "sites": [
      {
        "species": [{ "element": "Nd", "occu": 1 }],
        "abc": [0.464215999999999, 0.333312, 0.666688],
        "properties": { "magmom": 0.001 },
        "label": "Nd",
        "xyz": [-4.964206, 2.866625547776, -2.951596739839994]
      },
      {
        "species": [{ "element": "Nd", "occu": 1 }],
        "abc": [0.964216, 0.666688, 0.333312],
        "properties": { "magmom": 0.001 },
        "label": "Nd",
        "xyz": [-4.964206, -2.866625547776, -6.13071673984]
      },
      {
        "species": [{ "element": "Nd", "occu": 1 }],
        "abc": [0.250651, 0.125368999999999, 0.874630999999999],
        "properties": { "magmom": -0.001 },
        "label": "Nd",
        "xyz": [-4.96420599999999, 6.442736103312001, -1.5936992142400002]
      },
      {
        "species": [{ "element": "Nd", "occu": 1 }],
        "abc": [0.25065000000000004, 0.749278, 0.874624],
        "properties": { "magmom": 0.0 },
        "label": "Nd",
        "xyz": [-8.061384051811999, 1.0778221764959994, -1.5936928560000003]
      },
      {
        "species": [{ "element": "Nd", "occu": 1 }],
        "abc": [0.25065000000000004, 0.125376, 0.250722],
        "properties": { "magmom": 0.0 },
        "label": "Nd",
        "xyz": [-1.8670279481879999, 1.0778221764960003, -1.5936928560000003]
      },
      {
        "species": [{ "element": "Nd", "occu": 1 }],
        "abc": [0.750651, 0.874630999999999, 0.125368999999999],
        "properties": { "magmom": -0.001 },
        "label": "Nd",
        "xyz": [-4.96420599999999, -6.442736103312001, -4.77281921424]
      },
      {
        "species": [{ "element": "Nd", "occu": 1 }],
        "abc": [0.75065, 0.250722, 0.125376],
        "properties": { "magmom": 0.0 },
        "label": "Nd",
        "xyz": [-1.8670279481879999, -1.0778221764960003, -4.772812856000001]
      },
      {
        "species": [{ "element": "Nd", "occu": 1 }],
        "abc": [0.75065, 0.874624, 0.749278],
        "properties": { "magmom": 0.0 },
        "label": "Nd",
        "xyz": [-8.061384051811999, -1.0778221764959994, -4.772812856000001]
      },
      {
        "species": [{ "element": "Nd", "occu": 1 }],
        "abc": [0.435577, 0.539343999999999, 0.460655999999999],
        "properties": { "magmom": 0.001 },
        "label": "Nd",
        "xyz": [-4.96420599999999, -0.6766204858880003, -2.76950310448]
      },
      {
        "species": [{ "element": "Nd", "occu": 1 }],
        "abc": [0.435531, 0.921341, 0.460684],
        "properties": { "magmom": 0.001 },
        "label": "Nd",
        "xyz": [-6.86065679715, -3.961086355832, -2.76921062544]
      },
      {
        "species": [{ "element": "Nd", "occu": 1 }],
        "abc": [0.435531, 0.539316, 0.07865899999999901],
        "properties": { "magmom": 0.001 },
        "label": "Nd",
        "xyz": [-3.067755202849995, -3.961086355832009, -2.76921062544]
      },
      {
        "species": [{ "element": "Nd", "occu": 1 }],
        "abc": [0.935577, 0.460655999999999, 0.539343999999999],
        "properties": { "magmom": 0.001 },
        "label": "Nd",
        "xyz": [-4.96420599999999, 0.6766204858880003, -5.94862310448]
      },
      {
        "species": [{ "element": "Nd", "occu": 1 }],
        "abc": [0.935531, 0.07865899999999901, 0.539316],
        "properties": { "magmom": 0.001 },
        "label": "Nd",
        "xyz": [-3.067755202849995, 3.961086355832009, -5.948330625440001]
      },
      {
        "species": [{ "element": "Nd", "occu": 1 }],
        "abc": [0.935531, 0.460684, 0.921341],
        "properties": { "magmom": 0.001 },
        "label": "Nd",
        "xyz": [-6.86065679715, 3.961086355832, -5.948330625440001]
      },
      {
        "species": [{ "element": "Ni", "occu": 1 }],
        "abc": [0.190090999999999, 0.811792, 0.188208],
        "properties": { "magmom": -0.001 },
        "label": "Ni",
        "xyz": [-4.964206, -5.362059133184, -1.2086441998399937]
      },
      {
        "species": [{ "element": "Ni", "occu": 1 }],
        "abc": [0.190051, 0.376393, 0.188199],
        "properties": { "magmom": -0.0 },
        "label": "Ni",
        "xyz": [-2.802750993952, -1.618238050544, -1.20838987024]
      },
      {
        "species": [{ "element": "Ni", "occu": 1 }],
        "abc": [0.190051, 0.811801, 0.623607],
        "properties": { "magmom": -0.0 },
        "label": "Ni",
        "xyz": [-7.125661006048, -1.618238050544, -1.20838987024]
      },
      {
        "species": [{ "element": "Ni", "occu": 1 }],
        "abc": [0.690091, 0.188208, 0.811792],
        "properties": { "magmom": -0.001 },
        "label": "Ni",
        "xyz": [-4.964206, 5.362059133184, -4.38776419984]
      },
      {
        "species": [{ "element": "Ni", "occu": 1 }],
        "abc": [0.690051, 0.623607, 0.811801],
        "properties": { "magmom": -0.0 },
        "label": "Ni",
        "xyz": [-7.125661006048, 1.618238050544, -4.38750987024]
      },
      {
        "species": [{ "element": "Ni", "occu": 1 }],
        "abc": [0.690051, 0.188199, 0.376393],
        "properties": { "magmom": -0.0 },
        "label": "Ni",
        "xyz": [-2.802750993952, 1.618238050544, -4.38750987024]
      }
    ]
  },
  "task_ids": null,
  "uncorrected_energy_per_atom": null,
  "energy_per_atom": -5.2693731735,
  "formation_energy_per_atom": -0.19762896674999902,
  "energy_above_hull": 0.0016086035000010001,
  "is_stable": false,
  "equilibrium_reaction_energy_per_atom": null,
  "decomposes_to": null,
  "xas": null,
  "grain_boundaries": null,
  "band_gap": 0.0,
  "cbm": null,
  "vbm": null,
  "efermi": 4.04439442,
  "is_gap_direct": null,
  "is_metal": null,
  "es_source_calc_id": null,
  "bandstructure": null,
  "dos": null,
  "dos_energy_up": null,
  "dos_energy_down": null,
  "is_magnetic": null,
  "ordering": null,
  "total_magnetization": 0.0213555,
  "total_magnetization_normalized_vol": null,
  "total_magnetization_normalized_formula_units": null,
  "num_magnetic_sites": null,
  "num_unique_magnetic_sites": null,
  "types_of_magnetic_species": null,
  "bulk_modulus": null,
  "shear_modulus": null,
  "universal_anisotropy": null,
  "homogeneous_poisson": null,
  "e_total": null,
  "e_ionic": null,
  "e_electronic": null,
  "n": null,
  "e_ij_max": null,
  "weighted_surface_energy_EV_PER_ANG2": null,
  "weighted_surface_energy": null,
  "weighted_work_function": null,
  "surface_anisotropy": null,
  "shape_factor": null,
  "has_reconstructed": null,
  "possible_species": null,
  "has_props": null,
  "theoretical": null,
  "database_IDs": null,
  "fields_not_requested": [
    "builder_meta",
    "nsites",
    "elements",
    "nelements",
    "composition",
    "composition_reduced",
    "chemsys",
    "symmetry",
    "property_name",
    "deprecated",
    "deprecation_reasons",
    "last_updated",
    "origins",
    "warnings",
    "task_ids",
    "uncorrected_energy_per_atom",
    "equilibrium_reaction_energy_per_atom",
    "decomposes_to",
    "xas",
    "grain_boundaries",
    "cbm",
    "vbm",
    "is_gap_direct",
    "is_metal",
    "es_source_calc_id",
    "bandstructure",
    "dos",
    "dos_energy_up",
    "dos_energy_down",
    "is_magnetic",
    "ordering",
    "total_magnetization_normalized_vol",
    "total_magnetization_normalized_formula_units",
    "num_magnetic_sites",
    "num_unique_magnetic_sites",
    "types_of_magnetic_species",
    "bulk_modulus",
    "shear_modulus",
    "universal_anisotropy",
    "homogeneous_poisson",
    "e_total",
    "e_ionic",
    "e_electronic",
    "n",
    "e_ij_max",
    "weighted_surface_energy_EV_PER_ANG2",
    "weighted_surface_energy",
    "weighted_work_function",
    "surface_anisotropy",
    "shape_factor",
    "has_reconstructed",
    "possible_species",
    "has_props",
    "theoretical",
    "database_IDs"
  ]
}
