{"builder_meta": null, "nsites": null, "elements": null, "nelements": null, "composition": null, "composition_reduced": null, "formula_pretty": "Nd7Pd3", "formula_anonymous": "A3B7", "chemsys": null, "volume": 584.9874599179078, "density": 7.544708855892455, "density_atomic": 29.249372995895392, "symmetry": null, "property_name": null, "material_id": "mp-1106115", "deprecated": null, "deprecation_reasons": null, "last_updated": null, "origins": null, "warnings": null, "structure": {"@module": "pymatgen.core.structure", "@class": "Structure", "charge": 0, "lattice": {"matrix": [[0.0, 0.0, -6.501313], [-5.114491, -8.796564, 0.0], [-5.114491, 8.796564, 0.0]], "pbc": [true, true, true], "a": 6.501313, "b": 10.175340603398837, "c": 10.175340603398837, "alpha": 119.65091926875608, "beta": 90.0, "gamma": 90.0, "volume": 584.9874599179078}, "properties": {}, "sites": [{"species": [{"element": "Nd", "occu": 1}], "abc": [0.450721, 0.33348099999999903, 0.666519], "properties": {"magmom": 0.0}, "label": "Nd", "xyz": [-5.114490999999995, 2.9295900814320084, -2.930278296673]}, {"species": [{"element": "Nd", "occu": 1}], "abc": [0.950720999999999, 0.666519, 0.33348099999999903], "properties": {"magmom": 0.0}, "label": "Nd", "xyz": [-5.114490999999995, -2.9295900814320084, -6.180934796672993]}, {"species": [{"element": "Nd", "occu": 1}], "abc": [0.245147999999999, 0.126685, 0.873315], "properties": {"magmom": -0.0}, "label": "Nd", "xyz": [-5.114491, 6.56777857932, -1.5937838793239933]}, {"species": [{"element": "Nd", "occu": 1}], "abc": [0.244362, 0.746941, 0.873367999999999], "properties": {"magmom": -0.0}, "label": "Nd", "xyz": [-8.287055797718995, 1.1121231968279917, -1.5886738473059998]}, {"species": [{"element": "Nd", "occu": 1}], "abc": [0.244362, 0.126632, 0.253059], "properties": {"magmom": -0.0}, "label": "Nd", "xyz": [-1.941926202281, 1.112123196828, -1.5886738473059998]}, {"species": [{"element": "Nd", "occu": 1}], "abc": [0.745147999999999, 0.873315, 0.126685], "properties": {"magmom": -0.0}, "label": "Nd", "xyz": [-5.114491, -6.56777857932, -4.844440379323993]}, {"species": [{"element": "Nd", "occu": 1}], "abc": [0.744362, 0.253059, 0.126632], "properties": {"magmom": -0.0}, "label": "Nd", "xyz": [-1.941926202281, -1.112123196828, -4.839330347305999]}, {"species": [{"element": "Nd", "occu": 1}], "abc": [0.744362, 0.873367999999999, 0.746941], "properties": {"magmom": -0.0}, "label": "Nd", "xyz": [-8.287055797718995, -1.1121231968279917, -4.839330347305999]}, {"species": [{"element": "Nd", "occu": 1}], "abc": [0.446152999999999, 0.538393999999999, 0.461605999999999], "properties": {"magmom": 0.0}, "label": "Nd", "xyz": [-5.11449099999999, -0.6754705564320007, -2.9005802988889937]}, {"species": [{"element": "Nd", "occu": 1}], "abc": [0.44521000000000005, 0.923366999999999, 0.461665], "properties": {"magmom": 0.0}, "label": "Nd", "xyz": [-7.083733698711995, -4.061391191927992, -2.89444956073]}, {"species": [{"element": "Nd", "occu": 1}], "abc": [0.44521000000000005, 0.538335, 0.07663299999999901], "properties": {"magmom": 0.0}, "label": "Nd", "xyz": [-3.145248301287995, -4.061391191928009, -2.89444956073]}, {"species": [{"element": "Nd", "occu": 1}], "abc": [0.946152999999999, 0.461605999999999, 0.538393999999999], "properties": {"magmom": 0.0}, "label": "Nd", "xyz": [-5.11449099999999, 0.6754705564320007, -6.151236798888993]}, {"species": [{"element": "Nd", "occu": 1}], "abc": [0.9452100000000001, 0.07663299999999901, 0.538335], "properties": {"magmom": 0.0}, "label": "Nd", "xyz": [-3.145248301287995, 4.061391191928009, -6.145106060730001]}, {"species": [{"element": "Nd", "occu": 1}], "abc": [0.9452100000000001, 0.461665, 0.923366999999999], "properties": {"magmom": 0.0}, "label": "Nd", "xyz": [-7.083733698711995, 4.061391191927992, -6.145106060730001]}, {"species": [{"element": "Pd", "occu": 1}], "abc": [0.190674999999999, 0.810901, 0.189099], "properties": {"magmom": 0.0}, "label": "Pd", "xyz": [-5.114491, -5.469721088328, -1.2396378562749935]}, {"species": [{"element": "Pd", "occu": 1}], "abc": [0.19058000000000003, 0.377824999999999, 0.18882000000000002], "properties": {"magmom": 0.0}, "label": "Pd", "xyz": [-2.898100752694995, -1.6625945788199912, -1.23902023154]}, {"species": [{"element": "Pd", "occu": 1}], "abc": [0.19058000000000003, 0.81118, 0.622174999999999], "properties": {"magmom": 0.0}, "label": "Pd", "xyz": [-7.330881247304996, -1.6625945788200083, -1.23902023154]}, {"species": [{"element": "Pd", "occu": 1}], "abc": [0.690674999999999, 0.189099, 0.810901], "properties": {"magmom": 0.0}, "label": "Pd", "xyz": [-5.114491, 5.469721088328, -4.490294356274994]}, {"species": [{"element": "Pd", "occu": 1}], "abc": [0.6905800000000001, 0.622174999999999, 0.81118], "properties": {"magmom": 0.0}, "label": "Pd", "xyz": [-7.330881247304996, 1.6625945788200083, -4.48967673154]}, {"species": [{"element": "Pd", "occu": 1}], "abc": [0.6905800000000001, 0.18882000000000002, 0.377824999999999], "properties": {"magmom": 0.0}, "label": "Pd", "xyz": [-2.898100752694995, 1.6625945788199912, -4.48967673154]}]}, "task_ids": null, "uncorrected_energy_per_atom": null, "energy_per_atom": -5.3849575585, "formation_energy_per_atom": -0.49328981274999806, "energy_above_hull": 0.0, "is_stable": true, "equilibrium_reaction_energy_per_atom": null, "decomposes_to": null, "xas": null, "grain_boundaries": null, "band_gap": 0.0, "cbm": null, "vbm": null, "efermi": 3.75216194, "is_gap_direct": null, "is_metal": null, "es_source_calc_id": null, "bandstructure": null, "dos": null, "dos_energy_up": null, "dos_energy_down": null, "is_magnetic": null, "ordering": null, "total_magnetization": 0.003609, "total_magnetization_normalized_vol": null, "total_magnetization_normalized_formula_units": null, "num_magnetic_sites": null, "num_unique_magnetic_sites": null, "types_of_magnetic_species": null, "bulk_modulus": null, "shear_modulus": null, "universal_anisotropy": null, "homogeneous_poisson": null, "e_total": null, "e_ionic": null, "e_electronic": null, "n": null, "e_ij_max": null, "weighted_surface_energy_EV_PER_ANG2": null, "weighted_surface_energy": null, "weighted_work_function": null, "surface_anisotropy": null, "shape_factor": null, "has_reconstructed": null, "possible_species": null, "has_props": null, "theoretical": null, "database_IDs": null, "fields_not_requested": ["builder_meta", "nsites", "elements", "nelements", "composition", "composition_reduced", "chemsys", "symmetry", "property_name", "deprecated", "deprecation_reasons", "last_updated", "origins", "warnings", "task_ids", "uncorrected_energy_per_atom", "equilibrium_reaction_energy_per_atom", "decomposes_to", "xas", "grain_boundaries", "cbm", "vbm", "is_gap_direct", "is_metal", "es_source_calc_id", "bandstructure", "dos", "dos_energy_up", "dos_energy_down", "is_magnetic", "ordering", "total_magnetization_normalized_vol", "total_magnetization_normalized_formula_units", "num_magnetic_sites", "num_unique_magnetic_sites", "types_of_magnetic_species", "bulk_modulus", "shear_modulus", "universal_anisotropy", "homogeneous_poisson", "e_total", "e_ionic", "e_electronic", "n", "e_ij_max", "weighted_surface_energy_EV_PER_ANG2", "weighted_surface_energy", "weighted_work_function", "surface_anisotropy", "shape_factor", "has_reconstructed", "possible_species", "has_props", "theoretical", "database_IDs"]}