{"builder_meta": null, "nsites": null, "elements": null, "nelements": null, "composition": null, "composition_reduced": null, "formula_pretty": "Nd7Pt3", "formula_anonymous": "A3B7", "chemsys": null, "volume": 586.420345979888, "density": 9.032667983890981, "density_atomic": 29.3210172989944, "symmetry": null, "property_name": null, "material_id": "mp-1105567", "deprecated": null, "deprecation_reasons": null, "last_updated": null, "origins": null, "warnings": null, "structure": {"@module": "pymatgen.core.structure", "@class": "Structure", "charge": 0, "lattice": {"matrix": [[0.0, 0.0, -6.52263], [-5.08747, -8.835974, 0.0], [-5.08747, 8.835974, 0.0]], "pbc": [true, true, true], "a": 6.52263, "b": 10.195920141388711, "c": 10.195920141388711, "alpha": 120.13608968958043, "beta": 90.0, "gamma": 90.0, "volume": 586.420345979888}, "properties": {}, "sites": [{"species": [{"element": "Nd", "occu": 1}], "abc": [0.456522, 0.333277999999999, 0.666721999999999], "properties": {"magmom": 0.0}, "label": "Nd", "xyz": [-5.08746999999999, 2.946302514456, -2.97772409286]}, {"species": [{"element": "Nd", "occu": 1}], "abc": [0.956522, 0.666721999999999, 0.333277999999999], "properties": {"magmom": 0.0}, "label": "Nd", "xyz": [-5.08746999999999, -2.946302514456, -6.239039092860001]}, {"species": [{"element": "Nd", "occu": 1}], "abc": [0.247868999999999, 0.12703, 0.87297], "properties": {"magmom": -0.0}, "label": "Nd", "xyz": [-5.08747, 6.59110644556, -1.6167577754699936]}, {"species": [{"element": "Nd", "occu": 1}], "abc": [0.248388, 0.745665999999999, 0.872772999999999], "properties": {"magmom": -0.0}, "label": "Nd", "xyz": [-8.23375985932999, 1.1231141472179997, -1.62014302044]}, {"species": [{"element": "Nd", "occu": 1}], "abc": [0.248388, 0.127227, 0.254334], "properties": {"magmom": -0.0}, "label": "Nd", "xyz": [-1.94118014067, 1.1231141472180002, -1.62014302044]}, {"species": [{"element": "Nd", "occu": 1}], "abc": [0.747869, 0.87297, 0.12703], "properties": {"magmom": -0.0}, "label": "Nd", "xyz": [-5.08747, -6.59110644556, -4.878072775470001]}, {"species": [{"element": "Nd", "occu": 1}], "abc": [0.748387999999999, 0.254334, 0.127227], "properties": {"magmom": -0.0}, "label": "Nd", "xyz": [-1.94118014067, -1.1231141472180002, -4.881458020439994]}, {"species": [{"element": "Nd", "occu": 1}], "abc": [0.748387999999999, 0.872772999999999, 0.745665999999999], "properties": {"magmom": -0.0}, "label": "Nd", "xyz": [-8.23375985932999, -1.1231141472179997, -4.881458020439994]}, {"species": [{"element": "Nd", "occu": 1}], "abc": [0.441785999999999, 0.537736, 0.462263999999999], "properties": {"magmom": 0.0}, "label": "Nd", "xyz": [-5.087469999999994, -0.6668686297280093, -2.881606617179994]}, {"species": [{"element": "Nd", "occu": 1}], "abc": [0.442075999999999, 0.924860999999999, 0.462296999999999], "properties": {"magmom": 0.0}, "label": "Nd", "xyz": [-7.057124710259989, -4.087203477336, -2.883498179879994]}, {"species": [{"element": "Nd", "occu": 1}], "abc": [0.442075999999999, 0.537702999999999, 0.075139], "properties": {"magmom": 0.0}, "label": "Nd", "xyz": [-3.117815289739995, -4.087203477335992, -2.883498179879994]}, {"species": [{"element": "Nd", "occu": 1}], "abc": [0.941786, 0.462263999999999, 0.537736], "properties": {"magmom": 0.0}, "label": "Nd", "xyz": [-5.087469999999994, 0.6668686297280093, -6.142921617180001]}, {"species": [{"element": "Nd", "occu": 1}], "abc": [0.942075999999999, 0.075139, 0.537702999999999], "properties": {"magmom": 0.0}, "label": "Nd", "xyz": [-3.117815289739995, 4.087203477335992, -6.144813179879994]}, {"species": [{"element": "Nd", "occu": 1}], "abc": [0.942075999999999, 0.462296999999999, 0.924860999999999], "properties": {"magmom": 0.0}, "label": "Nd", "xyz": [-7.057124710259989, 4.087203477336, -6.144813179879994]}, {"species": [{"element": "Pt", "occu": 1}], "abc": [0.18847000000000003, 0.810952999999999, 0.189047], "properties": {"magmom": -0.0}, "label": "Pt", "xyz": [-5.087469999999995, -5.495145246443991, -1.2293200761000003]}, {"species": [{"element": "Pt", "occu": 1}], "abc": [0.188712, 0.378071999999999, 0.188847], "properties": {"magmom": -0.0}, "label": "Pt", "xyz": [-2.8841834049299946, -1.6719871801499913, -1.23089855256]}, {"species": [{"element": "Pt", "occu": 1}], "abc": [0.188712, 0.811153, 0.621927999999999], "properties": {"magmom": -0.0}, "label": "Pt", "xyz": [-7.290756595069995, -1.6719871801500092, -1.23089855256]}, {"species": [{"element": "Pt", "occu": 1}], "abc": [0.68847, 0.189047, 0.810952999999999], "properties": {"magmom": -0.0}, "label": "Pt", "xyz": [-5.087469999999995, 5.495145246443991, -4.4906350761]}, {"species": [{"element": "Pt", "occu": 1}], "abc": [0.688712, 0.621927999999999, 0.811153], "properties": {"magmom": -0.0}, "label": "Pt", "xyz": [-7.290756595069995, 1.6719871801500092, -4.49221355256]}, {"species": [{"element": "Pt", "occu": 1}], "abc": [0.688712, 0.188847, 0.378071999999999], "properties": {"magmom": -0.0}, "label": "Pt", "xyz": [-2.8841834049299946, 1.6719871801499913, -4.49221355256]}]}, "task_ids": null, "uncorrected_energy_per_atom": null, "energy_per_atom": -5.89740768, "formation_energy_per_atom": -0.7383644812499981, "energy_above_hull": 0.0, "is_stable": true, "equilibrium_reaction_energy_per_atom": null, "decomposes_to": null, "xas": null, "grain_boundaries": null, "band_gap": 0.0, "cbm": null, "vbm": null, "efermi": 4.08481441, "is_gap_direct": null, "is_metal": null, "es_source_calc_id": null, "bandstructure": null, "dos": null, "dos_energy_up": null, "dos_energy_down": null, "is_magnetic": null, "ordering": null, "total_magnetization": 0.0021391, "total_magnetization_normalized_vol": null, "total_magnetization_normalized_formula_units": null, "num_magnetic_sites": null, "num_unique_magnetic_sites": null, "types_of_magnetic_species": null, "bulk_modulus": null, "shear_modulus": null, "universal_anisotropy": null, "homogeneous_poisson": null, "e_total": null, "e_ionic": null, "e_electronic": null, "n": null, "e_ij_max": null, "weighted_surface_energy_EV_PER_ANG2": null, "weighted_surface_energy": null, "weighted_work_function": null, "surface_anisotropy": null, "shape_factor": null, "has_reconstructed": null, "possible_species": null, "has_props": null, "theoretical": null, "database_IDs": null, "fields_not_requested": ["builder_meta", "nsites", "elements", "nelements", "composition", "composition_reduced", "chemsys", "symmetry", "property_name", "deprecated", "deprecation_reasons", "last_updated", "origins", "warnings", "task_ids", "uncorrected_energy_per_atom", "equilibrium_reaction_energy_per_atom", "decomposes_to", "xas", "grain_boundaries", "cbm", "vbm", "is_gap_direct", "is_metal", "es_source_calc_id", "bandstructure", "dos", "dos_energy_up", "dos_energy_down", "is_magnetic", "ordering", "total_magnetization_normalized_vol", "total_magnetization_normalized_formula_units", "num_magnetic_sites", "num_unique_magnetic_sites", "types_of_magnetic_species", "bulk_modulus", "shear_modulus", "universal_anisotropy", "homogeneous_poisson", "e_total", "e_ionic", "e_electronic", "n", "e_ij_max", "weighted_surface_energy_EV_PER_ANG2", "weighted_surface_energy", "weighted_work_function", "surface_anisotropy", "shape_factor", "has_reconstructed", "possible_species", "has_props", "theoretical", "database_IDs"]}