{"builder_meta": null, "nsites": null, "elements": null, "nelements": null, "composition": null, "composition_reduced": null, "formula_pretty": "Nd7Rh3", "formula_anonymous": "A3B7", "chemsys": null, "volume": 566.7869258302134, "density": 7.725203392293693, "density_atomic": 28.33934629151067, "symmetry": null, "property_name": null, "material_id": "mp-1189498", "deprecated": null, "deprecation_reasons": null, "last_updated": null, "origins": null, "warnings": null, "structure": {"@module": "pymatgen.core.structure", "@class": "Structure", "charge": 0, "lattice": {"matrix": [[0.0, 0.0, -6.322683], [-5.086604, -8.811716, 0.0], [-5.086604, 8.811716, 0.0]], "pbc": [true, true, true], "a": 6.322683, "b": 10.174471933101591, "c": 10.174471933101591, "alpha": 120.00821855033546, "beta": 90.0, "gamma": 90.0, "volume": 566.7869258302134}, "properties": {}, "sites": [{"species": [{"element": "Nd", "occu": 1}], "abc": [0.464995999999999, 0.333329, 0.666671], "properties": {"magmom": 0.001}, "label": "Nd", "xyz": [-5.086604, 2.9373150348720003, -2.940022304267994]}, {"species": [{"element": "Nd", "occu": 1}], "abc": [0.964996, 0.666671, 0.333329], "properties": {"magmom": 0.001}, "label": "Nd", "xyz": [-5.086604, -2.9373150348720003, -6.101363804267999]}, {"species": [{"element": "Nd", "occu": 1}], "abc": [0.25197, 0.125585, 0.874414999999999], "properties": {"magmom": 0.0}, "label": "Nd", "xyz": [-5.086603999999996, 6.598477292279992, -1.59312643551]}, {"species": [{"element": "Nd", "occu": 1}], "abc": [0.252046, 0.748836, 0.874416], "properties": {"magmom": 0.0}, "label": "Nd", "xyz": [-8.256840116208, 1.1065752952799999, -1.5936069594179998]}, {"species": [{"element": "Nd", "occu": 1}], "abc": [0.252046, 0.125584, 0.251164], "properties": {"magmom": 0.0}, "label": "Nd", "xyz": [-1.9163678837920002, 1.10657529528, -1.5936069594179998]}, {"species": [{"element": "Nd", "occu": 1}], "abc": [0.75197, 0.874414999999999, 0.125585], "properties": {"magmom": 0.0}, "label": "Nd", "xyz": [-5.086603999999996, -6.598477292279992, -4.75446793551]}, {"species": [{"element": "Nd", "occu": 1}], "abc": [0.752046, 0.251164, 0.125584], "properties": {"magmom": 0.0}, "label": "Nd", "xyz": [-1.9163678837920002, -1.10657529528, -4.754948459417999]}, {"species": [{"element": "Nd", "occu": 1}], "abc": [0.752046, 0.874416, 0.748836], "properties": {"magmom": 0.0}, "label": "Nd", "xyz": [-8.256840116208, -1.1065752952799999, -4.754948459417999]}, {"species": [{"element": "Nd", "occu": 1}], "abc": [0.441932, 0.541821, 0.458179], "properties": {"magmom": -0.003}, "label": "Nd", "xyz": [-5.086604, -0.7370295496720001, -2.7941959435559998]}, {"species": [{"element": "Nd", "occu": 1}], "abc": [0.441841, 0.916388, 0.458235], "properties": {"magmom": 0.003}, "label": "Nd", "xyz": [-6.992162850292001, -4.037114120548001, -2.7936205794029996]}, {"species": [{"element": "Nd", "occu": 1}], "abc": [0.441841, 0.541764999999999, 0.083611999999999], "properties": {"magmom": 0.003}, "label": "Nd", "xyz": [-3.1810451497079906, -4.037114120548001, -2.7936205794029996]}, {"species": [{"element": "Nd", "occu": 1}], "abc": [0.941932, 0.458179, 0.541821], "properties": {"magmom": -0.003}, "label": "Nd", "xyz": [-5.086604, 0.7370295496720001, -5.955537443556]}, {"species": [{"element": "Nd", "occu": 1}], "abc": [0.941840999999999, 0.083611999999999, 0.541764999999999], "properties": {"magmom": 0.003}, "label": "Nd", "xyz": [-3.1810451497079906, 4.037114120548001, -5.954962079402994]}, {"species": [{"element": "Nd", "occu": 1}], "abc": [0.941840999999999, 0.458235, 0.916388], "properties": {"magmom": 0.003}, "label": "Nd", "xyz": [-6.992162850292001, 4.037114120548001, -5.954962079402994]}, {"species": [{"element": "Rh", "occu": 1}], "abc": [0.18202000000000002, 0.811323, 0.188676999999999], "properties": {"magmom": -0.0}, "label": "Rh", "xyz": [-5.086603999999996, -5.486579720536009, -1.15085475966]}, {"species": [{"element": "Rh", "occu": 1}], "abc": [0.182153999999999, 0.3774, 0.188722], "properties": {"magmom": -0.0}, "label": "Rh", "xyz": [-2.879638429688, -1.6625769514480002, -1.1517019991819937]}, {"species": [{"element": "Rh", "occu": 1}], "abc": [0.182153999999999, 0.811277999999999, 0.6226], "properties": {"magmom": -0.0}, "label": "Rh", "xyz": [-7.293569570311996, -1.6625769514479911, -1.1517019991819937]}, {"species": [{"element": "Rh", "occu": 1}], "abc": [0.6820200000000001, 0.188676999999999, 0.811323], "properties": {"magmom": -0.0}, "label": "Rh", "xyz": [-5.086603999999996, 5.486579720536009, -4.31219625966]}, {"species": [{"element": "Rh", "occu": 1}], "abc": [0.682153999999999, 0.6226, 0.811277999999999], "properties": {"magmom": -0.0}, "label": "Rh", "xyz": [-7.293569570311996, 1.6625769514479911, -4.313043499181994]}, {"species": [{"element": "Rh", "occu": 1}], "abc": [0.682153999999999, 0.188722, 0.3774], "properties": {"magmom": -0.0}, "label": "Rh", "xyz": [-2.879638429688, 1.6625769514480002, -4.313043499181994]}]}, "task_ids": null, "uncorrected_energy_per_atom": null, "energy_per_atom": -6.043823565999999, "formation_energy_per_atom": -0.496828002249998, "energy_above_hull": 0.0, "is_stable": true, "equilibrium_reaction_energy_per_atom": null, "decomposes_to": null, "xas": null, "grain_boundaries": null, "band_gap": 0.0, "cbm": null, "vbm": null, "efermi": 3.97756068, "is_gap_direct": null, "is_metal": null, "es_source_calc_id": null, "bandstructure": null, "dos": null, "dos_energy_up": null, "dos_energy_down": null, "is_magnetic": null, "ordering": null, "total_magnetization": 0.0187049, "total_magnetization_normalized_vol": null, "total_magnetization_normalized_formula_units": null, "num_magnetic_sites": null, "num_unique_magnetic_sites": null, "types_of_magnetic_species": null, "bulk_modulus": null, "shear_modulus": null, "universal_anisotropy": null, "homogeneous_poisson": null, "e_total": null, "e_ionic": null, "e_electronic": null, "n": null, "e_ij_max": null, "weighted_surface_energy_EV_PER_ANG2": null, "weighted_surface_energy": null, "weighted_work_function": null, "surface_anisotropy": null, "shape_factor": null, "has_reconstructed": null, "possible_species": null, "has_props": null, "theoretical": null, "database_IDs": null, "fields_not_requested": ["builder_meta", "nsites", "elements", "nelements", "composition", "composition_reduced", "chemsys", "symmetry", "property_name", "deprecated", "deprecation_reasons", "last_updated", "origins", "warnings", "task_ids", "uncorrected_energy_per_atom", "equilibrium_reaction_energy_per_atom", "decomposes_to", "xas", "grain_boundaries", "cbm", "vbm", "is_gap_direct", "is_metal", "es_source_calc_id", "bandstructure", "dos", "dos_energy_up", "dos_energy_down", "is_magnetic", "ordering", "total_magnetization_normalized_vol", "total_magnetization_normalized_formula_units", "num_magnetic_sites", "num_unique_magnetic_sites", "types_of_magnetic_species", "bulk_modulus", "shear_modulus", "universal_anisotropy", "homogeneous_poisson", "e_total", "e_ionic", "e_electronic", "n", "e_ij_max", "weighted_surface_energy_EV_PER_ANG2", "weighted_surface_energy", "weighted_work_function", "surface_anisotropy", "shape_factor", "has_reconstructed", "possible_species", "has_props", "theoretical", "database_IDs"]}