{
  "builder_meta": null,
  "nsites": null,
  "elements": null,
  "nelements": null,
  "composition": null,
  "composition_reduced": null,
  "formula_pretty": "NdAg2",
  "formula_anonymous": "AB2",
  "chemsys": null,
  "volume": 139.51341176107775,
  "density": 8.569186127507884,
  "density_atomic": 23.252235293512957,
  "symmetry": null,
  "property_name": null,
  "material_id": "mp-1072737",
  "deprecated": null,
  "deprecation_reasons": null,
  "last_updated": null,
  "origins": null,
  "warnings": null,
  "structure": {
    "@module": "pymatgen.core.structure",
    "@class": "Structure",
    "charge": 0,
    "lattice": {
      "matrix": [
        [-4.7709696600000004, -0.0, -2e-8],
        [-2.38548329, -3.58388463, 4.07967237],
        [-2.38548329, 3.58388463, 4.07967237]
      ],
      "pbc": [true, true, true],
      "a": 4.7709696600000004,
      "b": 5.931145438661986,
      "c": 5.931145438661986,
      "alpha": 74.34954096718016,
      "beta": 66.28446380274694,
      "gamma": 66.28446380274694,
      "volume": 139.5134117610778
    },
    "properties": {},
    "sites": [
      {
        "species": [{ "element": "Nd", "occu": 1 }],
        "abc": [0.53717202, 0.71282798, 0.21282798],
        "properties": { "magmom": -0.0 },
        "label": "Nd",
        "xyz": [-4.770968234489822, -1.791942315, 3.7763730333943846]
      },
      {
        "species": [{ "element": "Nd", "occu": 1 }],
        "abc": [0.46282798, 0.28717202000000003, 0.78717202],
        "properties": { "magmom": -0.0 },
        "label": "Nd",
        "xyz": [-4.770968005510179, 1.7919423149999998, 4.382971686605615]
      },
      {
        "species": [{ "element": "Ag", "occu": 1 }],
        "abc": [0.16536566, 0.29299373, 0.37627295],
        "properties": { "magmom": 0.0 },
        "label": "Ag",
        "xyz": [-2.3854790283596525, 0.29846311655638846, 2.7303887792503185]
      },
      {
        "species": [{ "element": "Ag", "occu": 1 }],
        "abc": [0.83463434, 0.70700627, 0.6237270500000001],
        "properties": { "magmom": 0.0 },
        "label": "Ag",
        "xyz": [-7.1564572116403475, -0.29846311655638846, 5.428955940749683]
      },
      {
        "species": [{ "element": "Ag", "occu": 1 }],
        "abc": [0.83463434, 0.12372705, 0.20700627],
        "properties": { "magmom": 0.0 },
        "label": "Ag",
        "xyz": [-4.770973921640348, 0.2984631165563886, 1.3492835707496815]
      },
      {
        "species": [{ "element": "Ag", "occu": 1 }],
        "abc": [0.16536566, 0.87627295, 0.7929937300000001],
        "properties": { "magmom": 0.0 },
        "label": "Ag",
        "xyz": [-4.770962318359652, -0.29846311655638846, 6.810061149250319]
      }
    ]
  },
  "task_ids": null,
  "uncorrected_energy_per_atom": null,
  "energy_per_atom": -24.33389325,
  "formation_energy_per_atom": -0.290638825833331,
  "energy_above_hull": 0.0,
  "is_stable": true,
  "equilibrium_reaction_energy_per_atom": null,
  "decomposes_to": null,
  "xas": null,
  "grain_boundaries": null,
  "band_gap": 0.0,
  "cbm": null,
  "vbm": null,
  "efermi": 3.35160334,
  "is_gap_direct": null,
  "is_metal": null,
  "es_source_calc_id": null,
  "bandstructure": null,
  "dos": null,
  "dos_energy_up": null,
  "dos_energy_down": null,
  "is_magnetic": null,
  "ordering": null,
  "total_magnetization": 5e-7,
  "total_magnetization_normalized_vol": null,
  "total_magnetization_normalized_formula_units": null,
  "num_magnetic_sites": null,
  "num_unique_magnetic_sites": null,
  "types_of_magnetic_species": null,
  "bulk_modulus": null,
  "shear_modulus": null,
  "universal_anisotropy": null,
  "homogeneous_poisson": null,
  "e_total": null,
  "e_ionic": null,
  "e_electronic": null,
  "n": null,
  "e_ij_max": null,
  "weighted_surface_energy_EV_PER_ANG2": null,
  "weighted_surface_energy": null,
  "weighted_work_function": null,
  "surface_anisotropy": null,
  "shape_factor": null,
  "has_reconstructed": null,
  "possible_species": null,
  "has_props": null,
  "theoretical": null,
  "database_IDs": null,
  "fields_not_requested": [
    "builder_meta",
    "nsites",
    "elements",
    "nelements",
    "composition",
    "composition_reduced",
    "chemsys",
    "symmetry",
    "property_name",
    "deprecated",
    "deprecation_reasons",
    "last_updated",
    "origins",
    "warnings",
    "task_ids",
    "uncorrected_energy_per_atom",
    "equilibrium_reaction_energy_per_atom",
    "decomposes_to",
    "xas",
    "grain_boundaries",
    "cbm",
    "vbm",
    "is_gap_direct",
    "is_metal",
    "es_source_calc_id",
    "bandstructure",
    "dos",
    "dos_energy_up",
    "dos_energy_down",
    "is_magnetic",
    "ordering",
    "total_magnetization_normalized_vol",
    "total_magnetization_normalized_formula_units",
    "num_magnetic_sites",
    "num_unique_magnetic_sites",
    "types_of_magnetic_species",
    "bulk_modulus",
    "shear_modulus",
    "universal_anisotropy",
    "homogeneous_poisson",
    "e_total",
    "e_ionic",
    "e_electronic",
    "n",
    "e_ij_max",
    "weighted_surface_energy_EV_PER_ANG2",
    "weighted_surface_energy",
    "weighted_work_function",
    "surface_anisotropy",
    "shape_factor",
    "has_reconstructed",
    "possible_species",
    "has_props",
    "theoretical",
    "database_IDs"
  ]
}
