{
  "builder_meta": null,
  "nsites": null,
  "elements": null,
  "nelements": null,
  "composition": null,
  "composition_reduced": null,
  "formula_pretty": "NdAg3",
  "formula_anonymous": "AB3",
  "chemsys": null,
  "volume": 176.96531341011053,
  "density": 8.779998085563792,
  "density_atomic": 22.120664176263816,
  "symmetry": null,
  "property_name": null,
  "material_id": "mp-1186294",
  "deprecated": null,
  "deprecation_reasons": null,
  "last_updated": null,
  "origins": null,
  "warnings": null,
  "structure": {
    "@module": "pymatgen.core.structure",
    "@class": "Structure",
    "charge": 0,
    "lattice": {
      "matrix": [
        [3.26364324, -5.65279637, -0.0],
        [3.26364324, 5.65279637, -0.0],
        [0.0, 0.0, 4.79614312]
      ],
      "pbc": [true, true, true],
      "a": 6.527286878840463,
      "b": 6.527286878840463,
      "c": 4.79614312,
      "alpha": 90.0,
      "beta": 90.0,
      "gamma": 120.00000404257894,
      "volume": 176.96531341011053
    },
    "properties": {},
    "sites": [
      {
        "species": [{ "element": "Nd", "occu": 1 }],
        "abc": [0.666667, 0.333333, 0.25],
        "properties": { "magmom": 0.0 },
        "label": "Nd",
        "xyz": [3.26364324, -1.88426922519758, 1.19903578]
      },
      {
        "species": [{ "element": "Nd", "occu": 1 }],
        "abc": [0.333333, 0.666667, 0.75],
        "properties": { "magmom": 0.0 },
        "label": "Nd",
        "xyz": [3.26364324, 1.88426922519758, 3.59710734]
      },
      {
        "species": [{ "element": "Ag", "occu": 1 }],
        "abc": [0.85171825, 0.14828175, 0.75],
        "properties": { "magmom": -0.0 },
        "label": "Ag",
        "xyz": [3.26364324, -3.9763832937255055, 3.59710734]
      },
      {
        "species": [{ "element": "Ag", "occu": 1 }],
        "abc": [0.2965635, 0.14828175, 0.75],
        "properties": { "magmom": -0.0 },
        "label": "Ag",
        "xyz": [1.4518161930086098, -0.8382065381372474, 3.59710734]
      },
      {
        "species": [{ "element": "Ag", "occu": 1 }],
        "abc": [0.85171825, 0.7034365, 0.75],
        "properties": { "magmom": -0.0 },
        "label": "Ag",
        "xyz": [5.07547028699139, -0.8382065381372477, 3.59710734]
      },
      {
        "species": [{ "element": "Ag", "occu": 1 }],
        "abc": [0.14828175, 0.85171825, 0.25],
        "properties": { "magmom": -0.0 },
        "label": "Ag",
        "xyz": [3.26364324, 3.9763832937255055, 1.19903578]
      },
      {
        "species": [{ "element": "Ag", "occu": 1 }],
        "abc": [0.7034365, 0.85171825, 0.25],
        "properties": { "magmom": -0.0 },
        "label": "Ag",
        "xyz": [5.07547028699139, 0.8382065381372477, 1.19903578]
      },
      {
        "species": [{ "element": "Ag", "occu": 1 }],
        "abc": [0.14828175, 0.2965635, 0.25],
        "properties": { "magmom": -0.0 },
        "label": "Ag",
        "xyz": [1.4518161930086098, 0.8382065381372474, 1.19903578]
      }
    ]
  },
  "task_ids": null,
  "uncorrected_energy_per_atom": null,
  "energy_per_atom": -23.56729253625,
  "formation_energy_per_atom": -0.19588243187499801,
  "energy_above_hull": 0.06883765896738901,
  "is_stable": false,
  "equilibrium_reaction_energy_per_atom": null,
  "decomposes_to": null,
  "xas": null,
  "grain_boundaries": null,
  "band_gap": 0.0,
  "cbm": null,
  "vbm": null,
  "efermi": 3.19601609,
  "is_gap_direct": null,
  "is_metal": null,
  "es_source_calc_id": null,
  "bandstructure": null,
  "dos": null,
  "dos_energy_up": null,
  "dos_energy_down": null,
  "is_magnetic": null,
  "ordering": null,
  "total_magnetization": 0.0,
  "total_magnetization_normalized_vol": null,
  "total_magnetization_normalized_formula_units": null,
  "num_magnetic_sites": null,
  "num_unique_magnetic_sites": null,
  "types_of_magnetic_species": null,
  "bulk_modulus": null,
  "shear_modulus": null,
  "universal_anisotropy": null,
  "homogeneous_poisson": null,
  "e_total": null,
  "e_ionic": null,
  "e_electronic": null,
  "n": null,
  "e_ij_max": null,
  "weighted_surface_energy_EV_PER_ANG2": null,
  "weighted_surface_energy": null,
  "weighted_work_function": null,
  "surface_anisotropy": null,
  "shape_factor": null,
  "has_reconstructed": null,
  "possible_species": null,
  "has_props": null,
  "theoretical": null,
  "database_IDs": null,
  "fields_not_requested": [
    "builder_meta",
    "nsites",
    "elements",
    "nelements",
    "composition",
    "composition_reduced",
    "chemsys",
    "symmetry",
    "property_name",
    "deprecated",
    "deprecation_reasons",
    "last_updated",
    "origins",
    "warnings",
    "task_ids",
    "uncorrected_energy_per_atom",
    "equilibrium_reaction_energy_per_atom",
    "decomposes_to",
    "xas",
    "grain_boundaries",
    "cbm",
    "vbm",
    "is_gap_direct",
    "is_metal",
    "es_source_calc_id",
    "bandstructure",
    "dos",
    "dos_energy_up",
    "dos_energy_down",
    "is_magnetic",
    "ordering",
    "total_magnetization_normalized_vol",
    "total_magnetization_normalized_formula_units",
    "num_magnetic_sites",
    "num_unique_magnetic_sites",
    "types_of_magnetic_species",
    "bulk_modulus",
    "shear_modulus",
    "universal_anisotropy",
    "homogeneous_poisson",
    "e_total",
    "e_ionic",
    "e_electronic",
    "n",
    "e_ij_max",
    "weighted_surface_energy_EV_PER_ANG2",
    "weighted_surface_energy",
    "weighted_work_function",
    "surface_anisotropy",
    "shape_factor",
    "has_reconstructed",
    "possible_species",
    "has_props",
    "theoretical",
    "database_IDs"
  ]
}
