{
  "builder_meta": null,
  "nsites": null,
  "elements": null,
  "nelements": null,
  "composition": null,
  "composition_reduced": null,
  "formula_pretty": "NdAl3",
  "formula_anonymous": "AB3",
  "chemsys": null,
  "volume": 168.76203954067134,
  "density": 4.431460698497046,
  "density_atomic": 21.095254942583917,
  "symmetry": null,
  "property_name": null,
  "material_id": "mp-16513",
  "deprecated": null,
  "deprecation_reasons": null,
  "last_updated": null,
  "origins": null,
  "warnings": null,
  "structure": {
    "@module": "pymatgen.core.structure",
    "@class": "Structure",
    "charge": 0,
    "lattice": {
      "matrix": [
        [6.50720446, -5.505e-5, 3.049999999999998e-6],
        [-3.25364971, 5.63536474, -3.146e-5],
        [2.059999999999999e-6, -2.469e-5, 4.6021461200000005]
      ],
      "pbc": [true, true, true],
      "a": 6.507204460233572,
      "b": 6.507193879792432,
      "c": 4.602146120066691,
      "alpha": 90.00055603067183,
      "beta": 89.99994749564318,
      "gamma": 120.00102123588287,
      "volume": 168.76203954067137
    },
    "properties": {},
    "sites": [
      {
        "species": [{ "element": "Nd", "occu": 1 }],
        "abc": [0.33333268, 0.66666716, 0.249999],
        "properties": { "magmom": -0.0 },
        "label": "Nd",
        "xyz": [-3.699484283122155e-5, 3.7568880843405945, 1.1505119711697005]
      },
      {
        "species": [{ "element": "Nd", "occu": 1 }],
        "abc": [0.6666673200000001, 0.33333284, 0.750000999999999],
        "properties": { "magmom": -0.0 },
        "label": "Nd",
        "xyz": [3.2535938048428306, 1.8783969156594056, 3.451605738830296]
      },
      {
        "species": [{ "element": "Al", "occu": 1 }],
        "abc": [0.86046561, 0.72093063, 0.25],
        "properties": { "magmom": 0.0 },
        "label": "Al",
        "xyz": [3.253570434839003, 4.062653511156156, 1.150516473942491]
      },
      {
        "species": [{ "element": "Al", "occu": 1 }],
        "abc": [0.13953181, 0.8604683, 0.75],
        "properties": { "magmom": 0.0 },
        "label": "Al",
        "xyz": [-1.8916988734153202, 4.849026518981601, 3.451582945239303]
      },
      {
        "species": [{ "element": "Al", "occu": 1 }],
        "abc": [0.72093138, 0.860465599999999, 0.749999],
        "properties": { "magmom": -0.0 },
        "label": "Al",
        "xyz": [1.8915957863829218, 4.84897929747516, 3.451580116446813]
      },
      {
        "species": [{ "element": "Al", "occu": 1 }],
        "abc": [0.27906862, 0.1395344, 0.250001],
        "properties": { "magmom": -0.0 },
        "label": "Al",
        "xyz": [1.3619610236170812, 0.786305702524835, 1.1505375935531872]
      },
      {
        "species": [{ "element": "Al", "occu": 1 }],
        "abc": [0.86046819, 0.139531699999999, 0.25],
        "properties": { "magmom": 0.0 },
        "label": "Al",
        "xyz": [5.145255683415323, 0.7862584810183929, 1.1505347647606976]
      },
      {
        "species": [{ "element": "Al", "occu": 1 }],
        "abc": [0.13953439, 0.27906937, 0.750000999999999],
        "properties": { "magmom": 0.0 },
        "label": "Al",
        "xyz": [-1.3624836943181809e-5, 1.5726314888191542, 3.4516058382036254]
      }
    ]
  },
  "task_ids": null,
  "uncorrected_energy_per_atom": null,
  "energy_per_atom": -12.8962826275,
  "formation_energy_per_atom": -0.49270663437499806,
  "energy_above_hull": 0.0,
  "is_stable": true,
  "equilibrium_reaction_energy_per_atom": null,
  "decomposes_to": null,
  "xas": null,
  "grain_boundaries": null,
  "band_gap": 0.0,
  "cbm": null,
  "vbm": null,
  "efermi": 5.52838116,
  "is_gap_direct": null,
  "is_metal": null,
  "es_source_calc_id": null,
  "bandstructure": null,
  "dos": null,
  "dos_energy_up": null,
  "dos_energy_down": null,
  "is_magnetic": null,
  "ordering": null,
  "total_magnetization": 0.0,
  "total_magnetization_normalized_vol": null,
  "total_magnetization_normalized_formula_units": null,
  "num_magnetic_sites": null,
  "num_unique_magnetic_sites": null,
  "types_of_magnetic_species": null,
  "bulk_modulus": null,
  "shear_modulus": null,
  "universal_anisotropy": null,
  "homogeneous_poisson": null,
  "e_total": null,
  "e_ionic": null,
  "e_electronic": null,
  "n": null,
  "e_ij_max": null,
  "weighted_surface_energy_EV_PER_ANG2": null,
  "weighted_surface_energy": null,
  "weighted_work_function": null,
  "surface_anisotropy": null,
  "shape_factor": null,
  "has_reconstructed": null,
  "possible_species": null,
  "has_props": null,
  "theoretical": null,
  "database_IDs": null,
  "fields_not_requested": [
    "builder_meta",
    "nsites",
    "elements",
    "nelements",
    "composition",
    "composition_reduced",
    "chemsys",
    "symmetry",
    "property_name",
    "deprecated",
    "deprecation_reasons",
    "last_updated",
    "origins",
    "warnings",
    "task_ids",
    "uncorrected_energy_per_atom",
    "equilibrium_reaction_energy_per_atom",
    "decomposes_to",
    "xas",
    "grain_boundaries",
    "cbm",
    "vbm",
    "is_gap_direct",
    "is_metal",
    "es_source_calc_id",
    "bandstructure",
    "dos",
    "dos_energy_up",
    "dos_energy_down",
    "is_magnetic",
    "ordering",
    "total_magnetization_normalized_vol",
    "total_magnetization_normalized_formula_units",
    "num_magnetic_sites",
    "num_unique_magnetic_sites",
    "types_of_magnetic_species",
    "bulk_modulus",
    "shear_modulus",
    "universal_anisotropy",
    "homogeneous_poisson",
    "e_total",
    "e_ionic",
    "e_electronic",
    "n",
    "e_ij_max",
    "weighted_surface_energy_EV_PER_ANG2",
    "weighted_surface_energy",
    "weighted_work_function",
    "surface_anisotropy",
    "shape_factor",
    "has_reconstructed",
    "possible_species",
    "has_props",
    "theoretical",
    "database_IDs"
  ]
}
