{"builder_meta": null, "nsites": null, "elements": null, "nelements": null, "composition": null, "composition_reduced": null, "formula_pretty": "NdAl4", "formula_anonymous": "AB4", "chemsys": null, "volume": 102.36043347146415, "density": 4.090790333067072, "density_atomic": 20.47208669429283, "symmetry": null, "property_name": null, "material_id": "mp-1834", "deprecated": null, "deprecation_reasons": null, "last_updated": null, "origins": null, "warnings": null, "structure": {"@module": "pymatgen.core.structure", "@class": "Structure", "charge": 0, "lattice": {"matrix": [[3.94404103, -0.00132864, -1.56224631], [-0.62088986, 3.89486285, -1.56224641], [0.26288695, 0.30800899, 6.416626649999999]], "pbc": [true, true, true], "a": 4.242178089698301, "b": 4.242178058983242, "c": 6.429391623776803, "alpha": 109.24050931465796, "beta": 109.2405105168356, "gamma": 90.04258726208262, "volume": 102.36043347146412}, "properties": {}, "sites": [{"species": [{"element": "Nd", "occu": 1}], "abc": [-0.0, 0.0, 1e-08], "properties": {"magmom": 0.0}, "label": "Nd", "xyz": [2.6288695e-09, 3.0800899e-09, 6.41662665e-08]}, {"species": [{"element": "Al", "occu": 1}], "abc": [0.61142778, 0.61142778, 0.22274875], "properties": {"magmom": 0.0}, "label": "Al", "xyz": [2.0904246819813146, 2.4492235958856163, -0.4811060819115742]}, {"species": [{"element": "Al", "occu": 1}], "abc": [0.25020057, 0.74979946, 0.50000001], "properties": {"magmom": 0.0}, "label": "Al", "xyz": [0.6527019096907811, 3.0740381332988265, 1.646066957318931]}, {"species": [{"element": "Al", "occu": 1}], "abc": [0.74979943, 0.25020054, 0.49999999], "properties": {"magmom": -0.0}, "label": "Al", "xyz": [2.933336210309219, 1.1275050667011741, 1.6460669726810682]}, {"species": [{"element": "Al", "occu": 1}], "abc": [0.38857223, 0.38857222, 0.7772512500000001], "properties": {"magmom": -0.0}, "label": "Al", "xyz": [1.4956134774590955, 1.7523196041010973, 3.77323999628911]}]}, "task_ids": null, "uncorrected_energy_per_atom": null, "energy_per_atom": -11.604311362, "formation_energy_per_atom": -0.33503090149999903, "energy_above_hull": 0.059134405999998, "is_stable": false, "equilibrium_reaction_energy_per_atom": null, "decomposes_to": null, "xas": null, "grain_boundaries": null, "band_gap": 0.0, "cbm": null, "vbm": null, "efermi": 6.27338496, "is_gap_direct": null, "is_metal": null, "es_source_calc_id": null, "bandstructure": null, "dos": null, "dos_energy_up": null, "dos_energy_down": null, "is_magnetic": null, "ordering": null, "total_magnetization": 1e-07, "total_magnetization_normalized_vol": null, "total_magnetization_normalized_formula_units": null, "num_magnetic_sites": null, "num_unique_magnetic_sites": null, "types_of_magnetic_species": null, "bulk_modulus": null, "shear_modulus": null, "universal_anisotropy": null, "homogeneous_poisson": null, "e_total": null, "e_ionic": null, "e_electronic": null, "n": null, "e_ij_max": null, "weighted_surface_energy_EV_PER_ANG2": null, "weighted_surface_energy": null, "weighted_work_function": null, "surface_anisotropy": null, "shape_factor": null, "has_reconstructed": null, "possible_species": null, "has_props": null, "theoretical": null, "database_IDs": null, "fields_not_requested": ["builder_meta", "nsites", "elements", "nelements", "composition", "composition_reduced", "chemsys", "symmetry", "property_name", "deprecated", "deprecation_reasons", "last_updated", "origins", "warnings", "task_ids", "uncorrected_energy_per_atom", "equilibrium_reaction_energy_per_atom", "decomposes_to", "xas", "grain_boundaries", "cbm", "vbm", "is_gap_direct", "is_metal", "es_source_calc_id", "bandstructure", "dos", "dos_energy_up", "dos_energy_down", "is_magnetic", "ordering", "total_magnetization_normalized_vol", "total_magnetization_normalized_formula_units", "num_magnetic_sites", "num_unique_magnetic_sites", "types_of_magnetic_species", "bulk_modulus", "shear_modulus", "universal_anisotropy", "homogeneous_poisson", "e_total", "e_ionic", "e_electronic", "n", "e_ij_max", "weighted_surface_energy_EV_PER_ANG2", "weighted_surface_energy", "weighted_work_function", "surface_anisotropy", "shape_factor", "has_reconstructed", "possible_species", "has_props", "theoretical", "database_IDs"]}