{
  "builder_meta": null,
  "nsites": null,
  "elements": null,
  "nelements": null,
  "composition": null,
  "composition_reduced": null,
  "formula_pretty": "NdAl",
  "formula_anonymous": "AB",
  "chemsys": null,
  "volume": 405.46199081399993,
  "density": 5.609864922647655,
  "density_atomic": 25.341374425874996,
  "symmetry": null,
  "property_name": null,
  "material_id": "mp-864637",
  "deprecated": null,
  "deprecation_reasons": null,
  "last_updated": null,
  "origins": null,
  "warnings": null,
  "structure": {
    "@module": "pymatgen.core.structure",
    "@class": "Structure",
    "charge": 0,
    "lattice": {
      "matrix": [
        [5.9696902099999996, 1.2190000000000002e-5, -0.0],
        [2.251e-5, 11.80976384, 3.14e-6],
        [-0.0, 2.059999999999999e-6, 5.75118239]
      ],
      "pbc": [true, true, true],
      "a": 5.969690210012446,
      "b": 11.809763840021871,
      "c": 5.751182390000369,
      "alpha": 89.9999642434855,
      "beta": 89.99999999995809,
      "gamma": 89.99977379443037,
      "volume": 405.46199081399993
    },
    "properties": {},
    "sites": [
      {
        "species": [{ "element": "Nd", "occu": 1 }],
        "abc": [0.16585308, 0.00995862, 0.249999],
        "properties": { "magmom": 0.0 },
        "label": "Nd",
        "xyz": [0.990091732142883, 0.11761148711928601, 1.4377898775876767]
      },
      {
        "species": [{ "element": "Nd", "occu": 1 }],
        "abc": [0.40770135, 0.33445748000000003, 0.25],
        "properties": { "magmom": 0.0 },
        "label": "Nd",
        "xyz": [2.4338582863366582, 3.94986933820098, 1.4377966476964872]
      },
      {
        "species": [{ "element": "Nd", "occu": 1 }],
        "abc": [0.8341252, 0.50996829, 0.25],
        "properties": { "magmom": 0.0 },
        "label": "Nd",
        "xyz": [4.979480519740499, 6.022615753774822, 1.4377971988004308]
      },
      {
        "species": [{ "element": "Nd", "occu": 1 }],
        "abc": [0.5922828800000001, 0.83447678, 0.25],
        "properties": { "magmom": 0.0 },
        "label": "Nd",
        "xyz": [3.5357640943589224, 9.854981436691943, 1.4377982177570894]
      },
      {
        "species": [{ "element": "Nd", "occu": 1 }],
        "abc": [0.40770409, 0.16551848, 0.75],
        "properties": { "magmom": 0.0 },
        "label": "Nd",
        "xyz": [2.4338708404709433, 1.9547406748686202, 4.313387312228027]
      },
      {
        "species": [{ "element": "Nd", "occu": 1 }],
        "abc": [0.16587528, 0.49003436, 0.75],
        "properties": { "magmom": 0.0 },
        "label": "Nd",
        "xyz": [0.9902350657704524, 5.787193632105206, 4.31338833120789]
      },
      {
        "species": [{ "element": "Nd", "occu": 1 }],
        "abc": [0.59228619, 0.66554502, 0.749999],
        "properties": { "magmom": 0.0 },
        "label": "Nd",
        "xyz": [3.5357800513796, 7.859938276054674, 4.313383131128973]
      },
      {
        "species": [{ "element": "Nd", "occu": 1 }],
        "abc": [0.83414971, 0.9900384600000001, 0.75],
        "properties": { "magmom": 0.0 },
        "label": "Nd",
        "xyz": [4.979637643227074, 11.692132118402252, 4.313389901220765]
      },
      {
        "species": [{ "element": "Al", "occu": 1 }],
        "abc": [0.9282908400000001, 0.24998811, 0.999997999999999],
        "properties": { "magmom": -0.0 },
        "label": "Al",
        "xyz": [5.541614366813033, 2.952313917769162, 5.751171672597881]
      },
      {
        "species": [{ "element": "Al", "occu": 1 }],
        "abc": [0.07170816, 0.750012799999999, 2.7e-6],
        "properties": { "magmom": -0.0 },
        "label": "Al",
        "xyz": [0.4280923835172416, 8.857474919105172, 1.7883232644999996e-5]
      },
      {
        "species": [{ "element": "Al", "occu": 1 }],
        "abc": [0.6698496700000001, 0.10190819, 0.25],
        "properties": { "magmom": -0.0 },
        "label": "Al",
        "xyz": [3.998797311124088, 1.2035203377293269, 1.4377959174917168]
      },
      {
        "species": [{ "element": "Al", "occu": 1 }],
        "abc": [0.33016158, 0.6019133600000001, 0.25],
        "properties": { "magmom": -0.0 },
        "label": "Al",
        "xyz": [1.9709759009138652, 7.108459173410563, 1.4377974875079504]
      },
      {
        "species": [{ "element": "Al", "occu": 1 }],
        "abc": [0.92829184, 0.24998811, 0.500002],
        "properties": { "magmom": -0.0 },
        "label": "Al",
        "xyz": [5.541620336503242, 2.9523128877895926, 2.8756034823274454]
      },
      {
        "species": [{ "element": "Al", "occu": 1 }],
        "abc": [0.07170816, 0.750012799999999, 0.4999973],
        "properties": { "magmom": -0.0 },
        "label": "Al",
        "xyz": [0.4280923835172416, 8.857475949094049, 2.875578021847739]
      },
      {
        "species": [{ "element": "Al", "occu": 1 }],
        "abc": [0.6698549500000001, 0.39807762, 0.749999],
        "properties": { "magmom": -0.0 },
        "label": "Al",
        "xyz": [3.9988354978622658, 4.701212392719042, 4.3133822912813375]
      },
      {
        "species": [{ "element": "Al", "occu": 1 }],
        "abc": [0.33015602, 0.89810152, 0.749999],
        "properties": { "magmom": -0.0 },
        "label": "Al",
        "xyz": [1.9709493766317792, 10.60637242514486, 4.3133838613563835]
      }
    ]
  },
  "task_ids": null,
  "uncorrected_energy_per_atom": null,
  "energy_per_atom": -18.53043310875,
  "formation_energy_per_atom": -0.45537945249999706,
  "energy_above_hull": 0.0,
  "is_stable": true,
  "equilibrium_reaction_energy_per_atom": null,
  "decomposes_to": null,
  "xas": null,
  "grain_boundaries": null,
  "band_gap": 0.0,
  "cbm": null,
  "vbm": null,
  "efermi": 4.66639755,
  "is_gap_direct": null,
  "is_metal": null,
  "es_source_calc_id": null,
  "bandstructure": null,
  "dos": null,
  "dos_energy_up": null,
  "dos_energy_down": null,
  "is_magnetic": null,
  "ordering": null,
  "total_magnetization": 3e-6,
  "total_magnetization_normalized_vol": null,
  "total_magnetization_normalized_formula_units": null,
  "num_magnetic_sites": null,
  "num_unique_magnetic_sites": null,
  "types_of_magnetic_species": null,
  "bulk_modulus": null,
  "shear_modulus": null,
  "universal_anisotropy": null,
  "homogeneous_poisson": null,
  "e_total": null,
  "e_ionic": null,
  "e_electronic": null,
  "n": null,
  "e_ij_max": null,
  "weighted_surface_energy_EV_PER_ANG2": null,
  "weighted_surface_energy": null,
  "weighted_work_function": null,
  "surface_anisotropy": null,
  "shape_factor": null,
  "has_reconstructed": null,
  "possible_species": null,
  "has_props": null,
  "theoretical": null,
  "database_IDs": null,
  "fields_not_requested": [
    "builder_meta",
    "nsites",
    "elements",
    "nelements",
    "composition",
    "composition_reduced",
    "chemsys",
    "symmetry",
    "property_name",
    "deprecated",
    "deprecation_reasons",
    "last_updated",
    "origins",
    "warnings",
    "task_ids",
    "uncorrected_energy_per_atom",
    "equilibrium_reaction_energy_per_atom",
    "decomposes_to",
    "xas",
    "grain_boundaries",
    "cbm",
    "vbm",
    "is_gap_direct",
    "is_metal",
    "es_source_calc_id",
    "bandstructure",
    "dos",
    "dos_energy_up",
    "dos_energy_down",
    "is_magnetic",
    "ordering",
    "total_magnetization_normalized_vol",
    "total_magnetization_normalized_formula_units",
    "num_magnetic_sites",
    "num_unique_magnetic_sites",
    "types_of_magnetic_species",
    "bulk_modulus",
    "shear_modulus",
    "universal_anisotropy",
    "homogeneous_poisson",
    "e_total",
    "e_ionic",
    "e_electronic",
    "n",
    "e_ij_max",
    "weighted_surface_energy_EV_PER_ANG2",
    "weighted_surface_energy",
    "weighted_work_function",
    "surface_anisotropy",
    "shape_factor",
    "has_reconstructed",
    "possible_species",
    "has_props",
    "theoretical",
    "database_IDs"
  ]
}
