{"builder_meta": null, "nsites": null, "elements": null, "nelements": null, "composition": null, "composition_reduced": null, "formula_pretty": "NdAl2", "formula_anonymous": "AB2", "chemsys": null, "volume": 128.84364335413255, "density": 5.108940811064272, "density_atomic": 21.473940559022093, "symmetry": null, "property_name": null, "material_id": "mp-400", "deprecated": null, "deprecation_reasons": null, "last_updated": null, "origins": null, "warnings": null, "structure": {"@module": "pymatgen.core.structure", "@class": "Structure", "charge": 0, "lattice": {"matrix": [[4.90971537, 1.1210000000000001e-05, 2.83462043], [1.63657418, 4.62893331, 2.83463165], [-9.17e-06, 7.139999999999998e-06, 5.66925414]], "pbc": [true, true, true], "a": 5.669248450783691, "b": 5.669262317643447, "c": 5.669254140011912, "alpha": 59.99995712712737, "beta": 60.00013696736693, "gamma": 59.999914004261974, "volume": 128.84364335413258}, "properties": {}, "sites": [{"species": [{"element": "Nd", "occu": 1}], "abc": [0.875, 0.875, 0.875], "properties": {"magmom": 0.0}, "label": "Nd", "xyz": [5.727995332499999, 4.0503327024999995, 9.9211929425]}, {"species": [{"element": "Nd", "occu": 1}], "abc": [0.125, 0.125, 0.125], "properties": {"magmom": 0.0}, "label": "Nd", "xyz": [0.8182850475, 0.5786189575, 1.4173132775]}, {"species": [{"element": "Al", "occu": 1}], "abc": [0.5, 0.5, 0.5], "properties": {"magmom": -0.0}, "label": "Al", "xyz": [3.27314019, 2.31447583, 5.66925311]}, {"species": [{"element": "Al", "occu": 1}], "abc": [0.5, 0.5, 0.0], "properties": {"magmom": -0.0}, "label": "Al", "xyz": [3.273144775, 2.31447226, 2.83462604]}, {"species": [{"element": "Al", "occu": 1}], "abc": [0.0, 0.5, 0.5], "properties": {"magmom": -0.0}, "label": "Al", "xyz": [0.818282505, 2.314470225, 4.251942895]}, {"species": [{"element": "Al", "occu": 1}], "abc": [0.5, -0.0, 0.5], "properties": {"magmom": -0.0}, "label": "Al", "xyz": [2.4548531, 9.175e-06, 4.251937285]}]}, "task_ids": null, "uncorrected_energy_per_atom": null, "energy_per_atom": -14.852245808333334, "formation_energy_per_atom": -0.5581772608333321, "energy_above_hull": 0.0, "is_stable": true, "equilibrium_reaction_energy_per_atom": null, "decomposes_to": null, "xas": null, "grain_boundaries": null, "band_gap": 0.0, "cbm": null, "vbm": null, "efermi": 5.79877094, "is_gap_direct": null, "is_metal": null, "es_source_calc_id": null, "bandstructure": null, "dos": null, "dos_energy_up": null, "dos_energy_down": null, "is_magnetic": null, "ordering": null, "total_magnetization": 2e-07, "total_magnetization_normalized_vol": null, "total_magnetization_normalized_formula_units": null, "num_magnetic_sites": null, "num_unique_magnetic_sites": null, "types_of_magnetic_species": null, "bulk_modulus": null, "shear_modulus": null, "universal_anisotropy": null, "homogeneous_poisson": null, "e_total": null, "e_ionic": null, "e_electronic": null, "n": null, "e_ij_max": null, "weighted_surface_energy_EV_PER_ANG2": null, "weighted_surface_energy": null, "weighted_work_function": null, "surface_anisotropy": null, "shape_factor": null, "has_reconstructed": null, "possible_species": null, "has_props": null, "theoretical": null, "database_IDs": null, "fields_not_requested": ["builder_meta", "nsites", "elements", "nelements", "composition", "composition_reduced", "chemsys", "symmetry", "property_name", "deprecated", "deprecation_reasons", "last_updated", "origins", "warnings", "task_ids", "uncorrected_energy_per_atom", "equilibrium_reaction_energy_per_atom", "decomposes_to", "xas", "grain_boundaries", "cbm", "vbm", "is_gap_direct", "is_metal", "es_source_calc_id", "bandstructure", "dos", "dos_energy_up", "dos_energy_down", "is_magnetic", "ordering", "total_magnetization_normalized_vol", "total_magnetization_normalized_formula_units", "num_magnetic_sites", "num_unique_magnetic_sites", "types_of_magnetic_species", "bulk_modulus", "shear_modulus", "universal_anisotropy", "homogeneous_poisson", "e_total", "e_ionic", "e_electronic", "n", "e_ij_max", "weighted_surface_energy_EV_PER_ANG2", "weighted_surface_energy", "weighted_work_function", "surface_anisotropy", "shape_factor", "has_reconstructed", "possible_species", "has_props", "theoretical", "database_IDs"]}