{
  "builder_meta": null,
  "nsites": null,
  "elements": null,
  "nelements": null,
  "composition": null,
  "composition_reduced": null,
  "formula_pretty": "NdAs2",
  "formula_anonymous": "AB2",
  "chemsys": null,
  "volume": 289.68008471423883,
  "density": 6.743162395725033,
  "density_atomic": 24.140007059519903,
  "symmetry": null,
  "property_name": null,
  "material_id": "mp-13961",
  "deprecated": null,
  "deprecation_reasons": null,
  "last_updated": null,
  "origins": null,
  "warnings": null,
  "structure": {
    "@module": "pymatgen.core.structure",
    "@class": "Structure",
    "charge": 0,
    "lattice": {
      "matrix": [
        [4.12405603, 0.0, -0.46288888],
        [0.0, 6.89640693, 0.0],
        [-0.01708677, 0.0, 10.18715632]
      ],
      "pbc": [true, true, true],
      "a": 4.149952319461877,
      "b": 6.89640693,
      "c": 10.187170649686054,
      "alpha": 90.0,
      "beta": 96.50024316295926,
      "gamma": 90.0,
      "volume": 289.68008471423883
    },
    "properties": {},
    "sites": [
      {
        "species": [{ "element": "Nd", "occu": 1 }],
        "abc": [0.27057229, 0.81080639, 0.35886462],
        "properties": { "magmom": -0.0 },
        "label": "Nd",
        "xyz": [1.1097234469023314, 5.5916508068842825, 3.5305650773802633]
      },
      {
        "species": [{ "element": "Nd", "occu": 1 }],
        "abc": [0.22942771, 0.31080639, 0.14113538],
        "properties": { "magmom": -0.0 },
        "label": "Nd",
        "xyz": [0.9437611830976688, 2.1434473418842828, 1.3315686426197366]
      },
      {
        "species": [{ "element": "Nd", "occu": 1 }],
        "abc": [0.7294277100000001, 0.18919361, 0.64113538],
        "properties": { "magmom": -0.0 },
        "label": "Nd",
        "xyz": [2.997245813097669, 1.3047561231157174, 6.193702362619737]
      },
      {
        "species": [{ "element": "Nd", "occu": 1 }],
        "abc": [0.77057229, 0.68919361, 0.85886462],
        "properties": { "magmom": -0.0 },
        "label": "Nd",
        "xyz": [3.1632080769023316, 4.752959588115718, 8.392698797380262]
      },
      {
        "species": [{ "element": "As", "occu": 1 }],
        "abc": [0.32631171000000003, 0.87737011, 0.04894765],
        "properties": { "magmom": 0.0 },
        "label": "As",
        "xyz": [1.344891418047521, 6.050701306778863, 0.3475913000738632]
      },
      {
        "species": [{ "element": "As", "occu": 1 }],
        "abc": [0.17368829, 0.37737011, 0.45105235],
        "properties": { "magmom": 0.0 },
        "label": "As",
        "xyz": [0.7085932119524793, 2.6024978417788622, 4.514542419926136]
      },
      {
        "species": [{ "element": "As", "occu": 1 }],
        "abc": [0.67368829, 0.12262989, 0.95105235],
        "properties": { "magmom": 0.0 },
        "label": "As",
        "xyz": [2.7620778419524794, 0.8457056232211377, 9.376676139926138]
      },
      {
        "species": [{ "element": "As", "occu": 1 }],
        "abc": [0.82631171, 0.62262989, 0.54894765],
        "properties": { "magmom": 0.0 },
        "label": "As",
        "xyz": [3.398376048047521, 4.293909088221138, 5.209725020073863]
      },
      {
        "species": [{ "element": "As", "occu": 1 }],
        "abc": [0.29461803000000003, 0.35526744, 0.83064769],
        "properties": { "magmom": 0.0 },
        "label": "As",
        "xyz": [1.20082817713816, 2.4500688352193594, 8.325562454942395]
      },
      {
        "species": [{ "element": "As", "occu": 1 }],
        "abc": [0.20538197, 0.85526744, 0.6693523100000001],
        "properties": { "magmom": 0.0 },
        "label": "As",
        "xyz": [0.8355696828618404, 5.898272300219359, 6.723727585057606]
      },
      {
        "species": [{ "element": "As", "occu": 1 }],
        "abc": [0.70538197, 0.64473256, 0.16935231],
        "properties": { "magmom": 0.0 },
        "label": "As",
        "xyz": [2.906141082861841, 4.446338094780641, 1.3987049850576054]
      },
      {
        "species": [{ "element": "As", "occu": 1 }],
        "abc": [0.79461803, 0.14473256, 0.33064769],
        "properties": { "magmom": 0.0 },
        "label": "As",
        "xyz": [3.2713995771381597, 0.9981346297806409, 3.0005398549423945]
      }
    ]
  },
  "task_ids": null,
  "uncorrected_energy_per_atom": null,
  "energy_per_atom": -20.77816241,
  "formation_energy_per_atom": -1.1671387575,
  "energy_above_hull": 0.020310922500001,
  "is_stable": false,
  "equilibrium_reaction_energy_per_atom": null,
  "decomposes_to": null,
  "xas": null,
  "grain_boundaries": null,
  "band_gap": 0.039400000000000004,
  "cbm": null,
  "vbm": null,
  "efermi": 4.71716859,
  "is_gap_direct": null,
  "is_metal": null,
  "es_source_calc_id": null,
  "bandstructure": null,
  "dos": null,
  "dos_energy_up": null,
  "dos_energy_down": null,
  "is_magnetic": null,
  "ordering": null,
  "total_magnetization": 0.0,
  "total_magnetization_normalized_vol": null,
  "total_magnetization_normalized_formula_units": null,
  "num_magnetic_sites": null,
  "num_unique_magnetic_sites": null,
  "types_of_magnetic_species": null,
  "bulk_modulus": null,
  "shear_modulus": null,
  "universal_anisotropy": null,
  "homogeneous_poisson": null,
  "e_total": null,
  "e_ionic": null,
  "e_electronic": null,
  "n": null,
  "e_ij_max": null,
  "weighted_surface_energy_EV_PER_ANG2": null,
  "weighted_surface_energy": null,
  "weighted_work_function": null,
  "surface_anisotropy": null,
  "shape_factor": null,
  "has_reconstructed": null,
  "possible_species": null,
  "has_props": null,
  "theoretical": null,
  "database_IDs": null,
  "fields_not_requested": [
    "builder_meta",
    "nsites",
    "elements",
    "nelements",
    "composition",
    "composition_reduced",
    "chemsys",
    "symmetry",
    "property_name",
    "deprecated",
    "deprecation_reasons",
    "last_updated",
    "origins",
    "warnings",
    "task_ids",
    "uncorrected_energy_per_atom",
    "equilibrium_reaction_energy_per_atom",
    "decomposes_to",
    "xas",
    "grain_boundaries",
    "cbm",
    "vbm",
    "is_gap_direct",
    "is_metal",
    "es_source_calc_id",
    "bandstructure",
    "dos",
    "dos_energy_up",
    "dos_energy_down",
    "is_magnetic",
    "ordering",
    "total_magnetization_normalized_vol",
    "total_magnetization_normalized_formula_units",
    "num_magnetic_sites",
    "num_unique_magnetic_sites",
    "types_of_magnetic_species",
    "bulk_modulus",
    "shear_modulus",
    "universal_anisotropy",
    "homogeneous_poisson",
    "e_total",
    "e_ionic",
    "e_electronic",
    "n",
    "e_ij_max",
    "weighted_surface_energy_EV_PER_ANG2",
    "weighted_surface_energy",
    "weighted_work_function",
    "surface_anisotropy",
    "shape_factor",
    "has_reconstructed",
    "possible_species",
    "has_props",
    "theoretical",
    "database_IDs"
  ]
}
