{
  "builder_meta": null,
  "nsites": null,
  "elements": null,
  "nelements": null,
  "composition": null,
  "composition_reduced": null,
  "formula_pretty": "NdAu",
  "formula_anonymous": "AB",
  "chemsys": null,
  "volume": 104.27967605966708,
  "density": 10.866741825300423,
  "density_atomic": 26.06991901491677,
  "symmetry": null,
  "property_name": null,
  "material_id": "mp-999338",
  "deprecated": null,
  "deprecation_reasons": null,
  "last_updated": null,
  "origins": null,
  "warnings": null,
  "structure": {
    "@module": "pymatgen.core.structure",
    "@class": "Structure",
    "charge": 0,
    "lattice": {
      "matrix": [
        [-3.88332701, -0.0, -0.0],
        [-0.0, -0.0, -4.74706248],
        [-1.9416640200000002, -5.65679919, -0.0]
      ],
      "pbc": [true, true, true],
      "a": 3.88332701,
      "b": 4.74706248,
      "c": 5.980755490951558,
      "alpha": 90.0,
      "beta": 71.05550929051567,
      "gamma": 90.0,
      "volume": 104.27967605966708
    },
    "properties": {},
    "sites": [
      {
        "species": [{ "element": "Nd", "occu": 1 }],
        "abc": [0.1366268, 0.75, 0.72674539],
        "properties": { "magmom": -0.0 },
        "label": "Nd",
        "xyz": [-1.941661918193736, -4.1110527334882345, -3.5602968600000002]
      },
      {
        "species": [{ "element": "Nd", "occu": 1 }],
        "abc": [0.8633732, 0.25, 0.27325461],
        "properties": { "magmom": -0.0 },
        "label": "Nd",
        "xyz": [-3.883329111806264, -1.545746456511766, -1.18676562]
      },
      {
        "species": [{ "element": "Au", "occu": 1 }],
        "abc": [0.41285879000000003, 0.75, 0.17428243000000002],
        "properties": { "magmom": -0.0 },
        "label": "Au",
        "xyz": [-1.9416636141720867, -0.9858807088552318, -3.5602968600000002]
      },
      {
        "species": [{ "element": "Au", "occu": 1 }],
        "abc": [0.58714121, 0.25, 0.82571757],
        "properties": { "magmom": -0.0 },
        "label": "Au",
        "xyz": [-3.883327415827914, -4.670918481144769, -1.18676562]
      }
    ]
  },
  "task_ids": null,
  "uncorrected_energy_per_atom": null,
  "energy_per_atom": -4.831896952499996,
  "formation_energy_per_atom": -0.8108822362499951,
  "energy_above_hull": 0.0,
  "is_stable": true,
  "equilibrium_reaction_energy_per_atom": null,
  "decomposes_to": null,
  "xas": null,
  "grain_boundaries": null,
  "band_gap": 0.0,
  "cbm": null,
  "vbm": null,
  "efermi": 4.48511227,
  "is_gap_direct": null,
  "is_metal": null,
  "es_source_calc_id": null,
  "bandstructure": null,
  "dos": null,
  "dos_energy_up": null,
  "dos_energy_down": null,
  "is_magnetic": null,
  "ordering": null,
  "total_magnetization": 8e-7,
  "total_magnetization_normalized_vol": null,
  "total_magnetization_normalized_formula_units": null,
  "num_magnetic_sites": null,
  "num_unique_magnetic_sites": null,
  "types_of_magnetic_species": null,
  "bulk_modulus": null,
  "shear_modulus": null,
  "universal_anisotropy": null,
  "homogeneous_poisson": null,
  "e_total": null,
  "e_ionic": null,
  "e_electronic": null,
  "n": null,
  "e_ij_max": null,
  "weighted_surface_energy_EV_PER_ANG2": null,
  "weighted_surface_energy": null,
  "weighted_work_function": null,
  "surface_anisotropy": null,
  "shape_factor": null,
  "has_reconstructed": null,
  "possible_species": null,
  "has_props": null,
  "theoretical": null,
  "database_IDs": null,
  "fields_not_requested": [
    "builder_meta",
    "nsites",
    "elements",
    "nelements",
    "composition",
    "composition_reduced",
    "chemsys",
    "symmetry",
    "property_name",
    "deprecated",
    "deprecation_reasons",
    "last_updated",
    "origins",
    "warnings",
    "task_ids",
    "uncorrected_energy_per_atom",
    "equilibrium_reaction_energy_per_atom",
    "decomposes_to",
    "xas",
    "grain_boundaries",
    "cbm",
    "vbm",
    "is_gap_direct",
    "is_metal",
    "es_source_calc_id",
    "bandstructure",
    "dos",
    "dos_energy_up",
    "dos_energy_down",
    "is_magnetic",
    "ordering",
    "total_magnetization_normalized_vol",
    "total_magnetization_normalized_formula_units",
    "num_magnetic_sites",
    "num_unique_magnetic_sites",
    "types_of_magnetic_species",
    "bulk_modulus",
    "shear_modulus",
    "universal_anisotropy",
    "homogeneous_poisson",
    "e_total",
    "e_ionic",
    "e_electronic",
    "n",
    "e_ij_max",
    "weighted_surface_energy_EV_PER_ANG2",
    "weighted_surface_energy",
    "weighted_work_function",
    "surface_anisotropy",
    "shape_factor",
    "has_reconstructed",
    "possible_species",
    "has_props",
    "theoretical",
    "database_IDs"
  ]
}
