{"builder_meta": null, "nsites": null, "elements": null, "nelements": null, "composition": null, "composition_reduced": null, "formula_pretty": "NdAu6", "formula_anonymous": "AB6", "chemsys": null, "volume": 276.4570240054996, "density": 15.92973504505858, "density_atomic": 19.746930286107112, "symmetry": null, "property_name": null, "material_id": "mp-1104525", "deprecated": null, "deprecation_reasons": null, "last_updated": null, "origins": null, "warnings": null, "structure": {"@module": "pymatgen.core.structure", "@class": "Structure", "charge": 0, "lattice": {"matrix": [[3.91115619, 3.91076713, -0.01372944], [-3.91115619, 3.91076713, -0.01372944], [0.0, 1.6536232800000001, 9.0313244]], "pbc": [true, true, true], "a": 5.5309520686032405, "b": 5.5309520686032405, "c": 9.181464500295872, "alpha": 82.82474754593453, "beta": 82.82474754593453, "gamma": 90.00534666917375, "volume": 276.4570240054996}, "properties": {}, "sites": [{"species": [{"element": "Nd", "occu": 1}], "abc": [0.31554301, 0.68445699, 0.75], "properties": {"magmom": -0.0}, "label": "Nd", "xyz": [-1.4428801964545364, 5.15098459, 6.7597638600000005]}, {"species": [{"element": "Nd", "occu": 1}], "abc": [0.68445699, 0.31554301, 0.25], "properties": {"magmom": -0.0}, "label": "Nd", "xyz": [1.4428801964545364, 4.32417295, 2.24410166]}, {"species": [{"element": "Au", "occu": 1}], "abc": [0.04210418, 0.15685027, 0.86239946], "properties": {"magmom": -0.0}, "label": "Au", "xyz": [-0.4487898801817971, 2.2041483471426577, 7.7858777524608165]}, {"species": [{"element": "Au", "occu": 1}], "abc": [0.84314973, 0.9578958200000001, 0.63760054], "properties": {"magmom": -0.0}, "label": "Au", "xyz": [-0.44878988018179733, 8.097820832857343, 5.7336499675391845]}, {"species": [{"element": "Au", "occu": 1}], "abc": [0.9578958200000001, 0.84314973, 0.13760054], "properties": {"magmom": -0.0}, "label": "Au", "xyz": [0.44878988018179733, 7.271009192857343, 1.217987767539184]}, {"species": [{"element": "Au", "occu": 1}], "abc": [0.15685027, 0.04210418, 0.36239946], "properties": {"magmom": -0.0}, "label": "Au", "xyz": [0.4487898801817971, 1.3773367071426574, 3.2702155524608165]}, {"species": [{"element": "Au", "occu": 1}], "abc": [0.7805167900000001, 0.6117505400000001, 0.92096702], "properties": {"magmom": 0.0}, "label": "Au", "xyz": [0.6600711633505876, 6.96776581472109, 8.298436868550095]}, {"species": [{"element": "Au", "occu": 1}], "abc": [0.38824946, 0.21948321, 0.57903298], "properties": {"magmom": 0.0}, "label": "Au", "xyz": [0.6600711633505874, 3.3342033652789116, 5.221090851449908]}, {"species": [{"element": "Au", "occu": 1}], "abc": [0.21948321, 0.38824946, 0.07903298], "properties": {"magmom": 0.0}, "label": "Au", "xyz": [-0.6600711633505874, 2.5073917252789113, 0.7054286514499073]}, {"species": [{"element": "Au", "occu": 1}], "abc": [0.6117505400000001, 0.7805167900000001, 0.42096702], "properties": {"magmom": 0.0}, "label": "Au", "xyz": [-0.6600711633505876, 6.14095417472109, 3.7827746685500934]}, {"species": [{"element": "Au", "occu": 1}], "abc": [0.8347263500000001, 0.46060312000000003, 0.6277068100000001], "properties": {"magmom": -0.0}, "label": "Au", "xyz": [1.4632543868372938, 6.103722507826859, 5.651239680960568]}, {"species": [{"element": "Au", "occu": 1}], "abc": [0.53939688, 0.16527365, 0.87229319], "properties": {"magmom": -0.0}, "label": "Au", "xyz": [1.4632543868372936, 4.198246672173143, 7.8682880390394345]}, {"species": [{"element": "Au", "occu": 1}], "abc": [0.16527365, 0.53939688, 0.37229319], "properties": {"magmom": -0.0}, "label": "Au", "xyz": [-1.4632543868372936, 3.3714350321731423, 3.3526258390394332]}, {"species": [{"element": "Au", "occu": 1}], "abc": [0.46060312000000003, 0.8347263500000001, 0.12770681], "properties": {"magmom": -0.0}, "label": "Au", "xyz": [-1.4632543868372938, 5.276910867826858, 1.1355774809605674]}]}, "task_ids": null, "uncorrected_energy_per_atom": null, "energy_per_atom": -3.902745586428572, "formation_energy_per_atom": -0.41539709607142805, "energy_above_hull": 0.0054969644897940005, "is_stable": false, "equilibrium_reaction_energy_per_atom": null, "decomposes_to": null, "xas": null, "grain_boundaries": null, "band_gap": 0.0, "cbm": null, "vbm": null, "efermi": 4.77828872, "is_gap_direct": null, "is_metal": null, "es_source_calc_id": null, "bandstructure": null, "dos": null, "dos_energy_up": null, "dos_energy_down": null, "is_magnetic": null, "ordering": null, "total_magnetization": 0.0, "total_magnetization_normalized_vol": null, "total_magnetization_normalized_formula_units": null, "num_magnetic_sites": null, "num_unique_magnetic_sites": null, "types_of_magnetic_species": null, "bulk_modulus": null, "shear_modulus": null, "universal_anisotropy": null, "homogeneous_poisson": null, "e_total": null, "e_ionic": null, "e_electronic": null, "n": null, "e_ij_max": null, "weighted_surface_energy_EV_PER_ANG2": null, "weighted_surface_energy": null, "weighted_work_function": null, "surface_anisotropy": null, "shape_factor": null, "has_reconstructed": null, "possible_species": null, "has_props": null, "theoretical": null, "database_IDs": null, "fields_not_requested": ["builder_meta", "nsites", "elements", "nelements", "composition", "composition_reduced", "chemsys", "symmetry", "property_name", "deprecated", "deprecation_reasons", "last_updated", "origins", "warnings", "task_ids", "uncorrected_energy_per_atom", "equilibrium_reaction_energy_per_atom", "decomposes_to", "xas", "grain_boundaries", "cbm", "vbm", "is_gap_direct", "is_metal", "es_source_calc_id", "bandstructure", "dos", "dos_energy_up", "dos_energy_down", "is_magnetic", "ordering", "total_magnetization_normalized_vol", "total_magnetization_normalized_formula_units", "num_magnetic_sites", "num_unique_magnetic_sites", "types_of_magnetic_species", "bulk_modulus", "shear_modulus", "universal_anisotropy", "homogeneous_poisson", "e_total", "e_ionic", "e_electronic", "n", "e_ij_max", "weighted_surface_energy_EV_PER_ANG2", "weighted_surface_energy", "weighted_work_function", "surface_anisotropy", "shape_factor", "has_reconstructed", "possible_species", "has_props", "theoretical", "database_IDs"]}