{
  "builder_meta": null,
  "nsites": null,
  "elements": null,
  "nelements": null,
  "composition": null,
  "composition_reduced": null,
  "formula_pretty": "NdB4",
  "formula_anonymous": "AB4",
  "chemsys": null,
  "volume": 215.95050436774594,
  "density": 5.766651545493071,
  "density_atomic": 10.797525218387296,
  "symmetry": null,
  "property_name": null,
  "material_id": "mp-1632",
  "deprecated": null,
  "deprecation_reasons": null,
  "last_updated": null,
  "origins": null,
  "warnings": null,
  "structure": {
    "@module": "pymatgen.core.structure",
    "@class": "Structure",
    "charge": 0,
    "lattice": {
      "matrix": [
        [4.12058789, -0.0, 0.0],
        [-0.0, 7.23931577, 0.0],
        [0.0, 0.0, 7.23931577]
      ],
      "pbc": [true, true, true],
      "a": 4.12058789,
      "b": 7.23931577,
      "c": 7.23931577,
      "alpha": 90.0,
      "beta": 90.0,
      "gamma": 90.0,
      "volume": 215.95050436774594
    },
    "properties": {},
    "sites": [
      {
        "species": [{ "element": "Nd", "occu": 1 }],
        "abc": [-0.0, 0.6830343600000001, 0.18303436],
        "properties": { "magmom": -0.0 },
        "label": "Nd",
        "xyz": [0.0, 4.944701413799858, 1.3250435287998572]
      },
      {
        "species": [{ "element": "Nd", "occu": 1 }],
        "abc": [-0.0, 0.81696564, 0.6830343600000001],
        "properties": { "magmom": -0.0 },
        "label": "Nd",
        "xyz": [0.0, 5.914272241200143, 4.944701413799858]
      },
      {
        "species": [{ "element": "Nd", "occu": 1 }],
        "abc": [-0.0, 0.18303436, 0.31696564],
        "properties": { "magmom": -0.0 },
        "label": "Nd",
        "xyz": [0.0, 1.3250435287998572, 2.294614356200143]
      },
      {
        "species": [{ "element": "Nd", "occu": 1 }],
        "abc": [-0.0, 0.31696564, 0.81696564],
        "properties": { "magmom": -0.0 },
        "label": "Nd",
        "xyz": [0.0, 2.294614356200143, 5.914272241200143]
      },
      {
        "species": [{ "element": "B", "occu": 1 }],
        "abc": [0.5, 0.5882087500000001, 0.91179125],
        "properties": { "magmom": -0.0 },
        "label": "B",
        "xyz": [2.060293945, 4.258228879926988, 6.600744775073013]
      },
      {
        "species": [{ "element": "B", "occu": 1 }],
        "abc": [0.5, 0.08820875, 0.5882087500000001],
        "properties": { "magmom": -0.0 },
        "label": "B",
        "xyz": [2.060293945, 0.6385709949269875, 4.258228879926988]
      },
      {
        "species": [{ "element": "B", "occu": 1 }],
        "abc": [0.5, 0.91179125, 0.41179125],
        "properties": { "magmom": -0.0 },
        "label": "B",
        "xyz": [2.060293945, 6.600744775073013, 2.9810868900730125]
      },
      {
        "species": [{ "element": "B", "occu": 1 }],
        "abc": [0.5, 0.41179125, 0.08820875],
        "properties": { "magmom": -0.0 },
        "label": "B",
        "xyz": [2.060293945, 2.9810868900730125, 0.6385709949269875]
      },
      {
        "species": [{ "element": "B", "occu": 1 }],
        "abc": [0.5, 0.17372881, 0.03869389],
        "properties": { "magmom": 0.0 },
        "label": "B",
        "xyz": [2.060293945, 1.2576777139363338, 0.2801172880796453]
      },
      {
        "species": [{ "element": "B", "occu": 1 }],
        "abc": [0.5, 0.96130611, 0.17372881],
        "properties": { "magmom": 0.0 },
        "label": "B",
        "xyz": [2.060293945, 6.959198481920355, 1.2576777139363338]
      },
      {
        "species": [{ "element": "B", "occu": 1 }],
        "abc": [0.5, 0.03869389, 0.82627119],
        "properties": { "magmom": 0.0 },
        "label": "B",
        "xyz": [2.060293945, 0.2801172880796453, 5.981638056063667]
      },
      {
        "species": [{ "element": "B", "occu": 1 }],
        "abc": [0.5, 0.82627119, 0.96130611],
        "properties": { "magmom": 0.0 },
        "label": "B",
        "xyz": [2.060293945, 5.981638056063667, 6.959198481920355]
      },
      {
        "species": [{ "element": "B", "occu": 1 }],
        "abc": [0.5, 0.6737288100000001, 0.46130611],
        "properties": { "magmom": 0.0 },
        "label": "B",
        "xyz": [2.060293945, 4.877335598936335, 3.339540596920355]
      },
      {
        "species": [{ "element": "B", "occu": 1 }],
        "abc": [0.5, 0.32627119, 0.53869389],
        "properties": { "magmom": 0.0 },
        "label": "B",
        "xyz": [2.060293945, 2.3619801710636663, 3.8997751730796453]
      },
      {
        "species": [{ "element": "B", "occu": 1 }],
        "abc": [0.5, 0.53869389, 0.6737288100000001],
        "properties": { "magmom": 0.0 },
        "label": "B",
        "xyz": [2.060293945, 3.8997751730796453, 4.877335598936335]
      },
      {
        "species": [{ "element": "B", "occu": 1 }],
        "abc": [0.5, 0.46130611, 0.32627119],
        "properties": { "magmom": 0.0 },
        "label": "B",
        "xyz": [2.060293945, 3.339540596920355, 2.3619801710636663]
      },
      {
        "species": [{ "element": "B", "occu": 1 }],
        "abc": [0.2049934, -0.0, 0.0],
        "properties": { "magmom": -0.0 },
        "label": "B",
        "xyz": [0.844693321569926, 0.0, 0.0]
      },
      {
        "species": [{ "element": "B", "occu": 1 }],
        "abc": [0.7950066, 0.5, 0.5],
        "properties": { "magmom": -0.0 },
        "label": "B",
        "xyz": [3.275894568430074, 3.619657885, 3.619657885]
      },
      {
        "species": [{ "element": "B", "occu": 1 }],
        "abc": [0.7950066, -0.0, 0.0],
        "properties": { "magmom": -0.0 },
        "label": "B",
        "xyz": [3.275894568430074, 0.0, 0.0]
      },
      {
        "species": [{ "element": "B", "occu": 1 }],
        "abc": [0.2049934, 0.5, 0.5],
        "properties": { "magmom": -0.0 },
        "label": "B",
        "xyz": [0.844693321569926, 3.619657885, 3.619657885]
      }
    ]
  },
  "task_ids": null,
  "uncorrected_energy_per_atom": null,
  "energy_per_atom": -12.3923225325,
  "formation_energy_per_atom": -0.6316373780000001,
  "energy_above_hull": 0.0,
  "is_stable": true,
  "equilibrium_reaction_energy_per_atom": null,
  "decomposes_to": null,
  "xas": null,
  "grain_boundaries": null,
  "band_gap": 0.0,
  "cbm": null,
  "vbm": null,
  "efermi": 5.79430285,
  "is_gap_direct": null,
  "is_metal": null,
  "es_source_calc_id": null,
  "bandstructure": null,
  "dos": null,
  "dos_energy_up": null,
  "dos_energy_down": null,
  "is_magnetic": null,
  "ordering": null,
  "total_magnetization": 0.0,
  "total_magnetization_normalized_vol": null,
  "total_magnetization_normalized_formula_units": null,
  "num_magnetic_sites": null,
  "num_unique_magnetic_sites": null,
  "types_of_magnetic_species": null,
  "bulk_modulus": null,
  "shear_modulus": null,
  "universal_anisotropy": null,
  "homogeneous_poisson": null,
  "e_total": null,
  "e_ionic": null,
  "e_electronic": null,
  "n": null,
  "e_ij_max": null,
  "weighted_surface_energy_EV_PER_ANG2": null,
  "weighted_surface_energy": null,
  "weighted_work_function": null,
  "surface_anisotropy": null,
  "shape_factor": null,
  "has_reconstructed": null,
  "possible_species": null,
  "has_props": null,
  "theoretical": null,
  "database_IDs": null,
  "fields_not_requested": [
    "builder_meta",
    "nsites",
    "elements",
    "nelements",
    "composition",
    "composition_reduced",
    "chemsys",
    "symmetry",
    "property_name",
    "deprecated",
    "deprecation_reasons",
    "last_updated",
    "origins",
    "warnings",
    "task_ids",
    "uncorrected_energy_per_atom",
    "equilibrium_reaction_energy_per_atom",
    "decomposes_to",
    "xas",
    "grain_boundaries",
    "cbm",
    "vbm",
    "is_gap_direct",
    "is_metal",
    "es_source_calc_id",
    "bandstructure",
    "dos",
    "dos_energy_up",
    "dos_energy_down",
    "is_magnetic",
    "ordering",
    "total_magnetization_normalized_vol",
    "total_magnetization_normalized_formula_units",
    "num_magnetic_sites",
    "num_unique_magnetic_sites",
    "types_of_magnetic_species",
    "bulk_modulus",
    "shear_modulus",
    "universal_anisotropy",
    "homogeneous_poisson",
    "e_total",
    "e_ionic",
    "e_electronic",
    "n",
    "e_ij_max",
    "weighted_surface_energy_EV_PER_ANG2",
    "weighted_surface_energy",
    "weighted_work_function",
    "surface_anisotropy",
    "shape_factor",
    "has_reconstructed",
    "possible_species",
    "has_props",
    "theoretical",
    "database_IDs"
  ]
}
