{
  "builder_meta": null,
  "nsites": null,
  "elements": null,
  "nelements": null,
  "composition": null,
  "composition_reduced": null,
  "formula_pretty": "NdBr2",
  "formula_anonymous": "AB2",
  "chemsys": null,
  "volume": 401.2655299375084,
  "density": 5.032945673438325,
  "density_atomic": 33.438794161459036,
  "symmetry": null,
  "property_name": null,
  "material_id": "mp-1210109",
  "deprecated": null,
  "deprecation_reasons": null,
  "last_updated": null,
  "origins": null,
  "warnings": null,
  "structure": {
    "@module": "pymatgen.core.structure",
    "@class": "Structure",
    "charge": 0,
    "lattice": {
      "matrix": [
        [4.04002804, 0.0, 0.0],
        [0.0, 6.88681895, 0.0],
        [0.0, 0.0, 14.42211017]
      ],
      "pbc": [true, true, true],
      "a": 4.04002804,
      "b": 6.88681895,
      "c": 14.42211017,
      "alpha": 90.0,
      "beta": 90.0,
      "gamma": 90.0,
      "volume": 401.2655299375084
    },
    "properties": {},
    "sites": [
      {
        "species": [{ "element": "Nd", "occu": 1 }],
        "abc": [0.25, 0.74426085, -0.00012238],
        "properties": { "magmom": -0.0 },
        "label": "Nd",
        "xyz": [1.01000701, 5.125589725523108, -0.0017649778426046]
      },
      {
        "species": [{ "element": "Nd", "occu": 1 }],
        "abc": [0.75, 0.25573915, 0.00012238],
        "properties": { "magmom": -0.0 },
        "label": "Nd",
        "xyz": [3.0300210300000003, 1.7612292244768928, 0.0017649778426046]
      },
      {
        "species": [{ "element": "Nd", "occu": 1 }],
        "abc": [0.75, 0.75573915, 0.49987762],
        "properties": { "magmom": -0.0 },
        "label": "Nd",
        "xyz": [3.0300210300000003, 5.2046386994768925, 7.209290107157396]
      },
      {
        "species": [{ "element": "Nd", "occu": 1 }],
        "abc": [0.25, 0.24426085, 0.50012238],
        "properties": { "magmom": -0.0 },
        "label": "Nd",
        "xyz": [1.01000701, 1.6821802505231076, 7.212820062842604]
      },
      {
        "species": [{ "element": "Br", "occu": 1 }],
        "abc": [0.25, 0.58446749, 0.62834273],
        "properties": { "magmom": -0.0 },
        "label": "Br",
        "xyz": [1.01000701, 4.025121785790936, 9.062028076578564]
      },
      {
        "species": [{ "element": "Br", "occu": 1 }],
        "abc": [0.75, 0.41553251, 0.37165727],
        "properties": { "magmom": -0.0 },
        "label": "Br",
        "xyz": [3.0300210300000003, 2.861697164209065, 5.360082093421435]
      },
      {
        "species": [{ "element": "Br", "occu": 1 }],
        "abc": [0.75, 0.91553251, 0.12834273000000002],
        "properties": { "magmom": -0.0 },
        "label": "Br",
        "xyz": [3.0300210300000003, 6.305106639209065, 1.8509729915785642]
      },
      {
        "species": [{ "element": "Br", "occu": 1 }],
        "abc": [0.25, 0.08446749, 0.87165727],
        "properties": { "magmom": -0.0 },
        "label": "Br",
        "xyz": [1.01000701, 0.5817123107909355, 12.571137178421436]
      },
      {
        "species": [{ "element": "Br", "occu": 1 }],
        "abc": [0.25, 0.41254517, 0.13178853000000001],
        "properties": { "magmom": 0.0 },
        "label": "Br",
        "xyz": [1.01000701, 2.8411238944869717, 1.9006686988023502]
      },
      {
        "species": [{ "element": "Br", "occu": 1 }],
        "abc": [0.75, 0.58745483, 0.86821147],
        "properties": { "magmom": 0.0 },
        "label": "Br",
        "xyz": [3.0300210300000003, 4.045695055513028, 12.52144147119765]
      },
      {
        "species": [{ "element": "Br", "occu": 1 }],
        "abc": [0.75, 0.08745483, 0.63178853],
        "properties": { "magmom": 0.0 },
        "label": "Br",
        "xyz": [3.0300210300000003, 0.6022855805130285, 9.11172378380235]
      },
      {
        "species": [{ "element": "Br", "occu": 1 }],
        "abc": [0.25, 0.91254517, 0.36821147],
        "properties": { "magmom": 0.0 },
        "label": "Br",
        "xyz": [1.01000701, 6.284533369486972, 5.310386386197649]
      }
    ]
  },
  "task_ids": null,
  "uncorrected_energy_per_atom": null,
  "energy_per_atom": -4.714083063333336,
  "formation_energy_per_atom": -2.0334028958333352,
  "energy_above_hull": 0.020419790277774002,
  "is_stable": false,
  "equilibrium_reaction_energy_per_atom": null,
  "decomposes_to": null,
  "xas": null,
  "grain_boundaries": null,
  "band_gap": 0.0,
  "cbm": null,
  "vbm": null,
  "efermi": 2.39253785,
  "is_gap_direct": null,
  "is_metal": null,
  "es_source_calc_id": null,
  "bandstructure": null,
  "dos": null,
  "dos_energy_up": null,
  "dos_energy_down": null,
  "is_magnetic": null,
  "ordering": null,
  "total_magnetization": 1e-7,
  "total_magnetization_normalized_vol": null,
  "total_magnetization_normalized_formula_units": null,
  "num_magnetic_sites": null,
  "num_unique_magnetic_sites": null,
  "types_of_magnetic_species": null,
  "bulk_modulus": null,
  "shear_modulus": null,
  "universal_anisotropy": null,
  "homogeneous_poisson": null,
  "e_total": null,
  "e_ionic": null,
  "e_electronic": null,
  "n": null,
  "e_ij_max": null,
  "weighted_surface_energy_EV_PER_ANG2": null,
  "weighted_surface_energy": null,
  "weighted_work_function": null,
  "surface_anisotropy": null,
  "shape_factor": null,
  "has_reconstructed": null,
  "possible_species": null,
  "has_props": null,
  "theoretical": null,
  "database_IDs": null,
  "fields_not_requested": [
    "builder_meta",
    "nsites",
    "elements",
    "nelements",
    "composition",
    "composition_reduced",
    "chemsys",
    "symmetry",
    "property_name",
    "deprecated",
    "deprecation_reasons",
    "last_updated",
    "origins",
    "warnings",
    "task_ids",
    "uncorrected_energy_per_atom",
    "equilibrium_reaction_energy_per_atom",
    "decomposes_to",
    "xas",
    "grain_boundaries",
    "cbm",
    "vbm",
    "is_gap_direct",
    "is_metal",
    "es_source_calc_id",
    "bandstructure",
    "dos",
    "dos_energy_up",
    "dos_energy_down",
    "is_magnetic",
    "ordering",
    "total_magnetization_normalized_vol",
    "total_magnetization_normalized_formula_units",
    "num_magnetic_sites",
    "num_unique_magnetic_sites",
    "types_of_magnetic_species",
    "bulk_modulus",
    "shear_modulus",
    "universal_anisotropy",
    "homogeneous_poisson",
    "e_total",
    "e_ionic",
    "e_electronic",
    "n",
    "e_ij_max",
    "weighted_surface_energy_EV_PER_ANG2",
    "weighted_surface_energy",
    "weighted_work_function",
    "surface_anisotropy",
    "shape_factor",
    "has_reconstructed",
    "possible_species",
    "has_props",
    "theoretical",
    "database_IDs"
  ]
}
