{
  "builder_meta": null,
  "nsites": null,
  "elements": null,
  "nelements": null,
  "composition": null,
  "composition_reduced": null,
  "formula_pretty": "NdBr3",
  "formula_anonymous": "AB3",
  "chemsys": null,
  "volume": 250.5114283997206,
  "density": 5.090151941172257,
  "density_atomic": 31.313928549965073,
  "symmetry": null,
  "property_name": null,
  "material_id": "mp-27975",
  "deprecated": null,
  "deprecation_reasons": null,
  "last_updated": null,
  "origins": null,
  "warnings": null,
  "structure": {
    "@module": "pymatgen.core.structure",
    "@class": "Structure",
    "charge": 0,
    "lattice": {
      "matrix": [
        [4.13024171, 0.0, 0.0],
        [-2.06512034, 6.56436085, 0.0],
        [0.0, -0.0, 9.2397374]
      ],
      "pbc": [true, true, true],
      "a": 4.13024171,
      "b": 6.881537283753858,
      "c": 9.2397374,
      "alpha": 90.0,
      "beta": 90.0,
      "gamma": 107.4633563412459,
      "volume": 250.5114283997206
    },
    "properties": {},
    "sites": [
      {
        "species": [{ "element": "Nd", "occu": 1 }],
        "abc": [0.7423053900000001, 0.48461179, 0.25],
        "properties": { "magmom": 0.0 },
        "label": "Nd",
        "xyz": [2.065119018803009, 3.181166661724421, 2.30993435]
      },
      {
        "species": [{ "element": "Nd", "occu": 1 }],
        "abc": [0.25769461, 0.51538821, 0.75],
        "properties": { "magmom": 0.0 },
        "label": "Nd",
        "xyz": [2.3511969915457342e-6, 3.3831941882755787, 6.929803049999999]
      },
      {
        "species": [{ "element": "Br", "occu": 1 }],
        "abc": [0.35173752, 0.70347604, 0.43402],
        "properties": { "magmom": 0.0 },
        "label": "Br",
        "xyz": [-1.7028306942279414e-6, 4.617870575889034, 4.010230826348]
      },
      {
        "species": [{ "element": "Br", "occu": 1 }],
        "abc": [0.64826248, 0.29652396000000003, 0.56598],
        "properties": { "magmom": 0.0 },
        "label": "Br",
        "xyz": [2.065123072830694, 1.9464902741109662, 5.229506573652]
      },
      {
        "species": [{ "element": "Br", "occu": 1 }],
        "abc": [0.91442236, 0.82884472, 0.75],
        "properties": { "magmom": -0.0 },
        "label": "Br",
        "xyz": [2.065121281855031, 5.440835830697212, 6.929803049999999]
      },
      {
        "species": [{ "element": "Br", "occu": 1 }],
        "abc": [0.08557764, 0.17115528, 0.25],
        "properties": { "magmom": -0.0 },
        "label": "Br",
        "xyz": [8.814496921250026e-8, 1.123525019302788, 2.30993435]
      },
      {
        "species": [{ "element": "Br", "occu": 1 }],
        "abc": [0.35173752, 0.70347604, 0.06598000000000001],
        "properties": { "magmom": 0.0 },
        "label": "Br",
        "xyz": [-1.7028306942279414e-6, 4.617870575889034, 0.6096378736520001]
      },
      {
        "species": [{ "element": "Br", "occu": 1 }],
        "abc": [0.64826248, 0.29652396000000003, 0.9340200000000001],
        "properties": { "magmom": 0.0 },
        "label": "Br",
        "xyz": [2.065123072830694, 1.9464902741109662, 8.630099526348]
      }
    ]
  },
  "task_ids": null,
  "uncorrected_energy_per_atom": null,
  "energy_per_atom": -4.7302972812499995,
  "formation_energy_per_atom": -2.310550521874999,
  "energy_above_hull": 0.0,
  "is_stable": true,
  "equilibrium_reaction_energy_per_atom": null,
  "decomposes_to": null,
  "xas": null,
  "grain_boundaries": null,
  "band_gap": 2.9221,
  "cbm": null,
  "vbm": null,
  "efermi": 0.16000813,
  "is_gap_direct": null,
  "is_metal": null,
  "es_source_calc_id": null,
  "bandstructure": null,
  "dos": null,
  "dos_energy_up": null,
  "dos_energy_down": null,
  "is_magnetic": null,
  "ordering": null,
  "total_magnetization": 0.0,
  "total_magnetization_normalized_vol": null,
  "total_magnetization_normalized_formula_units": null,
  "num_magnetic_sites": null,
  "num_unique_magnetic_sites": null,
  "types_of_magnetic_species": null,
  "bulk_modulus": null,
  "shear_modulus": null,
  "universal_anisotropy": null,
  "homogeneous_poisson": null,
  "e_total": null,
  "e_ionic": null,
  "e_electronic": null,
  "n": null,
  "e_ij_max": null,
  "weighted_surface_energy_EV_PER_ANG2": null,
  "weighted_surface_energy": null,
  "weighted_work_function": null,
  "surface_anisotropy": null,
  "shape_factor": null,
  "has_reconstructed": null,
  "possible_species": null,
  "has_props": null,
  "theoretical": null,
  "database_IDs": null,
  "fields_not_requested": [
    "builder_meta",
    "nsites",
    "elements",
    "nelements",
    "composition",
    "composition_reduced",
    "chemsys",
    "symmetry",
    "property_name",
    "deprecated",
    "deprecation_reasons",
    "last_updated",
    "origins",
    "warnings",
    "task_ids",
    "uncorrected_energy_per_atom",
    "equilibrium_reaction_energy_per_atom",
    "decomposes_to",
    "xas",
    "grain_boundaries",
    "cbm",
    "vbm",
    "is_gap_direct",
    "is_metal",
    "es_source_calc_id",
    "bandstructure",
    "dos",
    "dos_energy_up",
    "dos_energy_down",
    "is_magnetic",
    "ordering",
    "total_magnetization_normalized_vol",
    "total_magnetization_normalized_formula_units",
    "num_magnetic_sites",
    "num_unique_magnetic_sites",
    "types_of_magnetic_species",
    "bulk_modulus",
    "shear_modulus",
    "universal_anisotropy",
    "homogeneous_poisson",
    "e_total",
    "e_ionic",
    "e_electronic",
    "n",
    "e_ij_max",
    "weighted_surface_energy_EV_PER_ANG2",
    "weighted_surface_energy",
    "weighted_work_function",
    "surface_anisotropy",
    "shape_factor",
    "has_reconstructed",
    "possible_species",
    "has_props",
    "theoretical",
    "database_IDs"
  ]
}
