{
  "builder_meta": null,
  "nsites": null,
  "elements": null,
  "nelements": null,
  "composition": null,
  "composition_reduced": null,
  "formula_pretty": "NdCd6",
  "formula_anonymous": "AB6",
  "chemsys": null,
  "volume": 2022.8174984846669,
  "density": 8.064968505501138,
  "density_atomic": 24.081160696246034,
  "symmetry": null,
  "property_name": null,
  "material_id": "mp-1221195",
  "deprecated": null,
  "deprecation_reasons": null,
  "last_updated": null,
  "origins": null,
  "warnings": null,
  "structure": {
    "@module": "pymatgen.core.structure",
    "@class": "Structure",
    "charge": 0,
    "lattice": {
      "matrix": [
        [-7.881117, 7.940907, 8.080511],
        [7.881117, -7.940907, 8.080511],
        [7.881117, 7.940907, -8.080511]
      ],
      "pbc": [true, true, true],
      "a": 13.800893709157352,
      "b": 13.800893709157352,
      "c": 13.800893709157352,
      "alpha": 110.3518642646258,
      "beta": 109.74599325610153,
      "gamma": 108.32246024938975,
      "volume": 2022.8174984846669
    },
    "properties": {},
    "sites": [
      {
        "species": [{ "element": "Nd", "occu": 1 }],
        "abc": [0.803975999999999, 0.506464999999999, 0.702488],
        "properties": { "magmom": 0.0 },
        "label": "Nd",
        "xyz": [3.191671119309, 7.940899059093, 4.912570903982984]
      },
      {
        "species": [{ "element": "Nd", "occu": 1 }],
        "abc": [0.196024, 0.493535, 0.297512],
        "properties": { "magmom": 0.0 },
        "label": "Nd",
        "xyz": [4.689445880691, 7.940906999959196e-6, 3.1679400960170003]
      },
      {
        "species": [{ "element": "Nd", "occu": 1 }],
        "abc": [0.196024, 0.898512, 0.702488],
        "properties": { "magmom": 0.0 },
        "label": "Nd",
        "xyz": [11.072780238192, 8.881784197001252e-16, 3.1679481765279993]
      },
      {
        "species": [{ "element": "Nd", "occu": 1 }],
        "abc": [0.803975999999999, 0.101488, 0.297512],
        "properties": { "magmom": 0.0 },
        "label": "Nd",
        "xyz": [-3.1916632381919925, 7.940906999999993, 4.912562823471991]
      },
      {
        "species": [{ "element": "Nd", "occu": 1 }],
        "abc": [0.109943, 0.301402, 0.808541],
        "properties": { "magmom": -0.0 },
        "label": "Nd",
        "xyz": [7.881117, 4.900190773374, -3.2095466471559995]
      },
      {
        "species": [{ "element": "Nd", "occu": 1 }],
        "abc": [0.890057, 0.698597999999999, 0.191459],
        "properties": { "magmom": -0.0 },
        "label": "Nd",
        "xyz": [-7.327471962526033e-15, 3.0407162266260066, 11.29005764715599]
      },
      {
        "species": [{ "element": "Nd", "occu": 1 }],
        "abc": [0.492861, 0.301402, 0.191459],
        "properties": { "magmom": -0.0 },
        "label": "Nd",
        "xyz": [2.220446049250313e-16, 3.0407162266260004, 4.870964352844]
      },
      {
        "species": [{ "element": "Nd", "occu": 1 }],
        "abc": [0.507139, 0.698597999999999, 0.808541],
        "properties": { "magmom": -0.0 },
        "label": "Nd",
        "xyz": [7.881116999999992, 4.900190773374007, 3.2095466471559932]
      },
      {
        "species": [{ "element": "Nd", "occu": 1 }],
        "abc": [0.297773, 0.188855, 0.486629],
        "properties": { "magmom": 0.0 },
        "label": "Nd",
        "xyz": [2.9767845831869995, 4.729183341129, -8.080510999874946e-6]
      },
      {
        "species": [{ "element": "Nd", "occu": 1 }],
        "abc": [0.702226999999999, 0.811145, 0.513371],
        "properties": { "magmom": 0.0 },
        "label": "Nd",
        "xyz": [4.904332416813008, 3.2117236588709925, 8.080519080510992]
      },
      {
        "species": [{ "element": "Nd", "occu": 1 }],
        "abc": [0.297773, 0.811145, 0.108918],
        "properties": { "magmom": 0.0 },
        "label": "Nd",
        "xyz": [4.90434029793, -3.211731599777999, 8.080511]
      },
      {
        "species": [{ "element": "Nd", "occu": 1 }],
        "abc": [0.702226999999999, 0.188855, 0.891081999999999],
        "properties": { "magmom": 0.0 },
        "label": "Nd",
        "xyz": [2.9767767020700004, 11.152638599777985, -8.881784197001252e-16]
      },
      {
        "species": [{ "element": "Cd", "occu": 1 }],
        "abc": [0.998227, 0.677117, 2.6000000000000002e-5],
        "properties": { "magmom": 0.0 },
        "label": "Cd",
        "xyz": [-2.530500570828, 2.5501111103519998, 13.537425527497998]
      },
      {
        "species": [{ "element": "Cd", "occu": 1 }],
        "abc": [0.32291000000000003, 0.322883, 0.321111],
        "properties": { "magmom": 0.0 },
        "label": "Cd",
        "xyz": [2.5305005708279995, 2.550126992166, 2.623596472502]
      },
      {
        "species": [{ "element": "Cd", "occu": 1 }],
        "abc": [0.0017729999999990002, 0.0017989999999990002, 0.678889],
        "properties": { "magmom": 0.0 },
        "label": "Cd",
        "xyz": [5.350608548055, 5.390787948741, -5.456906446987015]
      },
      {
        "species": [{ "element": "Cd", "occu": 1 }],
        "abc": [0.6770900000000001, 0.998201, 0.999973999999999],
        "properties": { "magmom": 0.0 },
        "label": "Cd",
        "xyz": [10.411625451944992, 5.390787948740993, 5.456906446987007]
      },
      {
        "species": [{ "element": "Cd", "occu": 1 }],
        "abc": [0.0017729999999990002, 0.322883, 0.999973999999999],
        "properties": { "magmom": 0.0 },
        "label": "Cd",
        "xyz": [10.411617570828, 5.390795889647984, -5.456914527498]
      },
      {
        "species": [{ "element": "Cd", "occu": 1 }],
        "abc": [0.6770900000000001, 0.677117, 0.678889],
        "properties": { "magmom": 0.0 },
        "label": "Cd",
        "xyz": [5.350616429171999, 5.3907800078340005, 5.456914527498]
      },
      {
        "species": [{ "element": "Cd", "occu": 1 }],
        "abc": [0.998227, 0.998201, 0.321111],
        "properties": { "magmom": 0.0 },
        "label": "Cd",
        "xyz": [2.5305084519450007, 2.5501190512589997, 13.537417446986998]
      },
      {
        "species": [{ "element": "Cd", "occu": 1 }],
        "abc": [
          0.32291000000000003, 0.0017989999999990002, 2.6000000000000002e-5
        ],
        "properties": { "magmom": 0.0 },
        "label": "Cd",
        "xyz": [-2.530508451945008, 2.550119051259008, 2.623604553012992]
      },
      {
        "species": [{ "element": "Cd", "occu": 1 }],
        "abc": [0.772766, 0.452964, 0.914906999999999],
        "properties": { "magmom": -0.0 },
        "label": "Cd",
        "xyz": [4.690092132284993, 9.804709341062992, 2.5116086705530076]
      },
      {
        "species": [{ "element": "Cd", "occu": 1 }],
        "abc": [0.461943, 0.547036, 0.319802],
        "properties": { "magmom": -0.0 },
        "label": "Cd",
        "xyz": [3.191024867714999, 1.8638023410630002, 5.568902329446999]
      },
      {
        "species": [{ "element": "Cd", "occu": 1 }],
        "abc": [0.227234, 0.142141, 0.680198],
        "properties": { "magmom": -0.0 },
        "label": "Cd",
        "xyz": [4.690092132284999, 6.077104658937, -2.5116086705529996]
      },
      {
        "species": [{ "element": "Cd", "occu": 1 }],
        "abc": [0.538057, 0.857858999999999, 0.085093],
        "properties": { "magmom": -0.0 },
        "label": "Cd",
        "xyz": [3.1910248677149924, -1.863802341062993, 10.59211967055299]
      },
      {
        "species": [{ "element": "Cd", "occu": 1 }],
        "abc": [0.860082, 0.089475, 0.548177999999999],
        "properties": { "magmom": 0.0 },
        "label": "Cd",
        "xyz": [-1.7529889731930073, 10.472349037994992, 3.2433474246690075]
      },
      {
        "species": [{ "element": "Cd", "occu": 1 }],
        "abc": [0.139918, 0.688095999999999, 0.22939299999999901],
        "properties": { "magmom": -0.0 },
        "label": "Cd",
        "xyz": [6.128128026806985, -2.5314420379950002, 4.837163575331]
      },
      {
        "species": [{ "element": "Cd", "occu": 1 }],
        "abc": [0.541297, 0.311903999999999, 0.451822],
        "properties": { "magmom": -0.0 },
        "label": "Cd",
        "xyz": [1.7529889731929922, 5.409464962005007, 3.243347424668992]
      },
      {
        "species": [{ "element": "Cd", "occu": 1 }],
        "abc": [0.45870299999999903, 0.910524999999999, 0.770606999999999],
        "properties": { "magmom": 0.0 },
        "label": "Cd",
        "xyz": [9.634105973192991, 2.5314420379949922, 4.837163575330991]
      },
      {
        "species": [{ "element": "Cd", "occu": 1 }],
        "abc": [0.315804, 0.455802999999999, 0.540345],
        "properties": { "magmom": -0.0 },
        "label": "Cd",
        "xyz": [5.361870664247991, 3.1791103538220074, 1.8687151348819926]
      },
      {
        "species": [{ "element": "Cd", "occu": 1 }],
        "abc": [0.915458, 0.775459, 0.459655],
        "properties": { "magmom": -0.0 },
        "label": "Cd",
        "xyz": [2.5192463357520003, 4.761796646178, 9.949226134882]
      },
      {
        "species": [{ "element": "Cd", "occu": 1 }],
        "abc": [0.084541999999999, 0.544196999999999, 0.860001],
        "properties": { "magmom": -0.0 },
        "label": "Cd",
        "xyz": [10.400363335752, 3.179110353822, -1.8687151348820166]
      },
      {
        "species": [{ "element": "Cd", "occu": 1 }],
        "abc": [0.684195999999999, 0.224541, 0.139998999999999],
        "properties": { "magmom": -0.0 },
        "label": "Cd",
        "xyz": [-2.5192463357520003, 4.761796646177984, 6.211795865118001]
      },
      {
        "species": [{ "element": "Cd", "occu": 1 }],
        "abc": [0.227234, 0.547036, 0.085093],
        "properties": { "magmom": -0.0 },
        "label": "Cd",
        "xyz": [3.1910248677149995, -1.863802341063, 5.568902329446999]
      },
      {
        "species": [{ "element": "Cd", "occu": 1 }],
        "abc": [0.538057, 0.452964, 0.680198],
        "properties": { "magmom": -0.0 },
        "label": "Cd",
        "xyz": [4.690092132284999, 6.0771046589369995, 2.5116086705530005]
      },
      {
        "species": [{ "element": "Cd", "occu": 1 }],
        "abc": [0.772766, 0.857858999999999, 0.319802],
        "properties": { "magmom": -0.0 },
        "label": "Cd",
        "xyz": [3.191024867714993, 1.863802341063007, 10.59211967055299]
      },
      {
        "species": [{ "element": "Cd", "occu": 1 }],
        "abc": [0.461943, 0.142141, 0.914906999999999],
        "properties": { "magmom": -0.0 },
        "label": "Cd",
        "xyz": [4.690092132284993, 9.804709341062992, -2.5116086705529916]
      },
      {
        "species": [{ "element": "Cd", "occu": 1 }],
        "abc": [0.139918, 0.910524999999999, 0.451822],
        "properties": { "magmom": 0.0 },
        "label": "Cd",
        "xyz": [9.634105973192991, -2.5314420379949922, 4.83716357533099]
      },
      {
        "species": [{ "element": "Cd", "occu": 1 }],
        "abc": [0.860082, 0.311903999999999, 0.770606999999999],
        "properties": { "magmom": -0.0 },
        "label": "Cd",
        "xyz": [1.7529889731929842, 10.472349037995, 3.2433474246689995]
      },
      {
        "species": [{ "element": "Cd", "occu": 1 }],
        "abc": [0.45870299999999903, 0.688095999999999, 0.548177999999999],
        "properties": { "magmom": -0.0 },
        "label": "Cd",
        "xyz": [6.128128026806992, 2.5314420379949922, 4.837163575330992]
      },
      {
        "species": [{ "element": "Cd", "occu": 1 }],
        "abc": [0.541297, 0.089475, 0.22939299999999901],
        "properties": { "magmom": 0.0 },
        "label": "Cd",
        "xyz": [-1.7529889731930077, 5.409464962004992, 3.2433474246690084]
      },
      {
        "species": [{ "element": "Cd", "occu": 1 }],
        "abc": [0.684195999999999, 0.544196999999999, 0.459655],
        "properties": { "magmom": -0.0 },
        "label": "Cd",
        "xyz": [2.5192463357519994, 4.761796646178, 6.211795865117985]
      },
      {
        "species": [{ "element": "Cd", "occu": 1 }],
        "abc": [0.084541999999999, 0.224541, 0.540345],
        "properties": { "magmom": -0.0 },
        "label": "Cd",
        "xyz": [5.361870664248007, 3.179110353821992, -1.8687151348820077]
      },
      {
        "species": [{ "element": "Cd", "occu": 1 }],
        "abc": [0.915458, 0.455802999999999, 0.139998999999999],
        "properties": { "magmom": -0.0 },
        "label": "Cd",
        "xyz": [-2.519246335752015, 4.761796646178, 9.949226134882]
      },
      {
        "species": [{ "element": "Cd", "occu": 1 }],
        "abc": [0.315804, 0.775459, 0.860001],
        "properties": { "magmom": -0.0 },
        "label": "Cd",
        "xyz": [10.400363335752001, 3.179110353822, 1.8687151348819997]
      },
      {
        "species": [{ "element": "Cd", "occu": 1 }],
        "abc": [0.743938, 0.648207, 0.904269],
        "properties": { "magmom": -0.0 },
        "label": "Cd",
        "xyz": [6.372182576945999, 7.940906999999999, 3.942287384635999]
      },
      {
        "species": [{ "element": "Cd", "occu": 1 }],
        "abc": [0.256062, 0.351792999999999, 0.095731],
        "properties": { "magmom": -0.0 },
        "label": "Cd",
        "xyz": [1.5089344230539923, 7.993605777301127e-15, 4.138223615363992]
      },
      {
        "species": [{ "element": "Cd", "occu": 1 }],
        "abc": [0.256062, 0.160331, 0.904269],
        "properties": { "magmom": -0.0 },
        "label": "Cd",
        "xyz": [6.372182576945999, 7.940907, -3.942287384636]
      },
      {
        "species": [{ "element": "Cd", "occu": 1 }],
        "abc": [0.743938, 0.839669, 0.095731],
        "properties": { "magmom": -0.0 },
        "label": "Cd",
        "xyz": [1.5089344230539994, -4.440892098500626e-16, 12.022798384636001]
      },
      {
        "species": [{ "element": "Cd", "occu": 1 }],
        "abc": [0.855032999999999, 0.09017599999999901, 0.764857],
        "properties": { "magmom": 0.0 },
        "label": "Cd",
        "xyz": [0.0, 12.147316610598, 1.4573363198719846]
      },
      {
        "species": [{ "element": "Cd", "occu": 1 }],
        "abc": [0.144966999999999, 0.909824, 0.235143],
        "properties": { "magmom": -0.0 },
        "label": "Cd",
        "xyz": [7.881117000000008, -4.2064096105980076, 6.62317468012799]
      },
      {
        "species": [{ "element": "Cd", "occu": 1 }],
        "abc": [0.325318999999999, 0.09017599999999901, 0.235143],
        "properties": { "magmom": -0.0 },
        "label": "Cd",
        "xyz": [-2.220446049250313e-16, 3.734497389402, 1.4573363198719842]
      },
      {
        "species": [{ "element": "Cd", "occu": 1 }],
        "abc": [0.674681, 0.909824, 0.764857],
        "properties": { "magmom": 0.0 },
        "label": "Cd",
        "xyz": [7.881117000000001, 4.2064096105980004, 6.623174680127999]
      },
      {
        "species": [{ "element": "Cd", "occu": 1 }],
        "abc": [0.094716, 0.241871, 0.336586999999999],
        "properties": { "magmom": 0.0 },
        "label": "Cd",
        "xyz": [3.8124272998139923, 1.5042618948239923, 7.993605777301127e-15]
      },
      {
        "species": [{ "element": "Cd", "occu": 1 }],
        "abc": [0.905284, 0.758128999999999, 0.663412999999999],
        "properties": { "magmom": 0.0 },
        "label": "Cd",
        "xyz": [4.068689700185985, 6.436645105176, 8.080511]
      },
      {
        "species": [{ "element": "Cd", "occu": 1 }],
        "abc": [0.094716, 0.758128999999999, 0.852845],
        "properties": { "magmom": 0.0 },
        "label": "Cd",
        "xyz": [11.949806700185992, 1.5042618948240074, -7.993605777301127e-15]
      },
      {
        "species": [{ "element": "Cd", "occu": 1 }],
        "abc": [0.905284, 0.241871, 0.147154999999999],
        "properties": { "magmom": 0.0 },
        "label": "Cd",
        "xyz": [-4.068689700186007, 6.436645105175992, 8.080511000000008]
      },
      {
        "species": [{ "element": "Cd", "occu": 1 }],
        "abc": [0.596774, 0.243776, 0.647003],
        "properties": { "magmom": -0.0 },
        "label": "Cd",
        "xyz": [2.3170878035849993, 7.940914940907001, 1.5639586625169999]
      },
      {
        "species": [{ "element": "Cd", "occu": 1 }],
        "abc": [0.403226, 0.756224, 0.352997],
        "properties": { "magmom": 0.0 },
        "label": "Cd",
        "xyz": [5.5640291964149995, -7.940907000403286e-6, 6.516552337482999]
      },
      {
        "species": [{ "element": "Cd", "occu": 1 }],
        "abc": [0.403226, 0.050228999999999004, 0.647003],
        "properties": { "magmom": -0.0 },
        "label": "Cd",
        "xyz": [2.317095684701992, 7.940907000000008, -1.5639667430280086]
      },
      {
        "species": [{ "element": "Cd", "occu": 1 }],
        "abc": [0.596774, 0.949770999999999, 0.352997],
        "properties": { "magmom": -0.0 },
        "label": "Cd",
        "xyz": [5.564021315297992, 8.43769498715119e-15, 9.644477743027991]
      },
      {
        "species": [{ "element": "Cd", "occu": 1 }],
        "abc": [0.947772, 0.35235000000000005, 0.595422999999999],
        "properties": { "magmom": 0.0 },
        "label": "Cd",
        "xyz": [7.881116993679882e-6, 9.456389396414991, 5.694328021189007]
      },
      {
        "species": [{ "element": "Cd", "occu": 1 }],
        "abc": [0.052228, 0.6476500000000001, 0.404576999999999],
        "properties": { "magmom": 0.0 },
        "label": "Cd",
        "xyz": [7.881109118882993, -1.5154823964150084, 2.3861829788110085]
      },
      {
        "species": [{ "element": "Cd", "occu": 1 }],
        "abc": [0.756927, 0.35235000000000005, 0.404576999999999],
        "properties": { "magmom": 0.0 },
        "label": "Cd",
        "xyz": [-7.105427357601002e-15, 6.425416662677993, 5.694336101700008]
      },
      {
        "species": [{ "element": "Cd", "occu": 1 }],
        "abc": [0.243072999999999, 0.6476500000000001, 0.595422999999999],
        "properties": { "magmom": 0.0 },
        "label": "Cd",
        "xyz": [7.881117, 1.5154903373219843, 2.3861748982999993]
      },
      {
        "species": [{ "element": "Cd", "occu": 1 }],
        "abc": [0.34946699999999903, 0.40363000000000004, 0.753097],
        "properties": { "magmom": -0.0 },
        "label": "Cd",
        "xyz": [6.362110509420008, 5.550169893137992, -7.993605777301127e-15]
      },
      {
        "species": [{ "element": "Cd", "occu": 1 }],
        "abc": [0.650532999999999, 0.5963700000000001, 0.246902999999999],
        "properties": { "magmom": -0.0 },
        "label": "Cd",
        "xyz": [1.5190064905800003, 2.3907371068619847, 8.080511000000001]
      },
      {
        "species": [{ "element": "Cd", "occu": 1 }],
        "abc": [0.34946699999999903, 0.5963700000000001, 0.945836999999999],
        "properties": { "magmom": -0.0 },
        "label": "Cd",
        "xyz": [9.40012349058, 5.550169893137985, 8.881784197001252e-16]
      },
      {
        "species": [{ "element": "Cd", "occu": 1 }],
        "abc": [0.650532999999999, 0.40363000000000004, 0.054162999999999004],
        "properties": { "magmom": -0.0 },
        "label": "Cd",
        "xyz": [-1.5190064905799996, 2.3907371068619843, 8.080511000000001]
      },
      {
        "species": [{ "element": "Cd", "occu": 1 }],
        "abc": [0.592001, 0.592001, 0.0],
        "properties": { "magmom": -0.0 },
        "label": "Cd",
        "xyz": [0.0, 0.0, 9.567341185022]
      },
      {
        "species": [{ "element": "Cd", "occu": 1 }],
        "abc": [0.407999, 0.407999, 0.0],
        "properties": { "magmom": -0.0 },
        "label": "Cd",
        "xyz": [0.0, 0.0, 6.593680814978]
      },
      {
        "species": [{ "element": "Cd", "occu": 1 }],
        "abc": [0.596136, 0.0, 0.596136],
        "properties": { "magmom": -0.0 },
        "label": "Cd",
        "xyz": [0.0, 9.467721070704, 0.0]
      },
      {
        "species": [{ "element": "Cd", "occu": 1 }],
        "abc": [0.403864, 0.0, 0.403864],
        "properties": { "magmom": -0.0 },
        "label": "Cd",
        "xyz": [0.0, 6.414092929296, 0.0]
      },
      {
        "species": [{ "element": "Cd", "occu": 1 }],
        "abc": [0.0, 0.404651, 0.404651],
        "properties": { "magmom": -0.0 },
        "label": "Cd",
        "xyz": [6.3782037503339994, 0.0, 0.0]
      },
      {
        "species": [{ "element": "Cd", "occu": 1 }],
        "abc": [0.0, 0.595349, 0.595349],
        "properties": { "magmom": -0.0 },
        "label": "Cd",
        "xyz": [9.384030249665999, 0.0, 0.0]
      },
      {
        "species": [{ "element": "Cd", "occu": 1 }],
        "abc": [0.5, 0.302780999999999, 0.802781],
        "properties": { "magmom": -0.0 },
        "label": "Cd",
        "xyz": [4.7725049727539925, 7.940907000000008, -7.993605777301127e-15]
      },
      {
        "species": [{ "element": "Cd", "occu": 1 }],
        "abc": [0.5, 0.697218999999999, 0.197218999999999],
        "properties": { "magmom": -0.0 },
        "label": "Cd",
        "xyz": [3.108612027245984, -4.440892098500626e-16, 8.080511000000001]
      },
      {
        "species": [{ "element": "Cd", "occu": 1 }],
        "abc": [0.698449, 0.198449, 0.5],
        "properties": { "magmom": 0.0 },
        "label": "Cd",
        "xyz": [0.0, 7.940907000000001, 3.2071386548779994]
      },
      {
        "species": [{ "element": "Cd", "occu": 1 }],
        "abc": [0.301551, 0.801551, 0.5],
        "properties": { "magmom": 0.0 },
        "label": "Cd",
        "xyz": [7.881117, -4.440892098500626e-16, 4.873372345122001]
      },
      {
        "species": [{ "element": "Cd", "occu": 1 }],
        "abc": [0.19278, 0.5, 0.6927800000000001],
        "properties": { "magmom": -0.0 },
        "label": "Cd",
        "xyz": [7.881117, 3.061696102920001, -8.881784197001252e-16]
      },
      {
        "species": [{ "element": "Cd", "occu": 1 }],
        "abc": [0.80722, 0.5, 0.30722000000000005],
        "properties": { "magmom": -0.0 },
        "label": "Cd",
        "xyz": [-4.440892098500626e-16, 4.879210897080001, 8.080511]
      },
      {
        "species": [{ "element": "Cd", "occu": 1 }],
        "abc": [0.915372, 0.8212400000000001, 0.905867],
        "properties": { "magmom": 0.0 },
        "label": "Cd",
        "xyz": [6.3973785079950005, 7.940899059093, 6.712844110695]
      },
      {
        "species": [{ "element": "Cd", "occu": 1 }],
        "abc": [0.084628, 0.17876, 0.094133],
        "properties": { "magmom": 0.0 },
        "label": "Cd",
        "xyz": [1.4837384920049999, 7.940906999848174e-6, 1.367666889305]
      },
      {
        "species": [{ "element": "Cd", "occu": 1 }],
        "abc": [0.084628, 0.9904949999999991, 0.905867],
        "properties": { "magmom": 0.0 },
        "label": "Cd",
        "xyz": [14.278487626877991, 7.105427357601002e-15, 1.3676749698159938]
      },
      {
        "species": [{ "element": "Cd", "occu": 1 }],
        "abc": [0.915372, 0.009505, 0.094133],
        "properties": { "magmom": 0.0 },
        "label": "Cd",
        "xyz": [-6.397370626878, 7.940907, 6.712836030183999]
      }
    ]
  },
  "task_ids": null,
  "uncorrected_energy_per_atom": null,
  "energy_per_atom": -1.678620091547619,
  "formation_energy_per_atom": -0.174590295476188,
  "energy_above_hull": 0.0037088947023810005,
  "is_stable": false,
  "equilibrium_reaction_energy_per_atom": null,
  "decomposes_to": null,
  "xas": null,
  "grain_boundaries": null,
  "band_gap": 0.0,
  "cbm": null,
  "vbm": null,
  "efermi": 2.86086121,
  "is_gap_direct": null,
  "is_metal": null,
  "es_source_calc_id": null,
  "bandstructure": null,
  "dos": null,
  "dos_energy_up": null,
  "dos_energy_down": null,
  "is_magnetic": null,
  "ordering": null,
  "total_magnetization": 0.0038407,
  "total_magnetization_normalized_vol": null,
  "total_magnetization_normalized_formula_units": null,
  "num_magnetic_sites": null,
  "num_unique_magnetic_sites": null,
  "types_of_magnetic_species": null,
  "bulk_modulus": null,
  "shear_modulus": null,
  "universal_anisotropy": null,
  "homogeneous_poisson": null,
  "e_total": null,
  "e_ionic": null,
  "e_electronic": null,
  "n": null,
  "e_ij_max": null,
  "weighted_surface_energy_EV_PER_ANG2": null,
  "weighted_surface_energy": null,
  "weighted_work_function": null,
  "surface_anisotropy": null,
  "shape_factor": null,
  "has_reconstructed": null,
  "possible_species": null,
  "has_props": null,
  "theoretical": null,
  "database_IDs": null,
  "fields_not_requested": [
    "builder_meta",
    "nsites",
    "elements",
    "nelements",
    "composition",
    "composition_reduced",
    "chemsys",
    "symmetry",
    "property_name",
    "deprecated",
    "deprecation_reasons",
    "last_updated",
    "origins",
    "warnings",
    "task_ids",
    "uncorrected_energy_per_atom",
    "equilibrium_reaction_energy_per_atom",
    "decomposes_to",
    "xas",
    "grain_boundaries",
    "cbm",
    "vbm",
    "is_gap_direct",
    "is_metal",
    "es_source_calc_id",
    "bandstructure",
    "dos",
    "dos_energy_up",
    "dos_energy_down",
    "is_magnetic",
    "ordering",
    "total_magnetization_normalized_vol",
    "total_magnetization_normalized_formula_units",
    "num_magnetic_sites",
    "num_unique_magnetic_sites",
    "types_of_magnetic_species",
    "bulk_modulus",
    "shear_modulus",
    "universal_anisotropy",
    "homogeneous_poisson",
    "e_total",
    "e_ionic",
    "e_electronic",
    "n",
    "e_ij_max",
    "weighted_surface_energy_EV_PER_ANG2",
    "weighted_surface_energy",
    "weighted_work_function",
    "surface_anisotropy",
    "shape_factor",
    "has_reconstructed",
    "possible_species",
    "has_props",
    "theoretical",
    "database_IDs"
  ]
}
