{"builder_meta": null, "nsites": null, "elements": null, "nelements": null, "composition": null, "composition_reduced": null, "formula_pretty": "NdCl2", "formula_anonymous": "AB2", "chemsys": null, "volume": 184.33953443263994, "density": 3.876126303567342, "density_atomic": 30.72325573877332, "symmetry": null, "property_name": null, "material_id": "mp-973953", "deprecated": null, "deprecation_reasons": null, "last_updated": null, "origins": null, "warnings": null, "structure": {"@module": "pymatgen.core.structure", "@class": "Structure", "charge": 0, "lattice": {"matrix": [[7.161319, 0.0, 0.0], [0.0, 7.161319, 0.0], [0.0, 0.0, 3.59445]], "pbc": [true, true, true], "a": 7.161319, "b": 7.161319, "c": 3.59445, "alpha": 90.0, "beta": 90.0, "gamma": 90.0, "volume": 184.33953443263994}, "properties": {}, "sites": [{"species": [{"element": "Nd", "occu": 1}], "abc": [0.0, 0.0, 0.0], "properties": {"magmom": 0.156}, "label": "Nd", "xyz": [0.0, 0.0, 0.0]}, {"species": [{"element": "Nd", "occu": 1}], "abc": [0.5, 0.5, 0.5], "properties": {"magmom": 0.153}, "label": "Nd", "xyz": [3.5806595, 3.5806595, 1.797225]}, {"species": [{"element": "Cl", "occu": 1}], "abc": [0.280211, 0.280211, 0.0], "properties": {"magmom": -0.0}, "label": "Cl", "xyz": [2.006680358309, 2.006680358309, 0.0]}, {"species": [{"element": "Cl", "occu": 1}], "abc": [0.719789, 0.719789, 0.0], "properties": {"magmom": -0.0}, "label": "Cl", "xyz": [5.154638641691, 5.154638641691, 0.0]}, {"species": [{"element": "Cl", "occu": 1}], "abc": [0.219788999999999, 0.780211, 0.5], "properties": {"magmom": 0.002}, "label": "Cl", "xyz": [1.573979141690993, 5.587339858309, 1.797225]}, {"species": [{"element": "Cl", "occu": 1}], "abc": [0.780211, 0.219788999999999, 0.5], "properties": {"magmom": 0.002}, "label": "Cl", "xyz": [5.587339858309, 1.573979141690993, 1.797225]}]}, "task_ids": null, "uncorrected_energy_per_atom": null, "energy_per_atom": -16.11836589111111, "formation_energy_per_atom": -2.210736965277777, "energy_above_hull": 0.08784575138889, "is_stable": false, "equilibrium_reaction_energy_per_atom": null, "decomposes_to": null, "xas": null, "grain_boundaries": null, "band_gap": 0.0, "cbm": null, "vbm": null, "efermi": 3.55867535, "is_gap_direct": null, "is_metal": null, "es_source_calc_id": null, "bandstructure": null, "dos": null, "dos_energy_up": null, "dos_energy_down": null, "is_magnetic": null, "ordering": null, "total_magnetization": 0.6238408, "total_magnetization_normalized_vol": null, "total_magnetization_normalized_formula_units": null, "num_magnetic_sites": null, "num_unique_magnetic_sites": null, "types_of_magnetic_species": null, "bulk_modulus": null, "shear_modulus": null, "universal_anisotropy": null, "homogeneous_poisson": null, "e_total": null, "e_ionic": null, "e_electronic": null, "n": null, "e_ij_max": null, "weighted_surface_energy_EV_PER_ANG2": null, "weighted_surface_energy": null, "weighted_work_function": null, "surface_anisotropy": null, "shape_factor": null, "has_reconstructed": null, "possible_species": null, "has_props": null, "theoretical": null, "database_IDs": null, "fields_not_requested": ["builder_meta", "nsites", "elements", "nelements", "composition", "composition_reduced", "chemsys", "symmetry", "property_name", "deprecated", "deprecation_reasons", "last_updated", "origins", "warnings", "task_ids", "uncorrected_energy_per_atom", "equilibrium_reaction_energy_per_atom", "decomposes_to", "xas", "grain_boundaries", "cbm", "vbm", "is_gap_direct", "is_metal", "es_source_calc_id", "bandstructure", "dos", "dos_energy_up", "dos_energy_down", "is_magnetic", "ordering", "total_magnetization_normalized_vol", "total_magnetization_normalized_formula_units", "num_magnetic_sites", "num_unique_magnetic_sites", "types_of_magnetic_species", "bulk_modulus", "shear_modulus", "universal_anisotropy", "homogeneous_poisson", "e_total", "e_ionic", "e_electronic", "n", "e_ij_max", "weighted_surface_energy_EV_PER_ANG2", "weighted_surface_energy", "weighted_work_function", "surface_anisotropy", "shape_factor", "has_reconstructed", "possible_species", "has_props", "theoretical", "database_IDs"]}