{
  "builder_meta": null,
  "nsites": null,
  "elements": null,
  "nelements": null,
  "composition": null,
  "composition_reduced": null,
  "formula_pretty": "NdCl3",
  "formula_anonymous": "AB3",
  "chemsys": null,
  "volume": 205.6085920320631,
  "density": 4.047814797196159,
  "density_atomic": 25.701074004007886,
  "symmetry": null,
  "property_name": null,
  "material_id": "mp-23183",
  "deprecated": null,
  "deprecation_reasons": null,
  "last_updated": null,
  "origins": null,
  "warnings": null,
  "structure": {
    "@module": "pymatgen.core.structure",
    "@class": "Structure",
    "charge": 0,
    "lattice": {
      "matrix": [
        [7.47477076, 7.09e-6, -0.0],
        [-3.73739042, 6.47333638, 0.0],
        [0.0, 0.0, 4.24927627]
      ],
      "pbc": [true, true, true],
      "a": 7.474770760003363,
      "b": 7.474768962325142,
      "c": 4.24927627,
      "alpha": 90.0,
      "beta": 90.0,
      "gamma": 119.99999821846623,
      "volume": 205.6085920320631
    },
    "properties": {},
    "sites": [
      {
        "species": [{ "element": "Nd", "occu": 1 }],
        "abc": [0.666667, 0.333333, 0.75],
        "properties": { "magmom": -0.0 },
        "label": "Nd",
        "xyz": [3.73738743738706, 2.1577813622235698, 3.1869572025000004]
      },
      {
        "species": [{ "element": "Nd", "occu": 1 }],
        "abc": [0.333333, 0.666667, 0.25],
        "properties": { "magmom": -0.0 },
        "label": "Nd",
        "xyz": [-7.097387059840088e-6, 4.31556210777643, 1.0623190675]
      },
      {
        "species": [{ "element": "Cl", "occu": 1 }],
        "abc": [0.61047738, 0.69664535, 0.75],
        "properties": { "magmom": -0.0 },
        "label": "Cl",
        "xyz": [1.9595428124378613, 4.509624016397457, 3.1869572025000004]
      },
      {
        "species": [{ "element": "Cl", "occu": 1 }],
        "abc": [0.91383203, 0.61047738, 0.25],
        "properties": { "magmom": -0.0 },
        "label": "Cl",
        "xyz": [4.549092625756743, 3.951831912190177, 1.0623190675]
      },
      {
        "species": [{ "element": "Cl", "occu": 1 }],
        "abc": [0.38952262, 0.30335465, 0.25],
        "properties": { "magmom": -0.0 },
        "label": "Cl",
        "xyz": [1.777837527562138, 1.9637194536025429, 1.0623190675]
      },
      {
        "species": [{ "element": "Cl", "occu": 1 }],
        "abc": [0.08616797, 0.38952262, 0.75],
        "properties": { "magmom": -0.0 },
        "label": "Cl",
        "xyz": [-0.8117122857567431, 2.5215115578098226, 3.1869572025000004]
      },
      {
        "species": [{ "element": "Cl", "occu": 1 }],
        "abc": [0.30335465, 0.91383203, 0.75],
        "properties": { "magmom": -0.0 },
        "label": "Cl",
        "xyz": [-1.1478406066811186, 5.915544275792721, 3.1869572025000004]
      },
      {
        "species": [{ "element": "Cl", "occu": 1 }],
        "abc": [0.69664535, 0.08616797, 0.25],
        "properties": { "magmom": -0.0 },
        "label": "Cl",
        "xyz": [4.88522094668112, 0.5577991942072801, 1.0623190675]
      }
    ]
  },
  "task_ids": null,
  "uncorrected_energy_per_atom": null,
  "energy_per_atom": -14.554736975,
  "formation_energy_per_atom": -2.585905556250001,
  "energy_above_hull": 0.0,
  "is_stable": true,
  "equilibrium_reaction_energy_per_atom": null,
  "decomposes_to": null,
  "xas": null,
  "grain_boundaries": null,
  "band_gap": 4.299799999999999,
  "cbm": null,
  "vbm": null,
  "efermi": 0.76417988,
  "is_gap_direct": null,
  "is_metal": null,
  "es_source_calc_id": null,
  "bandstructure": null,
  "dos": null,
  "dos_energy_up": null,
  "dos_energy_down": null,
  "is_magnetic": null,
  "ordering": null,
  "total_magnetization": 0.0,
  "total_magnetization_normalized_vol": null,
  "total_magnetization_normalized_formula_units": null,
  "num_magnetic_sites": null,
  "num_unique_magnetic_sites": null,
  "types_of_magnetic_species": null,
  "bulk_modulus": null,
  "shear_modulus": null,
  "universal_anisotropy": null,
  "homogeneous_poisson": null,
  "e_total": null,
  "e_ionic": null,
  "e_electronic": null,
  "n": null,
  "e_ij_max": null,
  "weighted_surface_energy_EV_PER_ANG2": null,
  "weighted_surface_energy": null,
  "weighted_work_function": null,
  "surface_anisotropy": null,
  "shape_factor": null,
  "has_reconstructed": null,
  "possible_species": null,
  "has_props": null,
  "theoretical": null,
  "database_IDs": null,
  "fields_not_requested": [
    "builder_meta",
    "nsites",
    "elements",
    "nelements",
    "composition",
    "composition_reduced",
    "chemsys",
    "symmetry",
    "property_name",
    "deprecated",
    "deprecation_reasons",
    "last_updated",
    "origins",
    "warnings",
    "task_ids",
    "uncorrected_energy_per_atom",
    "equilibrium_reaction_energy_per_atom",
    "decomposes_to",
    "xas",
    "grain_boundaries",
    "cbm",
    "vbm",
    "is_gap_direct",
    "is_metal",
    "es_source_calc_id",
    "bandstructure",
    "dos",
    "dos_energy_up",
    "dos_energy_down",
    "is_magnetic",
    "ordering",
    "total_magnetization_normalized_vol",
    "total_magnetization_normalized_formula_units",
    "num_magnetic_sites",
    "num_unique_magnetic_sites",
    "types_of_magnetic_species",
    "bulk_modulus",
    "shear_modulus",
    "universal_anisotropy",
    "homogeneous_poisson",
    "e_total",
    "e_ionic",
    "e_electronic",
    "n",
    "e_ij_max",
    "weighted_surface_energy_EV_PER_ANG2",
    "weighted_surface_energy",
    "weighted_work_function",
    "surface_anisotropy",
    "shape_factor",
    "has_reconstructed",
    "possible_species",
    "has_props",
    "theoretical",
    "database_IDs"
  ]
}
