{
  "builder_meta": null,
  "nsites": null,
  "elements": null,
  "nelements": null,
  "composition": null,
  "composition_reduced": null,
  "formula_pretty": "NdCo2",
  "formula_anonymous": "AB2",
  "chemsys": null,
  "volume": 97.58149457377169,
  "density": 8.920568867688042,
  "density_atomic": 16.26358242896195,
  "symmetry": null,
  "property_name": null,
  "material_id": "mp-445",
  "deprecated": null,
  "deprecation_reasons": null,
  "last_updated": null,
  "origins": null,
  "warnings": null,
  "structure": {
    "@module": "pymatgen.core.structure",
    "@class": "Structure",
    "charge": 0,
    "lattice": {
      "matrix": [
        [4.4771449, -0.00190486, -2.57612593],
        [-2.97932248, 4.22024629, -0.013177030000000001],
        [-0.00105317, 0.00200005, 5.16584174]
      ],
      "pbc": [true, true, true],
      "a": 5.165390100593177,
      "b": 5.165947620931878,
      "c": 5.1658422345338115,
      "alpha": 90.12128829330561,
      "beta": 119.92758481667364,
      "gamma": 119.92783824656634,
      "volume": 97.58149457377169
    },
    "properties": {},
    "sites": [
      {
        "species": [{ "element": "Nd", "occu": 1 }],
        "abc": [0.74999932, 0.87499484, 0.12500402],
        "properties": { "magmom": -0.363 },
        "label": "Nd",
        "xyz": [0.7508321833617213, 3.69151509786465, -1.2978715448070979]
      },
      {
        "species": [{ "element": "Nd", "occu": 1 }],
        "abc": [0.25000071, 0.12500516, 0.87499598],
        "properties": { "magmom": -0.363 },
        "label": "Nd",
        "xyz": [0.7459372009526257, 0.5288263820782049, 3.8744102475233206]
      },
      {
        "species": [{ "element": "Co", "occu": 1 }],
        "abc": [-8e-8, 0.50000001, 0.50000002],
        "properties": { "magmom": 1.358 },
        "label": "Co",
        "xyz": [-1.4901882129858803, 2.1111232123948533, 2.5763326642751387]
      },
      {
        "species": [{ "element": "Co", "occu": 1 }],
        "abc": [-8e-8, 0.49999999, -1e-7],
        "properties": { "magmom": 1.359 },
        "label": "Co",
        "xyz": [-1.48966156827305, 2.110123102749921, -0.006588825362329301]
      },
      {
        "species": [{ "element": "Co", "occu": 1 }],
        "abc": [0.50000005, 1.2e-7, 0.50000003],
        "properties": { "magmom": 1.359 },
        "label": "Co",
        "xyz": [2.2380457313069524, 4.810139431330016e-5, 1.2948579295877123]
      },
      {
        "species": [{ "element": "Co", "occu": 1 }],
        "abc": [0.50000009, 0.49999989, 0.50000004],
        "properties": { "magmom": 1.358 },
        "label": "Co",
        "xyz": [0.7483853556263871, 2.110170275681473, 1.288269366231809]
      }
    ]
  },
  "task_ids": null,
  "uncorrected_energy_per_atom": null,
  "energy_per_atom": -18.57039448,
  "formation_energy_per_atom": 0.05842926750000001,
  "energy_above_hull": 0.07662491047619101,
  "is_stable": false,
  "equilibrium_reaction_energy_per_atom": null,
  "decomposes_to": null,
  "xas": null,
  "grain_boundaries": null,
  "band_gap": 0.0,
  "cbm": null,
  "vbm": null,
  "efermi": 4.83410593,
  "is_gap_direct": null,
  "is_metal": null,
  "es_source_calc_id": null,
  "bandstructure": null,
  "dos": null,
  "dos_energy_up": null,
  "dos_energy_down": null,
  "is_magnetic": null,
  "ordering": null,
  "total_magnetization": 3.846209,
  "total_magnetization_normalized_vol": null,
  "total_magnetization_normalized_formula_units": null,
  "num_magnetic_sites": null,
  "num_unique_magnetic_sites": null,
  "types_of_magnetic_species": null,
  "bulk_modulus": null,
  "shear_modulus": null,
  "universal_anisotropy": null,
  "homogeneous_poisson": null,
  "e_total": null,
  "e_ionic": null,
  "e_electronic": null,
  "n": null,
  "e_ij_max": null,
  "weighted_surface_energy_EV_PER_ANG2": null,
  "weighted_surface_energy": null,
  "weighted_work_function": null,
  "surface_anisotropy": null,
  "shape_factor": null,
  "has_reconstructed": null,
  "possible_species": null,
  "has_props": null,
  "theoretical": null,
  "database_IDs": null,
  "fields_not_requested": [
    "builder_meta",
    "nsites",
    "elements",
    "nelements",
    "composition",
    "composition_reduced",
    "chemsys",
    "symmetry",
    "property_name",
    "deprecated",
    "deprecation_reasons",
    "last_updated",
    "origins",
    "warnings",
    "task_ids",
    "uncorrected_energy_per_atom",
    "equilibrium_reaction_energy_per_atom",
    "decomposes_to",
    "xas",
    "grain_boundaries",
    "cbm",
    "vbm",
    "is_gap_direct",
    "is_metal",
    "es_source_calc_id",
    "bandstructure",
    "dos",
    "dos_energy_up",
    "dos_energy_down",
    "is_magnetic",
    "ordering",
    "total_magnetization_normalized_vol",
    "total_magnetization_normalized_formula_units",
    "num_magnetic_sites",
    "num_unique_magnetic_sites",
    "types_of_magnetic_species",
    "bulk_modulus",
    "shear_modulus",
    "universal_anisotropy",
    "homogeneous_poisson",
    "e_total",
    "e_ionic",
    "e_electronic",
    "n",
    "e_ij_max",
    "weighted_surface_energy_EV_PER_ANG2",
    "weighted_surface_energy",
    "weighted_work_function",
    "surface_anisotropy",
    "shape_factor",
    "has_reconstructed",
    "possible_species",
    "has_props",
    "theoretical",
    "database_IDs"
  ]
}
