{"builder_meta": null, "nsites": null, "elements": null, "nelements": null, "composition": null, "composition_reduced": null, "formula_pretty": "NdCo", "formula_anonymous": "AB", "chemsys": null, "volume": 211.74807067262967, "density": 7.9665507125959945, "density_atomic": 21.174807067262968, "symmetry": null, "property_name": null, "material_id": "mp-1220493", "deprecated": null, "deprecation_reasons": null, "last_updated": null, "origins": null, "warnings": null, "structure": {"@module": "pymatgen.core.structure", "@class": "Structure", "charge": 0, "lattice": {"matrix": [[5.794184, 0.0, 0.0], [2.897092, 4.9282900000000005, 0.036924], [0.0, 0.052250000000000005, 7.415729]], "pbc": [true, true, true], "a": 5.794184, "b": 5.716865204142914, "c": 7.4159130701445655, "alpha": 89.28192660926592, "beta": 90.0, "gamma": 59.55158941163575, "volume": 211.74807067262972}, "properties": {}, "sites": [{"species": [{"element": "Nd", "occu": 1}], "abc": [0.662621, 0.674759, 0.872934], "properties": {"magmom": -0.001}, "label": "Nd", "xyz": [5.794186897092, 3.3710188336100004, 6.498356780202]}, {"species": [{"element": "Nd", "occu": 1}], "abc": [0.337379, 0.325241, 0.127065999999999], "properties": {"magmom": -0.001}, "label": "Nd", "xyz": [2.8970891029079997, 1.6095211663900002, 0.9542962197979926]}, {"species": [{"element": "Nd", "occu": 1}], "abc": [0.840241, 0.319517999999999, 0.427901], "properties": {"magmom": -0.001}, "label": "Nd", "xyz": [5.794183999999996, 1.5970351914699954, 3.1849957374609996]}, {"species": [{"element": "Nd", "occu": 1}], "abc": [0.159758999999999, 0.680481999999999, 0.572099], "properties": {"magmom": -0.001}, "label": "Nd", "xyz": [2.897091999999991, 3.3835048085299952, 4.267657262539]}, {"species": [{"element": "Nd", "occu": 1}], "abc": [0.0, 0.0, 0.0], "properties": {"magmom": -0.002}, "label": "Nd", "xyz": [0.0, 0.0, 0.0]}, {"species": [{"element": "Co", "occu": 1}], "abc": [0.5, 0.0, 0.5], "properties": {"magmom": 0.01}, "label": "Co", "xyz": [2.897092, 0.026125000000000002, 3.7078645]}, {"species": [{"element": "Co", "occu": 1}], "abc": [0.608575, 0.201304999999999, 0.739381], "properties": {"magmom": -0.0}, "label": "Co", "xyz": [4.109394632859996, 1.0307220756999953, 5.490482109569]}, {"species": [{"element": "Co", "occu": 1}], "abc": [0.80988, 0.798694999999999, 0.260619], "properties": {"magmom": -0.003}, "label": "Co", "xyz": [7.006486632859997, 3.9498179242999956, 1.9621708904309998]}, {"species": [{"element": "Co", "occu": 1}], "abc": [0.391424999999999, 0.798694999999999, 0.260619], "properties": {"magmom": 0.0}, "label": "Co", "xyz": [4.5818813671399905, 3.9498179242999956, 1.9621708904309998]}, {"species": [{"element": "Co", "occu": 1}], "abc": [0.19012, 0.201304999999999, 0.739381], "properties": {"magmom": -0.003}, "label": "Co", "xyz": [1.684789367139997, 1.0307220756999953, 5.490482109569]}]}, "task_ids": null, "uncorrected_energy_per_atom": null, "energy_per_atom": -21.251808583219695, "formation_energy_per_atom": 0.07431147303030601, "energy_above_hull": 0.08913105386363501, "is_stable": false, "equilibrium_reaction_energy_per_atom": null, "decomposes_to": null, "xas": null, "grain_boundaries": null, "band_gap": 0.0, "cbm": null, "vbm": null, "efermi": 4.14100233, "is_gap_direct": null, "is_metal": null, "es_source_calc_id": null, "bandstructure": null, "dos": null, "dos_energy_up": null, "dos_energy_down": null, "is_magnetic": null, "ordering": null, "total_magnetization": 0.0095623, "total_magnetization_normalized_vol": null, "total_magnetization_normalized_formula_units": null, "num_magnetic_sites": null, "num_unique_magnetic_sites": null, "types_of_magnetic_species": null, "bulk_modulus": null, "shear_modulus": null, "universal_anisotropy": null, "homogeneous_poisson": null, "e_total": null, "e_ionic": null, "e_electronic": null, "n": null, "e_ij_max": null, "weighted_surface_energy_EV_PER_ANG2": null, "weighted_surface_energy": null, "weighted_work_function": null, "surface_anisotropy": null, "shape_factor": null, "has_reconstructed": null, "possible_species": null, "has_props": null, "theoretical": null, "database_IDs": null, "fields_not_requested": ["builder_meta", "nsites", "elements", "nelements", "composition", "composition_reduced", "chemsys", "symmetry", "property_name", "deprecated", "deprecation_reasons", "last_updated", "origins", "warnings", "task_ids", "uncorrected_energy_per_atom", "equilibrium_reaction_energy_per_atom", "decomposes_to", "xas", "grain_boundaries", "cbm", "vbm", "is_gap_direct", "is_metal", "es_source_calc_id", "bandstructure", "dos", "dos_energy_up", "dos_energy_down", "is_magnetic", "ordering", "total_magnetization_normalized_vol", "total_magnetization_normalized_formula_units", "num_magnetic_sites", "num_unique_magnetic_sites", "types_of_magnetic_species", "bulk_modulus", "shear_modulus", "universal_anisotropy", "homogeneous_poisson", "e_total", "e_ionic", "e_electronic", "n", "e_ij_max", "weighted_surface_energy_EV_PER_ANG2", "weighted_surface_energy", "weighted_work_function", "surface_anisotropy", "shape_factor", "has_reconstructed", "possible_species", "has_props", "theoretical", "database_IDs"]}