{"builder_meta": null, "nsites": null, "elements": null, "nelements": null, "composition": null, "composition_reduced": null, "formula_pretty": "NdCo3", "formula_anonymous": "AB3", "chemsys": null, "volume": 185.15058540619023, "density": 8.637867810023046, "density_atomic": 15.429215450515853, "symmetry": null, "property_name": null, "material_id": "mp-1095461", "deprecated": null, "deprecation_reasons": null, "last_updated": null, "origins": null, "warnings": null, "structure": {"@module": "pymatgen.core.structure", "@class": "Structure", "charge": 0, "lattice": {"matrix": [[-2.542214, -4.403244, 0.0], [2.542214, -4.403244, 0.0], [0.0, -2.935496, 8.27009]], "pbc": [true, true, true], "a": 5.084428163061408, "b": 5.084428163061408, "c": 8.775621081958587, "alpha": 73.16057185622445, "beta": 73.16057185622445, "gamma": 59.99999787821648, "volume": 185.15058540619023}, "properties": {}, "sites": [{"species": [{"element": "Nd", "occu": 1}], "abc": [0.139411, 0.139411, 0.581766999999999], "properties": {"magmom": -0.26}, "label": "Nd", "xyz": [0.0, -2.935495999999997, 4.8112654490299915]}, {"species": [{"element": "Nd", "occu": 1}], "abc": [0.860588999999999, 0.860588999999999, 0.418232999999999], "properties": {"magmom": -0.26}, "label": "Nd", "xyz": [0.0, -8.80648799999999, 3.4588245509699918]}, {"species": [{"element": "Nd", "occu": 1}], "abc": [0.0, 0.0, 0.0], "properties": {"magmom": -0.212}, "label": "Nd", "xyz": [0.0, 0.0, 0.0]}, {"species": [{"element": "Co", "occu": 1}], "abc": [0.08185, 0.578202, 0.761745999999999], "properties": {"magmom": 1.25}, "label": "Co", "xyz": [1.261833003328, -5.142472344703997, 6.299707977139992]}, {"species": [{"element": "Co", "occu": 1}], "abc": [0.578202, 0.578202, 0.761745999999999], "properties": {"magmom": 1.25}, "label": "Co", "xyz": [0.0, -7.328031310591997, 6.299707977139992]}, {"species": [{"element": "Co", "occu": 1}], "abc": [0.578202, 0.08185, 0.761745999999999], "properties": {"magmom": 1.25}, "label": "Co", "xyz": [-1.261833003328, -5.142472344703997, 6.299707977139992]}, {"species": [{"element": "Co", "occu": 1}], "abc": [0.91815, 0.421798, 0.238254], "properties": {"magmom": 1.25}, "label": "Co", "xyz": [-1.261833003328, -6.599511655296, 1.97038202286]}, {"species": [{"element": "Co", "occu": 1}], "abc": [0.421798, 0.421798, 0.238254], "properties": {"magmom": 1.25}, "label": "Co", "xyz": [0.0, -4.413952689408, 1.97038202286]}, {"species": [{"element": "Co", "occu": 1}], "abc": [0.421798, 0.91815, 0.238254], "properties": {"magmom": 1.25}, "label": "Co", "xyz": [1.261833003328, -6.599511655296, 1.97038202286]}, {"species": [{"element": "Co", "occu": 1}], "abc": [0.334082, 0.334082, 0.997753999999999], "properties": {"magmom": 1.49}, "label": "Co", "xyz": [0.0, -5.8709919999999975, 8.251515377859992]}, {"species": [{"element": "Co", "occu": 1}], "abc": [0.665918, 0.665918, 0.002245999999999], "properties": {"magmom": 1.49}, "label": "Co", "xyz": [0.0, -5.870991999999997, 0.01857462213999173]}, {"species": [{"element": "Co", "occu": 1}], "abc": [0.5, 0.5, 0.5], "properties": {"magmom": 1.137}, "label": "Co", "xyz": [0.0, -5.870992, 4.135045]}]}, "task_ids": null, "uncorrected_energy_per_atom": null, "energy_per_atom": -17.281993234062497, "formation_energy_per_atom": -0.0018176409374980002, "energy_above_hull": 0.01689318450893, "is_stable": false, "equilibrium_reaction_energy_per_atom": null, "decomposes_to": null, "xas": null, "grain_boundaries": null, "band_gap": 0.0, "cbm": null, "vbm": null, "efermi": 4.50665559, "is_gap_direct": null, "is_metal": null, "es_source_calc_id": null, "bandstructure": null, "dos": null, "dos_energy_up": null, "dos_energy_down": null, "is_magnetic": null, "ordering": null, "total_magnetization": 10.0507019, "total_magnetization_normalized_vol": null, "total_magnetization_normalized_formula_units": null, "num_magnetic_sites": null, "num_unique_magnetic_sites": null, "types_of_magnetic_species": null, "bulk_modulus": null, "shear_modulus": null, "universal_anisotropy": null, "homogeneous_poisson": null, "e_total": null, "e_ionic": null, "e_electronic": null, "n": null, "e_ij_max": null, "weighted_surface_energy_EV_PER_ANG2": null, "weighted_surface_energy": null, "weighted_work_function": null, "surface_anisotropy": null, "shape_factor": null, "has_reconstructed": null, "possible_species": null, "has_props": null, "theoretical": null, "database_IDs": null, "fields_not_requested": ["builder_meta", "nsites", "elements", "nelements", "composition", "composition_reduced", "chemsys", "symmetry", "property_name", "deprecated", "deprecation_reasons", "last_updated", "origins", "warnings", "task_ids", "uncorrected_energy_per_atom", "equilibrium_reaction_energy_per_atom", "decomposes_to", "xas", "grain_boundaries", "cbm", "vbm", "is_gap_direct", "is_metal", "es_source_calc_id", "bandstructure", "dos", "dos_energy_up", "dos_energy_down", "is_magnetic", "ordering", "total_magnetization_normalized_vol", "total_magnetization_normalized_formula_units", "num_magnetic_sites", "num_unique_magnetic_sites", "types_of_magnetic_species", "bulk_modulus", "shear_modulus", "universal_anisotropy", "homogeneous_poisson", "e_total", "e_ionic", "e_electronic", "n", "e_ij_max", "weighted_surface_energy_EV_PER_ANG2", "weighted_surface_energy", "weighted_work_function", "surface_anisotropy", "shape_factor", "has_reconstructed", "possible_species", "has_props", "theoretical", "database_IDs"]}