{"builder_meta": null, "nsites": null, "elements": null, "nelements": null, "composition": null, "composition_reduced": null, "formula_pretty": "NdCu", "formula_anonymous": "AB", "chemsys": null, "volume": 186.19384277360712, "density": 7.412491979989147, "density_atomic": 23.27423034670089, "symmetry": null, "property_name": null, "material_id": "mp-13392", "deprecated": null, "deprecation_reasons": null, "last_updated": null, "origins": null, "warnings": null, "structure": {"@module": "pymatgen.core.structure", "@class": "Structure", "charge": 0, "lattice": {"matrix": [[4.5670746300000005, 0.0, 0.0], [0.0, 5.48929127, 0.0], [0.0, 0.0, 7.42695737]], "pbc": [true, true, true], "a": 4.5670746300000005, "b": 5.48929127, "c": 7.42695737, "alpha": 90.0, "beta": 90.0, "gamma": 90.0, "volume": 186.19384277360714}, "properties": {}, "sites": [{"species": [{"element": "Nd", "occu": 1}], "abc": [0.25, 0.38485517, 0.67901408], "properties": {"magmom": 0.0}, "label": "Nd", "xyz": [1.1417686575000001, 2.112582124895366, 5.04300862578977]}, {"species": [{"element": "Nd", "occu": 1}], "abc": [0.75, 0.61514483, 0.32098592], "properties": {"magmom": 0.0}, "label": "Nd", "xyz": [3.4253059725000004, 3.376709145104634, 2.3839487442102305]}, {"species": [{"element": "Nd", "occu": 1}], "abc": [0.75, 0.88485517, 0.82098592], "properties": {"magmom": 0.0}, "label": "Nd", "xyz": [3.4253059725000004, 4.857227759895366, 6.097427429210231]}, {"species": [{"element": "Nd", "occu": 1}], "abc": [0.25, 0.11514483, 0.17901408], "properties": {"magmom": 0.0}, "label": "Nd", "xyz": [1.1417686575000001, 0.6320635101046341, 1.3295299407897696]}, {"species": [{"element": "Cu", "occu": 1}], "abc": [0.25, 0.88967202, 0.53332229], "properties": {"magmom": -0.0}, "label": "Cu", "xyz": [1.1417686575000001, 4.883668852549265, 3.9609619123007773]}, {"species": [{"element": "Cu", "occu": 1}], "abc": [0.75, 0.11032798, 0.46667771], "properties": {"magmom": -0.0}, "label": "Cu", "xyz": [3.4253059725000004, 0.6056224174507346, 3.465995457699223]}, {"species": [{"element": "Cu", "occu": 1}], "abc": [0.75, 0.38967202, 0.96667771], "properties": {"magmom": -0.0}, "label": "Cu", "xyz": [3.4253059725000004, 2.139023217549265, 7.179474142699223]}, {"species": [{"element": "Cu", "occu": 1}], "abc": [0.25, 0.61032798, 0.03332229], "properties": {"magmom": -0.0}, "label": "Cu", "xyz": [1.1417686575000001, 3.3502680524507347, 0.2474832273007773]}]}, "task_ids": null, "uncorrected_energy_per_atom": null, "energy_per_atom": -20.31605964125, "formation_energy_per_atom": -0.18365714999999802, "energy_above_hull": 0.0, "is_stable": true, "equilibrium_reaction_energy_per_atom": null, "decomposes_to": null, "xas": null, "grain_boundaries": null, "band_gap": 0.0, "cbm": null, "vbm": null, "efermi": 4.39857219, "is_gap_direct": null, "is_metal": null, "es_source_calc_id": null, "bandstructure": null, "dos": null, "dos_energy_up": null, "dos_energy_down": null, "is_magnetic": null, "ordering": null, "total_magnetization": 0.0, "total_magnetization_normalized_vol": null, "total_magnetization_normalized_formula_units": null, "num_magnetic_sites": null, "num_unique_magnetic_sites": null, "types_of_magnetic_species": null, "bulk_modulus": null, "shear_modulus": null, "universal_anisotropy": null, "homogeneous_poisson": null, "e_total": null, "e_ionic": null, "e_electronic": null, "n": null, "e_ij_max": null, "weighted_surface_energy_EV_PER_ANG2": null, "weighted_surface_energy": null, "weighted_work_function": null, "surface_anisotropy": null, "shape_factor": null, "has_reconstructed": null, "possible_species": null, "has_props": null, "theoretical": null, "database_IDs": null, "fields_not_requested": ["builder_meta", "nsites", "elements", "nelements", "composition", "composition_reduced", "chemsys", "symmetry", "property_name", "deprecated", "deprecation_reasons", "last_updated", "origins", "warnings", "task_ids", "uncorrected_energy_per_atom", "equilibrium_reaction_energy_per_atom", "decomposes_to", "xas", "grain_boundaries", "cbm", "vbm", "is_gap_direct", "is_metal", "es_source_calc_id", "bandstructure", "dos", "dos_energy_up", "dos_energy_down", "is_magnetic", "ordering", "total_magnetization_normalized_vol", "total_magnetization_normalized_formula_units", "num_magnetic_sites", "num_unique_magnetic_sites", "types_of_magnetic_species", "bulk_modulus", "shear_modulus", "universal_anisotropy", "homogeneous_poisson", "e_total", "e_ionic", "e_electronic", "n", "e_ij_max", "weighted_surface_energy_EV_PER_ANG2", "weighted_surface_energy", "weighted_work_function", "surface_anisotropy", "shape_factor", "has_reconstructed", "possible_species", "has_props", "theoretical", "database_IDs"]}