{"builder_meta": null, "nsites": null, "elements": null, "nelements": null, "composition": null, "composition_reduced": null, "formula_pretty": "NdCu2", "formula_anonymous": "AB2", "chemsys": null, "volume": 113.77799120997774, "density": 7.919997572559226, "density_atomic": 18.96299853499629, "symmetry": null, "property_name": null, "material_id": "mp-11852", "deprecated": null, "deprecation_reasons": null, "last_updated": null, "origins": null, "warnings": null, "structure": {"@module": "pymatgen.core.structure", "@class": "Structure", "charge": 0, "lattice": {"matrix": [[3.96306335, -1e-08, 1.69966411], [1.889368999999999, 5.13315583, 1.06472344], [-0.04376639, -0.041089270000000004, 5.57216707]], "pbc": [true, true, true], "a": 4.312160618870234, "b": 5.572489569026525, "c": 5.5724904379456, "alpha": 79.53694058060344, "beta": 67.23732380581927, "gamma": 67.23732575308856, "volume": 113.77799120997774}, "properties": {}, "sites": [{"species": [{"element": "Nd", "occu": 1}], "abc": [0.46496522, 0.28503478, 0.78503478], "properties": {"magmom": -0.0}, "label": "Nd", "xyz": [2.3468643613154625, 1.4308714320253044, 5.468112858234193]}, {"species": [{"element": "Nd", "occu": 1}], "abc": [0.53503478, 0.7149652200000001, 0.21496522], "properties": {"magmom": -0.0}, "label": "Nd", "xyz": [3.4618015986845374, 3.661195117974696, 2.8684417617658085]}, {"species": [{"element": "Cu", "occu": 1}], "abc": [0.8342606300000001, 0.11939612000000001, 0.21208162], "properties": {"magmom": 0.0}, "label": "Cu", "xyz": [3.522529008056439, 0.6041646021685559, 2.7268409179222957]}, {"species": [{"element": "Cu", "occu": 1}], "abc": [0.16573937, 0.88060388, 0.78791838], "properties": {"magmom": 0.0}, "label": "Cu", "xyz": [2.2861369519435604, 4.487901947831444, 5.6097137020777055]}, {"species": [{"element": "Cu", "occu": 1}], "abc": [0.16573937, 0.28791838000000003, 0.38060388], "properties": {"magmom": 0.0}, "label": "Cu", "xyz": [1.184162026753716, 1.462291173615394, 2.7090431136460693]}, {"species": [{"element": "Cu", "occu": 1}], "abc": [0.8342606300000001, 0.71208162, 0.61939612], "properties": {"magmom": 0.0}, "label": "Cu", "xyz": [4.624503933246284, 3.6297753763846057, 5.627511506353931]}]}, "task_ids": null, "uncorrected_energy_per_atom": null, "energy_per_atom": -17.234084043333333, "formation_energy_per_atom": -0.196883715833332, "energy_above_hull": 0.0, "is_stable": true, "equilibrium_reaction_energy_per_atom": null, "decomposes_to": null, "xas": null, "grain_boundaries": null, "band_gap": 0.0, "cbm": null, "vbm": null, "efermi": 5.15061353, "is_gap_direct": null, "is_metal": null, "es_source_calc_id": null, "bandstructure": null, "dos": null, "dos_energy_up": null, "dos_energy_down": null, "is_magnetic": null, "ordering": null, "total_magnetization": 0.0, "total_magnetization_normalized_vol": null, "total_magnetization_normalized_formula_units": null, "num_magnetic_sites": null, "num_unique_magnetic_sites": null, "types_of_magnetic_species": null, "bulk_modulus": null, "shear_modulus": null, "universal_anisotropy": null, "homogeneous_poisson": null, "e_total": null, "e_ionic": null, "e_electronic": null, "n": null, "e_ij_max": null, "weighted_surface_energy_EV_PER_ANG2": null, "weighted_surface_energy": null, "weighted_work_function": null, "surface_anisotropy": null, "shape_factor": null, "has_reconstructed": null, "possible_species": null, "has_props": null, "theoretical": null, "database_IDs": null, "fields_not_requested": ["builder_meta", "nsites", "elements", "nelements", "composition", "composition_reduced", "chemsys", "symmetry", "property_name", "deprecated", "deprecation_reasons", "last_updated", "origins", "warnings", "task_ids", "uncorrected_energy_per_atom", "equilibrium_reaction_energy_per_atom", "decomposes_to", "xas", "grain_boundaries", "cbm", "vbm", "is_gap_direct", "is_metal", "es_source_calc_id", "bandstructure", "dos", "dos_energy_up", "dos_energy_down", "is_magnetic", "ordering", "total_magnetization_normalized_vol", "total_magnetization_normalized_formula_units", "num_magnetic_sites", "num_unique_magnetic_sites", "types_of_magnetic_species", "bulk_modulus", "shear_modulus", "universal_anisotropy", "homogeneous_poisson", "e_total", "e_ionic", "e_electronic", "n", "e_ij_max", "weighted_surface_energy_EV_PER_ANG2", "weighted_surface_energy", "weighted_work_function", "surface_anisotropy", "shape_factor", "has_reconstructed", "possible_species", "has_props", "theoretical", "database_IDs"]}