{"builder_meta": null, "nsites": null, "elements": null, "nelements": null, "composition": null, "composition_reduced": null, "formula_pretty": "NdCu6", "formula_anonymous": "AB6", "chemsys": null, "volume": 405.17938550652383, "density": 8.614882201971731, "density_atomic": 14.470692339518708, "symmetry": null, "property_name": null, "material_id": "mp-1193079", "deprecated": null, "deprecation_reasons": null, "last_updated": null, "origins": null, "warnings": null, "structure": {"@module": "pymatgen.core.structure", "@class": "Structure", "charge": 0, "lattice": {"matrix": [[5.05180098, 0.0, 0.0], [0.0, 7.99540901, 2.8280000000000004e-05], [0.0, 3.6150000000000005e-05, 10.03137402]], "pbc": [true, true, true], "a": 5.05180098, "b": 7.995409010050014, "c": 10.031374020065137, "alpha": 89.99959086667663, "beta": 90.0, "gamma": 90.0, "volume": 405.17938550652383}, "properties": {}, "sites": [{"species": [{"element": "Nd", "occu": 1}], "abc": [0.25, 0.26097832, 0.56348768], "properties": {"magmom": 0.0}, "label": "Nd", "xyz": [1.262950245, 2.086648781222295, 5.652563054208963]}, {"species": [{"element": "Nd", "occu": 1}], "abc": [0.25, 0.76099368, 0.93648082], "properties": {"magmom": 0.0}, "label": "Nd", "xyz": [1.262950245, 6.0844895794067, 9.394210888877566]}, {"species": [{"element": "Nd", "occu": 1}], "abc": [0.75, 0.73902312, 0.43662598], "properties": {"magmom": -0.0}, "label": "Nd", "xyz": [3.7888507350000005, 5.908807896275489, 4.379979411802873]}, {"species": [{"element": "Nd", "occu": 1}], "abc": [0.75, 0.23899974000000002, 0.06340853], "properties": {"magmom": 0.0}, "label": "Nd", "xyz": [3.7888507350000005, 1.9109029668020172, 0.6360814394010379]}, {"species": [{"element": "Cu", "occu": 1}], "abc": [0.25, 0.14856116, 0.85700108], "properties": {"magmom": -0.0}, "label": "Cu", "xyz": [1.262950245, 1.1878382177890936, 8.596902570333546]}, {"species": [{"element": "Cu", "occu": 1}], "abc": [0.25, 0.6485985400000001, 0.6429427400000001], "properties": {"magmom": -0.0}, "label": "Cu", "xyz": [1.262950245, 5.185833852968897, 6.449617440750326]}, {"species": [{"element": "Cu", "occu": 1}], "abc": [0.75, 0.85144648, 0.14294586], "properties": {"magmom": -0.0}, "label": "Cu", "xyz": [3.7888507350000005, 6.807668025217624, 1.4339674651770118]}, {"species": [{"element": "Cu", "occu": 1}], "abc": [0.75, 0.35140884, 0.35710941], "properties": {"magmom": -0.0}, "label": "Cu", "xyz": [3.7888507350000005, 2.80967031503482, 3.5823079956135233]}, {"species": [{"element": "Cu", "occu": 1}], "abc": [0.25, 0.81908653, 0.24491025], "properties": {"magmom": -0.0}, "label": "Cu", "xyz": [1.262950245, 6.548940675437173, 2.456809482848773]}, {"species": [{"element": "Cu", "occu": 1}], "abc": [0.25, 0.31907228, 0.25515135], "properties": {"magmom": 0.0}, "label": "Cu", "xyz": [1.262950245, 2.551122606074545, 2.5595276469220054]}, {"species": [{"element": "Cu", "occu": 1}], "abc": [0.75, 0.18092178, 0.75512499], "properties": {"magmom": 0.0}, "label": "Cu", "xyz": [3.7888507350000005, 1.4465709276856262, 7.574946323006698]}, {"species": [{"element": "Cu", "occu": 1}], "abc": [0.75, 0.680938199999999, 0.7448084500000001], "properties": {"magmom": -0.0}, "label": "Cu", "xyz": [3.7888507350000005, 5.444406344358643, 7.471471392138765]}, {"species": [{"element": "Cu", "occu": 1}], "abc": [0.25, 0.56449415, 0.4021319], "properties": {"magmom": 0.0}, "label": "Cu", "xyz": [1.262950245, 4.513376150070477, 4.0339514581678]}, {"species": [{"element": "Cu", "occu": 1}], "abc": [0.25, 0.064497199999999, 0.09792205], "properties": {"magmom": 0.0}, "label": "Cu", "xyz": [1.262950245, 0.5156850338818716, 0.982294532335957]}, {"species": [{"element": "Cu", "occu": 1}], "abc": [0.75, 0.43550224, 0.59792993], "properties": {"magmom": -0.0}, "label": "Cu", "xyz": [3.7888507350000005, 3.482040148738152, 5.998071081585766]}, {"species": [{"element": "Cu", "occu": 1}], "abc": [0.75, 0.93549995, 0.90201666], "properties": {"magmom": 0.0}, "label": "Cu", "xyz": [3.7888507350000005, 7.479737336986809, 9.048492944669759]}, {"species": [{"element": "Cu", "occu": 1}], "abc": [0.25, 0.90218704, 0.48354212], "properties": {"magmom": 0.0}, "label": "Cu", "xyz": [1.262950245, 7.213371868368869, 4.850617373993213]}, {"species": [{"element": "Cu", "occu": 1}], "abc": [0.25, 0.40218042, 0.016456699999999002], "properties": {"magmom": -0.0}, "label": "Cu", "xyz": [1.262950245, 3.2155975486232893, 0.16509468649720158]}, {"species": [{"element": "Cu", "occu": 1}], "abc": [0.75, 0.09782145, 0.51651906], "properties": {"magmom": -0.0}, "label": "Cu", "xyz": [3.7888507350000005, 0.7821411748652836, 5.181398645709428]}, {"species": [{"element": "Cu", "occu": 1}], "abc": [0.75, 0.59782347, 0.98348298], "properties": {"magmom": 0.0}, "label": "Cu", "xyz": [3.7888507350000005, 4.779878711337193, 9.86570252113191]}, {"species": [{"element": "Cu", "occu": 1}], "abc": [0.00449995, 0.43369809000000004, 0.8097287], "properties": {"magmom": 0.0}, "label": "Cu", "xyz": [0.022732851819951, 3.467622888098296, 8.122703709410358]}, {"species": [{"element": "Cu", "occu": 1}], "abc": [0.49549862, 0.93368876, 0.6901937], "properties": {"magmom": 0.0}, "label": "Cu", "xyz": [2.5031604141046477, 7.465248474741983, 6.923617555665807]}, {"species": [{"element": "Cu", "occu": 1}], "abc": [0.50447178, 0.56629325, 0.19022048], "properties": {"magmom": -0.0}, "label": "Cu", "xyz": [2.5484910325863446, 4.527753029822534, 1.9081887959170396]}, {"species": [{"element": "Cu", "occu": 1}], "abc": [0.99552442, 0.06630259, 0.30985736], "properties": {"magmom": 0.0}, "label": "Cu", "xyz": [5.029191240569932, 0.5301275268158999, 3.1082969460470324]}, {"species": [{"element": "Cu", "occu": 1}], "abc": [0.99552922, 0.56629325, 0.19022048], "properties": {"magmom": -0.0}, "label": "Cu", "xyz": [5.029215489214636, 4.527753029822534, 1.9081887959170396]}, {"species": [{"element": "Cu", "occu": 1}], "abc": [0.50447558, 0.06630259, 0.30985836], "properties": {"magmom": 0.0}, "label": "Cu", "xyz": [2.5485102294300686, 0.5301275268520499, 3.108306977421052]}, {"species": [{"element": "Cu", "occu": 1}], "abc": [0.49550005, 0.43369809000000004, 0.8097287], "properties": {"magmom": 0.0}, "label": "Cu", "xyz": [2.503167638180049, 3.467622888098296, 8.122703709410358]}, {"species": [{"element": "Cu", "occu": 1}], "abc": [0.00450238, 0.93368876, 0.6901937], "properties": {"magmom": 0.0}, "label": "Cu", "xyz": [0.022745127696332402, 7.465248474741983, 6.923617555665807]}]}, "task_ids": null, "uncorrected_energy_per_atom": null, "energy_per_atom": -13.627899562500001, "formation_energy_per_atom": -0.12807313642857202, "energy_above_hull": 0.010661583214286001, "is_stable": false, "equilibrium_reaction_energy_per_atom": null, "decomposes_to": null, "xas": null, "grain_boundaries": null, "band_gap": 0.0, "cbm": null, "vbm": null, "efermi": 5.80609713, "is_gap_direct": null, "is_metal": null, "es_source_calc_id": null, "bandstructure": null, "dos": null, "dos_energy_up": null, "dos_energy_down": null, "is_magnetic": null, "ordering": null, "total_magnetization": 0.0, "total_magnetization_normalized_vol": null, "total_magnetization_normalized_formula_units": null, "num_magnetic_sites": null, "num_unique_magnetic_sites": null, "types_of_magnetic_species": null, "bulk_modulus": null, "shear_modulus": null, "universal_anisotropy": null, "homogeneous_poisson": null, "e_total": null, "e_ionic": null, "e_electronic": null, "n": null, "e_ij_max": null, "weighted_surface_energy_EV_PER_ANG2": null, "weighted_surface_energy": null, "weighted_work_function": null, "surface_anisotropy": null, "shape_factor": null, "has_reconstructed": null, "possible_species": null, "has_props": null, "theoretical": null, "database_IDs": null, "fields_not_requested": ["builder_meta", "nsites", "elements", "nelements", "composition", "composition_reduced", "chemsys", "symmetry", "property_name", "deprecated", "deprecation_reasons", "last_updated", "origins", "warnings", "task_ids", "uncorrected_energy_per_atom", "equilibrium_reaction_energy_per_atom", "decomposes_to", "xas", "grain_boundaries", "cbm", "vbm", "is_gap_direct", "is_metal", "es_source_calc_id", "bandstructure", "dos", "dos_energy_up", "dos_energy_down", "is_magnetic", "ordering", "total_magnetization_normalized_vol", "total_magnetization_normalized_formula_units", "num_magnetic_sites", "num_unique_magnetic_sites", "types_of_magnetic_species", "bulk_modulus", "shear_modulus", "universal_anisotropy", "homogeneous_poisson", "e_total", "e_ionic", "e_electronic", "n", "e_ij_max", "weighted_surface_energy_EV_PER_ANG2", "weighted_surface_energy", "weighted_work_function", "surface_anisotropy", "shape_factor", "has_reconstructed", "possible_species", "has_props", "theoretical", "database_IDs"]}