{"builder_meta": null, "nsites": null, "elements": null, "nelements": null, "composition": null, "composition_reduced": null, "formula_pretty": "NdDy3", "formula_anonymous": "AB3", "chemsys": null, "volume": 268.3896328863939, "density": 7.817233920179471, "density_atomic": 33.548704110799235, "symmetry": null, "property_name": null, "material_id": "mp-974325", "deprecated": null, "deprecation_reasons": null, "last_updated": null, "origins": null, "warnings": null, "structure": {"@module": "pymatgen.core.structure", "@class": "Structure", "charge": 0, "lattice": {"matrix": [[7.2918518500000005, -1.71e-06, 0.0], [-3.64592667, 6.31493179, 0.0], [0.0, 0.0, 5.82853347]], "pbc": [true, true, true], "a": 7.291851850000201, "b": 7.29185468830598, "c": 5.82853347, "alpha": 90.0, "beta": 90.0, "gamma": 120.00000731970424, "volume": 268.38963288639394}, "properties": {}, "sites": [{"species": [{"element": "Nd", "occu": 1}], "abc": [0.66666064, 0.33333153, 0.25], "properties": {"magmom": 0.28600000000000003}, "label": "Nd", "xyz": [3.6458883059272797, 2.1049647354166443, 1.4571333675]}, {"species": [{"element": "Nd", "occu": 1}], "abc": [0.33332718, 0.66666645, 0.75], "properties": {"magmom": 0.28600000000000003}, "label": "Nd", "xyz": [-4.457591093887103e-05, 4.2099525884419675, 4.3714001025]}, {"species": [{"element": "Dy", "occu": 1}], "abc": [0.83536132, 0.16464441, 0.75], "properties": {"magmom": 0.423}, "label": "Dy", "xyz": [5.491049541175028, 1.0397167902869369, 4.3714001025]}, {"species": [{"element": "Dy", "occu": 1}], "abc": [0.32928128, 0.16463953, 0.75], "properties": {"magmom": 0.423}, "label": "Dy", "xyz": [1.800806657375103, 1.03968683881667, 4.3714001025]}, {"species": [{"element": "Dy", "occu": 1}], "abc": [0.83536277, 0.67071691, 0.75], "properties": {"magmom": 0.423}, "label": "Dy", "xyz": [3.645956889656635, 4.2355301085792325, 4.3714001025]}, {"species": [{"element": "Dy", "occu": 1}], "abc": [0.16463365, 0.83537299, 0.25], "properties": {"magmom": 0.423}, "label": "Dy", "xyz": [-1.845224478313891, 5.27532316953481, 1.4571333675]}, {"species": [{"element": "Dy", "occu": 1}], "abc": [0.67073716, 0.83536689, 0.25], "properties": {"magmom": 0.423}, "label": "Dy", "xyz": [1.8452295775237904, 5.275283783013889, 1.4571333675]}, {"species": [{"element": "Dy", "occu": 1}], "abc": [0.16463601, 0.3292623, 0.25], "properties": {"magmom": 0.423}, "label": "Dy", "xyz": [3.519309957744632e-05, 2.07926868399094, 1.4571333675]}]}, "task_ids": null, "uncorrected_energy_per_atom": null, "energy_per_atom": -31.33578170375, "formation_energy_per_atom": 0.005072960625, "energy_above_hull": 0.005072960625, "is_stable": false, "equilibrium_reaction_energy_per_atom": null, "decomposes_to": null, "xas": null, "grain_boundaries": null, "band_gap": 0.0, "cbm": null, "vbm": null, "efermi": 3.17573654, "is_gap_direct": null, "is_metal": null, "es_source_calc_id": null, "bandstructure": null, "dos": null, "dos_energy_up": null, "dos_energy_down": null, "is_magnetic": null, "ordering": null, "total_magnetization": 4.7980807, "total_magnetization_normalized_vol": null, "total_magnetization_normalized_formula_units": null, "num_magnetic_sites": null, "num_unique_magnetic_sites": null, "types_of_magnetic_species": null, "bulk_modulus": null, "shear_modulus": null, "universal_anisotropy": null, "homogeneous_poisson": null, "e_total": null, "e_ionic": null, "e_electronic": null, "n": null, "e_ij_max": null, "weighted_surface_energy_EV_PER_ANG2": null, "weighted_surface_energy": null, "weighted_work_function": null, "surface_anisotropy": null, "shape_factor": null, "has_reconstructed": null, "possible_species": null, "has_props": null, "theoretical": null, "database_IDs": null, "fields_not_requested": ["builder_meta", "nsites", "elements", "nelements", "composition", "composition_reduced", "chemsys", "symmetry", "property_name", "deprecated", "deprecation_reasons", "last_updated", "origins", "warnings", "task_ids", "uncorrected_energy_per_atom", "equilibrium_reaction_energy_per_atom", "decomposes_to", "xas", "grain_boundaries", "cbm", "vbm", "is_gap_direct", "is_metal", "es_source_calc_id", "bandstructure", "dos", "dos_energy_up", "dos_energy_down", "is_magnetic", "ordering", "total_magnetization_normalized_vol", "total_magnetization_normalized_formula_units", "num_magnetic_sites", "num_unique_magnetic_sites", "types_of_magnetic_species", "bulk_modulus", "shear_modulus", "universal_anisotropy", "homogeneous_poisson", "e_total", "e_ionic", "e_electronic", "n", "e_ij_max", "weighted_surface_energy_EV_PER_ANG2", "weighted_surface_energy", "weighted_work_function", "surface_anisotropy", "shape_factor", "has_reconstructed", "possible_species", "has_props", "theoretical", "database_IDs"]}