{"builder_meta": null, "nsites": null, "elements": null, "nelements": null, "composition": null, "composition_reduced": null, "formula_pretty": "NdDy", "formula_anonymous": "AB", "chemsys": null, "volume": 202.51196624530687, "density": 7.545584843367071, "density_atomic": 33.75199437421781, "symmetry": null, "property_name": null, "material_id": "mp-1220129", "deprecated": null, "deprecation_reasons": null, "last_updated": null, "origins": null, "warnings": null, "structure": {"@module": "pymatgen.core.structure", "@class": "Structure", "charge": 0, "lattice": {"matrix": [[17.741908, -1.816812, 0.0], [17.741908, 1.816812, 0.0], [17.555862, 0.0, 3.141307]], "pbc": [true, true, true], "a": 17.834688259787665, "b": 17.834688259787665, "c": 17.83468811701772, "alpha": 11.693679868286589, "beta": 11.693679868286589, "gamma": 11.693677487298606, "volume": 202.51196624530687}, "properties": {}, "sites": [{"species": [{"element": "Nd", "occu": 1}], "abc": [0.11217099999999901, 0.11217099999999901, 0.11217099999999901], "properties": {"magmom": -0.011}, "label": "Nd", "xyz": [5.949513720937947, 0.0, 0.3523635474969969]}, {"species": [{"element": "Nd", "occu": 1}], "abc": [0.888921, 0.888921, 0.888921], "properties": {"magmom": 0.013000000000000001}, "label": "Nd", "xyz": [47.148083607438, 0.0, 2.7923737597469995]}, {"species": [{"element": "Nd", "occu": 1}], "abc": [0.387806999999999, 0.387806999999999, 0.387806999999999], "properties": {"magmom": -0.026000000000000002}, "label": "Nd", "xyz": [20.56915840614595, 0.0, 1.2182208437489968]}, {"species": [{"element": "Dy", "occu": 1}], "abc": [0.998942999999999, 0.998942999999999, 0.998942999999999], "properties": {"magmom": 0.012}, "label": "Dy", "xyz": [52.98361506035395, 0.0, 3.1379866385009967]}, {"species": [{"element": "Dy", "occu": 1}], "abc": [0.500182999999999, 0.500182999999999, 0.500182999999999], "properties": {"magmom": 0.003}, "label": "Dy", "xyz": [26.52954526107395, 0.0, 1.571228359180997]}, {"species": [{"element": "Dy", "occu": 1}], "abc": [0.611974, 0.611974, 0.611974], "properties": {"magmom": 0.055}, "label": "Dy", "xyz": [32.458903904372, 0.0, 1.922398210018]}]}, "task_ids": null, "uncorrected_energy_per_atom": null, "energy_per_atom": -30.65531767916667, "formation_energy_per_atom": 0.044588424583328005, "energy_above_hull": 0.044588424583331, "is_stable": false, "equilibrium_reaction_energy_per_atom": null, "decomposes_to": null, "xas": null, "grain_boundaries": null, "band_gap": 0.0, "cbm": null, "vbm": null, "efermi": 3.25557305, "is_gap_direct": null, "is_metal": null, "es_source_calc_id": null, "bandstructure": null, "dos": null, "dos_energy_up": null, "dos_energy_down": null, "is_magnetic": null, "ordering": null, "total_magnetization": 0.048178, "total_magnetization_normalized_vol": null, "total_magnetization_normalized_formula_units": null, "num_magnetic_sites": null, "num_unique_magnetic_sites": null, "types_of_magnetic_species": null, "bulk_modulus": null, "shear_modulus": null, "universal_anisotropy": null, "homogeneous_poisson": null, "e_total": null, "e_ionic": null, "e_electronic": null, "n": null, "e_ij_max": null, "weighted_surface_energy_EV_PER_ANG2": null, "weighted_surface_energy": null, "weighted_work_function": null, "surface_anisotropy": null, "shape_factor": null, "has_reconstructed": null, "possible_species": null, "has_props": null, "theoretical": null, "database_IDs": null, "fields_not_requested": ["builder_meta", "nsites", "elements", "nelements", "composition", "composition_reduced", "chemsys", "symmetry", "property_name", "deprecated", "deprecation_reasons", "last_updated", "origins", "warnings", "task_ids", "uncorrected_energy_per_atom", "equilibrium_reaction_energy_per_atom", "decomposes_to", "xas", "grain_boundaries", "cbm", "vbm", "is_gap_direct", "is_metal", "es_source_calc_id", "bandstructure", "dos", "dos_energy_up", "dos_energy_down", "is_magnetic", "ordering", "total_magnetization_normalized_vol", "total_magnetization_normalized_formula_units", "num_magnetic_sites", "num_unique_magnetic_sites", "types_of_magnetic_species", "bulk_modulus", "shear_modulus", "universal_anisotropy", "homogeneous_poisson", "e_total", "e_ionic", "e_electronic", "n", "e_ij_max", "weighted_surface_energy_EV_PER_ANG2", "weighted_surface_energy", "weighted_work_function", "surface_anisotropy", "shape_factor", "has_reconstructed", "possible_species", "has_props", "theoretical", "database_IDs"]}