{
  "builder_meta": null,
  "nsites": null,
  "elements": null,
  "nelements": null,
  "composition": null,
  "composition_reduced": null,
  "formula_pretty": "NdEr3",
  "formula_anonymous": "AB3",
  "chemsys": null,
  "volume": 260.1005395925469,
  "density": 8.24865483898138,
  "density_atomic": 32.512567449068364,
  "symmetry": null,
  "property_name": null,
  "material_id": "mp-1186305",
  "deprecated": null,
  "deprecation_reasons": null,
  "last_updated": null,
  "origins": null,
  "warnings": null,
  "structure": {
    "@module": "pymatgen.core.structure",
    "@class": "Structure",
    "charge": 0,
    "lattice": {
      "matrix": [
        [3.60861304, -6.25030002, 0.0],
        [3.60861301, 6.25029899, -0.0],
        [-0.0, -0.0, 5.76593997]
      ],
      "pbc": [true, true, true],
      "a": 7.217225118594406,
      "b": 7.217224211588294,
      "c": 5.76593997,
      "alpha": 90.0,
      "beta": 90.0,
      "gamma": 119.9999873047012,
      "volume": 260.1005395925469
    },
    "properties": {},
    "sites": [
      {
        "species": [{ "element": "Nd", "occu": 1 }],
        "abc": [0.666667, 0.333333, 0.25],
        "properties": { "magmom": 0.292 },
        "label": "Nd",
        "xyz": [3.6086130300000097, -2.0834378501996698, 1.4414849925]
      },
      {
        "species": [{ "element": "Nd", "occu": 1 }],
        "abc": [0.333333, 0.666667, 0.75],
        "properties": { "magmom": 0.292 },
        "label": "Nd",
        "xyz": [3.60861301999999, 2.0834368201996702, 4.3244549775]
      },
      {
        "species": [{ "element": "Er", "occu": 1 }],
        "abc": [0.8357018900000001, 0.16429811, 0.75],
        "properties": { "magmom": 0.462 },
        "label": "Er",
        "xyz": [3.608613035071057, -4.196475228789129, 4.3244549775]
      },
      {
        "species": [{ "element": "Er", "occu": 1 }],
        "abc": [0.32859622, 0.16429811, 0.75],
        "properties": { "magmom": 0.462 },
        "label": "Er",
        "xyz": [1.7786649016511196, -1.0269126494460155, 4.3244549775]
      },
      {
        "species": [{ "element": "Er", "occu": 1 }],
        "abc": [0.8357018900000001, 0.67140378, 0.75],
        "properties": { "magmom": 0.462 },
        "label": "Er",
        "xyz": [5.438561153277823, -1.026913171764856, 4.3244549775]
      },
      {
        "species": [{ "element": "Er", "occu": 1 }],
        "abc": [0.16429811, 0.8357018900000001, 0.25],
        "properties": { "magmom": 0.462 },
        "label": "Er",
        "xyz": [3.6086130149289435, 4.196474198789129, 1.4414849925]
      },
      {
        "species": [{ "element": "Er", "occu": 1 }],
        "abc": [0.67140378, 0.8357018900000001, 0.25],
        "properties": { "magmom": 0.462 },
        "label": "Er",
        "xyz": [5.43856114834888, 1.0269116194460155, 1.4414849925]
      },
      {
        "species": [{ "element": "Er", "occu": 1 }],
        "abc": [0.16429811, 0.32859622, 0.25],
        "properties": { "magmom": 0.462 },
        "label": "Er",
        "xyz": [1.7786648967221765, 1.0269121417648557, 1.4414849925]
      }
    ]
  },
  "task_ids": null,
  "uncorrected_energy_per_atom": null,
  "energy_per_atom": -32.7868281975,
  "formation_energy_per_atom": 0.011750423125000001,
  "energy_above_hull": 0.011750423125000001,
  "is_stable": false,
  "equilibrium_reaction_energy_per_atom": null,
  "decomposes_to": null,
  "xas": null,
  "grain_boundaries": null,
  "band_gap": 0.0,
  "cbm": null,
  "vbm": null,
  "efermi": 3.04161131,
  "is_gap_direct": null,
  "is_metal": null,
  "es_source_calc_id": null,
  "bandstructure": null,
  "dos": null,
  "dos_energy_up": null,
  "dos_energy_down": null,
  "is_magnetic": null,
  "ordering": null,
  "total_magnetization": 4.7783413,
  "total_magnetization_normalized_vol": null,
  "total_magnetization_normalized_formula_units": null,
  "num_magnetic_sites": null,
  "num_unique_magnetic_sites": null,
  "types_of_magnetic_species": null,
  "bulk_modulus": null,
  "shear_modulus": null,
  "universal_anisotropy": null,
  "homogeneous_poisson": null,
  "e_total": null,
  "e_ionic": null,
  "e_electronic": null,
  "n": null,
  "e_ij_max": null,
  "weighted_surface_energy_EV_PER_ANG2": null,
  "weighted_surface_energy": null,
  "weighted_work_function": null,
  "surface_anisotropy": null,
  "shape_factor": null,
  "has_reconstructed": null,
  "possible_species": null,
  "has_props": null,
  "theoretical": null,
  "database_IDs": null,
  "fields_not_requested": [
    "builder_meta",
    "nsites",
    "elements",
    "nelements",
    "composition",
    "composition_reduced",
    "chemsys",
    "symmetry",
    "property_name",
    "deprecated",
    "deprecation_reasons",
    "last_updated",
    "origins",
    "warnings",
    "task_ids",
    "uncorrected_energy_per_atom",
    "equilibrium_reaction_energy_per_atom",
    "decomposes_to",
    "xas",
    "grain_boundaries",
    "cbm",
    "vbm",
    "is_gap_direct",
    "is_metal",
    "es_source_calc_id",
    "bandstructure",
    "dos",
    "dos_energy_up",
    "dos_energy_down",
    "is_magnetic",
    "ordering",
    "total_magnetization_normalized_vol",
    "total_magnetization_normalized_formula_units",
    "num_magnetic_sites",
    "num_unique_magnetic_sites",
    "types_of_magnetic_species",
    "bulk_modulus",
    "shear_modulus",
    "universal_anisotropy",
    "homogeneous_poisson",
    "e_total",
    "e_ionic",
    "e_electronic",
    "n",
    "e_ij_max",
    "weighted_surface_energy_EV_PER_ANG2",
    "weighted_surface_energy",
    "weighted_work_function",
    "surface_anisotropy",
    "shape_factor",
    "has_reconstructed",
    "possible_species",
    "has_props",
    "theoretical",
    "database_IDs"
  ]
}
