{
  "builder_meta": null,
  "nsites": null,
  "elements": null,
  "nelements": null,
  "composition": null,
  "composition_reduced": null,
  "formula_pretty": "NdEu3",
  "formula_anonymous": "AB3",
  "chemsys": null,
  "volume": 314.6504680752334,
  "density": 6.33430459068409,
  "density_atomic": 39.331308509404174,
  "symmetry": null,
  "property_name": null,
  "material_id": "mp-1186319",
  "deprecated": null,
  "deprecation_reasons": null,
  "last_updated": null,
  "origins": null,
  "warnings": null,
  "structure": {
    "@module": "pymatgen.core.structure",
    "@class": "Structure",
    "charge": 0,
    "lattice": {
      "matrix": [
        [3.832786999999999, -6.6385819999999995, 0.0],
        [3.832786999999999, 6.6385819999999995, 0.0],
        [0.0, 0.0, 6.18313]
      ],
      "pbc": [true, true, true],
      "a": 7.665574157106106,
      "b": 7.665574157106106,
      "c": 6.18313,
      "alpha": 90.0,
      "beta": 90.0,
      "gamma": 120.00000135593972,
      "volume": 314.6504680752332
    },
    "properties": {},
    "sites": [
      {
        "species": [{ "element": "Nd", "occu": 1 }],
        "abc": [0.666667, 0.333333, 0.25],
        "properties": { "magmom": 0.186 },
        "label": "Nd",
        "xyz": [3.832786999999999, -2.212865092388, 1.5457825]
      },
      {
        "species": [{ "element": "Nd", "occu": 1 }],
        "abc": [0.333333, 0.666667, 0.75],
        "properties": { "magmom": 0.186 },
        "label": "Nd",
        "xyz": [3.832786999999999, 2.212865092388, 4.637347500000001]
      },
      {
        "species": [{ "element": "Eu", "occu": 1 }],
        "abc": [0.169361999999999, 0.338723999999999, 0.25],
        "properties": { "magmom": 6.953 },
        "label": "Eu",
        "xyz": [1.9473854156819919, 1.124323524684, 1.5457825]
      },
      {
        "species": [{ "element": "Eu", "occu": 1 }],
        "abc": [0.830638, 0.169361999999999, 0.75],
        "properties": { "magmom": 6.953 },
        "label": "Eu",
        "xyz": [3.832786999999995, -4.389934950632006, 4.637347500000001]
      },
      {
        "species": [{ "element": "Eu", "occu": 1 }],
        "abc": [0.338723999999999, 0.169361999999999, 0.75],
        "properties": { "magmom": 6.964 },
        "label": "Eu",
        "xyz": [1.9473854156819919, -1.124323524684, 4.637347500000001]
      },
      {
        "species": [{ "element": "Eu", "occu": 1 }],
        "abc": [0.830638, 0.661276, 0.75],
        "properties": { "magmom": 6.953 },
        "label": "Eu",
        "xyz": [5.718188584317998, -1.1243235246840007, 4.637347500000001]
      },
      {
        "species": [{ "element": "Eu", "occu": 1 }],
        "abc": [0.169361999999999, 0.830638, 0.25],
        "properties": { "magmom": 6.953 },
        "label": "Eu",
        "xyz": [3.832786999999995, 4.389934950632006, 1.5457825]
      },
      {
        "species": [{ "element": "Eu", "occu": 1 }],
        "abc": [0.661276, 0.830638, 0.25],
        "properties": { "magmom": 6.964 },
        "label": "Eu",
        "xyz": [5.718188584317998, 1.1243235246840007, 1.5457825]
      }
    ]
  },
  "task_ids": null,
  "uncorrected_energy_per_atom": null,
  "energy_per_atom": -36.187651152499996,
  "formation_energy_per_atom": 0.057513129375003004,
  "energy_above_hull": 0.057513129375003004,
  "is_stable": false,
  "equilibrium_reaction_energy_per_atom": null,
  "decomposes_to": null,
  "xas": null,
  "grain_boundaries": null,
  "band_gap": 0.0,
  "cbm": null,
  "vbm": null,
  "efermi": 2.44586901,
  "is_gap_direct": null,
  "is_metal": null,
  "es_source_calc_id": null,
  "bandstructure": null,
  "dos": null,
  "dos_energy_up": null,
  "dos_energy_down": null,
  "is_magnetic": null,
  "ordering": null,
  "total_magnetization": 45.1369655,
  "total_magnetization_normalized_vol": null,
  "total_magnetization_normalized_formula_units": null,
  "num_magnetic_sites": null,
  "num_unique_magnetic_sites": null,
  "types_of_magnetic_species": null,
  "bulk_modulus": null,
  "shear_modulus": null,
  "universal_anisotropy": null,
  "homogeneous_poisson": null,
  "e_total": null,
  "e_ionic": null,
  "e_electronic": null,
  "n": null,
  "e_ij_max": null,
  "weighted_surface_energy_EV_PER_ANG2": null,
  "weighted_surface_energy": null,
  "weighted_work_function": null,
  "surface_anisotropy": null,
  "shape_factor": null,
  "has_reconstructed": null,
  "possible_species": null,
  "has_props": null,
  "theoretical": null,
  "database_IDs": null,
  "fields_not_requested": [
    "builder_meta",
    "nsites",
    "elements",
    "nelements",
    "composition",
    "composition_reduced",
    "chemsys",
    "symmetry",
    "property_name",
    "deprecated",
    "deprecation_reasons",
    "last_updated",
    "origins",
    "warnings",
    "task_ids",
    "uncorrected_energy_per_atom",
    "equilibrium_reaction_energy_per_atom",
    "decomposes_to",
    "xas",
    "grain_boundaries",
    "cbm",
    "vbm",
    "is_gap_direct",
    "is_metal",
    "es_source_calc_id",
    "bandstructure",
    "dos",
    "dos_energy_up",
    "dos_energy_down",
    "is_magnetic",
    "ordering",
    "total_magnetization_normalized_vol",
    "total_magnetization_normalized_formula_units",
    "num_magnetic_sites",
    "num_unique_magnetic_sites",
    "types_of_magnetic_species",
    "bulk_modulus",
    "shear_modulus",
    "universal_anisotropy",
    "homogeneous_poisson",
    "e_total",
    "e_ionic",
    "e_electronic",
    "n",
    "e_ij_max",
    "weighted_surface_energy_EV_PER_ANG2",
    "weighted_surface_energy",
    "weighted_work_function",
    "surface_anisotropy",
    "shape_factor",
    "has_reconstructed",
    "possible_species",
    "has_props",
    "theoretical",
    "database_IDs"
  ]
}
