{
  "builder_meta": null,
  "nsites": null,
  "elements": null,
  "nelements": null,
  "composition": null,
  "composition_reduced": null,
  "formula_pretty": "NdF3",
  "formula_anonymous": "AB3",
  "chemsys": null,
  "volume": 306.0975333537723,
  "density": 6.550113185162411,
  "density_atomic": 12.754063889740513,
  "symmetry": null,
  "property_name": null,
  "material_id": "mp-254",
  "deprecated": null,
  "deprecation_reasons": null,
  "last_updated": null,
  "origins": null,
  "warnings": null,
  "structure": {
    "@module": "pymatgen.core.structure",
    "@class": "Structure",
    "charge": 0,
    "lattice": {
      "matrix": [
        [7.0027232, -0.0, -0.0],
        [-3.50136211, 6.06453694, 0.0],
        [0.0, 0.0, 7.20767547]
      ],
      "pbc": [true, true, true],
      "a": 7.0027232,
      "b": 7.0027241072291435,
      "c": 7.20767547,
      "alpha": 90.0,
      "beta": 90.0,
      "gamma": 120.00000053271124,
      "volume": 306.0975333537723
    },
    "properties": {},
    "sites": [
      {
        "species": [{ "element": "Nd", "occu": 1 }],
        "abc": [0.34371485, 0.34371485, 0.75],
        "properties": { "magmom": -0.0 },
        "label": "Nd",
        "xyz": [1.2034698018451866, 2.084471404651559, 5.4057566025]
      },
      {
        "species": [{ "element": "Nd", "occu": 1 }],
        "abc": [0.0, 0.65628515, 0.75],
        "properties": { "magmom": -0.0 },
        "label": "Nd",
        "xyz": [-2.2978919575656667, 3.980065535348441, 5.4057566025]
      },
      {
        "species": [{ "element": "Nd", "occu": 1 }],
        "abc": [0.65628515, -0.0, 0.75],
        "properties": { "magmom": -0.0 },
        "label": "Nd",
        "xyz": [4.59578324572048, 0.0, 5.4057566025]
      },
      {
        "species": [{ "element": "Nd", "occu": 1 }],
        "abc": [0.65628515, 0.65628515, 0.25],
        "properties": { "magmom": -0.0 },
        "label": "Nd",
        "xyz": [2.2978912881548137, 3.980065535348441, 1.8019188675]
      },
      {
        "species": [{ "element": "Nd", "occu": 1 }],
        "abc": [-0.0, 0.34371485, 0.25],
        "properties": { "magmom": -0.0 },
        "label": "Nd",
        "xyz": [-1.2034701524343336, 2.084471404651559, 1.8019188675]
      },
      {
        "species": [{ "element": "Nd", "occu": 1 }],
        "abc": [0.34371485, 0.0, 0.25],
        "properties": { "magmom": -0.0 },
        "label": "Nd",
        "xyz": [2.4069399542795202, 0.0, 1.8019188675]
      },
      {
        "species": [{ "element": "F", "occu": 1 }],
        "abc": [0.0, 0.0, 0.75],
        "properties": { "magmom": 0.0 },
        "label": "F",
        "xyz": [0.0, 0.0, 5.4057566025]
      },
      {
        "species": [{ "element": "F", "occu": 1 }],
        "abc": [0.0, 0.0, 0.25],
        "properties": { "magmom": 0.0 },
        "label": "F",
        "xyz": [0.0, 0.0, 1.8019188675]
      },
      {
        "species": [{ "element": "F", "occu": 1 }],
        "abc": [0.333333, 0.666667, 0.82030497],
        "properties": { "magmom": -0.0 },
        "label": "F",
        "xyz": [-3.841361770451357e-6, 4.04302664817898, 5.912492010188086]
      },
      {
        "species": [{ "element": "F", "occu": 1 }],
        "abc": [0.666667, 0.333333, 0.67969503],
        "properties": { "magmom": -0.0 },
        "label": "F",
        "xyz": [3.5013649313617696, 2.02151029182102, 4.899021194811914]
      },
      {
        "species": [{ "element": "F", "occu": 1 }],
        "abc": [0.666667, 0.333333, 0.17969503],
        "properties": { "magmom": -0.0 },
        "label": "F",
        "xyz": [3.5013649313617696, 2.02151029182102, 1.295183459811914]
      },
      {
        "species": [{ "element": "F", "occu": 1 }],
        "abc": [0.333333, 0.666667, 0.32030497],
        "properties": { "magmom": -0.0 },
        "label": "F",
        "xyz": [-3.841361770451357e-6, 4.04302664817898, 2.308654275188086]
      },
      {
        "species": [{ "element": "F", "occu": 1 }],
        "abc": [0.31030129, 0.9395976500000001, 0.58115998],
        "properties": { "magmom": -0.0 },
        "label": "F",
        "xyz": [-1.1169175678821137, 5.698224657162191, 4.18881253199169]
      },
      {
        "species": [{ "element": "F", "occu": 1 }],
        "abc": [0.06040235, 0.37070264, 0.58115998],
        "properties": { "magmom": -0.0 },
        "label": "F",
        "xyz": [-0.8749832400934505, 2.248139854035522, 4.18881253199169]
      },
      {
        "species": [{ "element": "F", "occu": 1 }],
        "abc": [0.62929736, 0.68969871, 0.58115998],
        "properties": { "magmom": -0.0 },
        "label": "F",
        "xyz": [1.9919102920608736, 4.182703304265348, 4.18881253199169]
      },
      {
        "species": [{ "element": "F", "occu": 1 }],
        "abc": [0.37070264, 0.06040235, 0.91884002],
        "properties": { "magmom": -0.0 },
        "label": "F",
        "xyz": [2.3844374777842896, 0.366312282837809, 6.62270067300831]
      },
      {
        "species": [{ "element": "F", "occu": 1 }],
        "abc": [0.68969871, 0.62929736, 0.91884002],
        "properties": { "magmom": -0.0 },
        "label": "F",
        "xyz": [2.6263712253000424, 3.8163970859644785, 6.62270067300831]
      },
      {
        "species": [{ "element": "F", "occu": 1 }],
        "abc": [0.9395976500000001, 0.31030129, 0.91884002],
        "properties": { "magmom": -0.0 },
        "label": "F",
        "xyz": [5.493265082830359, 1.8818336357346526, 6.62270067300831]
      },
      {
        "species": [{ "element": "F", "occu": 1 }],
        "abc": [0.68969871, 0.06040235, 0.41884002000000004],
        "properties": { "magmom": -0.0 },
        "label": "F",
        "xyz": [4.618278657882113, 0.366312282837809, 3.0188629380083096]
      },
      {
        "species": [{ "element": "F", "occu": 1 }],
        "abc": [0.9395976500000001, 0.62929736, 0.41884002000000004],
        "properties": { "magmom": -0.0 },
        "label": "F",
        "xyz": [4.376344330093451, 3.8163970859644785, 3.0188629380083096]
      },
      {
        "species": [{ "element": "F", "occu": 1 }],
        "abc": [0.37070264, 0.31030129, 0.41884002000000004],
        "properties": { "magmom": -0.0 },
        "label": "F",
        "xyz": [1.5094507979391263, 1.8818336357346526, 3.0188629380083096]
      },
      {
        "species": [{ "element": "F", "occu": 1 }],
        "abc": [0.62929736, 0.9395976500000001, 0.08115998],
        "properties": { "magmom": -0.0 },
        "label": "F",
        "xyz": [1.11692361221571, 5.698224657162191, 0.5849747969916906]
      },
      {
        "species": [{ "element": "F", "occu": 1 }],
        "abc": [0.31030129, 0.37070264, 0.08115998],
        "properties": { "magmom": -0.0 },
        "label": "F",
        "xyz": [0.8749898646999577, 2.248139854035522, 0.5849747969916906]
      },
      {
        "species": [{ "element": "F", "occu": 1 }],
        "abc": [0.06040235, 0.68969871, 0.08115998],
        "properties": { "magmom": -0.0 },
        "label": "F",
        "xyz": [-1.9919039928303583, 4.182703304265348, 0.5849747969916906]
      }
    ]
  },
  "task_ids": null,
  "uncorrected_energy_per_atom": null,
  "energy_per_atom": -14.151389067083334,
  "formation_energy_per_atom": -4.452365858958333,
  "energy_above_hull": 0.0,
  "is_stable": true,
  "equilibrium_reaction_energy_per_atom": null,
  "decomposes_to": null,
  "xas": null,
  "grain_boundaries": null,
  "band_gap": 7.6164000000000005,
  "cbm": null,
  "vbm": null,
  "efermi": -0.16681156,
  "is_gap_direct": null,
  "is_metal": null,
  "es_source_calc_id": null,
  "bandstructure": null,
  "dos": null,
  "dos_energy_up": null,
  "dos_energy_down": null,
  "is_magnetic": null,
  "ordering": null,
  "total_magnetization": 0.0,
  "total_magnetization_normalized_vol": null,
  "total_magnetization_normalized_formula_units": null,
  "num_magnetic_sites": null,
  "num_unique_magnetic_sites": null,
  "types_of_magnetic_species": null,
  "bulk_modulus": null,
  "shear_modulus": null,
  "universal_anisotropy": null,
  "homogeneous_poisson": null,
  "e_total": null,
  "e_ionic": null,
  "e_electronic": null,
  "n": null,
  "e_ij_max": null,
  "weighted_surface_energy_EV_PER_ANG2": null,
  "weighted_surface_energy": null,
  "weighted_work_function": null,
  "surface_anisotropy": null,
  "shape_factor": null,
  "has_reconstructed": null,
  "possible_species": null,
  "has_props": null,
  "theoretical": null,
  "database_IDs": null,
  "fields_not_requested": [
    "builder_meta",
    "nsites",
    "elements",
    "nelements",
    "composition",
    "composition_reduced",
    "chemsys",
    "symmetry",
    "property_name",
    "deprecated",
    "deprecation_reasons",
    "last_updated",
    "origins",
    "warnings",
    "task_ids",
    "uncorrected_energy_per_atom",
    "equilibrium_reaction_energy_per_atom",
    "decomposes_to",
    "xas",
    "grain_boundaries",
    "cbm",
    "vbm",
    "is_gap_direct",
    "is_metal",
    "es_source_calc_id",
    "bandstructure",
    "dos",
    "dos_energy_up",
    "dos_energy_down",
    "is_magnetic",
    "ordering",
    "total_magnetization_normalized_vol",
    "total_magnetization_normalized_formula_units",
    "num_magnetic_sites",
    "num_unique_magnetic_sites",
    "types_of_magnetic_species",
    "bulk_modulus",
    "shear_modulus",
    "universal_anisotropy",
    "homogeneous_poisson",
    "e_total",
    "e_ionic",
    "e_electronic",
    "n",
    "e_ij_max",
    "weighted_surface_energy_EV_PER_ANG2",
    "weighted_surface_energy",
    "weighted_work_function",
    "surface_anisotropy",
    "shape_factor",
    "has_reconstructed",
    "possible_species",
    "has_props",
    "theoretical",
    "database_IDs"
  ]
}
