{"builder_meta": null, "nsites": null, "elements": null, "nelements": null, "composition": null, "composition_reduced": null, "formula_pretty": "NdFe2", "formula_anonymous": "AB2", "chemsys": null, "volume": 103.13806021840401, "density": 8.241091280815782, "density_atomic": 17.189676703067335, "symmetry": null, "property_name": null, "material_id": "mp-1207", "deprecated": null, "deprecation_reasons": null, "last_updated": null, "origins": null, "warnings": null, "structure": {"@module": "pymatgen.core.structure", "@class": "Structure", "charge": 0, "lattice": {"matrix": [[0.0, 3.722171, 3.722171], [3.722171, 0.0, 3.722171], [3.722171, 3.722171, 0.0]], "pbc": [true, true, true], "a": 5.263944709671826, "b": 5.263944709671826, "c": 5.263944709671826, "alpha": 60.00000000000001, "beta": 60.00000000000001, "gamma": 60.00000000000001, "volume": 103.13806021840401}, "properties": {}, "sites": [{"species": [{"element": "Nd", "occu": 1}], "abc": [0.25, 0.25, 0.25], "properties": {"magmom": 0.354}, "label": "Nd", "xyz": [1.8610855, 1.8610855, 1.8610855]}, {"species": [{"element": "Nd", "occu": 1}], "abc": [0.0, 0.0, 0.0], "properties": {"magmom": 0.354}, "label": "Nd", "xyz": [0.0, 0.0, 0.0]}, {"species": [{"element": "Fe", "occu": 1}], "abc": [0.625, 0.125, 0.625], "properties": {"magmom": -2.341}, "label": "Fe", "xyz": [2.79162825, 4.65271375, 2.79162825]}, {"species": [{"element": "Fe", "occu": 1}], "abc": [0.625, 0.625, 0.125], "properties": {"magmom": -2.243999999999999}, "label": "Fe", "xyz": [2.79162825, 2.79162825, 4.65271375]}, {"species": [{"element": "Fe", "occu": 1}], "abc": [0.125, 0.625, 0.625], "properties": {"magmom": -2.133}, "label": "Fe", "xyz": [4.65271375, 2.79162825, 2.79162825]}, {"species": [{"element": "Fe", "occu": 1}], "abc": [0.625, 0.625, 0.625], "properties": {"magmom": -2.229}, "label": "Fe", "xyz": [4.65271375, 4.65271375, 4.65271375]}]}, "task_ids": null, "uncorrected_energy_per_atom": null, "energy_per_atom": -7.15514207, "formation_energy_per_atom": 0.080921214166667, "energy_above_hull": 0.080921214166666, "is_stable": false, "equilibrium_reaction_energy_per_atom": null, "decomposes_to": null, "xas": null, "grain_boundaries": null, "band_gap": 0.0, "cbm": null, "vbm": null, "efermi": 4.75397797, "is_gap_direct": null, "is_metal": null, "es_source_calc_id": null, "bandstructure": null, "dos": null, "dos_energy_up": null, "dos_energy_down": null, "is_magnetic": null, "ordering": null, "total_magnetization": 7.7458279999999995, "total_magnetization_normalized_vol": null, "total_magnetization_normalized_formula_units": null, "num_magnetic_sites": null, "num_unique_magnetic_sites": null, "types_of_magnetic_species": null, "bulk_modulus": null, "shear_modulus": null, "universal_anisotropy": null, "homogeneous_poisson": null, "e_total": null, "e_ionic": null, "e_electronic": null, "n": null, "e_ij_max": null, "weighted_surface_energy_EV_PER_ANG2": null, "weighted_surface_energy": null, "weighted_work_function": null, "surface_anisotropy": null, "shape_factor": null, "has_reconstructed": null, "possible_species": null, "has_props": null, "theoretical": null, "database_IDs": null, "fields_not_requested": ["builder_meta", "nsites", "elements", "nelements", "composition", "composition_reduced", "chemsys", "symmetry", "property_name", "deprecated", "deprecation_reasons", "last_updated", "origins", "warnings", "task_ids", "uncorrected_energy_per_atom", "equilibrium_reaction_energy_per_atom", "decomposes_to", "xas", "grain_boundaries", "cbm", "vbm", "is_gap_direct", "is_metal", "es_source_calc_id", "bandstructure", "dos", "dos_energy_up", "dos_energy_down", "is_magnetic", "ordering", "total_magnetization_normalized_vol", "total_magnetization_normalized_formula_units", "num_magnetic_sites", "num_unique_magnetic_sites", "types_of_magnetic_species", "bulk_modulus", "shear_modulus", "universal_anisotropy", "homogeneous_poisson", "e_total", "e_ionic", "e_electronic", "n", "e_ij_max", "weighted_surface_energy_EV_PER_ANG2", "weighted_surface_energy", "weighted_work_function", "surface_anisotropy", "shape_factor", "has_reconstructed", "possible_species", "has_props", "theoretical", "database_IDs"]}