{"builder_meta": null, "nsites": null, "elements": null, "nelements": null, "composition": null, "composition_reduced": null, "formula_pretty": "NdGa3", "formula_anonymous": "AB3", "chemsys": null, "volume": 163.65017490239538, "density": 7.172039656128502, "density_atomic": 20.456271862799422, "symmetry": null, "property_name": null, "material_id": "mp-864621", "deprecated": null, "deprecation_reasons": null, "last_updated": null, "origins": null, "warnings": null, "structure": {"@module": "pymatgen.core.structure", "@class": "Structure", "charge": 0, "lattice": {"matrix": [[6.46655806, 0.00044602, 4.084e-05], [-3.23289374, 5.60051967, -2.957e-05], [-4.0250000000000016e-05, 3.372e-05, 4.51853525]], "pbc": [true, true, true], "a": 6.466558075510704, "b": 6.46663919737776, "c": 4.518535250305088, "alpha": 89.99963653440608, "beta": 90.00014849170637, "gamma": 119.99169130361281, "volume": 163.65017490239538}, "properties": {}, "sites": [{"species": [{"element": "Nd", "occu": 1}], "abc": [0.66663835, 0.33336414000000003, 0.24999962], "properties": {"magmom": -0.0}, "label": "Nd", "xyz": [3.2331146914664117, 1.8673181873666873, 1.1296494633891991]}, {"species": [{"element": "Nd", "occu": 1}], "abc": [0.33336018, 0.66663502, 0.74999916], "properties": {"magmom": -0.0}, "label": "Nd", "xyz": [0.0005025883730861339, 3.7336765175000015, 3.3888915439626]}, {"species": [{"element": "Ga", "occu": 1}], "abc": [0.85981746, 0.14018139, 0.749999499999999], "properties": {"magmom": -0.0}, "label": "Ga", "xyz": [5.106837800416354, 0.7854974178295904, 3.3889301480137353]}, {"species": [{"element": "Ga", "occu": 1}], "abc": [0.28026384, 0.1401059, 0.7499995700000001], "properties": {"magmom": -0.0}, "label": "Ga", "xyz": [1.3593647189487919, 0.7848161420964702, 3.3889067975736054]}, {"species": [{"element": "Ga", "occu": 1}], "abc": [0.85989242, 0.7197503, 0.75000005], "properties": {"magmom": -0.0}, "label": "Ga", "xyz": [3.2336378325487702, 4.031384531857254, 3.3889154984168246]}, {"species": [{"element": "Ga", "occu": 1}], "abc": [0.14018165, 0.85981766, 0.25000022], "properties": {"magmom": -0.0}, "label": "Ga", "xyz": [-1.8732164143927048, 4.815496671270324, 1.1296151067881348]}, {"species": [{"element": "Ga", "occu": 1}], "abc": [0.7197353400000001, 0.85989311, 0.25000023], "properties": {"magmom": -0.0}, "label": "Ga", "xyz": [1.8742572490464515, 4.816177723016576, 1.1296388187151303]}, {"species": [{"element": "Ga", "occu": 1}], "abc": [0.14010676, 0.28025448000000003, 0.24999365], "properties": {"magmom": -0.0}, "label": "Ga", "xyz": [-3.451810488234083e-05, 1.5696416480485949, 1.1296025546362674]}]}, "task_ids": null, "uncorrected_energy_per_atom": null, "energy_per_atom": -16.57599281125, "formation_energy_per_atom": -0.639408603124998, "energy_above_hull": 0.0, "is_stable": true, "equilibrium_reaction_energy_per_atom": null, "decomposes_to": null, "xas": null, "grain_boundaries": null, "band_gap": 0.0, "cbm": null, "vbm": null, "efermi": 3.75442667, "is_gap_direct": null, "is_metal": null, "es_source_calc_id": null, "bandstructure": null, "dos": null, "dos_energy_up": null, "dos_energy_down": null, "is_magnetic": null, "ordering": null, "total_magnetization": 1e-07, "total_magnetization_normalized_vol": null, "total_magnetization_normalized_formula_units": null, "num_magnetic_sites": null, "num_unique_magnetic_sites": null, "types_of_magnetic_species": null, "bulk_modulus": null, "shear_modulus": null, "universal_anisotropy": null, "homogeneous_poisson": null, "e_total": null, "e_ionic": null, "e_electronic": null, "n": null, "e_ij_max": null, "weighted_surface_energy_EV_PER_ANG2": null, "weighted_surface_energy": null, "weighted_work_function": null, "surface_anisotropy": null, "shape_factor": null, "has_reconstructed": null, "possible_species": null, "has_props": null, "theoretical": null, "database_IDs": null, "fields_not_requested": ["builder_meta", "nsites", "elements", "nelements", "composition", "composition_reduced", "chemsys", "symmetry", "property_name", "deprecated", "deprecation_reasons", "last_updated", "origins", "warnings", "task_ids", "uncorrected_energy_per_atom", "equilibrium_reaction_energy_per_atom", "decomposes_to", "xas", "grain_boundaries", "cbm", "vbm", "is_gap_direct", "is_metal", "es_source_calc_id", "bandstructure", "dos", "dos_energy_up", "dos_energy_down", "is_magnetic", "ordering", "total_magnetization_normalized_vol", "total_magnetization_normalized_formula_units", "num_magnetic_sites", "num_unique_magnetic_sites", "types_of_magnetic_species", "bulk_modulus", "shear_modulus", "universal_anisotropy", "homogeneous_poisson", "e_total", "e_ionic", "e_electronic", "n", "e_ij_max", "weighted_surface_energy_EV_PER_ANG2", "weighted_surface_energy", "weighted_work_function", "surface_anisotropy", "shape_factor", "has_reconstructed", "possible_species", "has_props", "theoretical", "database_IDs"]}