{"builder_meta": null, "nsites": null, "elements": null, "nelements": null, "composition": null, "composition_reduced": null, "formula_pretty": "NdGa", "formula_anonymous": "AB", "chemsys": null, "volume": 105.57110860328551, "density": 6.730955961070804, "density_atomic": 26.392777150821377, "symmetry": null, "property_name": null, "material_id": "mp-1448", "deprecated": null, "deprecation_reasons": null, "last_updated": null, "origins": null, "warnings": null, "structure": {"@module": "pymatgen.core.structure", "@class": "Structure", "charge": 0, "lattice": {"matrix": [[4.17831134, -0.0, 0.0], [-0.0, 4.18630261, -1.63965243], [0.0, -0.04362995, 6.0525943]], "pbc": [true, true, true], "a": 4.17831134, "b": 4.495952583568661, "c": 6.052751550570162, "alpha": 111.80183522033298, "beta": 90.0, "gamma": 90.0, "volume": 105.57110860328551}, "properties": {}, "sites": [{"species": [{"element": "Nd", "occu": 1}], "abc": [0.75, 0.1383939, 0.27678681], "properties": {"magmom": 0.002}, "label": "Nd", "xyz": [3.1337335049999995, 0.5672825500971195, 1.4483603740890059]}, {"species": [{"element": "Nd", "occu": 1}], "abc": [0.25, 0.861606099999999, 0.72321219], "properties": {"magmom": 0.002}, "label": "Nd", "xyz": [1.044577835, 3.5753901535328265, 2.9645754433166953]}, {"species": [{"element": "Ga", "occu": 1}], "abc": [0.75, 0.42995732000000003, 0.85991565], "properties": {"magmom": -0.0}, "label": "Ga", "xyz": [3.1337335049999995, 1.7624133740908878, 4.4997399971365075]}, {"species": [{"element": "Ga", "occu": 1}], "abc": [0.25, 0.57004268, 0.14008435], "properties": {"magmom": -0.0}, "label": "Ga", "xyz": [1.044577835, 2.3802592859091125, -0.08679812713650747]}]}, "task_ids": null, "uncorrected_energy_per_atom": null, "energy_per_atom": -21.1235256425, "formation_energy_per_atom": -0.693133176249997, "energy_above_hull": 0.0, "is_stable": true, "equilibrium_reaction_energy_per_atom": null, "decomposes_to": null, "xas": null, "grain_boundaries": null, "band_gap": 0.0, "cbm": null, "vbm": null, "efermi": 3.16292084, "is_gap_direct": null, "is_metal": null, "es_source_calc_id": null, "bandstructure": null, "dos": null, "dos_energy_up": null, "dos_energy_down": null, "is_magnetic": null, "ordering": null, "total_magnetization": 0.0089915, "total_magnetization_normalized_vol": null, "total_magnetization_normalized_formula_units": null, "num_magnetic_sites": null, "num_unique_magnetic_sites": null, "types_of_magnetic_species": null, "bulk_modulus": null, "shear_modulus": null, "universal_anisotropy": null, "homogeneous_poisson": null, "e_total": null, "e_ionic": null, "e_electronic": null, "n": null, "e_ij_max": null, "weighted_surface_energy_EV_PER_ANG2": null, "weighted_surface_energy": null, "weighted_work_function": null, "surface_anisotropy": null, "shape_factor": null, "has_reconstructed": null, "possible_species": null, "has_props": null, "theoretical": null, "database_IDs": null, "fields_not_requested": ["builder_meta", "nsites", "elements", "nelements", "composition", "composition_reduced", "chemsys", "symmetry", "property_name", "deprecated", "deprecation_reasons", "last_updated", "origins", "warnings", "task_ids", "uncorrected_energy_per_atom", "equilibrium_reaction_energy_per_atom", "decomposes_to", "xas", "grain_boundaries", "cbm", "vbm", "is_gap_direct", "is_metal", "es_source_calc_id", "bandstructure", "dos", "dos_energy_up", "dos_energy_down", "is_magnetic", "ordering", "total_magnetization_normalized_vol", "total_magnetization_normalized_formula_units", "num_magnetic_sites", "num_unique_magnetic_sites", "types_of_magnetic_species", "bulk_modulus", "shear_modulus", "universal_anisotropy", "homogeneous_poisson", "e_total", "e_ionic", "e_electronic", "n", "e_ij_max", "weighted_surface_energy_EV_PER_ANG2", "weighted_surface_energy", "weighted_work_function", "surface_anisotropy", "shape_factor", "has_reconstructed", "possible_species", "has_props", "theoretical", "database_IDs"]}