{
  "builder_meta": null,
  "nsites": null,
  "elements": null,
  "nelements": null,
  "composition": null,
  "composition_reduced": null,
  "formula_pretty": "NdGe2",
  "formula_anonymous": "AB2",
  "chemsys": null,
  "volume": 137.74868333914677,
  "density": 6.980285836293542,
  "density_atomic": 22.958113889857795,
  "symmetry": null,
  "property_name": null,
  "material_id": "mp-2129",
  "deprecated": null,
  "deprecation_reasons": null,
  "last_updated": null,
  "origins": null,
  "warnings": null,
  "structure": {
    "@module": "pymatgen.core.structure",
    "@class": "Structure",
    "charge": 0,
    "lattice": {
      "matrix": [
        [3.96647893, 0.0, -1.15297517],
        [-0.33514635, 3.95229446, -1.15297517],
        [0.34049419000000003, 0.37058886, 8.5706272]
      ],
      "pbc": [true, true, true],
      "a": 4.130654529825809,
      "b": 4.130654465953493,
      "c": 8.585390090028508,
      "alpha": 103.91978215743015,
      "beta": 103.91977841393162,
      "gamma": 89.99999729041997,
      "volume": 137.74868333914677
    },
    "properties": {},
    "sites": [
      {
        "species": [{ "element": "Nd", "occu": 1 }],
        "abc": [0.875, 0.625, 0.25],
        "properties": { "magmom": -0.0 },
        "label": "Nd",
        "xyz": [3.3463261424999997, 2.5628312525, 0.41319404500000023]
      },
      {
        "species": [{ "element": "Nd", "occu": 1 }],
        "abc": [0.125, 0.375, 0.75],
        "properties": { "magmom": -0.0 },
        "label": "Nd",
        "xyz": [0.6255006275000001, 1.7600520675, 5.851482815000001]
      },
      {
        "species": [{ "element": "Ge", "occu": 1 }],
        "abc": [0.7047163, 0.9547163, 0.9094316],
        "properties": { "magmom": 0.0 },
        "label": "Ge",
        "xyz": [2.784928848349458, 4.110345163253674, 5.881114623410979]
      },
      {
        "species": [{ "element": "Ge", "occu": 1 }],
        "abc": [0.454716299999999, 0.2047163, 0.4094316],
        "properties": { "magmom": 0.0 },
        "label": "Ge",
        "xyz": [1.874421783349454, 0.960829888253674, 2.7487761934109796]
      },
      {
        "species": [{ "element": "Ge", "occu": 1 }],
        "abc": [0.545283699999999, 0.795283699999999, 0.5905684],
        "properties": { "magmom": 0.0 },
        "label": "Ge",
        "xyz": [2.0974049866505386, 3.362053431746322, 3.5159006665890242]
      },
      {
        "species": [{ "element": "Ge", "occu": 1 }],
        "abc": [0.2952837, 0.045283699999999004, 0.0905684],
        "properties": { "magmom": 0.0 },
        "label": "Ge",
        "xyz": [1.1868979216505422, 0.21253815674632204, 0.3835622365890232]
      }
    ]
  },
  "task_ids": null,
  "uncorrected_energy_per_atom": null,
  "energy_per_atom": -19.72393410333333,
  "formation_energy_per_atom": -0.669946055833333,
  "energy_above_hull": 0.061138887222224006,
  "is_stable": false,
  "equilibrium_reaction_energy_per_atom": null,
  "decomposes_to": null,
  "xas": null,
  "grain_boundaries": null,
  "band_gap": 0.0,
  "cbm": null,
  "vbm": null,
  "efermi": 5.30324761,
  "is_gap_direct": null,
  "is_metal": null,
  "es_source_calc_id": null,
  "bandstructure": null,
  "dos": null,
  "dos_energy_up": null,
  "dos_energy_down": null,
  "is_magnetic": null,
  "ordering": null,
  "total_magnetization": 1.3e-6,
  "total_magnetization_normalized_vol": null,
  "total_magnetization_normalized_formula_units": null,
  "num_magnetic_sites": null,
  "num_unique_magnetic_sites": null,
  "types_of_magnetic_species": null,
  "bulk_modulus": null,
  "shear_modulus": null,
  "universal_anisotropy": null,
  "homogeneous_poisson": null,
  "e_total": null,
  "e_ionic": null,
  "e_electronic": null,
  "n": null,
  "e_ij_max": null,
  "weighted_surface_energy_EV_PER_ANG2": null,
  "weighted_surface_energy": null,
  "weighted_work_function": null,
  "surface_anisotropy": null,
  "shape_factor": null,
  "has_reconstructed": null,
  "possible_species": null,
  "has_props": null,
  "theoretical": null,
  "database_IDs": null,
  "fields_not_requested": [
    "builder_meta",
    "nsites",
    "elements",
    "nelements",
    "composition",
    "composition_reduced",
    "chemsys",
    "symmetry",
    "property_name",
    "deprecated",
    "deprecation_reasons",
    "last_updated",
    "origins",
    "warnings",
    "task_ids",
    "uncorrected_energy_per_atom",
    "equilibrium_reaction_energy_per_atom",
    "decomposes_to",
    "xas",
    "grain_boundaries",
    "cbm",
    "vbm",
    "is_gap_direct",
    "is_metal",
    "es_source_calc_id",
    "bandstructure",
    "dos",
    "dos_energy_up",
    "dos_energy_down",
    "is_magnetic",
    "ordering",
    "total_magnetization_normalized_vol",
    "total_magnetization_normalized_formula_units",
    "num_magnetic_sites",
    "num_unique_magnetic_sites",
    "types_of_magnetic_species",
    "bulk_modulus",
    "shear_modulus",
    "universal_anisotropy",
    "homogeneous_poisson",
    "e_total",
    "e_ionic",
    "e_electronic",
    "n",
    "e_ij_max",
    "weighted_surface_energy_EV_PER_ANG2",
    "weighted_surface_energy",
    "weighted_work_function",
    "surface_anisotropy",
    "shape_factor",
    "has_reconstructed",
    "possible_species",
    "has_props",
    "theoretical",
    "database_IDs"
  ]
}
