{"builder_meta": null, "nsites": null, "elements": null, "nelements": null, "composition": null, "composition_reduced": null, "formula_pretty": "NdGe5", "formula_anonymous": "AB5", "chemsys": null, "volume": 126.24877588344121, "density": 6.674340080822567, "density_atomic": 21.041462647240202, "symmetry": null, "property_name": null, "material_id": "mp-1077156", "deprecated": null, "deprecation_reasons": null, "last_updated": null, "origins": null, "warnings": null, "structure": {"@module": "pymatgen.core.structure", "@class": "Structure", "charge": 0, "lattice": {"matrix": [[4.03705, 0.0, 0.0], [2.018525, 3.128427, 4.998124], [2.018525, -3.128427, 4.998124]], "pbc": [true, true, true], "a": 4.03705, "b": 6.2323945790787345, "c": 6.2323945790787345, "alpha": 60.25981723180138, "beta": 71.10248912994332, "gamma": 71.10248912994332, "volume": 126.24877588344123}, "properties": {}, "sites": [{"species": [{"element": "Nd", "occu": 1}], "abc": [0.0, 0.0, 0.0], "properties": {"magmom": 0.0}, "label": "Nd", "xyz": [0.0, 0.0, 0.0]}, {"species": [{"element": "Ge", "occu": 1}], "abc": [0.670766, 0.535227999999999, 0.12324000000000002], "properties": {"magmom": -0.0}, "label": "Ge", "xyz": [4.037049999999998, 1.2888743828759968, 3.291104714031995]}, {"species": [{"element": "Ge", "occu": 1}], "abc": [0.329233999999999, 0.464771999999999, 0.8767600000000001], "properties": {"magmom": -0.0}, "label": "Ge", "xyz": [4.037049999999994, -1.2888743828760032, 6.705143285967996]}, {"species": [{"element": "Ge", "occu": 1}], "abc": [0.329235, 0.876759, 0.464771999999999], "properties": {"magmom": -0.0}, "label": "Ge", "xyz": [4.037052018524998, 1.288871254449003, 6.705138287843995]}, {"species": [{"element": "Ge", "occu": 1}], "abc": [0.670765, 0.123240999999999, 0.535227999999999], "properties": {"magmom": -0.0}, "label": "Ge", "xyz": [4.037047981474996, -1.288871254449, 3.29110971215599]}, {"species": [{"element": "Ge", "occu": 1}], "abc": [0.0, 0.5, 0.5], "properties": {"magmom": -0.0}, "label": "Ge", "xyz": [2.018525, 0.0, 4.998124]}]}, "task_ids": null, "uncorrected_energy_per_atom": null, "energy_per_atom": -16.750305685694443, "formation_energy_per_atom": -0.287322871944444, "energy_above_hull": 0.078219599583334, "is_stable": false, "equilibrium_reaction_energy_per_atom": null, "decomposes_to": null, "xas": null, "grain_boundaries": null, "band_gap": 0.0, "cbm": null, "vbm": null, "efermi": 5.83092819, "is_gap_direct": null, "is_metal": null, "es_source_calc_id": null, "bandstructure": null, "dos": null, "dos_energy_up": null, "dos_energy_down": null, "is_magnetic": null, "ordering": null, "total_magnetization": 4.1700000000000004e-05, "total_magnetization_normalized_vol": null, "total_magnetization_normalized_formula_units": null, "num_magnetic_sites": null, "num_unique_magnetic_sites": null, "types_of_magnetic_species": null, "bulk_modulus": null, "shear_modulus": null, "universal_anisotropy": null, "homogeneous_poisson": null, "e_total": null, "e_ionic": null, "e_electronic": null, "n": null, "e_ij_max": null, "weighted_surface_energy_EV_PER_ANG2": null, "weighted_surface_energy": null, "weighted_work_function": null, "surface_anisotropy": null, "shape_factor": null, "has_reconstructed": null, "possible_species": null, "has_props": null, "theoretical": null, "database_IDs": null, "fields_not_requested": ["builder_meta", "nsites", "elements", "nelements", "composition", "composition_reduced", "chemsys", "symmetry", "property_name", "deprecated", "deprecation_reasons", "last_updated", "origins", "warnings", "task_ids", "uncorrected_energy_per_atom", "equilibrium_reaction_energy_per_atom", "decomposes_to", "xas", "grain_boundaries", "cbm", "vbm", "is_gap_direct", "is_metal", "es_source_calc_id", "bandstructure", "dos", "dos_energy_up", "dos_energy_down", "is_magnetic", "ordering", "total_magnetization_normalized_vol", "total_magnetization_normalized_formula_units", "num_magnetic_sites", "num_unique_magnetic_sites", "types_of_magnetic_species", "bulk_modulus", "shear_modulus", "universal_anisotropy", "homogeneous_poisson", "e_total", "e_ionic", "e_electronic", "n", "e_ij_max", "weighted_surface_energy_EV_PER_ANG2", "weighted_surface_energy", "weighted_work_function", "surface_anisotropy", "shape_factor", "has_reconstructed", "possible_species", "has_props", "theoretical", "database_IDs"]}