{"builder_meta": null, "nsites": null, "elements": null, "nelements": null, "composition": null, "composition_reduced": null, "formula_pretty": "NdH2", "formula_anonymous": "AB2", "chemsys": null, "volume": 41.328047870117835, "density": 5.87656412665209, "density_atomic": 13.776015956705946, "symmetry": null, "property_name": null, "material_id": "mp-24096", "deprecated": null, "deprecation_reasons": null, "last_updated": null, "origins": null, "warnings": null, "structure": {"@module": "pymatgen.core.structure", "@class": "Structure", "charge": 0, "lattice": {"matrix": [[3.36086147, 1e-08, 1.940394379999999], [1.120287499999999, 3.16865088, 1.940394379999999], [1e-08, 0.0, 3.88078774]], "pbc": [true, true, true], "a": 3.8807886016203126, "b": 3.880788944521024, "c": 3.88078774, "alpha": 60.00000152363872, "beta": 59.99999850233641, "gamma": 59.99999681470738, "volume": 41.328047870117835}, "properties": {}, "sites": [{"species": [{"element": "Nd", "occu": 1}], "abc": [0.0, -0.0, 0.0], "properties": {"magmom": 0.0}, "label": "Nd", "xyz": [0.0, 0.0, 0.0]}, {"species": [{"element": "H", "occu": 1}], "abc": [0.75, 0.75, 0.75], "properties": {"magmom": -0.0}, "label": "H", "xyz": [3.360861735, 2.3764881675000002, 5.8211823749999985]}, {"species": [{"element": "H", "occu": 1}], "abc": [0.25, 0.25, 0.25], "properties": {"magmom": -0.0}, "label": "H", "xyz": [1.1202872449999999, 0.7921627225, 1.9403941249999996]}]}, "task_ids": null, "uncorrected_energy_per_atom": null, "energy_per_atom": -12.846361373333332, "formation_energy_per_atom": -0.736950111666665, "energy_above_hull": 0.0, "is_stable": true, "equilibrium_reaction_energy_per_atom": null, "decomposes_to": null, "xas": null, "grain_boundaries": null, "band_gap": 0.0, "cbm": null, "vbm": null, "efermi": 2.9933803, "is_gap_direct": null, "is_metal": null, "es_source_calc_id": null, "bandstructure": null, "dos": null, "dos_energy_up": null, "dos_energy_down": null, "is_magnetic": null, "ordering": null, "total_magnetization": 4.1e-06, "total_magnetization_normalized_vol": null, "total_magnetization_normalized_formula_units": null, "num_magnetic_sites": null, "num_unique_magnetic_sites": null, "types_of_magnetic_species": null, "bulk_modulus": null, "shear_modulus": null, "universal_anisotropy": null, "homogeneous_poisson": null, "e_total": null, "e_ionic": null, "e_electronic": null, "n": null, "e_ij_max": null, "weighted_surface_energy_EV_PER_ANG2": null, "weighted_surface_energy": null, "weighted_work_function": null, "surface_anisotropy": null, "shape_factor": null, "has_reconstructed": null, "possible_species": null, "has_props": null, "theoretical": null, "database_IDs": null, "fields_not_requested": ["builder_meta", "nsites", "elements", "nelements", "composition", "composition_reduced", "chemsys", "symmetry", "property_name", "deprecated", "deprecation_reasons", "last_updated", "origins", "warnings", "task_ids", "uncorrected_energy_per_atom", "equilibrium_reaction_energy_per_atom", "decomposes_to", "xas", "grain_boundaries", "cbm", "vbm", "is_gap_direct", "is_metal", "es_source_calc_id", "bandstructure", "dos", "dos_energy_up", "dos_energy_down", "is_magnetic", "ordering", "total_magnetization_normalized_vol", "total_magnetization_normalized_formula_units", "num_magnetic_sites", "num_unique_magnetic_sites", "types_of_magnetic_species", "bulk_modulus", "shear_modulus", "universal_anisotropy", "homogeneous_poisson", "e_total", "e_ionic", "e_electronic", "n", "e_ij_max", "weighted_surface_energy_EV_PER_ANG2", "weighted_surface_energy", "weighted_work_function", "surface_anisotropy", "shape_factor", "has_reconstructed", "possible_species", "has_props", "theoretical", "database_IDs"]}