{"builder_meta": null, "nsites": null, "elements": null, "nelements": null, "composition": null, "composition_reduced": null, "formula_pretty": "NdH3", "formula_anonymous": "AB3", "chemsys": null, "volume": 267.16188154915125, "density": 5.491965677144569, "density_atomic": 11.13174506454797, "symmetry": null, "property_name": null, "material_id": "mp-976578", "deprecated": null, "deprecation_reasons": null, "last_updated": null, "origins": null, "warnings": null, "structure": {"@module": "pymatgen.core.structure", "@class": "Structure", "charge": 0, "lattice": {"matrix": [[6.67083608, -3.1e-07, 9.6e-07], [-3.33541818, 5.7771137, 5.8e-07], [-1.1e-07, 5e-08, 6.93239533]], "pbc": [true, true, true], "a": 6.670836080000076, "b": 6.670836314751138, "c": 6.932395330000001, "alpha": 89.99999420592955, "beta": 89.99999266370713, "gamma": 120.00000288697008, "volume": 267.1618815491513}, "properties": {}, "sites": [{"species": [{"element": "Nd", "occu": 1}], "abc": [0.66319103, 0.99999956, 0.25000004], "properties": {"magmom": 0.0}, "label": "Nd", "xyz": [1.0886219109403568, 5.777110964980754, 1.7331003264589466]}, {"species": [{"element": "Nd", "occu": 1}], "abc": [4.599999999999998e-07, 0.6631901, 0.25000002], "properties": {"magmom": 0.0}, "label": "Nd", "xyz": [-2.2120132752514237, 3.8313246249142288, 1.733099355798606]}, {"species": [{"element": "Nd", "occu": 1}], "abc": [0.33680988, 0.33680896, 0.25000002], "properties": {"magmom": 0.0}, "label": "Nd", "xyz": [1.1234047437335755, 1.94578356518769, 1.7330994898345882]}, {"species": [{"element": "Nd", "occu": 1}], "abc": [0.66319178, 0.66319075, 0.75000005], "properties": {"magmom": 0.0}, "label": "Nd", "xyz": [2.2120250871255815, 3.8313281994488264, 5.199297865434511]}, {"species": [{"element": "Nd", "occu": 1}], "abc": [5.599999999999997e-07, 0.33680849, 0.75000006], "properties": {"magmom": 0.0}, "label": "Nd", "xyz": [-1.12339350755615, 1.9457809793551426, 5.199297108793182]}, {"species": [{"element": "Nd", "occu": 1}], "abc": [0.33680942, -4.4e-07, 0.75000002], "properties": {"magmom": 0.0}, "label": "Nd", "xyz": [2.2468018161038708, -2.6088409472000005e-06, 5.199296959484695]}, {"species": [{"element": "H", "occu": 1}], "abc": [0.67921468, 0.650183699999999, 0.09203507], "properties": {"magmom": -0.0}, "label": "H", "xyz": [2.3622952499661336, 3.756184954831887, 0.6380245186168619]}, {"species": [{"element": "H", "occu": 1}], "abc": [0.34981604, 0.0290296, 0.09203515], "properties": {"magmom": -0.0}, "label": "H", "xyz": [2.2367395952727285, 0.1677071960243051, 0.6380243967164159]}, {"species": [{"element": "H", "occu": 1}], "abc": [0.97097012, 0.32078537, 0.09203527], "properties": {"magmom": -0.0}, "label": "H", "xyz": [5.407229143998024, 1.8532132593875954, 0.638025994130119]}, {"species": [{"element": "H", "occu": 1}], "abc": [0.33333374, 0.66666627, 0.182918], "properties": {"magmom": -0.0}, "label": "H", "xyz": [3.92240157020433e-06, 3.8514067475573395, 1.268060595639767]}, {"species": [{"element": "H", "occu": 1}], "abc": [4.7e-07, -3.799999999999998e-07, 0.25000007], "properties": {"magmom": 0.0}, "label": "H", "xyz": [4.3752518582999995e-06, -2.182803348199999e-06, 1.733099317767904]}, {"species": [{"element": "H", "occu": 1}], "abc": [0.66666694, 0.3333328, 0.31708197], "properties": {"magmom": -0.0}, "label": "H", "xyz": [3.3354215607058744, 1.925701294726707, 2.1981384013884866]}, {"species": [{"element": "H", "occu": 1}], "abc": [0.02903063, 0.34981568, 0.40796486], "properties": {"magmom": -0.0}, "label": "H", "xyz": [-0.9731230495680666, 2.020924968801564, 2.828173921030603]}, {"species": [{"element": "H", "occu": 1}], "abc": [0.32078603, 0.97096938, 0.40796489], "properties": {"magmom": -0.0}, "label": "H", "xyz": [-1.098677944267504, 5.609400428433082, 2.828174769356793]}, {"species": [{"element": "H", "occu": 1}], "abc": [0.65018466, 0.6792139700000001, 0.40796486], "properties": {"magmom": -0.0}, "label": "H", "xyz": [2.071812620066423, 3.9238961501593876, 2.8281747083894797]}, {"species": [{"element": "H", "occu": 1}], "abc": [0.6792165, 0.02902877, 0.59203518], "properties": {"magmom": -0.0}, "label": "H", "xyz": [4.434118782006411, 0.16770232390579298, 4.104222585912236]}, {"species": [{"element": "H", "occu": 1}], "abc": [0.3498133, 0.32078365000000003, 0.59203519], "properties": {"magmom": -0.0}, "label": "H", "xyz": [1.2635994997232358, 1.8532035403106417, 4.104222508226949]}, {"species": [{"element": "H", "occu": 1}], "abc": [0.97097139, 0.6501865, 0.5920351500000001], "properties": {"magmom": -0.0}, "label": "H", "xyz": [4.308547043445315, 3.7562010653056768, 4.104223018296555]}, {"species": [{"element": "H", "occu": 1}], "abc": [0.33333403, 0.66666636, 0.68292014], "properties": {"magmom": 0.0}, "label": "H", "xyz": [5.501756162277647e-06, 3.8514072924975897, 4.734273095966104]}, {"species": [{"element": "H", "occu": 1}], "abc": [4.8e-07, -4.2e-07, 0.75], "properties": {"magmom": 0.0}, "label": "H", "xyz": [4.520376954e-06, -2.3888879028e-06, 5.199296497500218]}, {"species": [{"element": "H", "occu": 1}], "abc": [0.66666719, 0.33333304, 0.81708033], "properties": {"magmom": 0.0}, "label": "H", "xyz": [3.3354223729147114, 1.9257027062338357, 5.664324697260525]}, {"species": [{"element": "H", "occu": 1}], "abc": [0.02902955, 0.6792157400000001, 0.907964799999999], "properties": {"magmom": -0.0}, "label": "H", "xyz": [-2.0718172576881173, 3.923906593208718, 6.294371361137874]}, {"species": [{"element": "H", "occu": 1}], "abc": [0.65018769, 0.97097079, 0.90796488], "properties": {"magmom": -0.0}, "label": "H", "xyz": [1.0987017761327564, 5.609408497048884, 6.294372681259251]}, {"species": [{"element": "H", "occu": 1}], "abc": [0.32078443, 0.34981277, 0.90796497], "properties": {"magmom": -0.0}, "label": "H", "xyz": [0.9731283770159294, 2.0209080919570246, 6.294372628676049]}]}, "task_ids": null, "uncorrected_energy_per_atom": null, "energy_per_atom": -10.611427980416666, "formation_energy_per_atom": -0.6655914338541651, "energy_above_hull": 0.0, "is_stable": true, "equilibrium_reaction_energy_per_atom": null, "decomposes_to": null, "xas": null, "grain_boundaries": null, "band_gap": 0.0, "cbm": null, "vbm": null, "efermi": 2.29274778, "is_gap_direct": null, "is_metal": null, "es_source_calc_id": null, "bandstructure": null, "dos": null, "dos_energy_up": null, "dos_energy_down": null, "is_magnetic": null, "ordering": null, "total_magnetization": 0.0, "total_magnetization_normalized_vol": null, "total_magnetization_normalized_formula_units": null, "num_magnetic_sites": null, "num_unique_magnetic_sites": null, "types_of_magnetic_species": null, "bulk_modulus": null, "shear_modulus": null, "universal_anisotropy": null, "homogeneous_poisson": null, "e_total": null, "e_ionic": null, "e_electronic": null, "n": null, "e_ij_max": null, "weighted_surface_energy_EV_PER_ANG2": null, "weighted_surface_energy": null, "weighted_work_function": null, "surface_anisotropy": null, "shape_factor": null, "has_reconstructed": null, "possible_species": null, "has_props": null, "theoretical": null, "database_IDs": null, "fields_not_requested": ["builder_meta", "nsites", "elements", "nelements", "composition", "composition_reduced", "chemsys", "symmetry", "property_name", "deprecated", "deprecation_reasons", "last_updated", "origins", "warnings", "task_ids", "uncorrected_energy_per_atom", "equilibrium_reaction_energy_per_atom", "decomposes_to", "xas", "grain_boundaries", "cbm", "vbm", "is_gap_direct", "is_metal", "es_source_calc_id", "bandstructure", "dos", "dos_energy_up", "dos_energy_down", "is_magnetic", "ordering", "total_magnetization_normalized_vol", "total_magnetization_normalized_formula_units", "num_magnetic_sites", "num_unique_magnetic_sites", "types_of_magnetic_species", "bulk_modulus", "shear_modulus", "universal_anisotropy", "homogeneous_poisson", "e_total", "e_ionic", "e_electronic", "n", "e_ij_max", "weighted_surface_energy_EV_PER_ANG2", "weighted_surface_energy", "weighted_work_function", "surface_anisotropy", "shape_factor", "has_reconstructed", "possible_species", "has_props", "theoretical", "database_IDs"]}