{"builder_meta": null, "nsites": null, "elements": null, "nelements": null, "composition": null, "composition_reduced": null, "formula_pretty": "NdHg3", "formula_anonymous": "AB3", "chemsys": null, "volume": 198.9868477231736, "density": 12.45089395934114, "density_atomic": 24.8733559653967, "symmetry": null, "property_name": null, "material_id": "mp-1186314", "deprecated": null, "deprecation_reasons": null, "last_updated": null, "origins": null, "warnings": null, "structure": {"@module": "pymatgen.core.structure", "@class": "Structure", "charge": 0, "lattice": {"matrix": [[6.77241467, -2e-08, 0.0], [-3.38620888, 5.86509069, -0.0], [-0.0, -0.0, 5.00963517]], "pbc": [true, true, true], "a": 6.77241467, "b": 6.772421973040038, "c": 5.00963517, "alpha": 90.0, "beta": 90.0, "gamma": 119.99997959071186, "volume": 198.9868477231736}, "properties": {}, "sites": [{"species": [{"element": "Nd", "occu": 1}], "abc": [0.333333, 0.666666, 0.75], "properties": {"magmom": 0.0}, "label": "Nd", "xyz": [-1.029998969670487e-06, 3.9100565432728795, 3.7572263775000003]}, {"species": [{"element": "Nd", "occu": 1}], "abc": [0.666667999999999, 0.333333999999999, 0.25], "properties": {"magmom": 0.0}, "label": "Nd", "xyz": [3.386213592413637, 1.955034126727094, 1.2524087925]}, {"species": [{"element": "Hg", "occu": 1}], "abc": [0.83800007, 0.16199793, 0.75], "properties": {"magmom": 0.0}, "label": "Hg", "xyz": [5.126725138421408, 0.9501325342822703, 3.7572263775000003]}, {"species": [{"element": "Hg", "occu": 1}], "abc": [0.32399986000000003, 0.16199793, 0.75], "properties": {"magmom": 0.0}, "label": "Hg", "xyz": [1.6457025758343278, 0.9501325445622745, 3.7572263775000003]}, {"species": [{"element": "Hg", "occu": 1}], "abc": [0.83800007, 0.67600014, 0.75], "properties": {"magmom": 0.0}, "label": "Hg", "xyz": [3.386206290579784, 3.9648021107926947, 3.7572263775000003]}, {"species": [{"element": "Hg", "occu": 1}], "abc": [0.16199993000000001, 0.83800207, 0.25], "properties": {"magmom": 0.0}, "label": "Hg", "xyz": [-1.7405193484214083, 4.91495813571773, 1.2524087925]}, {"species": [{"element": "Hg", "occu": 1}], "abc": [0.67600114, 0.83800207, 0.25], "properties": {"magmom": 0.0}, "label": "Hg", "xyz": [1.7405099865803426, 4.914958125437706, 1.2524087925]}, {"species": [{"element": "Hg", "occu": 1}], "abc": [0.16199993000000001, 0.32399986000000003, 0.25], "properties": {"magmom": 0.0}, "label": "Hg", "xyz": [-5.005797838464332e-07, 1.9002885592073049, 1.2524087925]}]}, "task_ids": null, "uncorrected_energy_per_atom": null, "energy_per_atom": -44.84276036375, "formation_energy_per_atom": -0.462403226250003, "energy_above_hull": 0.0, "is_stable": true, "equilibrium_reaction_energy_per_atom": null, "decomposes_to": null, "xas": null, "grain_boundaries": null, "band_gap": 0.0, "cbm": null, "vbm": null, "efermi": 3.39416106, "is_gap_direct": null, "is_metal": null, "es_source_calc_id": null, "bandstructure": null, "dos": null, "dos_energy_up": null, "dos_energy_down": null, "is_magnetic": null, "ordering": null, "total_magnetization": 0.0001119, "total_magnetization_normalized_vol": null, "total_magnetization_normalized_formula_units": null, "num_magnetic_sites": null, "num_unique_magnetic_sites": null, "types_of_magnetic_species": null, "bulk_modulus": null, "shear_modulus": null, "universal_anisotropy": null, "homogeneous_poisson": null, "e_total": null, "e_ionic": null, "e_electronic": null, "n": null, "e_ij_max": null, "weighted_surface_energy_EV_PER_ANG2": null, "weighted_surface_energy": null, "weighted_work_function": null, "surface_anisotropy": null, "shape_factor": null, "has_reconstructed": null, "possible_species": null, "has_props": null, "theoretical": null, "database_IDs": null, "fields_not_requested": ["builder_meta", "nsites", "elements", "nelements", "composition", "composition_reduced", "chemsys", "symmetry", "property_name", "deprecated", "deprecation_reasons", "last_updated", "origins", "warnings", "task_ids", "uncorrected_energy_per_atom", "equilibrium_reaction_energy_per_atom", "decomposes_to", "xas", "grain_boundaries", "cbm", "vbm", "is_gap_direct", "is_metal", "es_source_calc_id", "bandstructure", "dos", "dos_energy_up", "dos_energy_down", "is_magnetic", "ordering", "total_magnetization_normalized_vol", "total_magnetization_normalized_formula_units", "num_magnetic_sites", "num_unique_magnetic_sites", "types_of_magnetic_species", "bulk_modulus", "shear_modulus", "universal_anisotropy", "homogeneous_poisson", "e_total", "e_ionic", "e_electronic", "n", "e_ij_max", "weighted_surface_energy_EV_PER_ANG2", "weighted_surface_energy", "weighted_work_function", "surface_anisotropy", "shape_factor", "has_reconstructed", "possible_species", "has_props", "theoretical", "database_IDs"]}