{"builder_meta": null, "nsites": null, "elements": null, "nelements": null, "composition": null, "composition_reduced": null, "formula_pretty": "NdHo3", "formula_anonymous": "AB3", "chemsys": null, "volume": 264.4694757180576, "density": 8.024662899519502, "density_atomic": 33.0586844647572, "symmetry": null, "property_name": null, "material_id": "mp-973685", "deprecated": null, "deprecation_reasons": null, "last_updated": null, "origins": null, "warnings": null, "structure": {"@module": "pymatgen.core.structure", "@class": "Structure", "charge": 0, "lattice": {"matrix": [[7.25701563, 2.299999999999998e-06, 3.0000000000000004e-08], [-3.6285057800000002, 6.2847616, 2e-08], [3.0000000000000004e-08, 3.0000000000000004e-08, 5.79867286]], "pbc": [true, true, true], "a": 7.257015630000365, "b": 7.257016092329407, "c": 5.79867286, "alpha": 89.99999973359616, "beta": 89.99999946671781, "gamma": 119.99996118121662, "volume": 264.4694757180576}, "properties": {}, "sites": [{"species": [{"element": "Nd", "occu": 1}], "abc": [0.33333331, 0.66666716, 0.74999908], "properties": {"magmom": 0.28600000000000003}, "label": "Nd", "xyz": [-5.80226577603041e-07, 4.189844956315642, 4.348999333554311]}, {"species": [{"element": "Nd", "occu": 1}], "abc": [0.66666554, 0.33333242, 0.25000091], "properties": {"magmom": 0.28600000000000003}, "label": "Nd", "xyz": [3.6285036386310296, 2.0949163340818413, 1.4496735184589173]}, {"species": [{"element": "Ho", "occu": 1}], "abc": [0.16478844, 0.32957722, 0.25000037], "properties": {"magmom": 0.435}, "label": "Ho", "xyz": [-5.555030033310183e-07, 2.071314643004176, 1.449670372044156]}, {"species": [{"element": "Ho", "occu": 1}], "abc": [0.83521924, 0.6704389, 0.74999964], "properties": {"magmom": 0.435}, "label": "Ho", "xyz": [3.6285076778698686, 4.213550597370481, 4.3490025959431255]}, {"species": [{"element": "Ho", "occu": 1}], "abc": [0.32956041, 0.16477991, 0.74999963], "properties": {"magmom": 0.435}, "label": "Ho", "xyz": [1.7937202130363175, 1.035603231308388, 4.349002512673453]}, {"species": [{"element": "Ho", "occu": 1}], "abc": [0.83521983, 0.1647802, 0.74999964], "properties": {"magmom": 0.435}, "label": "Ho", "xyz": [5.463297475166375, 1.0356062169059181, 4.349002585829969]}, {"species": [{"element": "Ho", "occu": 1}], "abc": [0.67042322, 0.83521156, 0.25000037], "properties": {"magmom": 0.435}, "label": "Ho", "xyz": [1.8347018207721228, 5.249107089637513, 1.449670397325886]}, {"species": [{"element": "Ho", "occu": 1}], "abc": [0.16478801, 0.83521164, 0.25000035], "properties": {"magmom": 0.435}, "label": "Ho", "xyz": [-1.8347010915566728, 5.249106429457458, 1.449670266183374]}]}, "task_ids": null, "uncorrected_energy_per_atom": null, "energy_per_atom": -32.01157533, "formation_energy_per_atom": 0.003934851875001, "energy_above_hull": 0.003934851875001, "is_stable": false, "equilibrium_reaction_energy_per_atom": null, "decomposes_to": null, "xas": null, "grain_boundaries": null, "band_gap": 0.0, "cbm": null, "vbm": null, "efermi": 3.09587744, "is_gap_direct": null, "is_metal": null, "es_source_calc_id": null, "bandstructure": null, "dos": null, "dos_energy_up": null, "dos_energy_down": null, "is_magnetic": null, "ordering": null, "total_magnetization": 4.749288, "total_magnetization_normalized_vol": null, "total_magnetization_normalized_formula_units": null, "num_magnetic_sites": null, "num_unique_magnetic_sites": null, "types_of_magnetic_species": null, "bulk_modulus": null, "shear_modulus": null, "universal_anisotropy": null, "homogeneous_poisson": null, "e_total": null, "e_ionic": null, "e_electronic": null, "n": null, "e_ij_max": null, "weighted_surface_energy_EV_PER_ANG2": null, "weighted_surface_energy": null, "weighted_work_function": null, "surface_anisotropy": null, "shape_factor": null, "has_reconstructed": null, "possible_species": null, "has_props": null, "theoretical": null, "database_IDs": null, "fields_not_requested": ["builder_meta", "nsites", "elements", "nelements", "composition", "composition_reduced", "chemsys", "symmetry", "property_name", "deprecated", "deprecation_reasons", "last_updated", "origins", "warnings", "task_ids", "uncorrected_energy_per_atom", "equilibrium_reaction_energy_per_atom", "decomposes_to", "xas", "grain_boundaries", "cbm", "vbm", "is_gap_direct", "is_metal", "es_source_calc_id", "bandstructure", "dos", "dos_energy_up", "dos_energy_down", "is_magnetic", "ordering", "total_magnetization_normalized_vol", "total_magnetization_normalized_formula_units", "num_magnetic_sites", "num_unique_magnetic_sites", "types_of_magnetic_species", "bulk_modulus", "shear_modulus", "universal_anisotropy", "homogeneous_poisson", "e_total", "e_ionic", "e_electronic", "n", "e_ij_max", "weighted_surface_energy_EV_PER_ANG2", "weighted_surface_energy", "weighted_work_function", "surface_anisotropy", "shape_factor", "has_reconstructed", "possible_species", "has_props", "theoretical", "database_IDs"]}