{"builder_meta": null, "nsites": null, "elements": null, "nelements": null, "composition": null, "composition_reduced": null, "formula_pretty": "NdI3", "formula_anonymous": "AB3", "chemsys": null, "volume": 437.0086841291819, "density": 3.989435442295873, "density_atomic": 54.62608551614774, "symmetry": null, "property_name": null, "material_id": "mp-864617", "deprecated": null, "deprecation_reasons": null, "last_updated": null, "origins": null, "warnings": null, "structure": {"@module": "pymatgen.core.structure", "@class": "Structure", "charge": 0, "lattice": {"matrix": [[11.04902042, 0.00038491, -9.461000000000004e-05], [-5.52417783, 9.56831708, -0.00040571], [-3.3660000000000006e-05, -0.00019374, 4.1335386100000004]], "pbc": [true, true, true], "a": 11.049020427109534, "b": 11.04849458548466, "c": 4.133538614677371, "alpha": 90.00419636115765, "beta": 90.00095727077029, "gamma": 119.9975880405845, "volume": 437.00868412918203}, "properties": {}, "sites": [{"species": [{"element": "Nd", "occu": 1}], "abc": [0.66666476, 0.33333051, 0.24999758], "properties": {"magmom": 0.0}, "label": "Nd", "xyz": [5.524607118211263, 3.1896201835197333, 1.0331763406624082]}, {"species": [{"element": "Nd", "occu": 1}], "abc": [0.33333511, 0.66666768, 0.75000186], "properties": {"magmom": 0.0}, "label": "Nd", "xyz": [0.00021037419680413456, 6.378870747884808, 3.099859635302605]}, {"species": [{"element": "I", "occu": 1}], "abc": [0.20945277, 0.41890945, 0.24999132000000002], "properties": {"magmom": -0.0}, "label": "I", "xyz": [0.00010922158023851127, 4.00829063255577, 1.0331590013053362]}, {"species": [{"element": "I", "occu": 1}], "abc": [0.79054586, 0.20944717000000002, 0.75002831], "properties": {"magmom": 0.0}, "label": "I", "xyz": [7.577708691063305, 2.0042159125908565, 3.100111209622894]}, {"species": [{"element": "I", "occu": 1}], "abc": [0.41891595, 0.20946016, 0.74995466], "properties": {"magmom": -0.0}, "label": "I", "xyz": [3.47149047019959, 2.0041971752300185, 3.0998419291398798]}, {"species": [{"element": "I", "occu": 1}], "abc": [0.79054477, 0.58108687, 0.75001184], "properties": {"magmom": -0.0}, "label": "I", "xyz": [5.524692856697576, 5.560182404478279, 3.0998923524024256]}, {"species": [{"element": "I", "occu": 1}], "abc": [0.20945578, 0.79055301, 0.24996129], "properties": {"magmom": 0.0}, "label": "I", "xyz": [-2.0528826346717617, 7.564294062352366, 1.0328840913473742]}, {"species": [{"element": "I", "occu": 1}], "abc": [0.581083, 0.79054015, 0.25004714], "properties": {"magmom": 0.0}, "label": "I", "xyz": [2.053305145773253, 7.564314040195389, 1.033203801203189]}]}, "task_ids": null, "uncorrected_energy_per_atom": null, "energy_per_atom": -4.025447507500001, "formation_energy_per_atom": -1.690401188125, "energy_above_hull": 0.0, "is_stable": true, "equilibrium_reaction_energy_per_atom": null, "decomposes_to": null, "xas": null, "grain_boundaries": null, "band_gap": 2.0128, "cbm": null, "vbm": null, "efermi": -0.26778153, "is_gap_direct": null, "is_metal": null, "es_source_calc_id": null, "bandstructure": null, "dos": null, "dos_energy_up": null, "dos_energy_down": null, "is_magnetic": null, "ordering": null, "total_magnetization": 0.0, "total_magnetization_normalized_vol": null, "total_magnetization_normalized_formula_units": null, "num_magnetic_sites": null, "num_unique_magnetic_sites": null, "types_of_magnetic_species": null, "bulk_modulus": null, "shear_modulus": null, "universal_anisotropy": null, "homogeneous_poisson": null, "e_total": null, "e_ionic": null, "e_electronic": null, "n": null, "e_ij_max": null, "weighted_surface_energy_EV_PER_ANG2": null, "weighted_surface_energy": null, "weighted_work_function": null, "surface_anisotropy": null, "shape_factor": null, "has_reconstructed": null, "possible_species": null, "has_props": null, "theoretical": null, "database_IDs": null, "fields_not_requested": ["builder_meta", "nsites", "elements", "nelements", "composition", "composition_reduced", "chemsys", "symmetry", "property_name", "deprecated", "deprecation_reasons", "last_updated", "origins", "warnings", "task_ids", "uncorrected_energy_per_atom", "equilibrium_reaction_energy_per_atom", "decomposes_to", "xas", "grain_boundaries", "cbm", "vbm", "is_gap_direct", "is_metal", "es_source_calc_id", "bandstructure", "dos", "dos_energy_up", "dos_energy_down", "is_magnetic", "ordering", "total_magnetization_normalized_vol", "total_magnetization_normalized_formula_units", "num_magnetic_sites", "num_unique_magnetic_sites", "types_of_magnetic_species", "bulk_modulus", "shear_modulus", "universal_anisotropy", "homogeneous_poisson", "e_total", "e_ionic", "e_electronic", "n", "e_ij_max", "weighted_surface_energy_EV_PER_ANG2", "weighted_surface_energy", "weighted_work_function", "surface_anisotropy", "shape_factor", "has_reconstructed", "possible_species", "has_props", "theoretical", "database_IDs"]}