{
  "builder_meta": null,
  "nsites": null,
  "elements": null,
  "nelements": null,
  "composition": null,
  "composition_reduced": null,
  "formula_pretty": "NdIr3",
  "formula_anonymous": "AB3",
  "chemsys": null,
  "volume": 218.94047662223767,
  "density": 16.402690920472143,
  "density_atomic": 18.245039718519806,
  "symmetry": null,
  "property_name": null,
  "material_id": "mp-1101882",
  "deprecated": null,
  "deprecation_reasons": null,
  "last_updated": null,
  "origins": null,
  "warnings": null,
  "structure": {
    "@module": "pymatgen.core.structure",
    "@class": "Structure",
    "charge": 0,
    "lattice": {
      "matrix": [
        [8.94749925, -2.67798607, 0.00145074],
        [8.94749925, 2.67798607, 0.00145074],
        [8.14523894, 0.0, 4.56995163]
      ],
      "pbc": [true, true, true],
      "a": 9.339665643079048,
      "b": 9.339665643079048,
      "c": 9.33966676548109,
      "alpha": 33.32487186071599,
      "beta": 33.32487186071599,
      "gamma": 33.324877619774696,
      "volume": 218.94047662223767
    },
    "properties": {},
    "sites": [
      {
        "species": [{ "element": "Nd", "occu": 1 }],
        "abc": [0.86045231, 0.86045231, 0.86045231],
        "properties": { "magmom": 0.0 },
        "label": "Nd",
        "xyz": [22.406382458196486, 0.0, 3.9347220217901846]
      },
      {
        "species": [{ "element": "Nd", "occu": 1 }],
        "abc": [0.13954769, 0.13954769, 0.13954769],
        "properties": { "magmom": 0.0 },
        "label": "Nd",
        "xyz": [3.6338549818035135, 0.0, 0.638131088209816]
      },
      {
        "species": [{ "element": "Nd", "occu": 1 }],
        "abc": [0.0, -0.0, 0.0],
        "properties": { "magmom": 0.0 },
        "label": "Nd",
        "xyz": [0.0, 0.0, 0.0]
      },
      {
        "species": [{ "element": "Ir", "occu": 1 }],
        "abc": [0.42141614, 0.91527884, 0.42141614],
        "properties": { "magmom": -0.0 },
        "label": "Ir",
        "xyz": [15.392612484501257, 1.322557431092589, 1.9277905727765934]
      },
      {
        "species": [{ "element": "Ir", "occu": 1 }],
        "abc": [0.42141614, 0.42141614, 0.91527884],
        "properties": { "magmom": -0.0 },
        "label": "Ir",
        "xyz": [14.996406041701821, 0.0, 4.1840027572643965]
      },
      {
        "species": [{ "element": "Ir", "occu": 1 }],
        "abc": [0.91527884, 0.42141614, 0.42141614],
        "properties": { "magmom": -0.0 },
        "label": "Ir",
        "xyz": [15.392612484501257, -1.322557431092589, 1.9277905727765934]
      },
      {
        "species": [{ "element": "Ir", "occu": 1 }],
        "abc": [0.5785838600000001, 0.08472116, 0.5785838600000001],
        "properties": { "magmom": -0.0 },
        "label": "Ir",
        "xyz": [10.647624955498745, -1.3225574310925894, 2.645062537223407]
      },
      {
        "species": [{ "element": "Ir", "occu": 1 }],
        "abc": [0.5785838600000001, 0.5785838600000001, 0.08472116],
        "properties": { "magmom": -0.0 },
        "label": "Ir",
        "xyz": [11.043831398298181, 0.0, 0.38885035273560364]
      },
      {
        "species": [{ "element": "Ir", "occu": 1 }],
        "abc": [0.08472116, 0.5785838600000001, 0.5785838600000001],
        "properties": { "magmom": -0.0 },
        "label": "Ir",
        "xyz": [10.647624955498745, 1.3225574310925894, 2.645062537223407]
      },
      {
        "species": [{ "element": "Ir", "occu": 1 }],
        "abc": [0.66821892, 0.66821892, 0.66821892],
        "properties": { "magmom": -0.0 },
        "label": "Ir",
        "xyz": [17.400579338700368, 0.0, 3.0556669664828418]
      },
      {
        "species": [{ "element": "Ir", "occu": 1 }],
        "abc": [0.33178108, 0.33178108, 0.33178108],
        "properties": { "magmom": -0.0 },
        "label": "Ir",
        "xyz": [8.639658101299634, 0.0, 1.517186143517159]
      },
      {
        "species": [{ "element": "Ir", "occu": 1 }],
        "abc": [0.5, 0.5, 0.5],
        "properties": { "magmom": -0.0 },
        "label": "Ir",
        "xyz": [13.02011872, 0.0, 2.2864265550000002]
      }
    ]
  },
  "task_ids": null,
  "uncorrected_energy_per_atom": null,
  "energy_per_atom": -47.226758610833336,
  "formation_energy_per_atom": -0.6027412777083321,
  "energy_above_hull": 0.0,
  "is_stable": true,
  "equilibrium_reaction_energy_per_atom": null,
  "decomposes_to": null,
  "xas": null,
  "grain_boundaries": null,
  "band_gap": 0.0,
  "cbm": null,
  "vbm": null,
  "efermi": 6.98953636,
  "is_gap_direct": null,
  "is_metal": null,
  "es_source_calc_id": null,
  "bandstructure": null,
  "dos": null,
  "dos_energy_up": null,
  "dos_energy_down": null,
  "is_magnetic": null,
  "ordering": null,
  "total_magnetization": 2e-7,
  "total_magnetization_normalized_vol": null,
  "total_magnetization_normalized_formula_units": null,
  "num_magnetic_sites": null,
  "num_unique_magnetic_sites": null,
  "types_of_magnetic_species": null,
  "bulk_modulus": null,
  "shear_modulus": null,
  "universal_anisotropy": null,
  "homogeneous_poisson": null,
  "e_total": null,
  "e_ionic": null,
  "e_electronic": null,
  "n": null,
  "e_ij_max": null,
  "weighted_surface_energy_EV_PER_ANG2": null,
  "weighted_surface_energy": null,
  "weighted_work_function": null,
  "surface_anisotropy": null,
  "shape_factor": null,
  "has_reconstructed": null,
  "possible_species": null,
  "has_props": null,
  "theoretical": null,
  "database_IDs": null,
  "fields_not_requested": [
    "builder_meta",
    "nsites",
    "elements",
    "nelements",
    "composition",
    "composition_reduced",
    "chemsys",
    "symmetry",
    "property_name",
    "deprecated",
    "deprecation_reasons",
    "last_updated",
    "origins",
    "warnings",
    "task_ids",
    "uncorrected_energy_per_atom",
    "equilibrium_reaction_energy_per_atom",
    "decomposes_to",
    "xas",
    "grain_boundaries",
    "cbm",
    "vbm",
    "is_gap_direct",
    "is_metal",
    "es_source_calc_id",
    "bandstructure",
    "dos",
    "dos_energy_up",
    "dos_energy_down",
    "is_magnetic",
    "ordering",
    "total_magnetization_normalized_vol",
    "total_magnetization_normalized_formula_units",
    "num_magnetic_sites",
    "num_unique_magnetic_sites",
    "types_of_magnetic_species",
    "bulk_modulus",
    "shear_modulus",
    "universal_anisotropy",
    "homogeneous_poisson",
    "e_total",
    "e_ionic",
    "e_electronic",
    "n",
    "e_ij_max",
    "weighted_surface_energy_EV_PER_ANG2",
    "weighted_surface_energy",
    "weighted_work_function",
    "surface_anisotropy",
    "shape_factor",
    "has_reconstructed",
    "possible_species",
    "has_props",
    "theoretical",
    "database_IDs"
  ]
}
