{
  "builder_meta": null,
  "nsites": null,
  "elements": null,
  "nelements": null,
  "composition": null,
  "composition_reduced": null,
  "formula_pretty": "NdLu3",
  "formula_anonymous": "AB3",
  "chemsys": null,
  "volume": 250.54195376171302,
  "density": 8.86987648941791,
  "density_atomic": 31.317744220214127,
  "symmetry": null,
  "property_name": null,
  "material_id": "mp-1186318",
  "deprecated": null,
  "deprecation_reasons": null,
  "last_updated": null,
  "origins": null,
  "warnings": null,
  "structure": {
    "@module": "pymatgen.core.structure",
    "@class": "Structure",
    "charge": 0,
    "lattice": {
      "matrix": [
        [3.56957448, -6.18268478, 0.0],
        [3.56957448, 6.18268478, 0.0],
        [-0.0, -0.0, 5.67618983]
      ],
      "pbc": [true, true, true],
      "a": 7.139149323071406,
      "b": 7.139149323071406,
      "c": 5.67618983,
      "alpha": 90.0,
      "beta": 90.0,
      "gamma": 120.00000336463208,
      "volume": 250.54195376171302
    },
    "properties": {},
    "sites": [
      {
        "species": [{ "element": "Nd", "occu": 1 }],
        "abc": [0.666667, 0.333333, 0.25],
        "properties": { "magmom": 0.269 },
        "label": "Nd",
        "xyz": [3.56957448, -2.06089904845652, 1.4190474575]
      },
      {
        "species": [{ "element": "Nd", "occu": 1 }],
        "abc": [0.333333, 0.666667, 0.75],
        "properties": { "magmom": 0.269 },
        "label": "Nd",
        "xyz": [3.56957448, 2.06089904845652, 4.257142372500001]
      },
      {
        "species": [{ "element": "Lu", "occu": 1 }],
        "abc": [0.16428386, 0.83571614, 0.25],
        "properties": { "magmom": 0.339 },
        "label": "Lu",
        "xyz": [3.56957448, 4.151254138356698, 1.4190474575]
      },
      {
        "species": [{ "element": "Lu", "occu": 1 }],
        "abc": [0.83571614, 0.67143429, 0.75],
        "properties": { "magmom": 0.339 },
        "label": "Lu",
        "xyz": [5.379885712449026, -1.0157028936252432, 4.257142372500001]
      },
      {
        "species": [{ "element": "Lu", "occu": 1 }],
        "abc": [0.32856571, 0.16428386, 0.75],
        "properties": { "magmom": 0.339 },
        "label": "Lu",
        "xyz": [1.7592632475509735, -1.0157028936252432, 4.257142372500001]
      },
      {
        "species": [{ "element": "Lu", "occu": 1 }],
        "abc": [0.67143429, 0.83571614, 0.25],
        "properties": { "magmom": 0.339 },
        "label": "Lu",
        "xyz": [5.379885712449026, 1.0157028936252432, 1.4190474575]
      },
      {
        "species": [{ "element": "Lu", "occu": 1 }],
        "abc": [0.16428386, 0.32856571, 0.25],
        "properties": { "magmom": 0.339 },
        "label": "Lu",
        "xyz": [1.7592632475509735, 1.0157028936252432, 1.4190474575]
      },
      {
        "species": [{ "element": "Lu", "occu": 1 }],
        "abc": [0.83571614, 0.16428386, 0.75],
        "properties": { "magmom": 0.339 },
        "label": "Lu",
        "xyz": [3.56957448, -4.151254138356698, 4.257142372500001]
      }
    ]
  },
  "task_ids": null,
  "uncorrected_energy_per_atom": null,
  "energy_per_atom": -35.91699421625,
  "formation_energy_per_atom": -0.0025818331249990003,
  "energy_above_hull": 0.0,
  "is_stable": true,
  "equilibrium_reaction_energy_per_atom": null,
  "decomposes_to": null,
  "xas": null,
  "grain_boundaries": null,
  "band_gap": 0.0,
  "cbm": null,
  "vbm": null,
  "efermi": 3.00439958,
  "is_gap_direct": null,
  "is_metal": null,
  "es_source_calc_id": null,
  "bandstructure": null,
  "dos": null,
  "dos_energy_up": null,
  "dos_energy_down": null,
  "is_magnetic": null,
  "ordering": null,
  "total_magnetization": 4.1932255,
  "total_magnetization_normalized_vol": null,
  "total_magnetization_normalized_formula_units": null,
  "num_magnetic_sites": null,
  "num_unique_magnetic_sites": null,
  "types_of_magnetic_species": null,
  "bulk_modulus": null,
  "shear_modulus": null,
  "universal_anisotropy": null,
  "homogeneous_poisson": null,
  "e_total": null,
  "e_ionic": null,
  "e_electronic": null,
  "n": null,
  "e_ij_max": null,
  "weighted_surface_energy_EV_PER_ANG2": null,
  "weighted_surface_energy": null,
  "weighted_work_function": null,
  "surface_anisotropy": null,
  "shape_factor": null,
  "has_reconstructed": null,
  "possible_species": null,
  "has_props": null,
  "theoretical": null,
  "database_IDs": null,
  "fields_not_requested": [
    "builder_meta",
    "nsites",
    "elements",
    "nelements",
    "composition",
    "composition_reduced",
    "chemsys",
    "symmetry",
    "property_name",
    "deprecated",
    "deprecation_reasons",
    "last_updated",
    "origins",
    "warnings",
    "task_ids",
    "uncorrected_energy_per_atom",
    "equilibrium_reaction_energy_per_atom",
    "decomposes_to",
    "xas",
    "grain_boundaries",
    "cbm",
    "vbm",
    "is_gap_direct",
    "is_metal",
    "es_source_calc_id",
    "bandstructure",
    "dos",
    "dos_energy_up",
    "dos_energy_down",
    "is_magnetic",
    "ordering",
    "total_magnetization_normalized_vol",
    "total_magnetization_normalized_formula_units",
    "num_magnetic_sites",
    "num_unique_magnetic_sites",
    "types_of_magnetic_species",
    "bulk_modulus",
    "shear_modulus",
    "universal_anisotropy",
    "homogeneous_poisson",
    "e_total",
    "e_ionic",
    "e_electronic",
    "n",
    "e_ij_max",
    "weighted_surface_energy_EV_PER_ANG2",
    "weighted_surface_energy",
    "weighted_work_function",
    "surface_anisotropy",
    "shape_factor",
    "has_reconstructed",
    "possible_species",
    "has_props",
    "theoretical",
    "database_IDs"
  ]
}
