{
  "builder_meta": null,
  "nsites": null,
  "elements": null,
  "nelements": null,
  "composition": null,
  "composition_reduced": null,
  "formula_pretty": "NdMn2",
  "formula_anonymous": "AB2",
  "chemsys": null,
  "volume": 217.9494393400017,
  "density": 7.7444203068858695,
  "density_atomic": 18.162453278333476,
  "symmetry": null,
  "property_name": null,
  "material_id": "mp-1102507",
  "deprecated": null,
  "deprecation_reasons": null,
  "last_updated": null,
  "origins": null,
  "warnings": null,
  "structure": {
    "@module": "pymatgen.core.structure",
    "@class": "Structure",
    "charge": 0,
    "lattice": {
      "matrix": [
        [-2.75565, -4.469788, 0.0],
        [-2.75565, 4.469788, 0.0],
        [0.0, 0.0, -8.847382]
      ],
      "pbc": [true, true, true],
      "a": 5.250962929543876,
      "b": 5.250962929543876,
      "c": 8.847382,
      "alpha": 90.0,
      "beta": 90.0,
      "gamma": 116.6918582344769,
      "volume": 217.9494393400017
    },
    "properties": {},
    "sites": [
      {
        "species": [{ "element": "Nd", "occu": 1 }],
        "abc": [0.663891999999999, 0.336107999999999, 0.938600999999999],
        "properties": { "magmom": -0.278 },
        "label": "Nd",
        "xyz": [-2.755649999999995, -1.4651249897920002, -8.304161592581991]
      },
      {
        "species": [{ "element": "Nd", "occu": 1 }],
        "abc": [0.336107999999999, 0.663891999999999, 0.061398999999999],
        "properties": { "magmom": -0.278 },
        "label": "Nd",
        "xyz": [-2.755649999999995, 1.4651249897920002, -0.5432204074179912]
      },
      {
        "species": [{ "element": "Nd", "occu": 1 }],
        "abc": [0.663891999999999, 0.336107999999999, 0.561399],
        "properties": { "magmom": -0.278 },
        "label": "Nd",
        "xyz": [-2.755649999999995, -1.4651249897920002, -4.966911407417999]
      },
      {
        "species": [{ "element": "Nd", "occu": 1 }],
        "abc": [0.336107999999999, 0.663891999999999, 0.438600999999999],
        "properties": { "magmom": -0.278 },
        "label": "Nd",
        "xyz": [-2.755649999999995, 1.4651249897920002, -3.8804705925819913]
      },
      {
        "species": [{ "element": "Mn", "occu": 1 }],
        "abc": [0.0, 0.0, 0.5],
        "properties": { "magmom": 1.795 },
        "label": "Mn",
        "xyz": [0.0, 0.0, -4.423691]
      },
      {
        "species": [{ "element": "Mn", "occu": 1 }],
        "abc": [0.0, 0.0, 0.0],
        "properties": { "magmom": 1.795 },
        "label": "Mn",
        "xyz": [0.0, 0.0, 0.0]
      },
      {
        "species": [{ "element": "Mn", "occu": 1 }],
        "abc": [0.145821, 0.854178999999999, 0.75],
        "properties": { "magmom": 1.508 },
        "label": "Mn",
        "xyz": [-2.7556499999999975, 3.1662100881039956, -6.6355365]
      },
      {
        "species": [{ "element": "Mn", "occu": 1 }],
        "abc": [0.854178999999999, 0.145821, 0.25],
        "properties": { "magmom": 1.508 },
        "label": "Mn",
        "xyz": [-2.7556499999999975, -3.1662100881039956, -2.2118455]
      },
      {
        "species": [{ "element": "Mn", "occu": 1 }],
        "abc": [0.661442, 0.857131, 0.75],
        "properties": { "magmom": 2.484 },
        "label": "Mn",
        "xyz": [-4.18465568745, 0.8746883439320001, -6.6355365]
      },
      {
        "species": [{ "element": "Mn", "occu": 1 }],
        "abc": [0.857131, 0.661442, 0.25],
        "properties": { "magmom": 2.484 },
        "label": "Mn",
        "xyz": [-4.18465568745, -0.8746883439320001, -2.2118455]
      },
      {
        "species": [{ "element": "Mn", "occu": 1 }],
        "abc": [0.338557999999999, 0.142869, 0.25],
        "properties": { "magmom": 2.484 },
        "label": "Mn",
        "xyz": [-1.3266443125499974, -0.8746883439319957, -2.2118455]
      },
      {
        "species": [{ "element": "Mn", "occu": 1 }],
        "abc": [0.142869, 0.338557999999999, 0.75],
        "properties": { "magmom": 2.484 },
        "label": "Mn",
        "xyz": [-1.3266443125499974, 0.8746883439319957, -6.6355365]
      }
    ]
  },
  "task_ids": null,
  "uncorrected_energy_per_atom": null,
  "energy_per_atom": -19.292591694798855,
  "formation_energy_per_atom": 0.302301083045975,
  "energy_above_hull": 0.302301083045975,
  "is_stable": false,
  "equilibrium_reaction_energy_per_atom": null,
  "decomposes_to": null,
  "xas": null,
  "grain_boundaries": null,
  "band_gap": 0.0,
  "cbm": null,
  "vbm": null,
  "efermi": 4.44589981,
  "is_gap_direct": null,
  "is_metal": null,
  "es_source_calc_id": null,
  "bandstructure": null,
  "dos": null,
  "dos_energy_up": null,
  "dos_energy_down": null,
  "is_magnetic": null,
  "ordering": null,
  "total_magnetization": 15.5889793,
  "total_magnetization_normalized_vol": null,
  "total_magnetization_normalized_formula_units": null,
  "num_magnetic_sites": null,
  "num_unique_magnetic_sites": null,
  "types_of_magnetic_species": null,
  "bulk_modulus": null,
  "shear_modulus": null,
  "universal_anisotropy": null,
  "homogeneous_poisson": null,
  "e_total": null,
  "e_ionic": null,
  "e_electronic": null,
  "n": null,
  "e_ij_max": null,
  "weighted_surface_energy_EV_PER_ANG2": null,
  "weighted_surface_energy": null,
  "weighted_work_function": null,
  "surface_anisotropy": null,
  "shape_factor": null,
  "has_reconstructed": null,
  "possible_species": null,
  "has_props": null,
  "theoretical": null,
  "database_IDs": null,
  "fields_not_requested": [
    "builder_meta",
    "nsites",
    "elements",
    "nelements",
    "composition",
    "composition_reduced",
    "chemsys",
    "symmetry",
    "property_name",
    "deprecated",
    "deprecation_reasons",
    "last_updated",
    "origins",
    "warnings",
    "task_ids",
    "uncorrected_energy_per_atom",
    "equilibrium_reaction_energy_per_atom",
    "decomposes_to",
    "xas",
    "grain_boundaries",
    "cbm",
    "vbm",
    "is_gap_direct",
    "is_metal",
    "es_source_calc_id",
    "bandstructure",
    "dos",
    "dos_energy_up",
    "dos_energy_down",
    "is_magnetic",
    "ordering",
    "total_magnetization_normalized_vol",
    "total_magnetization_normalized_formula_units",
    "num_magnetic_sites",
    "num_unique_magnetic_sites",
    "types_of_magnetic_species",
    "bulk_modulus",
    "shear_modulus",
    "universal_anisotropy",
    "homogeneous_poisson",
    "e_total",
    "e_ionic",
    "e_electronic",
    "n",
    "e_ij_max",
    "weighted_surface_energy_EV_PER_ANG2",
    "weighted_surface_energy",
    "weighted_work_function",
    "surface_anisotropy",
    "shape_factor",
    "has_reconstructed",
    "possible_species",
    "has_props",
    "theoretical",
    "database_IDs"
  ]
}
