{
  "builder_meta": null,
  "nsites": null,
  "elements": null,
  "nelements": null,
  "composition": null,
  "composition_reduced": null,
  "formula_pretty": "NdN2",
  "formula_anonymous": "AB2",
  "chemsys": null,
  "volume": 167.3098936132718,
  "density": 5.128868621373384,
  "density_atomic": 18.589988179252423,
  "symmetry": null,
  "property_name": null,
  "material_id": "mp-1220310",
  "deprecated": null,
  "deprecation_reasons": null,
  "last_updated": null,
  "origins": null,
  "warnings": null,
  "structure": {
    "@module": "pymatgen.core.structure",
    "@class": "Structure",
    "charge": 0,
    "lattice": {
      "matrix": [
        [2.441335, 6.162823, 0.0],
        [-2.441335, 6.162823, 0.0],
        [0.0, 2.784291999999999, 5.560125]
      ],
      "pbc": [true, true, true],
      "a": 6.628763377248731,
      "b": 6.628763377248731,
      "c": 6.218301372311332,
      "alpha": 65.3997693370974,
      "beta": 65.3997693370974,
      "gamma": 43.22090721533125,
      "volume": 167.3098936132718
    },
    "properties": {},
    "sites": [
      {
        "species": [{ "element": "Nd", "occu": 1 }],
        "abc": [0.361917, 0.361917, 0.930605999999999],
        "properties": { "magmom": -0.009000000000000001 },
        "label": "Nd",
        "xyz": [0.0, 7.051939664333997, 5.174285685749995]
      },
      {
        "species": [{ "element": "Nd", "occu": 1 }],
        "abc": [0.178121, 0.178121, 0.528461],
        "properties": { "magmom": 0.04 },
        "label": "Nd",
        "xyz": [0.0, 3.666846125777999, 2.938309217625]
      },
      {
        "species": [{ "element": "Nd", "occu": 1 }],
        "abc": [0.583934, 0.583934, 0.174787],
        "properties": { "magmom": 0.028 },
        "label": "Nd",
        "xyz": [0.0, 7.6840218171679995, 0.971837568375]
      },
      {
        "species": [{ "element": "N", "occu": 1 }],
        "abc": [0.154164, 0.154164, 0.186947],
        "properties": { "magmom": 0.049 },
        "label": "N",
        "xyz": [0.0, 2.420685926468, 1.039448688375]
      },
      {
        "species": [{ "element": "N", "occu": 1 }],
        "abc": [0.615292, 0.615292, 0.7450800000000001],
        "properties": { "magmom": 0.378 },
        "label": "N",
        "xyz": [0.0, 9.658391661991999, 4.142737935]
      },
      {
        "species": [{ "element": "N", "occu": 1 }],
        "abc": [0.8197300000000001, 0.8197300000000001, 0.867503999999999],
        "properties": { "magmom": -0.126 },
        "label": "N",
        "xyz": [0.0, 12.519086242747997, 4.823430677999995]
      },
      {
        "species": [{ "element": "N", "occu": 1 }],
        "abc": [0.380521999999999, 0.380521999999999, 0.272478],
        "properties": { "magmom": 0.062 },
        "label": "N",
        "xyz": [0.0, 5.448837782787988, 1.51501173975]
      },
      {
        "species": [{ "element": "N", "occu": 1 }],
        "abc": [0.603534, 0.603534, 0.555315999999999],
        "properties": { "magmom": 0.319 },
        "label": "N",
        "xyz": [0.0, 8.985108329235997, 3.0876263744999948]
      },
      {
        "species": [{ "element": "N", "occu": 1 }],
        "abc": [0.928167, 0.928167, 0.782971],
        "properties": { "magmom": -0.138 },
        "label": "N",
        "xyz": [0.0, 13.620277762413998, 4.353416631375]
      }
    ]
  },
  "task_ids": null,
  "uncorrected_energy_per_atom": null,
  "energy_per_atom": -16.758057084305555,
  "formation_energy_per_atom": -0.866220309305554,
  "energy_above_hull": 0.22224650611111202,
  "is_stable": false,
  "equilibrium_reaction_energy_per_atom": null,
  "decomposes_to": null,
  "xas": null,
  "grain_boundaries": null,
  "band_gap": 0.0,
  "cbm": null,
  "vbm": null,
  "efermi": 2.63964885,
  "is_gap_direct": null,
  "is_metal": null,
  "es_source_calc_id": null,
  "bandstructure": null,
  "dos": null,
  "dos_energy_up": null,
  "dos_energy_down": null,
  "is_magnetic": null,
  "ordering": null,
  "total_magnetization": 0.9998528,
  "total_magnetization_normalized_vol": null,
  "total_magnetization_normalized_formula_units": null,
  "num_magnetic_sites": null,
  "num_unique_magnetic_sites": null,
  "types_of_magnetic_species": null,
  "bulk_modulus": null,
  "shear_modulus": null,
  "universal_anisotropy": null,
  "homogeneous_poisson": null,
  "e_total": null,
  "e_ionic": null,
  "e_electronic": null,
  "n": null,
  "e_ij_max": null,
  "weighted_surface_energy_EV_PER_ANG2": null,
  "weighted_surface_energy": null,
  "weighted_work_function": null,
  "surface_anisotropy": null,
  "shape_factor": null,
  "has_reconstructed": null,
  "possible_species": null,
  "has_props": null,
  "theoretical": null,
  "database_IDs": null,
  "fields_not_requested": [
    "builder_meta",
    "nsites",
    "elements",
    "nelements",
    "composition",
    "composition_reduced",
    "chemsys",
    "symmetry",
    "property_name",
    "deprecated",
    "deprecation_reasons",
    "last_updated",
    "origins",
    "warnings",
    "task_ids",
    "uncorrected_energy_per_atom",
    "equilibrium_reaction_energy_per_atom",
    "decomposes_to",
    "xas",
    "grain_boundaries",
    "cbm",
    "vbm",
    "is_gap_direct",
    "is_metal",
    "es_source_calc_id",
    "bandstructure",
    "dos",
    "dos_energy_up",
    "dos_energy_down",
    "is_magnetic",
    "ordering",
    "total_magnetization_normalized_vol",
    "total_magnetization_normalized_formula_units",
    "num_magnetic_sites",
    "num_unique_magnetic_sites",
    "types_of_magnetic_species",
    "bulk_modulus",
    "shear_modulus",
    "universal_anisotropy",
    "homogeneous_poisson",
    "e_total",
    "e_ionic",
    "e_electronic",
    "n",
    "e_ij_max",
    "weighted_surface_energy_EV_PER_ANG2",
    "weighted_surface_energy",
    "weighted_work_function",
    "surface_anisotropy",
    "shape_factor",
    "has_reconstructed",
    "possible_species",
    "has_props",
    "theoretical",
    "database_IDs"
  ]
}
