{
  "builder_meta": null,
  "nsites": null,
  "elements": null,
  "nelements": null,
  "composition": null,
  "composition_reduced": null,
  "formula_pretty": "NdNi3",
  "formula_anonymous": "AB3",
  "chemsys": null,
  "volume": 176.58679639082354,
  "density": 9.036477322268803,
  "density_atomic": 14.715566365901962,
  "symmetry": null,
  "property_name": null,
  "material_id": "mp-1095561",
  "deprecated": null,
  "deprecation_reasons": null,
  "last_updated": null,
  "origins": null,
  "warnings": null,
  "structure": {
    "@module": "pymatgen.core.structure",
    "@class": "Structure",
    "charge": 0,
    "lattice": {
      "matrix": [
        [-2.49854574, -4.32617313, -0.00104327],
        [2.49853133, -4.3261639, -0.00104124],
        [-3.079999999999999e-6, -2.88216245, 8.16773857]
      ],
      "pbc": [true, true, true],
      "a": 4.995848862207346,
      "b": 4.9958336622465245,
      "c": 8.661340181292102,
      "alpha": 73.26415218339488,
      "beta": 73.26416946375177,
      "gamma": 60.016366363672,
      "volume": 176.5867963908235
    },
    "properties": {},
    "sites": [
      {
        "species": [{ "element": "Nd", "occu": 1 }],
        "abc": [0.13869338, 0.13869338, 0.58435057],
        "properties": { "magmom": -0.06 },
        "label": "Nd",
        "xyz": [-3.798371361421286e-6, -2.8842151380799583, 4.772533581252941]
      },
      {
        "species": [{ "element": "Nd", "occu": 1 }],
        "abc": [0.86130662, 0.86130662, 0.41564943],
        "properties": { "magmom": -0.06 },
        "label": "Nd",
        "xyz": [-1.3691628638765487e-5, -8.650284341920042, 3.3931204787470586]
      },
      {
        "species": [{ "element": "Nd", "occu": 1 }],
        "abc": [0.0, 0.0, 0.0],
        "properties": { "magmom": -0.062 },
        "label": "Nd",
        "xyz": [0.0, 0.0, 0.0]
      },
      {
        "species": [{ "element": "Ni", "occu": 1 }],
        "abc": [0.08101601, 0.58024609, 0.7594554],
        "properties": { "magmom": 0.234 },
        "label": "Ni",
        "xyz": [1.2473384891950705, -5.049602809565693, 6.202344465763273]
      },
      {
        "species": [{ "element": "Ni", "occu": 1 }],
        "abc": [0.58017852, 0.58017852, 0.75945776],
        "properties": { "magmom": 0.231 },
        "label": "Ni",
        "xyz": [-1.069950237400398e-5, -7.208780730839708, 6.201843050711077]
      },
      {
        "species": [{ "element": "Ni", "occu": 1 }],
        "abc": [0.58024709, 0.08101501, 0.7594554],
        "properties": { "magmom": 0.234 },
        "label": "Ni",
        "xyz": [-1.2473576933042654, -5.049607417468561, 6.202343452324181]
      },
      {
        "species": [{ "element": "Ni", "occu": 1 }],
        "abc": [0.91898399, 0.41975391, 0.2405446],
        "properties": { "magmom": 0.234 },
        "label": "Ni",
        "xyz": [-1.2473559791950701, -6.484896670434307, 1.963309594236726]
      },
      {
        "species": [{ "element": "Ni", "occu": 1 }],
        "abc": [0.41982148, 0.41982148, 0.24054224000000002],
        "properties": { "magmom": 0.231 },
        "label": "Ni",
        "xyz": [-6.790497625905237e-6, -4.325718749160292, 1.963811009288922]
      },
      {
        "species": [{ "element": "Ni", "occu": 1 }],
        "abc": [0.41975291000000003, 0.91898499, 0.2405446],
        "properties": { "magmom": 0.234 },
        "label": "Ni",
        "xyz": [1.2473402033042653, -6.484892062531439, 1.9633106076758184]
      },
      {
        "species": [{ "element": "Ni", "occu": 1 }],
        "abc": [0.33285421, 0.33285521, 0.0013472900000000001],
        "properties": { "magmom": 0.354 },
        "label": "Ni",
        "xyz": [-2.302047489212197e-6, -2.883854241585557, 0.0103104735274482]
      },
      {
        "species": [{ "element": "Ni", "occu": 1 }],
        "abc": [0.66714579, 0.66714479, 0.99865271],
        "properties": { "magmom": 0.354 },
        "label": "Ni",
        "xyz": [-1.5187952510474975e-5, -8.650645238414443, 8.15534358647255]
      },
      {
        "species": [{ "element": "Ni", "occu": 1 }],
        "abc": [0.5, 0.5, 0.5],
        "properties": { "magmom": 0.074 },
        "label": "Ni",
        "xyz": [-8.744999999954608e-6, -5.7672497400000005, 4.08282703]
      }
    ]
  },
  "task_ids": null,
  "uncorrected_energy_per_atom": null,
  "energy_per_atom": -5.8370440824999985,
  "formation_energy_per_atom": -0.309904714374996,
  "energy_above_hull": 0.0,
  "is_stable": true,
  "equilibrium_reaction_energy_per_atom": null,
  "decomposes_to": null,
  "xas": null,
  "grain_boundaries": null,
  "band_gap": 0.0,
  "cbm": null,
  "vbm": null,
  "efermi": 6.39638206,
  "is_gap_direct": null,
  "is_metal": null,
  "es_source_calc_id": null,
  "bandstructure": null,
  "dos": null,
  "dos_energy_up": null,
  "dos_energy_down": null,
  "is_magnetic": null,
  "ordering": null,
  "total_magnetization": 1.6068899,
  "total_magnetization_normalized_vol": null,
  "total_magnetization_normalized_formula_units": null,
  "num_magnetic_sites": null,
  "num_unique_magnetic_sites": null,
  "types_of_magnetic_species": null,
  "bulk_modulus": null,
  "shear_modulus": null,
  "universal_anisotropy": null,
  "homogeneous_poisson": null,
  "e_total": null,
  "e_ionic": null,
  "e_electronic": null,
  "n": null,
  "e_ij_max": null,
  "weighted_surface_energy_EV_PER_ANG2": null,
  "weighted_surface_energy": null,
  "weighted_work_function": null,
  "surface_anisotropy": null,
  "shape_factor": null,
  "has_reconstructed": null,
  "possible_species": null,
  "has_props": null,
  "theoretical": null,
  "database_IDs": null,
  "fields_not_requested": [
    "builder_meta",
    "nsites",
    "elements",
    "nelements",
    "composition",
    "composition_reduced",
    "chemsys",
    "symmetry",
    "property_name",
    "deprecated",
    "deprecation_reasons",
    "last_updated",
    "origins",
    "warnings",
    "task_ids",
    "uncorrected_energy_per_atom",
    "equilibrium_reaction_energy_per_atom",
    "decomposes_to",
    "xas",
    "grain_boundaries",
    "cbm",
    "vbm",
    "is_gap_direct",
    "is_metal",
    "es_source_calc_id",
    "bandstructure",
    "dos",
    "dos_energy_up",
    "dos_energy_down",
    "is_magnetic",
    "ordering",
    "total_magnetization_normalized_vol",
    "total_magnetization_normalized_formula_units",
    "num_magnetic_sites",
    "num_unique_magnetic_sites",
    "types_of_magnetic_species",
    "bulk_modulus",
    "shear_modulus",
    "universal_anisotropy",
    "homogeneous_poisson",
    "e_total",
    "e_ionic",
    "e_electronic",
    "n",
    "e_ij_max",
    "weighted_surface_energy_EV_PER_ANG2",
    "weighted_surface_energy",
    "weighted_work_function",
    "surface_anisotropy",
    "shape_factor",
    "has_reconstructed",
    "possible_species",
    "has_props",
    "theoretical",
    "database_IDs"
  ]
}
