{
  "builder_meta": null,
  "nsites": null,
  "elements": null,
  "nelements": null,
  "composition": null,
  "composition_reduced": null,
  "formula_pretty": "NdNi",
  "formula_anonymous": "AB",
  "chemsys": null,
  "volume": 86.35601840873312,
  "density": 7.804485799730174,
  "density_atomic": 21.58900460218328,
  "symmetry": null,
  "property_name": null,
  "material_id": "mp-999339",
  "deprecated": null,
  "deprecation_reasons": null,
  "last_updated": null,
  "origins": null,
  "warnings": null,
  "structure": {
    "@module": "pymatgen.core.structure",
    "@class": "Structure",
    "charge": 0,
    "lattice": {
      "matrix": [
        [-3.8236600000000003, 0.0, -0.0],
        [0.0, 0.0, -4.33956402],
        [-1.9118294900000001, -5.20435895, 0.0]
      ],
      "pbc": [true, true, true],
      "a": 3.8236600000000003,
      "b": 4.33956402,
      "c": 5.54440655789948,
      "alpha": 90.0,
      "beta": 69.82911221762103,
      "gamma": 90.0,
      "volume": 86.35601840873312
    },
    "properties": {},
    "sites": [
      {
        "species": [{ "element": "Nd", "occu": 1 }],
        "abc": [0.13763775, 0.75, 0.7247235],
        "properties": { "magmom": 0.0 },
        "label": "Nd",
        "xyz": [-1.911827718561015, -3.7717212335003247, -3.254673015]
      },
      {
        "species": [{ "element": "Nd", "occu": 1 }],
        "abc": [0.86236225, 0.25, 0.2752765],
        "properties": { "magmom": 0.0 },
        "label": "Nd",
        "xyz": [-3.823661771438985, -1.4326377164996749, -1.084891005]
      },
      {
        "species": [{ "element": "Ni", "occu": 1 }],
        "abc": [0.43017036000000003, 0.75, 0.13965728],
        "properties": { "magmom": -0.0 },
        "label": "Ni",
        "xyz": [-1.9118261051147873, -0.7268266151006559, -3.254673015]
      },
      {
        "species": [{ "element": "Ni", "occu": 1 }],
        "abc": [0.56982964, 0.25, 0.86034272],
        "properties": { "magmom": -0.0 },
        "label": "Ni",
        "xyz": [-3.8236633848852133, -4.477532334899344, -1.084891005]
      }
    ]
  },
  "task_ids": null,
  "uncorrected_energy_per_atom": null,
  "energy_per_atom": -5.5936555525,
  "formation_energy_per_atom": -0.31951349624999803,
  "energy_above_hull": 0.0,
  "is_stable": true,
  "equilibrium_reaction_energy_per_atom": null,
  "decomposes_to": null,
  "xas": null,
  "grain_boundaries": null,
  "band_gap": 0.0,
  "cbm": null,
  "vbm": null,
  "efermi": 5.08380412,
  "is_gap_direct": null,
  "is_metal": null,
  "es_source_calc_id": null,
  "bandstructure": null,
  "dos": null,
  "dos_energy_up": null,
  "dos_energy_down": null,
  "is_magnetic": null,
  "ordering": null,
  "total_magnetization": 5e-7,
  "total_magnetization_normalized_vol": null,
  "total_magnetization_normalized_formula_units": null,
  "num_magnetic_sites": null,
  "num_unique_magnetic_sites": null,
  "types_of_magnetic_species": null,
  "bulk_modulus": null,
  "shear_modulus": null,
  "universal_anisotropy": null,
  "homogeneous_poisson": null,
  "e_total": null,
  "e_ionic": null,
  "e_electronic": null,
  "n": null,
  "e_ij_max": null,
  "weighted_surface_energy_EV_PER_ANG2": null,
  "weighted_surface_energy": null,
  "weighted_work_function": null,
  "surface_anisotropy": null,
  "shape_factor": null,
  "has_reconstructed": null,
  "possible_species": null,
  "has_props": null,
  "theoretical": null,
  "database_IDs": null,
  "fields_not_requested": [
    "builder_meta",
    "nsites",
    "elements",
    "nelements",
    "composition",
    "composition_reduced",
    "chemsys",
    "symmetry",
    "property_name",
    "deprecated",
    "deprecation_reasons",
    "last_updated",
    "origins",
    "warnings",
    "task_ids",
    "uncorrected_energy_per_atom",
    "equilibrium_reaction_energy_per_atom",
    "decomposes_to",
    "xas",
    "grain_boundaries",
    "cbm",
    "vbm",
    "is_gap_direct",
    "is_metal",
    "es_source_calc_id",
    "bandstructure",
    "dos",
    "dos_energy_up",
    "dos_energy_down",
    "is_magnetic",
    "ordering",
    "total_magnetization_normalized_vol",
    "total_magnetization_normalized_formula_units",
    "num_magnetic_sites",
    "num_unique_magnetic_sites",
    "types_of_magnetic_species",
    "bulk_modulus",
    "shear_modulus",
    "universal_anisotropy",
    "homogeneous_poisson",
    "e_total",
    "e_ionic",
    "e_electronic",
    "n",
    "e_ij_max",
    "weighted_surface_energy_EV_PER_ANG2",
    "weighted_surface_energy",
    "weighted_work_function",
    "surface_anisotropy",
    "shape_factor",
    "has_reconstructed",
    "possible_species",
    "has_props",
    "theoretical",
    "database_IDs"
  ]
}
