{
  "builder_meta": null,
  "nsites": null,
  "elements": null,
  "nelements": null,
  "composition": null,
  "composition_reduced": null,
  "formula_pretty": "NdO3",
  "formula_anonymous": "AB3",
  "chemsys": null,
  "volume": 157.669976024132,
  "density": 4.049247298954863,
  "density_atomic": 19.7087470030165,
  "symmetry": null,
  "property_name": null,
  "material_id": "mp-1173028",
  "deprecated": null,
  "deprecation_reasons": null,
  "last_updated": null,
  "origins": null,
  "warnings": null,
  "structure": {
    "@module": "pymatgen.core.structure",
    "@class": "Structure",
    "charge": 0,
    "lattice": {
      "matrix": [
        [4.176577, 0.0, -1.578597],
        [-2.934398, 5.318367, 4.865095],
        [-0.171877, -1.84578, 5.859648]
      ],
      "pbc": [true, true, true],
      "a": 4.464948367600459,
      "b": 7.782343382819728,
      "c": 6.145886445048672,
      "alpha": 66.33839973360735,
      "beta": 111.29972976650026,
      "gamma": 125.01060168938264,
      "volume": 157.669976024132
    },
    "properties": {},
    "sites": [
      {
        "species": [{ "element": "Nd", "occu": 1 }],
        "abc": [0.355379, 0.7051229999999991, 0.300512],
        "properties": { "magmom": -0.0 },
        "label": "Nd",
        "xyz": [-0.6364948642949972, 3.195423854780995, 4.630384698197996]
      },
      {
        "species": [{ "element": "Nd", "occu": 1 }],
        "abc": [0.644621, 0.294877, 0.699488],
        "properties": { "magmom": -0.0 },
        "label": "Nd",
        "xyz": [1.7067968642950002, 0.2771631452190002, 4.515761301802]
      },
      {
        "species": [{ "element": "O", "occu": 1 }],
        "abc": [0.917126999999999, 0.686962, 0.46033],
        "properties": { "magmom": 0.0 },
        "label": "O",
        "xyz": [1.735511475992996, 2.8038481236540003, 4.591733224411001]
      },
      {
        "species": [{ "element": "O", "occu": 1 }],
        "abc": [0.384059, 0.929806999999999, 0.908504],
        "properties": { "magmom": 0.0 },
        "label": "O",
        "xyz": [-1.280522757150997, 3.2681563520489947, 9.240838648033996]
      },
      {
        "species": [{ "element": "O", "occu": 1 }],
        "abc": [0.082873, 0.313038, 0.5396700000000001],
        "properties": { "magmom": 0.0 },
        "label": "O",
        "xyz": [-0.6652094759929998, 0.6687388763459999, 4.554412775589]
      },
      {
        "species": [{ "element": "O", "occu": 1 }],
        "abc": [0.31021000000000004, 0.446799, 0.726822],
        "properties": { "magmom": 0.0 },
        "label": "O",
        "xyz": [-0.14039412572599994, 1.034687546073, 5.942944084191]
      },
      {
        "species": [{ "element": "O", "occu": 1 }],
        "abc": [0.68979, 0.553200999999999, 0.273178],
        "properties": { "magmom": 0.0 },
        "label": "O",
        "xyz": [1.210696125726003, 2.437899453926995, 3.2032019158089953]
      },
      {
        "species": [{ "element": "O", "occu": 1 }],
        "abc": [0.615941, 0.070192999999999, 0.091496],
        "properties": { "magmom": 0.0 },
        "label": "O",
        "xyz": [2.3508247571510026, 0.20443064795099475, -0.09469264803400479]
      }
    ]
  },
  "task_ids": null,
  "uncorrected_energy_per_atom": null,
  "energy_per_atom": -7.097513835,
  "formation_energy_per_atom": -2.194506223125,
  "energy_above_hull": 0.175237219999997,
  "is_stable": false,
  "equilibrium_reaction_energy_per_atom": null,
  "decomposes_to": null,
  "xas": null,
  "grain_boundaries": null,
  "band_gap": 2.1102,
  "cbm": null,
  "vbm": null,
  "efermi": 0.38161283,
  "is_gap_direct": null,
  "is_metal": null,
  "es_source_calc_id": null,
  "bandstructure": null,
  "dos": null,
  "dos_energy_up": null,
  "dos_energy_down": null,
  "is_magnetic": null,
  "ordering": null,
  "total_magnetization": 0.0001277,
  "total_magnetization_normalized_vol": null,
  "total_magnetization_normalized_formula_units": null,
  "num_magnetic_sites": null,
  "num_unique_magnetic_sites": null,
  "types_of_magnetic_species": null,
  "bulk_modulus": null,
  "shear_modulus": null,
  "universal_anisotropy": null,
  "homogeneous_poisson": null,
  "e_total": null,
  "e_ionic": null,
  "e_electronic": null,
  "n": null,
  "e_ij_max": null,
  "weighted_surface_energy_EV_PER_ANG2": null,
  "weighted_surface_energy": null,
  "weighted_work_function": null,
  "surface_anisotropy": null,
  "shape_factor": null,
  "has_reconstructed": null,
  "possible_species": null,
  "has_props": null,
  "theoretical": null,
  "database_IDs": null,
  "fields_not_requested": [
    "builder_meta",
    "nsites",
    "elements",
    "nelements",
    "composition",
    "composition_reduced",
    "chemsys",
    "symmetry",
    "property_name",
    "deprecated",
    "deprecation_reasons",
    "last_updated",
    "origins",
    "warnings",
    "task_ids",
    "uncorrected_energy_per_atom",
    "equilibrium_reaction_energy_per_atom",
    "decomposes_to",
    "xas",
    "grain_boundaries",
    "cbm",
    "vbm",
    "is_gap_direct",
    "is_metal",
    "es_source_calc_id",
    "bandstructure",
    "dos",
    "dos_energy_up",
    "dos_energy_down",
    "is_magnetic",
    "ordering",
    "total_magnetization_normalized_vol",
    "total_magnetization_normalized_formula_units",
    "num_magnetic_sites",
    "num_unique_magnetic_sites",
    "types_of_magnetic_species",
    "bulk_modulus",
    "shear_modulus",
    "universal_anisotropy",
    "homogeneous_poisson",
    "e_total",
    "e_ionic",
    "e_electronic",
    "n",
    "e_ij_max",
    "weighted_surface_energy_EV_PER_ANG2",
    "weighted_surface_energy",
    "weighted_work_function",
    "surface_anisotropy",
    "shape_factor",
    "has_reconstructed",
    "possible_species",
    "has_props",
    "theoretical",
    "database_IDs"
  ]
}
