{
  "builder_meta": null,
  "nsites": null,
  "elements": null,
  "nelements": null,
  "composition": null,
  "composition_reduced": null,
  "formula_pretty": "NdP2",
  "formula_anonymous": "AB2",
  "chemsys": null,
  "volume": 260.17050708141295,
  "density": 5.264021100109067,
  "density_atomic": 21.680875590117747,
  "symmetry": null,
  "property_name": null,
  "material_id": "mp-1209849",
  "deprecated": null,
  "deprecation_reasons": null,
  "last_updated": null,
  "origins": null,
  "warnings": null,
  "structure": {
    "@module": "pymatgen.core.structure",
    "@class": "Structure",
    "charge": 0,
    "lattice": {
      "matrix": [
        [6.58693857, 0.0, 0.0],
        [0.0, 4.03789619, -0.010920870000000001],
        [0.0, 2.71588329, 9.77446639]
      ],
      "pbc": [true, true, true],
      "a": 6.58693857,
      "b": 4.037910958232991,
      "c": 10.144762947163471,
      "alpha": 74.6267487818217,
      "beta": 90.0,
      "gamma": 90.0,
      "volume": 260.17050708141295
    },
    "properties": {},
    "sites": [
      {
        "species": [{ "element": "Nd", "occu": 1 }],
        "abc": [0.31494441, 0.58029075, 0.64200675],
        "properties": { "magmom": -0.0 },
        "label": "Nd",
        "xyz": [2.0745194816348937, 4.0867692129094495, 6.26893612018518]
      },
      {
        "species": [{ "element": "Nd", "occu": 1 }],
        "abc": [0.68505559, 0.41970925000000003, 0.35799325],
        "properties": { "magmom": -0.0 },
        "label": "Nd",
        "xyz": [4.512419088365107, 2.66701026709055, 3.49460939981482]
      },
      {
        "species": [{ "element": "Nd", "occu": 1 }],
        "abc": [0.8149444100000001, 0.41970925000000003, 0.85799325],
        "properties": { "magmom": -0.0 },
        "label": "Nd",
        "xyz": [5.367988766634894, 4.02495191209055, 8.381842594814822]
      },
      {
        "species": [{ "element": "Nd", "occu": 1 }],
        "abc": [0.18505559, 0.58029075, 0.14200675000000001],
        "properties": { "magmom": -0.0 },
        "label": "Nd",
        "xyz": [1.2189498033651063, 2.7288275679094496, 1.3817029251851802]
      },
      {
        "species": [{ "element": "P", "occu": 1 }],
        "abc": [0.16180176000000002, 0.96656534, 0.8376462],
        "properties": { "magmom": 0.0 },
        "label": "P",
        "xyz": [1.0657782536378833, 6.177839821284053, 8.176988894186573]
      },
      {
        "species": [{ "element": "P", "occu": 1 }],
        "abc": [0.83819824, 0.03343466, 0.1623538],
        "properties": { "magmom": 0.0 },
        "label": "P",
        "xyz": [5.521160316362117, 0.5759396587159473, 1.5865566258134278]
      },
      {
        "species": [{ "element": "P", "occu": 1 }],
        "abc": [0.66180176, 0.03343466, 0.6623538],
        "properties": { "magmom": 0.0 },
        "label": "P",
        "xyz": [4.3592475386378835, 1.9338813037159472, 6.473789820813428]
      },
      {
        "species": [{ "element": "P", "occu": 1 }],
        "abc": [0.33819824, 0.96656534, 0.3376462],
        "properties": { "magmom": 0.0 },
        "label": "P",
        "xyz": [2.2276910313621165, 4.8198981762840525, 3.2897556991865726]
      },
      {
        "species": [{ "element": "P", "occu": 1 }],
        "abc": [0.87939077, 0.80575664, 0.54580314],
        "properties": { "magmom": -0.0 },
        "label": "P",
        "xyz": [5.792492981014999, 4.735899294278732, 5.326134883969387]
      },
      {
        "species": [{ "element": "P", "occu": 1 }],
        "abc": [0.12060923, 0.19424336, 0.45419686000000004],
        "properties": { "magmom": -0.0 },
        "label": "P",
        "xyz": [0.7944455889850011, 2.0178801857212676, 4.437410636030613]
      },
      {
        "species": [{ "element": "P", "occu": 1 }],
        "abc": [0.37939077, 0.19424336, 0.95419686],
        "properties": { "magmom": -0.0 },
        "label": "P",
        "xyz": [2.4990236960149987, 3.3758218307212675, 9.324643831030613]
      },
      {
        "species": [{ "element": "P", "occu": 1 }],
        "abc": [0.62060923, 0.80575664, 0.04580314],
        "properties": { "magmom": -0.0 },
        "label": "P",
        "xyz": [4.087914873985001, 3.377957649278732, 0.43890168896938786]
      }
    ]
  },
  "task_ids": null,
  "uncorrected_energy_per_atom": null,
  "energy_per_atom": -16.997307324999998,
  "formation_energy_per_atom": -1.189920122817459,
  "energy_above_hull": 0.01945466541667,
  "is_stable": false,
  "equilibrium_reaction_energy_per_atom": null,
  "decomposes_to": null,
  "xas": null,
  "grain_boundaries": null,
  "band_gap": 0.0,
  "cbm": null,
  "vbm": null,
  "efermi": 5.65308321,
  "is_gap_direct": null,
  "is_metal": null,
  "es_source_calc_id": null,
  "bandstructure": null,
  "dos": null,
  "dos_energy_up": null,
  "dos_energy_down": null,
  "is_magnetic": null,
  "ordering": null,
  "total_magnetization": 0.0,
  "total_magnetization_normalized_vol": null,
  "total_magnetization_normalized_formula_units": null,
  "num_magnetic_sites": null,
  "num_unique_magnetic_sites": null,
  "types_of_magnetic_species": null,
  "bulk_modulus": null,
  "shear_modulus": null,
  "universal_anisotropy": null,
  "homogeneous_poisson": null,
  "e_total": null,
  "e_ionic": null,
  "e_electronic": null,
  "n": null,
  "e_ij_max": null,
  "weighted_surface_energy_EV_PER_ANG2": null,
  "weighted_surface_energy": null,
  "weighted_work_function": null,
  "surface_anisotropy": null,
  "shape_factor": null,
  "has_reconstructed": null,
  "possible_species": null,
  "has_props": null,
  "theoretical": null,
  "database_IDs": null,
  "fields_not_requested": [
    "builder_meta",
    "nsites",
    "elements",
    "nelements",
    "composition",
    "composition_reduced",
    "chemsys",
    "symmetry",
    "property_name",
    "deprecated",
    "deprecation_reasons",
    "last_updated",
    "origins",
    "warnings",
    "task_ids",
    "uncorrected_energy_per_atom",
    "equilibrium_reaction_energy_per_atom",
    "decomposes_to",
    "xas",
    "grain_boundaries",
    "cbm",
    "vbm",
    "is_gap_direct",
    "is_metal",
    "es_source_calc_id",
    "bandstructure",
    "dos",
    "dos_energy_up",
    "dos_energy_down",
    "is_magnetic",
    "ordering",
    "total_magnetization_normalized_vol",
    "total_magnetization_normalized_formula_units",
    "num_magnetic_sites",
    "num_unique_magnetic_sites",
    "types_of_magnetic_species",
    "bulk_modulus",
    "shear_modulus",
    "universal_anisotropy",
    "homogeneous_poisson",
    "e_total",
    "e_ionic",
    "e_electronic",
    "n",
    "e_ij_max",
    "weighted_surface_energy_EV_PER_ANG2",
    "weighted_surface_energy",
    "weighted_work_function",
    "surface_anisotropy",
    "shape_factor",
    "has_reconstructed",
    "possible_species",
    "has_props",
    "theoretical",
    "database_IDs"
  ]
}
