{"builder_meta": null, "nsites": null, "elements": null, "nelements": null, "composition": null, "composition_reduced": null, "formula_pretty": "NdP5", "formula_anonymous": "AB5", "chemsys": null, "volume": 258.53802122595937, "density": 3.842260282585458, "density_atomic": 21.54483510216328, "symmetry": null, "property_name": null, "material_id": "mp-7332", "deprecated": null, "deprecation_reasons": null, "last_updated": null, "origins": null, "warnings": null, "structure": {"@module": "pymatgen.core.structure", "@class": "Structure", "charge": 0, "lattice": {"matrix": [[5.0607072, 0.061858540000000004, 0.0], [-1.21511947, 5.3260077, 0.0], [0.0, 0.0, 9.56537449]], "pbc": [true, true, true], "a": 5.061085243611569, "b": 5.462863108923046, "c": 9.56537449, "alpha": 90.0, "beta": 90.0, "gamma": 102.1516497174517, "volume": 258.53802122595937}, "properties": {}, "sites": [{"species": [{"element": "Nd", "occu": 1}], "abc": [0.00851287, 0.34954601, 0.25], "properties": {"magmom": -0.0}, "label": "Nd", "xyz": [-0.3816590199101508, 1.862211334473687, 2.3913436225]}, {"species": [{"element": "Nd", "occu": 1}], "abc": [0.99148713, 0.65045399, 0.75], "properties": {"magmom": -0.0}, "label": "Nd", "xyz": [4.227246749910151, 3.5256549055263133, 7.1740308675]}, {"species": [{"element": "P", "occu": 1}], "abc": [0.29380503, 0.90224465, 0.25], "properties": {"magmom": 0.0}, "label": "P", "xyz": [0.39052618979888054, 4.8235363033842615, 2.3913436225]}, {"species": [{"element": "P", "occu": 1}], "abc": [0.70619497, 0.09775535, 0.75], "properties": {"magmom": 0.0}, "label": "P", "xyz": [3.4550615402011196, 0.5643299366157388, 7.1740308675]}, {"species": [{"element": "P", "occu": 1}], "abc": [0.61382241, 0.95175405, 0.41005495000000003], "properties": {"magmom": -0.0}, "label": "P", "xyz": [1.9498806130019988, 5.1070195569080665, 3.9223291582282256]}, {"species": [{"element": "P", "occu": 1}], "abc": [0.38617759, 0.04824595, 0.91005495], "properties": {"magmom": -0.0}, "label": "P", "xyz": [1.8957071169980018, 0.2808466830919336, 8.705016403228226]}, {"species": [{"element": "P", "occu": 1}], "abc": [0.38617759, 0.04824595, 0.58994505], "properties": {"magmom": -0.0}, "label": "P", "xyz": [1.8957071169980018, 0.2808466830919336, 5.643045331771774]}, {"species": [{"element": "P", "occu": 1}], "abc": [0.61382241, 0.95175405, 0.08994505], "properties": {"magmom": -0.0}, "label": "P", "xyz": [1.9498806130019988, 5.1070195569080665, 0.8603580867717745]}, {"species": [{"element": "P", "occu": 1}], "abc": [0.70440614, 0.59869167, 0.46960398000000003], "properties": {"magmom": 0.0}, "label": "P", "xyz": [2.8373113196783932, 3.2322099797332946, 4.491937930694471]}, {"species": [{"element": "P", "occu": 1}], "abc": [0.29559386, 0.40130833, 0.96960398], "properties": {"magmom": 0.0}, "label": "P", "xyz": [1.008276410321607, 2.155656260266705, 9.27462517569447]}, {"species": [{"element": "P", "occu": 1}], "abc": [0.29559386, 0.40130833, 0.53039602], "properties": {"magmom": 0.0}, "label": "P", "xyz": [1.008276410321607, 2.155656260266705, 5.073436559305529]}, {"species": [{"element": "P", "occu": 1}], "abc": [0.70440614, 0.59869167, 0.03039602], "properties": {"magmom": 0.0}, "label": "P", "xyz": [2.8373113196783932, 3.2322099797332946, 0.2907493143055298]}]}, "task_ids": null, "uncorrected_energy_per_atom": null, "energy_per_atom": -13.049840110833335, "formation_energy_per_atom": -0.6451083537301581, "energy_above_hull": 0.0, "is_stable": true, "equilibrium_reaction_energy_per_atom": null, "decomposes_to": null, "xas": null, "grain_boundaries": null, "band_gap": 0.0, "cbm": null, "vbm": null, "efermi": 5.34046348, "is_gap_direct": null, "is_metal": null, "es_source_calc_id": null, "bandstructure": null, "dos": null, "dos_energy_up": null, "dos_energy_down": null, "is_magnetic": null, "ordering": null, "total_magnetization": 0.0, "total_magnetization_normalized_vol": null, "total_magnetization_normalized_formula_units": null, "num_magnetic_sites": null, "num_unique_magnetic_sites": null, "types_of_magnetic_species": null, "bulk_modulus": null, "shear_modulus": null, "universal_anisotropy": null, "homogeneous_poisson": null, "e_total": null, "e_ionic": null, "e_electronic": null, "n": null, "e_ij_max": null, "weighted_surface_energy_EV_PER_ANG2": null, "weighted_surface_energy": null, "weighted_work_function": null, "surface_anisotropy": null, "shape_factor": null, "has_reconstructed": null, "possible_species": null, "has_props": null, "theoretical": null, "database_IDs": null, "fields_not_requested": ["builder_meta", "nsites", "elements", "nelements", "composition", "composition_reduced", "chemsys", "symmetry", "property_name", "deprecated", "deprecation_reasons", "last_updated", "origins", "warnings", "task_ids", "uncorrected_energy_per_atom", "equilibrium_reaction_energy_per_atom", "decomposes_to", "xas", "grain_boundaries", "cbm", "vbm", "is_gap_direct", "is_metal", "es_source_calc_id", "bandstructure", "dos", "dos_energy_up", "dos_energy_down", "is_magnetic", "ordering", "total_magnetization_normalized_vol", "total_magnetization_normalized_formula_units", "num_magnetic_sites", "num_unique_magnetic_sites", "types_of_magnetic_species", "bulk_modulus", "shear_modulus", "universal_anisotropy", "homogeneous_poisson", "e_total", "e_ionic", "e_electronic", "n", "e_ij_max", "weighted_surface_energy_EV_PER_ANG2", "weighted_surface_energy", "weighted_work_function", "surface_anisotropy", "shape_factor", "has_reconstructed", "possible_species", "has_props", "theoretical", "database_IDs"]}