{"builder_meta": null, "nsites": null, "elements": null, "nelements": null, "composition": null, "composition_reduced": null, "formula_pretty": "NdPt", "formula_anonymous": "AB", "chemsys": null, "volume": 192.65479339401261, "density": 11.698937138007864, "density_atomic": 24.081849174251577, "symmetry": null, "property_name": null, "material_id": "mp-1080485", "deprecated": null, "deprecation_reasons": null, "last_updated": null, "origins": null, "warnings": null, "structure": {"@module": "pymatgen.core.structure", "@class": "Structure", "charge": 0, "lattice": {"matrix": [[0.0, 4.59947004, 0.0], [0.0, -0.0, 5.70386217], [7.34349836, 0.0, 0.0]], "pbc": [true, true, true], "a": 4.59947004, "b": 5.70386217, "c": 7.34349836, "alpha": 90.0, "beta": 90.0, "gamma": 90.0, "volume": 192.65479339401261}, "properties": {}, "sites": [{"species": [{"element": "Nd", "occu": 1}], "abc": [0.25, 0.36165582, 0.68299756], "properties": {"magmom": -0.0}, "label": "Nd", "xyz": [5.015591461744002, 1.14986751, 2.0628349502583294]}, {"species": [{"element": "Nd", "occu": 1}], "abc": [0.25, 0.13834418, 0.18299756], "properties": {"magmom": -0.0}, "label": "Nd", "xyz": [1.3438422817440017, 1.14986751, 0.7890961347416706]}, {"species": [{"element": "Nd", "occu": 1}], "abc": [0.75, 0.63834418, 0.31700244], "properties": {"magmom": -0.0}, "label": "Nd", "xyz": [2.3279068982559985, 3.44960253, 3.641027219741671]}, {"species": [{"element": "Nd", "occu": 1}], "abc": [0.75, 0.8616558200000001, 0.81700244], "properties": {"magmom": -0.0}, "label": "Nd", "xyz": [5.999656078255998, 3.44960253, 4.91476603525833]}, {"species": [{"element": "Pt", "occu": 1}], "abc": [0.25, 0.8472918500000001, 0.54413183], "properties": {"magmom": 0.0}, "label": "Pt", "xyz": [3.9958312012287984, 1.14986751, 4.832835930164315]}, {"species": [{"element": "Pt", "occu": 1}], "abc": [0.25, 0.65270815, 0.044131830000000004], "properties": {"magmom": 0.0}, "label": "Pt", "xyz": [0.3240820212287988, 1.14986751, 3.7229573248356855]}, {"species": [{"element": "Pt", "occu": 1}], "abc": [0.75, 0.15270815000000001, 0.45586817], "properties": {"magmom": 0.0}, "label": "Pt", "xyz": [3.3476671587712015, 3.44960253, 0.8710262398356856]}, {"species": [{"element": "Pt", "occu": 1}], "abc": [0.75, 0.34729185, 0.95586817], "properties": {"magmom": 0.0}, "label": "Pt", "xyz": [7.019416338771201, 3.44960253, 1.9809048451643145]}]}, "task_ids": null, "uncorrected_energy_per_atom": null, "energy_per_atom": -6.561000572499999, "formation_energy_per_atom": -1.141360196249998, "energy_above_hull": 0.0, "is_stable": true, "equilibrium_reaction_energy_per_atom": null, "decomposes_to": null, "xas": null, "grain_boundaries": null, "band_gap": 0.0, "cbm": null, "vbm": null, "efermi": 4.95222956, "is_gap_direct": null, "is_metal": null, "es_source_calc_id": null, "bandstructure": null, "dos": null, "dos_energy_up": null, "dos_energy_down": null, "is_magnetic": null, "ordering": null, "total_magnetization": 1e-07, "total_magnetization_normalized_vol": null, "total_magnetization_normalized_formula_units": null, "num_magnetic_sites": null, "num_unique_magnetic_sites": null, "types_of_magnetic_species": null, "bulk_modulus": null, "shear_modulus": null, "universal_anisotropy": null, "homogeneous_poisson": null, "e_total": null, "e_ionic": null, "e_electronic": null, "n": null, "e_ij_max": null, "weighted_surface_energy_EV_PER_ANG2": null, "weighted_surface_energy": null, "weighted_work_function": null, "surface_anisotropy": null, "shape_factor": null, "has_reconstructed": null, "possible_species": null, "has_props": null, "theoretical": null, "database_IDs": null, "fields_not_requested": ["builder_meta", "nsites", "elements", "nelements", "composition", "composition_reduced", "chemsys", "symmetry", "property_name", "deprecated", "deprecation_reasons", "last_updated", "origins", "warnings", "task_ids", "uncorrected_energy_per_atom", "equilibrium_reaction_energy_per_atom", "decomposes_to", "xas", "grain_boundaries", "cbm", "vbm", "is_gap_direct", "is_metal", "es_source_calc_id", "bandstructure", "dos", "dos_energy_up", "dos_energy_down", "is_magnetic", "ordering", "total_magnetization_normalized_vol", "total_magnetization_normalized_formula_units", "num_magnetic_sites", "num_unique_magnetic_sites", "types_of_magnetic_species", "bulk_modulus", "shear_modulus", "universal_anisotropy", "homogeneous_poisson", "e_total", "e_ionic", "e_electronic", "n", "e_ij_max", "weighted_surface_energy_EV_PER_ANG2", "weighted_surface_energy", "weighted_work_function", "surface_anisotropy", "shape_factor", "has_reconstructed", "possible_species", "has_props", "theoretical", "database_IDs"]}