{"builder_meta": null, "nsites": null, "elements": null, "nelements": null, "composition": null, "composition_reduced": null, "formula_pretty": "NdPt2", "formula_anonymous": "AB2", "chemsys": null, "volume": 116.85068760557749, "density": 15.188762698206805, "density_atomic": 19.475114600929583, "symmetry": null, "property_name": null, "material_id": "mp-2720", "deprecated": null, "deprecation_reasons": null, "last_updated": null, "origins": null, "warnings": null, "structure": {"@module": "pymatgen.core.structure", "@class": "Structure", "charge": 0, "lattice": {"matrix": [[4.75239679, -0.0, 2.74379804], [1.584131929999999, 4.48060276, 2.74379804], [0.0, 0.0, 5.48759607]], "pbc": [true, true, true], "a": 5.487595369003635, "b": 5.487595352144051, "c": 5.48759607, "alpha": 59.99999561241673, "beta": 59.999995714047905, "gamma": 60.000000521388145, "volume": 116.85068760557749}, "properties": {}, "sites": [{"species": [{"element": "Nd", "occu": 1}], "abc": [0.875, 0.875, 0.875], "properties": {"magmom": -0.0}, "label": "Nd", "xyz": [5.544462629999999, 3.920527415, 9.60329313125]}, {"species": [{"element": "Nd", "occu": 1}], "abc": [0.125, 0.125, 0.125], "properties": {"magmom": -0.0}, "label": "Nd", "xyz": [0.7920660899999998, 0.560075345, 1.3718990187500002]}, {"species": [{"element": "Pt", "occu": 1}], "abc": [0.5, 0.5, 0.5], "properties": {"magmom": 0.0}, "label": "Pt", "xyz": [3.1682643599999993, 2.24030138, 5.487596075000001]}, {"species": [{"element": "Pt", "occu": 1}], "abc": [0.5, 0.5, 0.0], "properties": {"magmom": 0.0}, "label": "Pt", "xyz": [3.1682643599999993, 2.24030138, 2.74379804]}, {"species": [{"element": "Pt", "occu": 1}], "abc": [-0.0, 0.5, 0.5], "properties": {"magmom": 0.0}, "label": "Pt", "xyz": [0.7920659649999995, 2.24030138, 4.115697055]}, {"species": [{"element": "Pt", "occu": 1}], "abc": [0.5, -0.0, 0.5], "properties": {"magmom": 0.0}, "label": "Pt", "xyz": [2.376198395, 0.0, 4.115697055]}]}, "task_ids": null, "uncorrected_energy_per_atom": null, "energy_per_atom": -6.674795596666674, "formation_energy_per_atom": -1.037990905833339, "energy_above_hull": 0.0, "is_stable": true, "equilibrium_reaction_energy_per_atom": null, "decomposes_to": null, "xas": null, "grain_boundaries": null, "band_gap": 0.0, "cbm": null, "vbm": null, "efermi": 6.3422309, "is_gap_direct": null, "is_metal": null, "es_source_calc_id": null, "bandstructure": null, "dos": null, "dos_energy_up": null, "dos_energy_down": null, "is_magnetic": null, "ordering": null, "total_magnetization": 1e-07, "total_magnetization_normalized_vol": null, "total_magnetization_normalized_formula_units": null, "num_magnetic_sites": null, "num_unique_magnetic_sites": null, "types_of_magnetic_species": null, "bulk_modulus": null, "shear_modulus": null, "universal_anisotropy": null, "homogeneous_poisson": null, "e_total": null, "e_ionic": null, "e_electronic": null, "n": null, "e_ij_max": null, "weighted_surface_energy_EV_PER_ANG2": null, "weighted_surface_energy": null, "weighted_work_function": null, "surface_anisotropy": null, "shape_factor": null, "has_reconstructed": null, "possible_species": null, "has_props": null, "theoretical": null, "database_IDs": null, "fields_not_requested": ["builder_meta", "nsites", "elements", "nelements", "composition", "composition_reduced", "chemsys", "symmetry", "property_name", "deprecated", "deprecation_reasons", "last_updated", "origins", "warnings", "task_ids", "uncorrected_energy_per_atom", "equilibrium_reaction_energy_per_atom", "decomposes_to", "xas", "grain_boundaries", "cbm", "vbm", "is_gap_direct", "is_metal", "es_source_calc_id", "bandstructure", "dos", "dos_energy_up", "dos_energy_down", "is_magnetic", "ordering", "total_magnetization_normalized_vol", "total_magnetization_normalized_formula_units", "num_magnetic_sites", "num_unique_magnetic_sites", "types_of_magnetic_species", "bulk_modulus", "shear_modulus", "universal_anisotropy", "homogeneous_poisson", "e_total", "e_ionic", "e_electronic", "n", "e_ij_max", "weighted_surface_energy_EV_PER_ANG2", "weighted_surface_energy", "weighted_work_function", "surface_anisotropy", "shape_factor", "has_reconstructed", "possible_species", "has_props", "theoretical", "database_IDs"]}