{"builder_meta": null, "nsites": null, "elements": null, "nelements": null, "composition": null, "composition_reduced": null, "formula_pretty": "NdRh", "formula_anonymous": "AB", "chemsys": null, "volume": 91.07550245670987, "density": 9.01226055069187, "density_atomic": 22.768875614177468, "symmetry": null, "property_name": null, "material_id": "mp-999335", "deprecated": null, "deprecation_reasons": null, "last_updated": null, "origins": null, "warnings": null, "structure": {"@module": "pymatgen.core.structure", "@class": "Structure", "charge": 0, "lattice": {"matrix": [[-3.94075678, -1e-08, 0.0], [0.0, -0.0, -4.19827781], [-1.9703789, -5.50491695, 0.0]], "pbc": [true, true, true], "a": 3.94075678, "b": 4.19827781, "c": 5.846922578242551, "alpha": 90.0, "beta": 70.30615093137253, "gamma": 90.0, "volume": 91.07550245670987}, "properties": {}, "sites": [{"species": [{"element": "Nd", "occu": 1}], "abc": [0.14114615, 0.75, 0.7177087], "properties": {"magmom": -0.0}, "label": "Nd", "xyz": [-1.970380726409827, -3.9509267892039266, -3.1487083575000003]}, {"species": [{"element": "Nd", "occu": 1}], "abc": [0.85885385, 0.25, 0.282291299999999], "properties": {"magmom": -0.0}, "label": "Nd", "xyz": [-3.9407549535901714, -1.5539901707960682, -1.0495694525]}, {"species": [{"element": "Rh", "occu": 1}], "abc": [0.41543216, 0.75, 0.16913568], "properties": {"magmom": 0.0}, "label": "Rh", "xyz": [-1.9703784762591967, -0.9310778758360977, -3.1487083575000003]}, {"species": [{"element": "Rh", "occu": 1}], "abc": [0.5845678400000001, 0.25, 0.83086432], "properties": {"magmom": 0.0}, "label": "Rh", "xyz": [-3.9407572037408034, -4.573839084163903, -1.0495694525]}]}, "task_ids": null, "uncorrected_energy_per_atom": null, "energy_per_atom": -6.7439416275, "formation_energy_per_atom": -0.6777139762499981, "energy_above_hull": 0.0, "is_stable": true, "equilibrium_reaction_energy_per_atom": null, "decomposes_to": null, "xas": null, "grain_boundaries": null, "band_gap": 0.0, "cbm": null, "vbm": null, "efermi": 4.31414224, "is_gap_direct": null, "is_metal": null, "es_source_calc_id": null, "bandstructure": null, "dos": null, "dos_energy_up": null, "dos_energy_down": null, "is_magnetic": null, "ordering": null, "total_magnetization": 0.0, "total_magnetization_normalized_vol": null, "total_magnetization_normalized_formula_units": null, "num_magnetic_sites": null, "num_unique_magnetic_sites": null, "types_of_magnetic_species": null, "bulk_modulus": null, "shear_modulus": null, "universal_anisotropy": null, "homogeneous_poisson": null, "e_total": null, "e_ionic": null, "e_electronic": null, "n": null, "e_ij_max": null, "weighted_surface_energy_EV_PER_ANG2": null, "weighted_surface_energy": null, "weighted_work_function": null, "surface_anisotropy": null, "shape_factor": null, "has_reconstructed": null, "possible_species": null, "has_props": null, "theoretical": null, "database_IDs": null, "fields_not_requested": ["builder_meta", "nsites", "elements", "nelements", "composition", "composition_reduced", "chemsys", "symmetry", "property_name", "deprecated", "deprecation_reasons", "last_updated", "origins", "warnings", "task_ids", "uncorrected_energy_per_atom", "equilibrium_reaction_energy_per_atom", "decomposes_to", "xas", "grain_boundaries", "cbm", "vbm", "is_gap_direct", "is_metal", "es_source_calc_id", "bandstructure", "dos", "dos_energy_up", "dos_energy_down", "is_magnetic", "ordering", "total_magnetization_normalized_vol", "total_magnetization_normalized_formula_units", "num_magnetic_sites", "num_unique_magnetic_sites", "types_of_magnetic_species", "bulk_modulus", "shear_modulus", "universal_anisotropy", "homogeneous_poisson", "e_total", "e_ionic", "e_electronic", "n", "e_ij_max", "weighted_surface_energy_EV_PER_ANG2", "weighted_surface_energy", "weighted_work_function", "surface_anisotropy", "shape_factor", "has_reconstructed", "possible_species", "has_props", "theoretical", "database_IDs"]}