{"builder_meta": null, "nsites": null, "elements": null, "nelements": null, "composition": null, "composition_reduced": null, "formula_pretty": "NdRh2", "formula_anonymous": "AB2", "chemsys": null, "volume": 110.15621225697896, "density": 10.553679542366488, "density_atomic": 18.359368709496493, "symmetry": null, "property_name": null, "material_id": "mp-2290", "deprecated": null, "deprecation_reasons": null, "last_updated": null, "origins": null, "warnings": null, "structure": {"@module": "pymatgen.core.structure", "@class": "Structure", "charge": 0, "lattice": {"matrix": [[4.65985126, 0.0, 2.6903662600000002], [1.553283749999999, 4.39334813, 2.6903662600000002], [1e-08, 0.0, 5.38073151]], "pbc": [true, true, true], "a": 5.380732699016926, "b": 5.380731252565486, "c": 5.38073151, "alpha": 59.999992172553895, "beta": 60.000000994079166, "gamma": 59.99999187668849, "volume": 110.15621225697896}, "properties": {}, "sites": [{"species": [{"element": "Nd", "occu": 1}], "abc": [0.125, 0.125, 0.125], "properties": {"magmom": 0.0}, "label": "Nd", "xyz": [0.7766418774999998, 0.54916851625, 1.34518300375]}, {"species": [{"element": "Nd", "occu": 1}], "abc": [0.875, 0.875, 0.875], "properties": {"magmom": 0.0}, "label": "Nd", "xyz": [5.4364931425, 3.8441796137499997, 9.416281026250001]}, {"species": [{"element": "Rh", "occu": 1}], "abc": [0.5, -0.0, 0.5], "properties": {"magmom": -0.0}, "label": "Rh", "xyz": [2.329925635, 0.0, 4.035548885000001]}, {"species": [{"element": "Rh", "occu": 1}], "abc": [0.0, 0.5, 0.5], "properties": {"magmom": -0.0}, "label": "Rh", "xyz": [0.7766418799999995, 2.196674065, 4.035548885000001]}, {"species": [{"element": "Rh", "occu": 1}], "abc": [0.5, 0.5, 0.5], "properties": {"magmom": -0.0}, "label": "Rh", "xyz": [3.106567509999999, 2.196674065, 5.380732015]}, {"species": [{"element": "Rh", "occu": 1}], "abc": [0.5, 0.5, 0.0], "properties": {"magmom": -0.0}, "label": "Rh", "xyz": [3.1065675049999992, 2.196674065, 2.6903662600000002]}]}, "task_ids": null, "uncorrected_energy_per_atom": null, "energy_per_atom": -7.153694401666665, "formation_energy_per_atom": -0.654773344166663, "energy_above_hull": 0.0, "is_stable": true, "equilibrium_reaction_energy_per_atom": null, "decomposes_to": null, "xas": null, "grain_boundaries": null, "band_gap": 0.0, "cbm": null, "vbm": null, "efermi": 5.4807088, "is_gap_direct": null, "is_metal": null, "es_source_calc_id": null, "bandstructure": null, "dos": null, "dos_energy_up": null, "dos_energy_down": null, "is_magnetic": null, "ordering": null, "total_magnetization": 1.899999999999999e-06, "total_magnetization_normalized_vol": null, "total_magnetization_normalized_formula_units": null, "num_magnetic_sites": null, "num_unique_magnetic_sites": null, "types_of_magnetic_species": null, "bulk_modulus": null, "shear_modulus": null, "universal_anisotropy": null, "homogeneous_poisson": null, "e_total": null, "e_ionic": null, "e_electronic": null, "n": null, "e_ij_max": null, "weighted_surface_energy_EV_PER_ANG2": null, "weighted_surface_energy": null, "weighted_work_function": null, "surface_anisotropy": null, "shape_factor": null, "has_reconstructed": null, "possible_species": null, "has_props": null, "theoretical": null, "database_IDs": null, "fields_not_requested": ["builder_meta", "nsites", "elements", "nelements", "composition", "composition_reduced", "chemsys", "symmetry", "property_name", "deprecated", "deprecation_reasons", "last_updated", "origins", "warnings", "task_ids", "uncorrected_energy_per_atom", "equilibrium_reaction_energy_per_atom", "decomposes_to", "xas", "grain_boundaries", "cbm", "vbm", "is_gap_direct", "is_metal", "es_source_calc_id", "bandstructure", "dos", "dos_energy_up", "dos_energy_down", "is_magnetic", "ordering", "total_magnetization_normalized_vol", "total_magnetization_normalized_formula_units", "num_magnetic_sites", "num_unique_magnetic_sites", "types_of_magnetic_species", "bulk_modulus", "shear_modulus", "universal_anisotropy", "homogeneous_poisson", "e_total", "e_ionic", "e_electronic", "n", "e_ij_max", "weighted_surface_energy_EV_PER_ANG2", "weighted_surface_energy", "weighted_work_function", "surface_anisotropy", "shape_factor", "has_reconstructed", "possible_species", "has_props", "theoretical", "database_IDs"]}