{"builder_meta": null, "nsites": null, "elements": null, "nelements": null, "composition": null, "composition_reduced": null, "formula_pretty": "NdRh3", "formula_anonymous": "AB3", "chemsys": null, "volume": 426.370238156317, "density": 10.584537345537411, "density_atomic": 17.76542658984654, "symmetry": null, "property_name": null, "material_id": "mp-864699", "deprecated": null, "deprecation_reasons": null, "last_updated": null, "origins": null, "warnings": null, "structure": {"@module": "pymatgen.core.structure", "@class": "Structure", "charge": 0, "lattice": {"matrix": [[2.64701546, -4.58476486, 0.0], [2.64701546, 4.58476486, -0.0], [-0.0, -0.0, 17.56642322]], "pbc": [true, true, true], "a": 5.294030569138209, "b": 5.294030569138209, "c": 17.56642322, "alpha": 90.0, "beta": 90.0, "gamma": 119.99999561528232, "volume": 426.370238156317}, "properties": {}, "sites": [{"species": [{"element": "Nd", "occu": 1}], "abc": [0.333333, 0.666667, 0.5420409900000001], "properties": {"magmom": 0.0}, "label": "Nd", "xyz": [2.64701546, 1.5282580098432401, 9.521721432927789]}, {"species": [{"element": "Nd", "occu": 1}], "abc": [0.666667, 0.333333, 0.04204099], "properties": {"magmom": 0.0}, "label": "Nd", "xyz": [2.64701546, -1.5282580098432401, 0.7385098229277879]}, {"species": [{"element": "Nd", "occu": 1}], "abc": [0.666667, 0.333333, 0.45795901], "properties": {"magmom": 0.0}, "label": "Nd", "xyz": [2.64701546, -1.5282580098432401, 8.044701787072212]}, {"species": [{"element": "Nd", "occu": 1}], "abc": [0.333333, 0.666667, 0.95795901], "properties": {"magmom": 0.0}, "label": "Nd", "xyz": [2.64701546, 1.5282580098432401, 16.827913397072216]}, {"species": [{"element": "Nd", "occu": 1}], "abc": [0.333333, 0.666667, 0.75], "properties": {"magmom": 0.0}, "label": "Nd", "xyz": [2.64701546, 1.5282580098432401, 13.174817415]}, {"species": [{"element": "Nd", "occu": 1}], "abc": [0.666667, 0.333333, 0.25], "properties": {"magmom": 0.0}, "label": "Nd", "xyz": [2.64701546, -1.5282580098432401, 4.391605805]}, {"species": [{"element": "Rh", "occu": 1}], "abc": [0.16663168, 0.33326235, 0.12798608], "properties": {"magmom": -0.0}, "label": "Rh", "xyz": [1.3232272257717037, 0.7639624404142562, 2.248257647548778]}, {"species": [{"element": "Rh", "occu": 1}], "abc": [0.83336832, 0.66673765, 0.62798608], "properties": {"magmom": -0.0}, "label": "Rh", "xyz": [3.9708036942282963, -0.7639624404142564, 11.031469257548778]}, {"species": [{"element": "Rh", "occu": 1}], "abc": [0.66673765, 0.83336832, 0.12798608], "properties": {"magmom": -0.0}, "label": "Rh", "xyz": [3.9708036942282963, 0.7639624404142564, 2.248257647548778]}, {"species": [{"element": "Rh", "occu": 1}], "abc": [0.16663168, 0.83336832, 0.12798608], "properties": {"magmom": -0.0}, "label": "Rh", "xyz": [2.6470154600000004, 3.056830717946471, 2.248257647548778]}, {"species": [{"element": "Rh", "occu": 1}], "abc": [0.83336832, 0.16663168, 0.62798608], "properties": {"magmom": -0.0}, "label": "Rh", "xyz": [2.6470154600000004, -3.056830717946471, 11.031469257548778]}, {"species": [{"element": "Rh", "occu": 1}], "abc": [0.33326235, 0.16663168, 0.62798608], "properties": {"magmom": -0.0}, "label": "Rh", "xyz": [1.3232272257717037, -0.7639624404142562, 11.031469257548778]}, {"species": [{"element": "Rh", "occu": 1}], "abc": [0.83336832, 0.66673765, 0.87201392], "properties": {"magmom": -0.0}, "label": "Rh", "xyz": [3.9708036942282963, -0.7639624404142564, 15.318165572451223]}, {"species": [{"element": "Rh", "occu": 1}], "abc": [0.83336832, 0.16663168, 0.87201392], "properties": {"magmom": -0.0}, "label": "Rh", "xyz": [2.6470154600000004, -3.056830717946471, 15.318165572451223]}, {"species": [{"element": "Rh", "occu": 1}], "abc": [0.33326235, 0.16663168, 0.87201392], "properties": {"magmom": -0.0}, "label": "Rh", "xyz": [1.3232272257717037, -0.7639624404142562, 15.318165572451223]}, {"species": [{"element": "Rh", "occu": 1}], "abc": [0.66673765, 0.83336832, 0.37201392], "properties": {"magmom": -0.0}, "label": "Rh", "xyz": [3.9708036942282963, 0.7639624404142564, 6.5349539624512225]}, {"species": [{"element": "Rh", "occu": 1}], "abc": [0.16663168, 0.83336832, 0.37201392], "properties": {"magmom": -0.0}, "label": "Rh", "xyz": [2.6470154600000004, 3.056830717946471, 6.5349539624512225]}, {"species": [{"element": "Rh", "occu": 1}], "abc": [0.16663168, 0.33326235, 0.37201392], "properties": {"magmom": -0.0}, "label": "Rh", "xyz": [1.3232272257717037, 0.7639624404142562, 6.5349539624512225]}, {"species": [{"element": "Rh", "occu": 1}], "abc": [0.0, 0.0, 0.25], "properties": {"magmom": 0.0}, "label": "Rh", "xyz": [0.0, 0.0, 4.391605805]}, {"species": [{"element": "Rh", "occu": 1}], "abc": [0.0, 0.0, 0.75], "properties": {"magmom": 0.0}, "label": "Rh", "xyz": [0.0, 0.0, 13.174817415]}, {"species": [{"element": "Rh", "occu": 1}], "abc": [0.333333, 0.666667, 0.25], "properties": {"magmom": 0.0}, "label": "Rh", "xyz": [2.64701546, 1.5282580098432401, 4.391605805]}, {"species": [{"element": "Rh", "occu": 1}], "abc": [0.666667, 0.333333, 0.75], "properties": {"magmom": 0.0}, "label": "Rh", "xyz": [2.64701546, -1.5282580098432401, 13.174817415]}, {"species": [{"element": "Rh", "occu": 1}], "abc": [-0.0, 0.0, -0.0], "properties": {"magmom": -0.0}, "label": "Rh", "xyz": [0.0, 0.0, 0.0]}, {"species": [{"element": "Rh", "occu": 1}], "abc": [0.0, 0.0, 0.5], "properties": {"magmom": -0.0}, "label": "Rh", "xyz": [0.0, 0.0, 8.78321161]}]}, "task_ids": null, "uncorrected_energy_per_atom": null, "energy_per_atom": -7.218782036666667, "formation_energy_per_atom": -0.503514276041665, "energy_above_hull": 0.0, "is_stable": true, "equilibrium_reaction_energy_per_atom": null, "decomposes_to": null, "xas": null, "grain_boundaries": null, "band_gap": 0.0, "cbm": null, "vbm": null, "efermi": 5.42049047, "is_gap_direct": null, "is_metal": null, "es_source_calc_id": null, "bandstructure": null, "dos": null, "dos_energy_up": null, "dos_energy_down": null, "is_magnetic": null, "ordering": null, "total_magnetization": 1e-07, "total_magnetization_normalized_vol": null, "total_magnetization_normalized_formula_units": null, "num_magnetic_sites": null, "num_unique_magnetic_sites": null, "types_of_magnetic_species": null, "bulk_modulus": null, "shear_modulus": null, "universal_anisotropy": null, "homogeneous_poisson": null, "e_total": null, "e_ionic": null, "e_electronic": null, "n": null, "e_ij_max": null, "weighted_surface_energy_EV_PER_ANG2": null, "weighted_surface_energy": null, "weighted_work_function": null, "surface_anisotropy": null, "shape_factor": null, "has_reconstructed": null, "possible_species": null, "has_props": null, "theoretical": null, "database_IDs": null, "fields_not_requested": ["builder_meta", "nsites", "elements", "nelements", "composition", "composition_reduced", "chemsys", "symmetry", "property_name", "deprecated", "deprecation_reasons", "last_updated", "origins", "warnings", "task_ids", "uncorrected_energy_per_atom", "equilibrium_reaction_energy_per_atom", "decomposes_to", "xas", "grain_boundaries", "cbm", "vbm", "is_gap_direct", "is_metal", "es_source_calc_id", "bandstructure", "dos", "dos_energy_up", "dos_energy_down", "is_magnetic", "ordering", "total_magnetization_normalized_vol", "total_magnetization_normalized_formula_units", "num_magnetic_sites", "num_unique_magnetic_sites", "types_of_magnetic_species", "bulk_modulus", "shear_modulus", "universal_anisotropy", "homogeneous_poisson", "e_total", "e_ionic", "e_electronic", "n", "e_ij_max", "weighted_surface_energy_EV_PER_ANG2", "weighted_surface_energy", "weighted_work_function", "surface_anisotropy", "shape_factor", "has_reconstructed", "possible_species", "has_props", "theoretical", "database_IDs"]}