{"builder_meta": null, "nsites": null, "elements": null, "nelements": null, "composition": null, "composition_reduced": null, "formula_pretty": "NdRu2", "formula_anonymous": "AB2", "chemsys": null, "volume": 221.58680294980076, "density": 10.382944025729639, "density_atomic": 18.465566912483396, "symmetry": null, "property_name": null, "material_id": "mp-1102217", "deprecated": null, "deprecation_reasons": null, "last_updated": null, "origins": null, "warnings": null, "structure": {"@module": "pymatgen.core.structure", "@class": "Structure", "charge": 0, "lattice": {"matrix": [[-2.64677138, -4.58438756, 3.0590000000000004e-05], [-2.64677138, 4.58438756, -3.058e-05], [1.02e-06, 6.178000000000001e-05, -9.1309537]], "pbc": [true, true, true], "a": 5.293581777889674, "b": 5.293581777889616, "c": 9.130953700209059, "alpha": 89.99933648665129, "beta": 90.00067002193117, "gamma": 120.00048764706719, "volume": 221.58680294980076}, "properties": {}, "sites": [{"species": [{"element": "Nd", "occu": 1}], "abc": [0.6666798700000001, 0.33332013, 0.56751844], "properties": {"magmom": -0.0}, "label": "Nd", "xyz": [-2.6467708011311912, -1.5282151837716111, -5.181974398728579]}, {"species": [{"element": "Nd", "occu": 1}], "abc": [0.33332148, 0.66667852, 0.43245739], "properties": {"magmom": 0.0}, "label": "Nd", "xyz": [-2.646770938893462, 1.5282645844319767, -3.948758596037911]}, {"species": [{"element": "Nd", "occu": 1}], "abc": [0.33331878, 0.66668122, 0.06746231], "properties": {"magmom": 0.0}, "label": "Nd", "xyz": [-2.646771311188444, 1.5282667907287577, -0.6160054199952743]}, {"species": [{"element": "Nd", "occu": 1}], "abc": [0.66667966, 0.33332034, 0.9325671400000001], "properties": {"magmom": -0.0}, "label": "Nd", "xyz": [-2.6467704287815175, -1.5281907056201498, -8.515217176686615]}, {"species": [{"element": "Ru", "occu": 1}], "abc": [1.29e-06, -2.29e-06, 0.49990549], "properties": {"magmom": -0.0}, "label": "Ru", "xyz": [3.1566749798000003e-06, 1.4472053707400008e-05, -4.564613883456324]}, {"species": [{"element": "Ru", "occu": 1}], "abc": [1.4e-06, -1.4e-06, 9.236000000000003e-05], "properties": {"magmom": -0.0}, "label": "Ru", "xyz": [9.420720000000003e-11, -1.2830579167199999e-05, -0.0008433347980940002]}, {"species": [{"element": "Ru", "occu": 1}], "abc": [0.16907467, 0.33808818, 0.75020958], "properties": {"magmom": 0.0}, "label": "Ru", "xyz": [-1.3423433511654614, 0.7748697806637879, -6.850134107018835]}, {"species": [{"element": "Ru", "occu": 1}], "abc": [0.16898231, 0.83101769, 0.7502085900000001], "properties": {"magmom": 0.0}, "label": "Ru", "xyz": [-2.6467706147872385, 3.035073108238563, -6.8501401439843805]}, {"species": [{"element": "Ru", "occu": 1}], "abc": [0.66191182, 0.83092533, 0.75020958], "properties": {"magmom": 0.0}, "label": "Ru", "xyz": [-3.9511978784069957, 0.774869780663788, -6.850134102090464]}, {"species": [{"element": "Ru", "occu": 1}], "abc": [0.83090301, 0.66186676, 0.24979028], "properties": {"magmom": -0.0}, "label": "Ru", "xyz": [-3.951020049379097, -0.7749122496455512, -2.2808183039524805]}, {"species": [{"element": "Ru", "occu": 1}], "abc": [0.83099045, 0.16900955, 0.24978957000000002], "properties": {"magmom": -0.0}, "label": "Ru", "xyz": [-2.646771125214639, -3.0347615709179694, -2.2807967467270824]}, {"species": [{"element": "Ru", "occu": 1}], "abc": [0.33813324, 0.16909699, 0.24979028], "properties": {"magmom": -0.0}, "label": "Ru", "xyz": [-1.3425222010487319, -0.7749122496455516, -2.2808183088801783]}]}, "task_ids": null, "uncorrected_energy_per_atom": null, "energy_per_atom": -26.922123019166666, "formation_energy_per_atom": -0.166429828333335, "energy_above_hull": 0.0, "is_stable": true, "equilibrium_reaction_energy_per_atom": null, "decomposes_to": null, "xas": null, "grain_boundaries": null, "band_gap": 0.0, "cbm": null, "vbm": null, "efermi": 5.94034893, "is_gap_direct": null, "is_metal": null, "es_source_calc_id": null, "bandstructure": null, "dos": null, "dos_energy_up": null, "dos_energy_down": null, "is_magnetic": null, "ordering": null, "total_magnetization": 8.83e-05, "total_magnetization_normalized_vol": null, "total_magnetization_normalized_formula_units": null, "num_magnetic_sites": null, "num_unique_magnetic_sites": null, "types_of_magnetic_species": null, "bulk_modulus": null, "shear_modulus": null, "universal_anisotropy": null, "homogeneous_poisson": null, "e_total": null, "e_ionic": null, "e_electronic": null, "n": null, "e_ij_max": null, "weighted_surface_energy_EV_PER_ANG2": null, "weighted_surface_energy": null, "weighted_work_function": null, "surface_anisotropy": null, "shape_factor": null, "has_reconstructed": null, "possible_species": null, "has_props": null, "theoretical": null, "database_IDs": null, "fields_not_requested": ["builder_meta", "nsites", "elements", "nelements", "composition", "composition_reduced", "chemsys", "symmetry", "property_name", "deprecated", "deprecation_reasons", "last_updated", "origins", "warnings", "task_ids", "uncorrected_energy_per_atom", "equilibrium_reaction_energy_per_atom", "decomposes_to", "xas", "grain_boundaries", "cbm", "vbm", "is_gap_direct", "is_metal", "es_source_calc_id", "bandstructure", "dos", "dos_energy_up", "dos_energy_down", "is_magnetic", "ordering", "total_magnetization_normalized_vol", "total_magnetization_normalized_formula_units", "num_magnetic_sites", "num_unique_magnetic_sites", "types_of_magnetic_species", "bulk_modulus", "shear_modulus", "universal_anisotropy", "homogeneous_poisson", "e_total", "e_ionic", "e_electronic", "n", "e_ij_max", "weighted_surface_energy_EV_PER_ANG2", "weighted_surface_energy", "weighted_work_function", "surface_anisotropy", "shape_factor", "has_reconstructed", "possible_species", "has_props", "theoretical", "database_IDs"]}