{"builder_meta": null, "nsites": null, "elements": null, "nelements": null, "composition": null, "composition_reduced": null, "formula_pretty": "NdS2", "formula_anonymous": "AB2", "chemsys": null, "volume": 265.8331522857484, "density": 5.206421297124649, "density_atomic": 22.152762690479033, "symmetry": null, "property_name": null, "material_id": "mp-13568", "deprecated": null, "deprecation_reasons": null, "last_updated": null, "origins": null, "warnings": null, "structure": {"@module": "pymatgen.core.structure", "@class": "Structure", "charge": 0, "lattice": {"matrix": [[4.05281761, 0.0, 0.0], [0.0, 8.07084351, -0.0035380200000000002], [0.0, -0.00362456, 8.12705577]], "pbc": [true, true, true], "a": 4.05281761, "b": 8.070844285481826, "c": 8.127056578253008, "alpha": 90.05066994250963, "beta": 90.0, "gamma": 90.0, "volume": 265.8331522857484}, "properties": {}, "sites": [{"species": [{"element": "Nd", "occu": 1}], "abc": [0.71052925, 0.62949433, 0.27586964], "properties": {"magmom": 0.0}, "label": "Nd", "xyz": [2.8796454568200924, 5.079550321799939, 2.2397807860003964]}, {"species": [{"element": "Nd", "occu": 1}], "abc": [0.21052925, 0.87050567, 0.72413036], "properties": {"magmom": 0.0}, "label": "Nd", "xyz": [0.8532366518200925, 7.02309038320006, 5.881967953999604]}, {"species": [{"element": "Nd", "occu": 1}], "abc": [0.28947075, 0.37050567, 0.72413036], "properties": {"magmom": 0.0}, "label": "Nd", "xyz": [1.1731721531799075, 2.9876686282000597, 5.8837369639996036]}, {"species": [{"element": "Nd", "occu": 1}], "abc": [0.78947075, 0.12949433, 0.27586964], "properties": {"magmom": 0.0}, "label": "Nd", "xyz": [3.1995809581799075, 1.0441285667999398, 2.2415497960003963]}, {"species": [{"element": "S", "occu": 1}], "abc": [0.15405153, 0.60676555, 0.00272607], "properties": {"magmom": -0.0}, "label": "S", "xyz": [0.6243427536314433, 4.897099920504801, 0.020008174271712902]}, {"species": [{"element": "S", "occu": 1}], "abc": [0.65405153, 0.89323445, 0.99727393], "properties": {"magmom": -0.0}, "label": "S", "xyz": [2.6507515586314434, 7.205540784495199, 8.101740565728287]}, {"species": [{"element": "S", "occu": 1}], "abc": [0.8459484700000001, 0.39323445, 0.99727393], "properties": {"magmom": -0.0}, "label": "S", "xyz": [3.428474856368557, 3.170119029495199, 8.103509575728287]}, {"species": [{"element": "S", "occu": 1}], "abc": [0.34594847, 0.10676555, 0.00272607], "properties": {"magmom": -0.0}, "label": "S", "xyz": [1.4020660513685568, 0.8616781655048013, 0.0217771842717129]}, {"species": [{"element": "S", "occu": 1}], "abc": [0.76115898, 0.12555441, 0.63284437], "properties": {"magmom": -0.0}, "label": "S", "xyz": [3.0848385181536377, 1.011036212710652, 5.142717274706848]}, {"species": [{"element": "S", "occu": 1}], "abc": [0.26115898, 0.37444559, 0.36715563], "properties": {"magmom": -0.0}, "label": "S", "xyz": [1.0584297131536378, 3.0207609822893478, 2.9825694852931535]}, {"species": [{"element": "S", "occu": 1}], "abc": [0.23884102000000001, 0.87444559, 0.36715563], "properties": {"magmom": -0.0}, "label": "S", "xyz": [0.9679790918463622, 7.056182737289348, 2.9808004752931536]}, {"species": [{"element": "S", "occu": 1}], "abc": [0.7388410200000001, 0.62555441, 0.63284437], "properties": {"magmom": -0.0}, "label": "S", "xyz": [2.9943878968463626, 5.046457967710651, 5.140948264706847]}]}, "task_ids": null, "uncorrected_energy_per_atom": null, "energy_per_atom": -17.177963535, "formation_energy_per_atom": -2.015294486041666, "energy_above_hull": 0.0, "is_stable": true, "equilibrium_reaction_energy_per_atom": null, "decomposes_to": null, "xas": null, "grain_boundaries": null, "band_gap": 0.33790000000000003, "cbm": null, "vbm": null, "efermi": 4.88225067, "is_gap_direct": null, "is_metal": null, "es_source_calc_id": null, "bandstructure": null, "dos": null, "dos_energy_up": null, "dos_energy_down": null, "is_magnetic": null, "ordering": null, "total_magnetization": 0.0, "total_magnetization_normalized_vol": null, "total_magnetization_normalized_formula_units": null, "num_magnetic_sites": null, "num_unique_magnetic_sites": null, "types_of_magnetic_species": null, "bulk_modulus": null, "shear_modulus": null, "universal_anisotropy": null, "homogeneous_poisson": null, "e_total": null, "e_ionic": null, "e_electronic": null, "n": null, "e_ij_max": null, "weighted_surface_energy_EV_PER_ANG2": null, "weighted_surface_energy": null, "weighted_work_function": null, "surface_anisotropy": null, "shape_factor": null, "has_reconstructed": null, "possible_species": null, "has_props": null, "theoretical": null, "database_IDs": null, "fields_not_requested": ["builder_meta", "nsites", "elements", "nelements", "composition", "composition_reduced", "chemsys", "symmetry", "property_name", "deprecated", "deprecation_reasons", "last_updated", "origins", "warnings", "task_ids", "uncorrected_energy_per_atom", "equilibrium_reaction_energy_per_atom", "decomposes_to", "xas", "grain_boundaries", "cbm", "vbm", "is_gap_direct", "is_metal", "es_source_calc_id", "bandstructure", "dos", "dos_energy_up", "dos_energy_down", "is_magnetic", "ordering", "total_magnetization_normalized_vol", "total_magnetization_normalized_formula_units", "num_magnetic_sites", "num_unique_magnetic_sites", "types_of_magnetic_species", "bulk_modulus", "shear_modulus", "universal_anisotropy", "homogeneous_poisson", "e_total", "e_ionic", "e_electronic", "n", "e_ij_max", "weighted_surface_energy_EV_PER_ANG2", "weighted_surface_energy", "weighted_work_function", "surface_anisotropy", "shape_factor", "has_reconstructed", "possible_species", "has_props", "theoretical", "database_IDs"]}