{
  "builder_meta": null,
  "nsites": null,
  "elements": null,
  "nelements": null,
  "composition": null,
  "composition_reduced": null,
  "formula_pretty": "NdS3",
  "formula_anonymous": "AB3",
  "chemsys": null,
  "volume": 162.35641756630903,
  "density": 4.918253772051133,
  "density_atomic": 20.29455219578863,
  "symmetry": null,
  "property_name": null,
  "material_id": "mp-976249",
  "deprecated": null,
  "deprecation_reasons": null,
  "last_updated": null,
  "origins": null,
  "warnings": null,
  "structure": {
    "@module": "pymatgen.core.structure",
    "@class": "Structure",
    "charge": 0,
    "lattice": {
      "matrix": [
        [2.876675, -4.9825479999999995, 0.0],
        [2.876675, 4.9825479999999995, 0.0],
        [0.0, 0.0, 5.66366]
      ],
      "pbc": [true, true, true],
      "a": 5.7533506435753585,
      "b": 5.7533506435753585,
      "c": 5.66366,
      "alpha": 90.0,
      "beta": 90.0,
      "gamma": 120.00000740066179,
      "volume": 162.35641756630903
    },
    "properties": {},
    "sites": [
      {
        "species": [{ "element": "Nd", "occu": 1 }],
        "abc": [0.666667, 0.333333, 0.25],
        "properties": { "magmom": 0.0 },
        "label": "Nd",
        "xyz": [2.876675, -1.6608526550319997, 1.415915]
      },
      {
        "species": [{ "element": "Nd", "occu": 1 }],
        "abc": [0.333333, 0.666667, 0.75],
        "properties": { "magmom": 0.0 },
        "label": "Nd",
        "xyz": [2.876675, 1.6608526550319997, 4.247745]
      },
      {
        "species": [{ "element": "S", "occu": 1 }],
        "abc": [0.823743, 0.176257, 0.75],
        "properties": { "magmom": -0.0 },
        "label": "S",
        "xyz": [2.8766750000000005, -3.2261300743279993, 4.247745]
      },
      {
        "species": [{ "element": "S", "occu": 1 }],
        "abc": [0.352514, 0.176257, 0.75],
        "properties": { "magmom": -0.0 },
        "label": "S",
        "xyz": [1.5211023164250002, -0.8782089628359999, 4.247745]
      },
      {
        "species": [{ "element": "S", "occu": 1 }],
        "abc": [0.823743, 0.647486, 0.75],
        "properties": { "magmom": -0.0 },
        "label": "S",
        "xyz": [4.232247683575, -0.8782089628359997, 4.247745]
      },
      {
        "species": [{ "element": "S", "occu": 1 }],
        "abc": [0.176257, 0.823743, 0.25],
        "properties": { "magmom": -0.0 },
        "label": "S",
        "xyz": [2.8766750000000005, 3.2261300743279993, 1.415915]
      },
      {
        "species": [{ "element": "S", "occu": 1 }],
        "abc": [0.647486, 0.823743, 0.25],
        "properties": { "magmom": -0.0 },
        "label": "S",
        "xyz": [4.232247683575, 0.8782089628359997, 1.415915]
      },
      {
        "species": [{ "element": "S", "occu": 1 }],
        "abc": [0.176257, 0.352514, 0.25],
        "properties": { "magmom": -0.0 },
        "label": "S",
        "xyz": [1.5211023164250002, 0.8782089628359999, 1.415915]
      }
    ]
  },
  "task_ids": null,
  "uncorrected_energy_per_atom": null,
  "energy_per_atom": -14.524034700703123,
  "formation_energy_per_atom": -1.143283143437496,
  "energy_above_hull": 0.36818772109375003,
  "is_stable": false,
  "equilibrium_reaction_energy_per_atom": null,
  "decomposes_to": null,
  "xas": null,
  "grain_boundaries": null,
  "band_gap": 0.0,
  "cbm": null,
  "vbm": null,
  "efermi": 5.47562255,
  "is_gap_direct": null,
  "is_metal": null,
  "es_source_calc_id": null,
  "bandstructure": null,
  "dos": null,
  "dos_energy_up": null,
  "dos_energy_down": null,
  "is_magnetic": null,
  "ordering": null,
  "total_magnetization": 0.0001746,
  "total_magnetization_normalized_vol": null,
  "total_magnetization_normalized_formula_units": null,
  "num_magnetic_sites": null,
  "num_unique_magnetic_sites": null,
  "types_of_magnetic_species": null,
  "bulk_modulus": null,
  "shear_modulus": null,
  "universal_anisotropy": null,
  "homogeneous_poisson": null,
  "e_total": null,
  "e_ionic": null,
  "e_electronic": null,
  "n": null,
  "e_ij_max": null,
  "weighted_surface_energy_EV_PER_ANG2": null,
  "weighted_surface_energy": null,
  "weighted_work_function": null,
  "surface_anisotropy": null,
  "shape_factor": null,
  "has_reconstructed": null,
  "possible_species": null,
  "has_props": null,
  "theoretical": null,
  "database_IDs": null,
  "fields_not_requested": [
    "builder_meta",
    "nsites",
    "elements",
    "nelements",
    "composition",
    "composition_reduced",
    "chemsys",
    "symmetry",
    "property_name",
    "deprecated",
    "deprecation_reasons",
    "last_updated",
    "origins",
    "warnings",
    "task_ids",
    "uncorrected_energy_per_atom",
    "equilibrium_reaction_energy_per_atom",
    "decomposes_to",
    "xas",
    "grain_boundaries",
    "cbm",
    "vbm",
    "is_gap_direct",
    "is_metal",
    "es_source_calc_id",
    "bandstructure",
    "dos",
    "dos_energy_up",
    "dos_energy_down",
    "is_magnetic",
    "ordering",
    "total_magnetization_normalized_vol",
    "total_magnetization_normalized_formula_units",
    "num_magnetic_sites",
    "num_unique_magnetic_sites",
    "types_of_magnetic_species",
    "bulk_modulus",
    "shear_modulus",
    "universal_anisotropy",
    "homogeneous_poisson",
    "e_total",
    "e_ionic",
    "e_electronic",
    "n",
    "e_ij_max",
    "weighted_surface_energy_EV_PER_ANG2",
    "weighted_surface_energy",
    "weighted_work_function",
    "surface_anisotropy",
    "shape_factor",
    "has_reconstructed",
    "possible_species",
    "has_props",
    "theoretical",
    "database_IDs"
  ]
}
