{
  "builder_meta": null,
  "nsites": null,
  "elements": null,
  "nelements": null,
  "composition": null,
  "composition_reduced": null,
  "formula_pretty": "NdSb2",
  "formula_anonymous": "AB2",
  "chemsys": null,
  "volume": 356.99159185276426,
  "density": 7.214667955636484,
  "density_atomic": 29.74929932106369,
  "symmetry": null,
  "property_name": null,
  "material_id": "mp-1102139",
  "deprecated": null,
  "deprecation_reasons": null,
  "last_updated": null,
  "origins": null,
  "warnings": null,
  "structure": {
    "@module": "pymatgen.core.structure",
    "@class": "Structure",
    "charge": 0,
    "lattice": {
      "matrix": [
        [3.06151179, -3.14080658, -0.0],
        [3.06151179, 3.14080658, -0.0],
        [-0.0, 0.0, 18.56311535]
      ],
      "pbc": [true, true, true],
      "a": 4.38605978222827,
      "b": 4.38605978222827,
      "c": 18.56311535,
      "alpha": 90.0,
      "beta": 90.0,
      "gamma": 91.46493908502755,
      "volume": 356.99159185276426
    },
    "properties": {},
    "sites": [
      {
        "species": [{ "element": "Nd", "occu": 1 }],
        "abc": [0.36140518, 0.36140518, 0.88830078],
        "properties": { "magmom": 0.0 },
        "label": "Nd",
        "xyz": [2.2128924390741442, 0.0, 16.489629844634972]
      },
      {
        "species": [{ "element": "Nd", "occu": 1 }],
        "abc": [0.63859482, 0.63859482, 0.11169922],
        "properties": { "magmom": 0.0 },
        "label": "Nd",
        "xyz": [3.9101311409258557, 0.0, 2.073485505365027]
      },
      {
        "species": [{ "element": "Nd", "occu": 1 }],
        "abc": [0.13859482, 0.13859482, 0.38830078],
        "properties": { "magmom": 0.0 },
        "label": "Nd",
        "xyz": [0.8486193509258556, 0.0, 7.208072169634973]
      },
      {
        "species": [{ "element": "Nd", "occu": 1 }],
        "abc": [0.86140518, 0.86140518, 0.61169922],
        "properties": { "magmom": 0.0 },
        "label": "Nd",
        "xyz": [5.274404229074144, 0.0, 11.355043180365026]
      },
      {
        "species": [{ "element": "Sb", "occu": 1 }],
        "abc": [0.36668528, 0.36668528, 0.56194563],
        "properties": { "magmom": 0.0 },
        "label": "Sb",
        "xyz": [2.2452226158789026, 0.0, 10.43146155011842]
      },
      {
        "species": [{ "element": "Sb", "occu": 1 }],
        "abc": [0.63331472, 0.63331472, 0.43805437],
        "properties": { "magmom": 0.0 },
        "label": "Sb",
        "xyz": [3.8778009641210973, 0.0, 8.13165379988158]
      },
      {
        "species": [{ "element": "Sb", "occu": 1 }],
        "abc": [0.13331472, 0.13331472, 0.06194563],
        "properties": { "magmom": 0.0 },
        "label": "Sb",
        "xyz": [0.8162891741210976, 0.0, 1.1499038751184205]
      },
      {
        "species": [{ "element": "Sb", "occu": 1 }],
        "abc": [0.86668528, 0.86668528, 0.93805437],
        "properties": { "magmom": 0.0 },
        "label": "Sb",
        "xyz": [5.3067344058789025, 0.0, 17.41321147488158]
      },
      {
        "species": [{ "element": "Sb", "occu": 1 }],
        "abc": [0.37668131, 0.87668131, 0.75],
        "properties": { "magmom": -0.0 },
        "label": "Sb",
        "xyz": [3.8371844382752895, 1.5704032900000002, 13.9223365125]
      },
      {
        "species": [{ "element": "Sb", "occu": 1 }],
        "abc": [0.12331869000000001, 0.6233186900000001, 0.25],
        "properties": { "magmom": -0.0 },
        "label": "Sb",
        "xyz": [2.2858391417247104, 1.5704032900000002, 4.6407788375]
      },
      {
        "species": [{ "element": "Sb", "occu": 1 }],
        "abc": [0.6233186900000001, 0.12331869000000001, 0.25],
        "properties": { "magmom": -0.0 },
        "label": "Sb",
        "xyz": [2.2858391417247104, -1.5704032900000002, 4.6407788375]
      },
      {
        "species": [{ "element": "Sb", "occu": 1 }],
        "abc": [0.87668131, 0.37668131, 0.75],
        "properties": { "magmom": -0.0 },
        "label": "Sb",
        "xyz": [3.8371844382752895, -1.5704032900000002, 13.9223365125]
      }
    ]
  },
  "task_ids": null,
  "uncorrected_energy_per_atom": null,
  "energy_per_atom": -27.883163631666665,
  "formation_energy_per_atom": -0.9396168175,
  "energy_above_hull": 0.015535771666669002,
  "is_stable": false,
  "equilibrium_reaction_energy_per_atom": null,
  "decomposes_to": null,
  "xas": null,
  "grain_boundaries": null,
  "band_gap": 0.0,
  "cbm": null,
  "vbm": null,
  "efermi": 6.08147246,
  "is_gap_direct": null,
  "is_metal": null,
  "es_source_calc_id": null,
  "bandstructure": null,
  "dos": null,
  "dos_energy_up": null,
  "dos_energy_down": null,
  "is_magnetic": null,
  "ordering": null,
  "total_magnetization": 0.0,
  "total_magnetization_normalized_vol": null,
  "total_magnetization_normalized_formula_units": null,
  "num_magnetic_sites": null,
  "num_unique_magnetic_sites": null,
  "types_of_magnetic_species": null,
  "bulk_modulus": null,
  "shear_modulus": null,
  "universal_anisotropy": null,
  "homogeneous_poisson": null,
  "e_total": null,
  "e_ionic": null,
  "e_electronic": null,
  "n": null,
  "e_ij_max": null,
  "weighted_surface_energy_EV_PER_ANG2": null,
  "weighted_surface_energy": null,
  "weighted_work_function": null,
  "surface_anisotropy": null,
  "shape_factor": null,
  "has_reconstructed": null,
  "possible_species": null,
  "has_props": null,
  "theoretical": null,
  "database_IDs": null,
  "fields_not_requested": [
    "builder_meta",
    "nsites",
    "elements",
    "nelements",
    "composition",
    "composition_reduced",
    "chemsys",
    "symmetry",
    "property_name",
    "deprecated",
    "deprecation_reasons",
    "last_updated",
    "origins",
    "warnings",
    "task_ids",
    "uncorrected_energy_per_atom",
    "equilibrium_reaction_energy_per_atom",
    "decomposes_to",
    "xas",
    "grain_boundaries",
    "cbm",
    "vbm",
    "is_gap_direct",
    "is_metal",
    "es_source_calc_id",
    "bandstructure",
    "dos",
    "dos_energy_up",
    "dos_energy_down",
    "is_magnetic",
    "ordering",
    "total_magnetization_normalized_vol",
    "total_magnetization_normalized_formula_units",
    "num_magnetic_sites",
    "num_unique_magnetic_sites",
    "types_of_magnetic_species",
    "bulk_modulus",
    "shear_modulus",
    "universal_anisotropy",
    "homogeneous_poisson",
    "e_total",
    "e_ionic",
    "e_electronic",
    "n",
    "e_ij_max",
    "weighted_surface_energy_EV_PER_ANG2",
    "weighted_surface_energy",
    "weighted_work_function",
    "surface_anisotropy",
    "shape_factor",
    "has_reconstructed",
    "possible_species",
    "has_props",
    "theoretical",
    "database_IDs"
  ]
}
