{
  "builder_meta": null,
  "nsites": null,
  "elements": null,
  "nelements": null,
  "composition": null,
  "composition_reduced": null,
  "formula_pretty": "NdSe2",
  "formula_anonymous": "AB2",
  "chemsys": null,
  "volume": 301.7610993907133,
  "density": 6.6509806128765785,
  "density_atomic": 25.146758282559443,
  "symmetry": null,
  "property_name": null,
  "material_id": "mp-570707",
  "deprecated": null,
  "deprecation_reasons": null,
  "last_updated": null,
  "origins": null,
  "warnings": null,
  "structure": {
    "@module": "pymatgen.core.structure",
    "@class": "Structure",
    "charge": 0,
    "lattice": {
      "matrix": [
        [4.19823149, 0.0, 0.0],
        [0.0, 8.43314835, 0.01218458],
        [0.0, 0.010603920000000001, 8.52330269]
      ],
      "pbc": [true, true, true],
      "a": 4.19823149,
      "b": 8.433157152401318,
      "c": 8.523309286215103,
      "alpha": 89.84593444572927,
      "beta": 90.0,
      "gamma": 90.0,
      "volume": 301.7610993907133
    },
    "properties": {},
    "sites": [
      {
        "species": [{ "element": "Nd", "occu": 1 }],
        "abc": [0.27912128, 0.37325823, 0.27489643],
        "properties": { "magmom": 0.0 },
        "label": "Nd",
        "xyz": [1.1718157472251074, 3.150657006200426, 2.34757347605449]
      },
      {
        "species": [{ "element": "Nd", "occu": 1 }],
        "abc": [0.72087872, 0.62674177, 0.72510357],
        "properties": { "magmom": 0.0 },
        "label": "Nd",
        "xyz": [3.026415742774893, 5.293095263799573, 6.18791379394551]
      },
      {
        "species": [{ "element": "Nd", "occu": 1 }],
        "abc": [0.22087872, 0.87325823, 0.27489643],
        "properties": { "magmom": 0.0 },
        "label": "Nd",
        "xyz": [0.9272999977748929, 7.367231181200426, 2.3536657660544904]
      },
      {
        "species": [{ "element": "Nd", "occu": 1 }],
        "abc": [0.77912128, 0.12674177, 0.72510357],
        "properties": { "magmom": 0.0 },
        "label": "Nd",
        "xyz": [3.270931492225108, 1.076521088799574, 6.18182150394551]
      },
      {
        "species": [{ "element": "Se", "occu": 1 }],
        "abc": [0.18021699, 0.6173846, 0.99774061],
        "properties": { "magmom": 0.0 },
        "label": "Se",
        "xyz": [0.7565926424510151, 5.2170758824146, 8.511567797184707]
      },
      {
        "species": [{ "element": "Se", "occu": 1 }],
        "abc": [0.7565704600000001, 0.12521032, 0.36805291],
        "properties": { "magmom": -0.0 },
        "label": "Se",
        "xyz": [3.176257929575786, 1.0598200071243793, 3.1385519930261934]
      },
      {
        "species": [{ "element": "Se", "occu": 1 }],
        "abc": [0.24342954, 0.87478968, 0.63194709],
        "properties": { "magmom": -0.0 },
        "label": "Se",
        "xyz": [1.0219735604242146, 7.3839322628756205, 5.396935276973807]
      },
      {
        "species": [{ "element": "Se", "occu": 1 }],
        "abc": [0.25657046, 0.37478968, 0.63194709],
        "properties": { "magmom": -0.0 },
        "label": "Se",
        "xyz": [1.0771421845757856, 3.1673580878756207, 5.390842986973807]
      },
      {
        "species": [{ "element": "Se", "occu": 1 }],
        "abc": [0.68021699, 0.882615399999999, 0.00225939],
        "properties": { "magmom": 0.0 },
        "label": "Se",
        "xyz": [2.8557083874510156, 7.443250562585391, 0.03001176281529109]
      },
      {
        "species": [{ "element": "Se", "occu": 1 }],
        "abc": [0.74342954, 0.62521032, 0.36805291],
        "properties": { "magmom": -0.0 },
        "label": "Se",
        "xyz": [3.1210893054242153, 5.2763941821243785, 3.144644283026193]
      },
      {
        "species": [{ "element": "Se", "occu": 1 }],
        "abc": [0.81978301, 0.3826154, 0.00225939],
        "properties": { "magmom": 0.0 },
        "label": "Se",
        "xyz": [3.441638847548985, 3.2266763875853983, 0.0239194728152911]
      },
      {
        "species": [{ "element": "Se", "occu": 1 }],
        "abc": [0.31978301000000003, 0.117384599999999, 0.99774061],
        "properties": { "magmom": 0.0 },
        "label": "Se",
        "xyz": [1.3425231025489852, 1.0005017074145928, 8.505475507184707]
      }
    ]
  },
  "task_ids": null,
  "uncorrected_energy_per_atom": null,
  "energy_per_atom": -21.234495656666667,
  "formation_energy_per_atom": -1.887452508541666,
  "energy_above_hull": 0.000500132697915,
  "is_stable": false,
  "equilibrium_reaction_energy_per_atom": null,
  "decomposes_to": null,
  "xas": null,
  "grain_boundaries": null,
  "band_gap": 0.0,
  "cbm": null,
  "vbm": null,
  "efermi": 4.4102579,
  "is_gap_direct": null,
  "is_metal": null,
  "es_source_calc_id": null,
  "bandstructure": null,
  "dos": null,
  "dos_energy_up": null,
  "dos_energy_down": null,
  "is_magnetic": null,
  "ordering": null,
  "total_magnetization": 0.0,
  "total_magnetization_normalized_vol": null,
  "total_magnetization_normalized_formula_units": null,
  "num_magnetic_sites": null,
  "num_unique_magnetic_sites": null,
  "types_of_magnetic_species": null,
  "bulk_modulus": null,
  "shear_modulus": null,
  "universal_anisotropy": null,
  "homogeneous_poisson": null,
  "e_total": null,
  "e_ionic": null,
  "e_electronic": null,
  "n": null,
  "e_ij_max": null,
  "weighted_surface_energy_EV_PER_ANG2": null,
  "weighted_surface_energy": null,
  "weighted_work_function": null,
  "surface_anisotropy": null,
  "shape_factor": null,
  "has_reconstructed": null,
  "possible_species": null,
  "has_props": null,
  "theoretical": null,
  "database_IDs": null,
  "fields_not_requested": [
    "builder_meta",
    "nsites",
    "elements",
    "nelements",
    "composition",
    "composition_reduced",
    "chemsys",
    "symmetry",
    "property_name",
    "deprecated",
    "deprecation_reasons",
    "last_updated",
    "origins",
    "warnings",
    "task_ids",
    "uncorrected_energy_per_atom",
    "equilibrium_reaction_energy_per_atom",
    "decomposes_to",
    "xas",
    "grain_boundaries",
    "cbm",
    "vbm",
    "is_gap_direct",
    "is_metal",
    "es_source_calc_id",
    "bandstructure",
    "dos",
    "dos_energy_up",
    "dos_energy_down",
    "is_magnetic",
    "ordering",
    "total_magnetization_normalized_vol",
    "total_magnetization_normalized_formula_units",
    "num_magnetic_sites",
    "num_unique_magnetic_sites",
    "types_of_magnetic_species",
    "bulk_modulus",
    "shear_modulus",
    "universal_anisotropy",
    "homogeneous_poisson",
    "e_total",
    "e_ionic",
    "e_electronic",
    "n",
    "e_ij_max",
    "weighted_surface_energy_EV_PER_ANG2",
    "weighted_surface_energy",
    "weighted_work_function",
    "surface_anisotropy",
    "shape_factor",
    "has_reconstructed",
    "possible_species",
    "has_props",
    "theoretical",
    "database_IDs"
  ]
}
