{
  "builder_meta": null,
  "nsites": null,
  "elements": null,
  "nelements": null,
  "composition": null,
  "composition_reduced": null,
  "formula_pretty": "NdSi",
  "formula_anonymous": "AB",
  "chemsys": null,
  "volume": 193.4504821519993,
  "density": 5.916894965910098,
  "density_atomic": 24.181310268999912,
  "symmetry": null,
  "property_name": null,
  "material_id": "mp-9967",
  "deprecated": null,
  "deprecation_reasons": null,
  "last_updated": null,
  "origins": null,
  "warnings": null,
  "structure": {
    "@module": "pymatgen.core.structure",
    "@class": "Structure",
    "charge": 0,
    "lattice": {
      "matrix": [
        [3.93734473, 0.0, 0.0],
        [-0.0, 5.9356151, 0.0],
        [0.0, 0.0, 8.27752774]
      ],
      "pbc": [true, true, true],
      "a": 3.93734473,
      "b": 5.9356151,
      "c": 8.27752774,
      "alpha": 90.0,
      "beta": 90.0,
      "gamma": 90.0,
      "volume": 193.4504821519993
    },
    "properties": {},
    "sites": [
      {
        "species": [{ "element": "Nd", "occu": 1 }],
        "abc": [0.25, 0.38636963, 0.67926218],
        "properties": { "magmom": 0.0 },
        "label": "Nd",
        "xyz": [0.9843361825, 2.293341410009413, 5.622611537682873]
      },
      {
        "species": [{ "element": "Nd", "occu": 1 }],
        "abc": [0.75, 0.61363037, 0.32073782],
        "properties": { "magmom": 0.0 },
        "label": "Nd",
        "xyz": [2.9530085475, 3.6422736899905868, 2.6549162023171267]
      },
      {
        "species": [{ "element": "Nd", "occu": 1 }],
        "abc": [0.75, 0.88636963, 0.8207378200000001],
        "properties": { "magmom": 0.0 },
        "label": "Nd",
        "xyz": [2.9530085475, 5.261148960009413, 6.793680072317128]
      },
      {
        "species": [{ "element": "Nd", "occu": 1 }],
        "abc": [0.25, 0.11363037000000001, 0.17926218],
        "properties": { "magmom": 0.0 },
        "label": "Nd",
        "xyz": [0.9843361825, 0.674466139990587, 1.4838476676828731]
      },
      {
        "species": [{ "element": "Si", "occu": 1 }],
        "abc": [0.25, 0.87936154, 0.5349944],
        "properties": { "magmom": -0.0 },
        "label": "Si",
        "xyz": [0.9843361825, 5.219551635183254, 4.428430986744656]
      },
      {
        "species": [{ "element": "Si", "occu": 1 }],
        "abc": [0.75, 0.12063846, 0.465005599999999],
        "properties": { "magmom": -0.0 },
        "label": "Si",
        "xyz": [2.9530085475, 0.716063464816746, 3.8490967532553357]
      },
      {
        "species": [{ "element": "Si", "occu": 1 }],
        "abc": [0.75, 0.37936154, 0.965005599999999],
        "properties": { "magmom": -0.0 },
        "label": "Si",
        "xyz": [2.9530085475, 2.2517440851832538, 7.987860623255336]
      },
      {
        "species": [{ "element": "Si", "occu": 1 }],
        "abc": [0.25, 0.62063846, 0.034994399999999],
        "properties": { "magmom": -0.0 },
        "label": "Si",
        "xyz": [0.9843361825, 3.683871014816746, 0.28966711674464773]
      }
    ]
  },
  "task_ids": null,
  "uncorrected_energy_per_atom": null,
  "energy_per_atom": -19.924566525,
  "formation_energy_per_atom": -0.828679736249998,
  "energy_above_hull": 0.0,
  "is_stable": true,
  "equilibrium_reaction_energy_per_atom": null,
  "decomposes_to": null,
  "xas": null,
  "grain_boundaries": null,
  "band_gap": 0.0,
  "cbm": null,
  "vbm": null,
  "efermi": 5.17911687,
  "is_gap_direct": null,
  "is_metal": null,
  "es_source_calc_id": null,
  "bandstructure": null,
  "dos": null,
  "dos_energy_up": null,
  "dos_energy_down": null,
  "is_magnetic": null,
  "ordering": null,
  "total_magnetization": 1e-7,
  "total_magnetization_normalized_vol": null,
  "total_magnetization_normalized_formula_units": null,
  "num_magnetic_sites": null,
  "num_unique_magnetic_sites": null,
  "types_of_magnetic_species": null,
  "bulk_modulus": null,
  "shear_modulus": null,
  "universal_anisotropy": null,
  "homogeneous_poisson": null,
  "e_total": null,
  "e_ionic": null,
  "e_electronic": null,
  "n": null,
  "e_ij_max": null,
  "weighted_surface_energy_EV_PER_ANG2": null,
  "weighted_surface_energy": null,
  "weighted_work_function": null,
  "surface_anisotropy": null,
  "shape_factor": null,
  "has_reconstructed": null,
  "possible_species": null,
  "has_props": null,
  "theoretical": null,
  "database_IDs": null,
  "fields_not_requested": [
    "builder_meta",
    "nsites",
    "elements",
    "nelements",
    "composition",
    "composition_reduced",
    "chemsys",
    "symmetry",
    "property_name",
    "deprecated",
    "deprecation_reasons",
    "last_updated",
    "origins",
    "warnings",
    "task_ids",
    "uncorrected_energy_per_atom",
    "equilibrium_reaction_energy_per_atom",
    "decomposes_to",
    "xas",
    "grain_boundaries",
    "cbm",
    "vbm",
    "is_gap_direct",
    "is_metal",
    "es_source_calc_id",
    "bandstructure",
    "dos",
    "dos_energy_up",
    "dos_energy_down",
    "is_magnetic",
    "ordering",
    "total_magnetization_normalized_vol",
    "total_magnetization_normalized_formula_units",
    "num_magnetic_sites",
    "num_unique_magnetic_sites",
    "types_of_magnetic_species",
    "bulk_modulus",
    "shear_modulus",
    "universal_anisotropy",
    "homogeneous_poisson",
    "e_total",
    "e_ionic",
    "e_electronic",
    "n",
    "e_ij_max",
    "weighted_surface_energy_EV_PER_ANG2",
    "weighted_surface_energy",
    "weighted_work_function",
    "surface_anisotropy",
    "shape_factor",
    "has_reconstructed",
    "possible_species",
    "has_props",
    "theoretical",
    "database_IDs"
  ]
}
