{
  "builder_meta": null,
  "nsites": null,
  "elements": null,
  "nelements": null,
  "composition": null,
  "composition_reduced": null,
  "formula_pretty": "NdSi2",
  "formula_anonymous": "AB2",
  "chemsys": null,
  "volume": 125.14787425951897,
  "density": 5.318406212228456,
  "density_atomic": 20.857979043253163,
  "symmetry": null,
  "property_name": null,
  "material_id": "mp-884",
  "deprecated": null,
  "deprecation_reasons": null,
  "last_updated": null,
  "origins": null,
  "warnings": null,
  "structure": {
    "@module": "pymatgen.core.structure",
    "@class": "Structure",
    "charge": 0,
    "lattice": {
      "matrix": [
        [4.15089451, 9e-8, -1.20460101],
        [-0.34957703, 4.13614879, -1.20460104],
        [-0.11391297, -0.12394701, 7.36149261]
      ],
      "pbc": [true, true, true],
      "a": 4.322150949057791,
      "b": 4.322151614472954,
      "c": 7.363417173643414,
      "alpha": 107.0669151860814,
      "beta": 107.06691524711728,
      "gamma": 89.99997967446474,
      "volume": 125.14787425951899
    },
    "properties": {},
    "sites": [
      {
        "species": [{ "element": "Nd", "occu": 1 }],
        "abc": [0.875, 0.625, 0.25],
        "properties": { "magmom": 0.0 },
        "label": "Nd",
        "xyz": [3.3850688099999995, 2.55410632, 0.03347161874999993]
      },
      {
        "species": [{ "element": "Nd", "occu": 1 }],
        "abc": [0.125, 0.375, 0.75],
        "properties": { "magmom": 0.0 },
        "label": "Nd",
        "xyz": [0.3023357, 1.4580955500000001, 4.9188189412500005]
      },
      {
        "species": [{ "element": "Si", "occu": 1 }],
        "abc": [0.71154836, 0.96154836, 0.92309573],
        "properties": { "magmom": 0.0 },
        "label": "Si",
        "xyz": [2.512274385034714, 3.8626921941025696, 4.779948367131418]
      },
      {
        "species": [{ "element": "Si", "occu": 1 }],
        "abc": [0.46154836, 0.21154836, 0.42309573],
        "properties": { "magmom": 0.0 },
        "label": "Si",
        "xyz": [1.7936900150347146, 0.8225540841025694, 2.3038030946314176]
      },
      {
        "species": [{ "element": "Si", "occu": 1 }],
        "abc": [0.53845164, 0.78845164, 0.57690427],
        "properties": { "magmom": 0.0 },
        "label": "Si",
        "xyz": [1.893714494965285, 3.1896477858974306, 2.648487465368583]
      },
      {
        "species": [{ "element": "Si", "occu": 1 }],
        "abc": [0.28845164, 0.03845164, 0.07690427],
        "properties": { "magmom": 0.0 },
        "label": "Si",
        "xyz": [1.1751301249652852, 0.14950967589743053, 0.17234219286858266]
      }
    ]
  },
  "task_ids": null,
  "uncorrected_energy_per_atom": null,
  "energy_per_atom": -16.292447868333333,
  "formation_energy_per_atom": -0.637268477499998,
  "energy_above_hull": 0.0,
  "is_stable": true,
  "equilibrium_reaction_energy_per_atom": null,
  "decomposes_to": null,
  "xas": null,
  "grain_boundaries": null,
  "band_gap": 0.0,
  "cbm": null,
  "vbm": null,
  "efermi": 6.84464515,
  "is_gap_direct": null,
  "is_metal": null,
  "es_source_calc_id": null,
  "bandstructure": null,
  "dos": null,
  "dos_energy_up": null,
  "dos_energy_down": null,
  "is_magnetic": null,
  "ordering": null,
  "total_magnetization": 0.0,
  "total_magnetization_normalized_vol": null,
  "total_magnetization_normalized_formula_units": null,
  "num_magnetic_sites": null,
  "num_unique_magnetic_sites": null,
  "types_of_magnetic_species": null,
  "bulk_modulus": null,
  "shear_modulus": null,
  "universal_anisotropy": null,
  "homogeneous_poisson": null,
  "e_total": null,
  "e_ionic": null,
  "e_electronic": null,
  "n": null,
  "e_ij_max": null,
  "weighted_surface_energy_EV_PER_ANG2": null,
  "weighted_surface_energy": null,
  "weighted_work_function": null,
  "surface_anisotropy": null,
  "shape_factor": null,
  "has_reconstructed": null,
  "possible_species": null,
  "has_props": null,
  "theoretical": null,
  "database_IDs": null,
  "fields_not_requested": [
    "builder_meta",
    "nsites",
    "elements",
    "nelements",
    "composition",
    "composition_reduced",
    "chemsys",
    "symmetry",
    "property_name",
    "deprecated",
    "deprecation_reasons",
    "last_updated",
    "origins",
    "warnings",
    "task_ids",
    "uncorrected_energy_per_atom",
    "equilibrium_reaction_energy_per_atom",
    "decomposes_to",
    "xas",
    "grain_boundaries",
    "cbm",
    "vbm",
    "is_gap_direct",
    "is_metal",
    "es_source_calc_id",
    "bandstructure",
    "dos",
    "dos_energy_up",
    "dos_energy_down",
    "is_magnetic",
    "ordering",
    "total_magnetization_normalized_vol",
    "total_magnetization_normalized_formula_units",
    "num_magnetic_sites",
    "num_unique_magnetic_sites",
    "types_of_magnetic_species",
    "bulk_modulus",
    "shear_modulus",
    "universal_anisotropy",
    "homogeneous_poisson",
    "e_total",
    "e_ionic",
    "e_electronic",
    "n",
    "e_ij_max",
    "weighted_surface_energy_EV_PER_ANG2",
    "weighted_surface_energy",
    "weighted_work_function",
    "surface_anisotropy",
    "shape_factor",
    "has_reconstructed",
    "possible_species",
    "has_props",
    "theoretical",
    "database_IDs"
  ]
}
