{"builder_meta": null, "nsites": null, "elements": null, "nelements": null, "composition": null, "composition_reduced": null, "formula_pretty": "NdSm3", "formula_anonymous": "AB3", "chemsys": null, "volume": 278.21010301093935, "density": 7.106538745414107, "density_atomic": 34.77626287636742, "symmetry": null, "property_name": null, "material_id": "mp-1186333", "deprecated": null, "deprecation_reasons": null, "last_updated": null, "origins": null, "warnings": null, "structure": {"@module": "pymatgen.core.structure", "@class": "Structure", "charge": 0, "lattice": {"matrix": [[3.7151309, -6.43479323, 0.0], [3.7151309, 6.43479323, -0.0], [-0.0, 0.0, 5.81881011]], "pbc": [true, true, true], "a": 7.430259855280208, "b": 7.430259855280208, "c": 5.81881011, "alpha": 90.0, "beta": 90.0, "gamma": 119.9999826841007, "volume": 278.21010301093935}, "properties": {}, "sites": [{"species": [{"element": "Nd", "occu": 1}], "abc": [0.666667, 0.333333, 0.25], "properties": {"magmom": 0.001}, "label": "Nd", "xyz": [3.7151309, -2.14493536652882, 1.4547025275]}, {"species": [{"element": "Nd", "occu": 1}], "abc": [0.333333, 0.666667, 0.75], "properties": {"magmom": 0.001}, "label": "Nd", "xyz": [3.7151309, 2.14493536652882, 4.3641075825]}, {"species": [{"element": "Sm", "occu": 1}], "abc": [0.1666353, 0.8333647, 0.25], "properties": {"magmom": 0.001}, "label": "Sm", "xyz": [3.7151309, 4.290265829361962, 1.4547025275]}, {"species": [{"element": "Sm", "occu": 1}], "abc": [0.6667284, 0.8333647, 0.25], "properties": {"magmom": 0.001}, "label": "Sm", "xyz": [5.57304222868679, 1.072270135112249, 1.4547025275]}, {"species": [{"element": "Sm", "occu": 1}], "abc": [0.1666353, 0.3332716, 0.25], "properties": {"magmom": 0.001}, "label": "Sm", "xyz": [1.85721957131321, 1.0722701351122492, 1.4547025275]}, {"species": [{"element": "Sm", "occu": 1}], "abc": [0.8333647, 0.1666353, 0.75], "properties": {"magmom": 0.001}, "label": "Sm", "xyz": [3.7151309, -4.290265829361962, 4.3641075825]}, {"species": [{"element": "Sm", "occu": 1}], "abc": [0.3332716, 0.1666353, 0.75], "properties": {"magmom": 0.001}, "label": "Sm", "xyz": [1.85721957131321, -1.0722701351122492, 4.3641075825]}, {"species": [{"element": "Sm", "occu": 1}], "abc": [0.8333647, 0.6667284, 0.75], "properties": {"magmom": 0.001}, "label": "Sm", "xyz": [5.57304222868679, -1.072270135112249, 4.3641075825]}]}, "task_ids": null, "uncorrected_energy_per_atom": null, "energy_per_atom": -29.63039973625, "formation_energy_per_atom": 0.023795749374999002, "energy_above_hull": 0.023795749374999002, "is_stable": false, "equilibrium_reaction_energy_per_atom": null, "decomposes_to": null, "xas": null, "grain_boundaries": null, "band_gap": 0.0, "cbm": null, "vbm": null, "efermi": 3.11310616, "is_gap_direct": null, "is_metal": null, "es_source_calc_id": null, "bandstructure": null, "dos": null, "dos_energy_up": null, "dos_energy_down": null, "is_magnetic": null, "ordering": null, "total_magnetization": 0.0189382, "total_magnetization_normalized_vol": null, "total_magnetization_normalized_formula_units": null, "num_magnetic_sites": null, "num_unique_magnetic_sites": null, "types_of_magnetic_species": null, "bulk_modulus": null, "shear_modulus": null, "universal_anisotropy": null, "homogeneous_poisson": null, "e_total": null, "e_ionic": null, "e_electronic": null, "n": null, "e_ij_max": null, "weighted_surface_energy_EV_PER_ANG2": null, "weighted_surface_energy": null, "weighted_work_function": null, "surface_anisotropy": null, "shape_factor": null, "has_reconstructed": null, "possible_species": null, "has_props": null, "theoretical": null, "database_IDs": null, "fields_not_requested": ["builder_meta", "nsites", "elements", "nelements", "composition", "composition_reduced", "chemsys", "symmetry", "property_name", "deprecated", "deprecation_reasons", "last_updated", "origins", "warnings", "task_ids", "uncorrected_energy_per_atom", "equilibrium_reaction_energy_per_atom", "decomposes_to", "xas", "grain_boundaries", "cbm", "vbm", "is_gap_direct", "is_metal", "es_source_calc_id", "bandstructure", "dos", "dos_energy_up", "dos_energy_down", "is_magnetic", "ordering", "total_magnetization_normalized_vol", "total_magnetization_normalized_formula_units", "num_magnetic_sites", "num_unique_magnetic_sites", "types_of_magnetic_species", "bulk_modulus", "shear_modulus", "universal_anisotropy", "homogeneous_poisson", "e_total", "e_ionic", "e_electronic", "n", "e_ij_max", "weighted_surface_energy_EV_PER_ANG2", "weighted_surface_energy", "weighted_work_function", "surface_anisotropy", "shape_factor", "has_reconstructed", "possible_species", "has_props", "theoretical", "database_IDs"]}