{"builder_meta": null, "nsites": null, "elements": null, "nelements": null, "composition": null, "composition_reduced": null, "formula_pretty": "NdTe2", "formula_anonymous": "AB2", "chemsys": null, "volume": 186.8991456791041, "density": 7.097828547377837, "density_atomic": 31.149857613184015, "symmetry": null, "property_name": null, "material_id": "mp-2550", "deprecated": null, "deprecation_reasons": null, "last_updated": null, "origins": null, "warnings": null, "structure": {"@module": "pymatgen.core.structure", "@class": "Structure", "charge": 0, "lattice": {"matrix": [[4.51443228, -0.0, -0.0], [0.0, 4.51443228, 0.0], [-0.0, 0.0, 9.17066926]], "pbc": [true, true, true], "a": 4.51443228, "b": 4.51443228, "c": 9.17066926, "alpha": 90.0, "beta": 90.0, "gamma": 90.0, "volume": 186.8991456791041}, "properties": {}, "sites": [{"species": [{"element": "Nd", "occu": 1}], "abc": [0.75, 0.75, 0.72788884], "properties": {"magmom": -0.0}, "label": "Nd", "xyz": [3.38582421, 3.38582421, 6.675227809685058]}, {"species": [{"element": "Nd", "occu": 1}], "abc": [0.25, 0.25, 0.27211116], "properties": {"magmom": -0.0}, "label": "Nd", "xyz": [1.12860807, 1.12860807, 2.495441450314942]}, {"species": [{"element": "Te", "occu": 1}], "abc": [0.75, 0.75, 0.37028304], "properties": {"magmom": 0.0}, "label": "Te", "xyz": [3.38582421, 3.38582421, 3.3957432924273507]}, {"species": [{"element": "Te", "occu": 1}], "abc": [0.25, 0.25, 0.62971696], "properties": {"magmom": 0.0}, "label": "Te", "xyz": [1.12860807, 1.12860807, 5.77492596757265]}, {"species": [{"element": "Te", "occu": 1}], "abc": [0.25, 0.75, -0.0], "properties": {"magmom": -0.0}, "label": "Te", "xyz": [1.12860807, 3.38582421, 0.0]}, {"species": [{"element": "Te", "occu": 1}], "abc": [0.75, 0.25, -0.0], "properties": {"magmom": -0.0}, "label": "Te", "xyz": [3.38582421, 1.12860807, 0.0]}]}, "task_ids": null, "uncorrected_energy_per_atom": null, "energy_per_atom": -28.222740251666664, "formation_energy_per_atom": -1.47192105083333, "energy_above_hull": 0.0004998366666690001, "is_stable": false, "equilibrium_reaction_energy_per_atom": null, "decomposes_to": null, "xas": null, "grain_boundaries": null, "band_gap": 0.0, "cbm": null, "vbm": null, "efermi": 6.45852989, "is_gap_direct": null, "is_metal": null, "es_source_calc_id": null, "bandstructure": null, "dos": null, "dos_energy_up": null, "dos_energy_down": null, "is_magnetic": null, "ordering": null, "total_magnetization": 0.0, "total_magnetization_normalized_vol": null, "total_magnetization_normalized_formula_units": null, "num_magnetic_sites": null, "num_unique_magnetic_sites": null, "types_of_magnetic_species": null, "bulk_modulus": null, "shear_modulus": null, "universal_anisotropy": null, "homogeneous_poisson": null, "e_total": null, "e_ionic": null, "e_electronic": null, "n": null, "e_ij_max": null, "weighted_surface_energy_EV_PER_ANG2": null, "weighted_surface_energy": null, "weighted_work_function": null, "surface_anisotropy": null, "shape_factor": null, "has_reconstructed": null, "possible_species": null, "has_props": null, "theoretical": null, "database_IDs": null, "fields_not_requested": ["builder_meta", "nsites", "elements", "nelements", "composition", "composition_reduced", "chemsys", "symmetry", "property_name", "deprecated", "deprecation_reasons", "last_updated", "origins", "warnings", "task_ids", "uncorrected_energy_per_atom", "equilibrium_reaction_energy_per_atom", "decomposes_to", "xas", "grain_boundaries", "cbm", "vbm", "is_gap_direct", "is_metal", "es_source_calc_id", "bandstructure", "dos", "dos_energy_up", "dos_energy_down", "is_magnetic", "ordering", "total_magnetization_normalized_vol", "total_magnetization_normalized_formula_units", "num_magnetic_sites", "num_unique_magnetic_sites", "types_of_magnetic_species", "bulk_modulus", "shear_modulus", "universal_anisotropy", "homogeneous_poisson", "e_total", "e_ionic", "e_electronic", "n", "e_ij_max", "weighted_surface_energy_EV_PER_ANG2", "weighted_surface_energy", "weighted_work_function", "surface_anisotropy", "shape_factor", "has_reconstructed", "possible_species", "has_props", "theoretical", "database_IDs"]}