{
  "builder_meta": null,
  "nsites": null,
  "elements": null,
  "nelements": null,
  "composition": null,
  "composition_reduced": null,
  "formula_pretty": "NdTe3",
  "formula_anonymous": "AB3",
  "chemsys": null,
  "volume": 259.15350485258625,
  "density": 6.754096042319166,
  "density_atomic": 32.39418810657328,
  "symmetry": null,
  "property_name": null,
  "material_id": "mp-740",
  "deprecated": null,
  "deprecation_reasons": null,
  "last_updated": null,
  "origins": null,
  "warnings": null,
  "structure": {
    "@module": "pymatgen.core.structure",
    "@class": "Structure",
    "charge": 0,
    "lattice": {
      "matrix": [
        [4.32738598, 0.0, -0.72765972],
        [0.0, 4.39112198, 0.0],
        [0.0665328, 0.0, 13.62697771]
      ],
      "pbc": [true, true, true],
      "a": 4.388138339661939,
      "b": 4.39112198,
      "c": 13.627140129987389,
      "alpha": 90.0,
      "beta": 99.2653792211682,
      "gamma": 90.0,
      "volume": 259.15350485258625
    },
    "properties": {},
    "sites": [
      {
        "species": [{ "element": "Nd", "occu": 1 }],
        "abc": [0.75136904, 0.25, 0.6592957700000001],
        "properties": { "magmom": -0.0 },
        "label": "Nd",
        "xyz": [3.295328643108315, 1.097780495, 8.437467776824219]
      },
      {
        "species": [{ "element": "Nd", "occu": 1 }],
        "abc": [0.09207427, 0.75, 0.34070423],
        "properties": { "magmom": -0.0 },
        "label": "Nd",
        "xyz": [0.4211089115104786, 3.293341485, 4.575770210385309]
      },
      {
        "species": [{ "element": "Te", "occu": 1 }],
        "abc": [0.49593673, 0.75, 0.14836232],
        "properties": { "magmom": 0.0 },
        "label": "Te",
        "xyz": [2.1559806129331416, 3.293341485, 1.6608568455543713]
      },
      {
        "species": [{ "element": "Te", "occu": 1 }],
        "abc": [0.34757441, 0.25, 0.8516376800000001],
        "properties": { "magmom": 0.0 },
        "label": "Te",
        "xyz": [1.5607504682766757, 1.097780495, 11.352331784496348]
      },
      {
        "species": [{ "element": "Te", "occu": 1 }],
        "abc": [0.2154674, 0.75, 0.5874077600000001],
        "properties": { "magmom": 0.0 },
        "label": "Te",
        "xyz": [0.9714924889215799, 3.293341485, 7.847805504247903]
      },
      {
        "species": [{ "element": "Te", "occu": 1 }],
        "abc": [0.62805964, 0.25, 0.41259224],
        "properties": { "magmom": 0.0 },
        "label": "Te",
        "xyz": [2.7453073977253193, 1.097780495, 5.16537155601327]
      },
      {
        "species": [{ "element": "Te", "occu": 1 }],
        "abc": [0.99573128, 0.25, 0.14814205],
        "properties": { "magmom": -0.0 },
        "label": "Te",
        "xyz": [4.318769886303694, 1.097780495, 1.2941748688636636]
      },
      {
        "species": [{ "element": "Te", "occu": 1 }],
        "abc": [0.84758923, 0.75, 0.85185795],
        "properties": { "magmom": -0.0 },
        "label": "Te",
        "xyz": [3.724522245316755, 3.293341485, 10.991492754959479]
      }
    ]
  },
  "task_ids": null,
  "uncorrected_energy_per_atom": null,
  "energy_per_atom": -27.5614851275,
  "formation_energy_per_atom": -1.144064649375,
  "energy_above_hull": 0.0,
  "is_stable": true,
  "equilibrium_reaction_energy_per_atom": null,
  "decomposes_to": null,
  "xas": null,
  "grain_boundaries": null,
  "band_gap": 0.0,
  "cbm": null,
  "vbm": null,
  "efermi": 4.95182011,
  "is_gap_direct": null,
  "is_metal": null,
  "es_source_calc_id": null,
  "bandstructure": null,
  "dos": null,
  "dos_energy_up": null,
  "dos_energy_down": null,
  "is_magnetic": null,
  "ordering": null,
  "total_magnetization": 0.0,
  "total_magnetization_normalized_vol": null,
  "total_magnetization_normalized_formula_units": null,
  "num_magnetic_sites": null,
  "num_unique_magnetic_sites": null,
  "types_of_magnetic_species": null,
  "bulk_modulus": null,
  "shear_modulus": null,
  "universal_anisotropy": null,
  "homogeneous_poisson": null,
  "e_total": null,
  "e_ionic": null,
  "e_electronic": null,
  "n": null,
  "e_ij_max": null,
  "weighted_surface_energy_EV_PER_ANG2": null,
  "weighted_surface_energy": null,
  "weighted_work_function": null,
  "surface_anisotropy": null,
  "shape_factor": null,
  "has_reconstructed": null,
  "possible_species": null,
  "has_props": null,
  "theoretical": null,
  "database_IDs": null,
  "fields_not_requested": [
    "builder_meta",
    "nsites",
    "elements",
    "nelements",
    "composition",
    "composition_reduced",
    "chemsys",
    "symmetry",
    "property_name",
    "deprecated",
    "deprecation_reasons",
    "last_updated",
    "origins",
    "warnings",
    "task_ids",
    "uncorrected_energy_per_atom",
    "equilibrium_reaction_energy_per_atom",
    "decomposes_to",
    "xas",
    "grain_boundaries",
    "cbm",
    "vbm",
    "is_gap_direct",
    "is_metal",
    "es_source_calc_id",
    "bandstructure",
    "dos",
    "dos_energy_up",
    "dos_energy_down",
    "is_magnetic",
    "ordering",
    "total_magnetization_normalized_vol",
    "total_magnetization_normalized_formula_units",
    "num_magnetic_sites",
    "num_unique_magnetic_sites",
    "types_of_magnetic_species",
    "bulk_modulus",
    "shear_modulus",
    "universal_anisotropy",
    "homogeneous_poisson",
    "e_total",
    "e_ionic",
    "e_electronic",
    "n",
    "e_ij_max",
    "weighted_surface_energy_EV_PER_ANG2",
    "weighted_surface_energy",
    "weighted_work_function",
    "surface_anisotropy",
    "shape_factor",
    "has_reconstructed",
    "possible_species",
    "has_props",
    "theoretical",
    "database_IDs"
  ]
}
