{
  "builder_meta": null,
  "nsites": null,
  "elements": null,
  "nelements": null,
  "composition": null,
  "composition_reduced": null,
  "formula_pretty": "NdTh3",
  "formula_anonymous": "AB3",
  "chemsys": null,
  "volume": 131.14546173445217,
  "density": 10.640431230279892,
  "density_atomic": 32.78636543361304,
  "symmetry": null,
  "property_name": null,
  "material_id": "mp-974779",
  "deprecated": null,
  "deprecation_reasons": null,
  "last_updated": null,
  "origins": null,
  "warnings": null,
  "structure": {
    "@module": "pymatgen.core.structure",
    "@class": "Structure",
    "charge": 0,
    "lattice": {
      "matrix": [
        [5.08063042, 8.47e-6, -7.41e-6],
        [8.47e-6, 5.08063678, 1.06e-6],
        [-7.41e-6, 1.06e-6, 5.08062937]
      ],
      "pbc": [true, true, true],
      "a": 5.080630420012464,
      "b": 5.080636780007171,
      "c": 5.080629370005514,
      "alpha": 89.99997609228161,
      "beta": 90.00016712954273,
      "gamma": 89.99980896272142,
      "volume": 131.14546173445217
    },
    "properties": {},
    "sites": [
      {
        "species": [{ "element": "Nd", "occu": 1 }],
        "abc": [1e-6, -0.0, -0.0],
        "properties": { "magmom": -0.0 },
        "label": "Nd",
        "xyz": [5.08063042e-6, 8.47e-12, -7.41e-12]
      },
      {
        "species": [{ "element": "Th", "occu": 1 }],
        "abc": [0.999999, 0.500001, 0.500002],
        "properties": { "magmom": -0.0 },
        "label": "Th",
        "xyz": [5.08062586936323, 2.54033247063043, 2.5403179662672097]
      },
      {
        "species": [{ "element": "Th", "occu": 1 }],
        "abc": [0.500001, 0.999999, 0.5],
        "properties": { "magmom": -0.0 },
        "label": "Th",
        "xyz": [2.54032505562195, 5.080636464371691, 2.5403120399915298]
      },
      {
        "species": [{ "element": "Th", "occu": 1 }],
        "abc": [0.500001, 0.500001, 0.999999],
        "properties": { "magmom": -0.0 },
        "label": "Th",
        "xyz": [2.5403171156463, 2.5403287656441904, 5.080621114364279]
      }
    ]
  },
  "task_ids": null,
  "uncorrected_energy_per_atom": null,
  "energy_per_atom": -62.3947046025,
  "formation_energy_per_atom": 0.066244255625008,
  "energy_above_hull": 0.066244255625008,
  "is_stable": false,
  "equilibrium_reaction_energy_per_atom": null,
  "decomposes_to": null,
  "xas": null,
  "grain_boundaries": null,
  "band_gap": 0.0,
  "cbm": null,
  "vbm": null,
  "efermi": 6.75838722,
  "is_gap_direct": null,
  "is_metal": null,
  "es_source_calc_id": null,
  "bandstructure": null,
  "dos": null,
  "dos_energy_up": null,
  "dos_energy_down": null,
  "is_magnetic": null,
  "ordering": null,
  "total_magnetization": 3.03e-5,
  "total_magnetization_normalized_vol": null,
  "total_magnetization_normalized_formula_units": null,
  "num_magnetic_sites": null,
  "num_unique_magnetic_sites": null,
  "types_of_magnetic_species": null,
  "bulk_modulus": null,
  "shear_modulus": null,
  "universal_anisotropy": null,
  "homogeneous_poisson": null,
  "e_total": null,
  "e_ionic": null,
  "e_electronic": null,
  "n": null,
  "e_ij_max": null,
  "weighted_surface_energy_EV_PER_ANG2": null,
  "weighted_surface_energy": null,
  "weighted_work_function": null,
  "surface_anisotropy": null,
  "shape_factor": null,
  "has_reconstructed": null,
  "possible_species": null,
  "has_props": null,
  "theoretical": null,
  "database_IDs": null,
  "fields_not_requested": [
    "builder_meta",
    "nsites",
    "elements",
    "nelements",
    "composition",
    "composition_reduced",
    "chemsys",
    "symmetry",
    "property_name",
    "deprecated",
    "deprecation_reasons",
    "last_updated",
    "origins",
    "warnings",
    "task_ids",
    "uncorrected_energy_per_atom",
    "equilibrium_reaction_energy_per_atom",
    "decomposes_to",
    "xas",
    "grain_boundaries",
    "cbm",
    "vbm",
    "is_gap_direct",
    "is_metal",
    "es_source_calc_id",
    "bandstructure",
    "dos",
    "dos_energy_up",
    "dos_energy_down",
    "is_magnetic",
    "ordering",
    "total_magnetization_normalized_vol",
    "total_magnetization_normalized_formula_units",
    "num_magnetic_sites",
    "num_unique_magnetic_sites",
    "types_of_magnetic_species",
    "bulk_modulus",
    "shear_modulus",
    "universal_anisotropy",
    "homogeneous_poisson",
    "e_total",
    "e_ionic",
    "e_electronic",
    "n",
    "e_ij_max",
    "weighted_surface_energy_EV_PER_ANG2",
    "weighted_surface_energy",
    "weighted_work_function",
    "surface_anisotropy",
    "shape_factor",
    "has_reconstructed",
    "possible_species",
    "has_props",
    "theoretical",
    "database_IDs"
  ]
}
