{
  "builder_meta": null,
  "nsites": null,
  "elements": null,
  "nelements": null,
  "composition": null,
  "composition_reduced": null,
  "formula_pretty": "NdTm3",
  "formula_anonymous": "AB3",
  "chemsys": null,
  "volume": 256.67129175024274,
  "density": 8.423887493168543,
  "density_atomic": 32.08391146878034,
  "symmetry": null,
  "property_name": null,
  "material_id": "mp-1186332",
  "deprecated": null,
  "deprecation_reasons": null,
  "last_updated": null,
  "origins": null,
  "warnings": null,
  "structure": {
    "@module": "pymatgen.core.structure",
    "@class": "Structure",
    "charge": 0,
    "lattice": {
      "matrix": [
        [3.59451561, -6.22588619, -0.0],
        [3.59451561, 6.22588619, -0.0],
        [-0.0, 0.0, 5.73463458]
      ],
      "pbc": [true, true, true],
      "a": 7.189033406610821,
      "b": 7.189033406610821,
      "c": 5.73463458,
      "alpha": 90.0,
      "beta": 90.0,
      "gamma": 120.00002012301127,
      "volume": 256.67129175024274
    },
    "properties": {},
    "sites": [
      {
        "species": [{ "element": "Nd", "occu": 1 }],
        "abc": [0.666667, 0.333333, 0.25],
        "properties": { "magmom": 0.292 },
        "label": "Nd",
        "xyz": [3.59451561, -2.0752995472574605, 1.433658645]
      },
      {
        "species": [{ "element": "Nd", "occu": 1 }],
        "abc": [0.333333, 0.666667, 0.75],
        "properties": { "magmom": 0.292 },
        "label": "Nd",
        "xyz": [3.59451561, 2.0752995472574605, 4.300975935]
      },
      {
        "species": [{ "element": "Tm", "occu": 1 }],
        "abc": [0.83569687, 0.16430313, 0.75],
        "properties": { "magmom": 0.457 },
        "label": "Tm",
        "xyz": [3.59451561, -4.18002101391845, 4.300975935]
      },
      {
        "species": [{ "element": "Tm", "occu": 1 }],
        "abc": [0.32860425, 0.16430213, 0.75],
        "properties": { "magmom": 0.457 },
        "label": "Tm",
        "xyz": [1.7717596771785917, -1.022926299895723, 4.300975935]
      },
      {
        "species": [{ "element": "Tm", "occu": 1 }],
        "abc": [0.8356978700000001, 0.6713957500000001, 0.75],
        "properties": { "magmom": 0.457 },
        "label": "Tm",
        "xyz": [5.417271542821409, -1.0229262998957225, 4.300975935]
      },
      {
        "species": [{ "element": "Tm", "occu": 1 }],
        "abc": [0.16430313, 0.83569687, 0.25],
        "properties": { "magmom": 0.457 },
        "label": "Tm",
        "xyz": [3.59451561, 4.18002101391845, 1.433658645]
      },
      {
        "species": [{ "element": "Tm", "occu": 1 }],
        "abc": [0.6713957500000001, 0.8356978700000001, 0.25],
        "properties": { "magmom": 0.457 },
        "label": "Tm",
        "xyz": [5.417271542821409, 1.0229262998957225, 1.433658645]
      },
      {
        "species": [{ "element": "Tm", "occu": 1 }],
        "abc": [0.16430213, 0.32860425, 0.25],
        "properties": { "magmom": 0.457 },
        "label": "Tm",
        "xyz": [1.7717596771785917, 1.022926299895723, 1.433658645]
      }
    ]
  },
  "task_ids": null,
  "uncorrected_energy_per_atom": null,
  "energy_per_atom": -33.69410040125,
  "formation_energy_per_atom": 0.001188061874998,
  "energy_above_hull": 0.001188061874998,
  "is_stable": false,
  "equilibrium_reaction_energy_per_atom": null,
  "decomposes_to": null,
  "xas": null,
  "grain_boundaries": null,
  "band_gap": 0.0,
  "cbm": null,
  "vbm": null,
  "efermi": 2.975591129999999,
  "is_gap_direct": null,
  "is_metal": null,
  "es_source_calc_id": null,
  "bandstructure": null,
  "dos": null,
  "dos_energy_up": null,
  "dos_energy_down": null,
  "is_magnetic": null,
  "ordering": null,
  "total_magnetization": 4.696422,
  "total_magnetization_normalized_vol": null,
  "total_magnetization_normalized_formula_units": null,
  "num_magnetic_sites": null,
  "num_unique_magnetic_sites": null,
  "types_of_magnetic_species": null,
  "bulk_modulus": null,
  "shear_modulus": null,
  "universal_anisotropy": null,
  "homogeneous_poisson": null,
  "e_total": null,
  "e_ionic": null,
  "e_electronic": null,
  "n": null,
  "e_ij_max": null,
  "weighted_surface_energy_EV_PER_ANG2": null,
  "weighted_surface_energy": null,
  "weighted_work_function": null,
  "surface_anisotropy": null,
  "shape_factor": null,
  "has_reconstructed": null,
  "possible_species": null,
  "has_props": null,
  "theoretical": null,
  "database_IDs": null,
  "fields_not_requested": [
    "builder_meta",
    "nsites",
    "elements",
    "nelements",
    "composition",
    "composition_reduced",
    "chemsys",
    "symmetry",
    "property_name",
    "deprecated",
    "deprecation_reasons",
    "last_updated",
    "origins",
    "warnings",
    "task_ids",
    "uncorrected_energy_per_atom",
    "equilibrium_reaction_energy_per_atom",
    "decomposes_to",
    "xas",
    "grain_boundaries",
    "cbm",
    "vbm",
    "is_gap_direct",
    "is_metal",
    "es_source_calc_id",
    "bandstructure",
    "dos",
    "dos_energy_up",
    "dos_energy_down",
    "is_magnetic",
    "ordering",
    "total_magnetization_normalized_vol",
    "total_magnetization_normalized_formula_units",
    "num_magnetic_sites",
    "num_unique_magnetic_sites",
    "types_of_magnetic_species",
    "bulk_modulus",
    "shear_modulus",
    "universal_anisotropy",
    "homogeneous_poisson",
    "e_total",
    "e_ionic",
    "e_electronic",
    "n",
    "e_ij_max",
    "weighted_surface_energy_EV_PER_ANG2",
    "weighted_surface_energy",
    "weighted_work_function",
    "surface_anisotropy",
    "shape_factor",
    "has_reconstructed",
    "possible_species",
    "has_props",
    "theoretical",
    "database_IDs"
  ]
}
