{"builder_meta": null, "nsites": null, "elements": null, "nelements": null, "composition": null, "composition_reduced": null, "formula_pretty": "NdY3", "formula_anonymous": "AB3", "chemsys": null, "volume": 276.3432177609131, "density": 4.9388900737036945, "density_atomic": 34.542902220114144, "symmetry": null, "property_name": null, "material_id": "mp-1186340", "deprecated": null, "deprecation_reasons": null, "last_updated": null, "origins": null, "warnings": null, "structure": {"@module": "pymatgen.core.structure", "@class": "Structure", "charge": 0, "lattice": {"matrix": [[3.67737849, -6.36940715, 0.0], [3.67737849, 6.36940715, -0.0], [0.0, 0.0, 5.89904178]], "pbc": [true, true, true], "a": 7.35475764394625, "b": 7.35475764394625, "c": 5.89904178, "alpha": 90.0, "beta": 90.0, "gamma": 120.00000597250539, "volume": 276.3432177609131}, "properties": {}, "sites": [{"species": [{"element": "Nd", "occu": 1}], "abc": [0.666667, 0.333333, 0.25], "properties": {"magmom": 0.297}, "label": "Nd", "xyz": [3.6773784899999997, -2.1231399629381, 1.474760445]}, {"species": [{"element": "Nd", "occu": 1}], "abc": [0.333333, 0.666667, 0.75], "properties": {"magmom": 0.297}, "label": "Nd", "xyz": [3.6773784899999997, 2.1231399629381, 4.424281335]}, {"species": [{"element": "Y", "occu": 1}], "abc": [0.83500357, 0.16499643, 0.75], "properties": {"magmom": 0.39}, "label": "Y", "xyz": [3.67737849, -4.267548268067051, 4.424281335]}, {"species": [{"element": "Y", "occu": 1}], "abc": [0.32999286, 0.16499643, 0.75], "properties": {"magmom": 0.39}, "label": "Y", "xyz": [1.820262967826372, -1.0509294409664744, 4.424281335]}, {"species": [{"element": "Y", "occu": 1}], "abc": [0.83500357, 0.6700071400000001, 0.75], "properties": {"magmom": 0.39}, "label": "Y", "xyz": [5.534494012173628, -1.050929440966475, 4.424281335]}, {"species": [{"element": "Y", "occu": 1}], "abc": [0.16499643, 0.83500357, 0.25], "properties": {"magmom": 0.39}, "label": "Y", "xyz": [3.67737849, 4.267548268067051, 1.474760445]}, {"species": [{"element": "Y", "occu": 1}], "abc": [0.6700071400000001, 0.83500357, 0.25], "properties": {"magmom": 0.39}, "label": "Y", "xyz": [5.534494012173628, 1.050929440966475, 1.474760445]}, {"species": [{"element": "Y", "occu": 1}], "abc": [0.16499643, 0.32999286, 0.25], "properties": {"magmom": 0.39}, "label": "Y", "xyz": [1.820262967826372, 1.0509294409664744, 1.474760445]}]}, "task_ids": null, "uncorrected_energy_per_atom": null, "energy_per_atom": -22.57591717125, "formation_energy_per_atom": 0.013785794374996002, "energy_above_hull": 0.013785794374996002, "is_stable": false, "equilibrium_reaction_energy_per_atom": null, "decomposes_to": null, "xas": null, "grain_boundaries": null, "band_gap": 0.0, "cbm": null, "vbm": null, "efermi": 3.08212204, "is_gap_direct": null, "is_metal": null, "es_source_calc_id": null, "bandstructure": null, "dos": null, "dos_energy_up": null, "dos_energy_down": null, "is_magnetic": null, "ordering": null, "total_magnetization": 5.2741102, "total_magnetization_normalized_vol": null, "total_magnetization_normalized_formula_units": null, "num_magnetic_sites": null, "num_unique_magnetic_sites": null, "types_of_magnetic_species": null, "bulk_modulus": null, "shear_modulus": null, "universal_anisotropy": null, "homogeneous_poisson": null, "e_total": null, "e_ionic": null, "e_electronic": null, "n": null, "e_ij_max": null, "weighted_surface_energy_EV_PER_ANG2": null, "weighted_surface_energy": null, "weighted_work_function": null, "surface_anisotropy": null, "shape_factor": null, "has_reconstructed": null, "possible_species": null, "has_props": null, "theoretical": null, "database_IDs": null, "fields_not_requested": ["builder_meta", "nsites", "elements", "nelements", "composition", "composition_reduced", "chemsys", "symmetry", "property_name", "deprecated", "deprecation_reasons", "last_updated", "origins", "warnings", "task_ids", "uncorrected_energy_per_atom", "equilibrium_reaction_energy_per_atom", "decomposes_to", "xas", "grain_boundaries", "cbm", "vbm", "is_gap_direct", "is_metal", "es_source_calc_id", "bandstructure", "dos", "dos_energy_up", "dos_energy_down", "is_magnetic", "ordering", "total_magnetization_normalized_vol", "total_magnetization_normalized_formula_units", "num_magnetic_sites", "num_unique_magnetic_sites", "types_of_magnetic_species", "bulk_modulus", "shear_modulus", "universal_anisotropy", "homogeneous_poisson", "e_total", "e_ionic", "e_electronic", "n", "e_ij_max", "weighted_surface_energy_EV_PER_ANG2", "weighted_surface_energy", "weighted_work_function", "surface_anisotropy", "shape_factor", "has_reconstructed", "possible_species", "has_props", "theoretical", "database_IDs"]}