{
  "builder_meta": null,
  "nsites": null,
  "elements": null,
  "nelements": null,
  "composition": null,
  "composition_reduced": null,
  "formula_pretty": "NdZn2",
  "formula_anonymous": "AB2",
  "chemsys": null,
  "volume": 126.65048893320024,
  "density": 7.212729765297634,
  "density_atomic": 21.10841482220004,
  "symmetry": null,
  "property_name": null,
  "material_id": "mp-30800",
  "deprecated": null,
  "deprecation_reasons": null,
  "last_updated": null,
  "origins": null,
  "warnings": null,
  "structure": {
    "@module": "pymatgen.core.structure",
    "@class": "Structure",
    "charge": 0,
    "lattice": {
      "matrix": [
        [4.20087701, -1e-8, 1.82511394],
        [2.08285109, 5.25830625, 0.95303695],
        [0.00518208, -0.05918163, 5.73522579]
      ],
      "pbc": [true, true, true],
      "a": 4.580219268455263,
      "b": 5.735532469611567,
      "c": 5.735533469657701,
      "alpha": 80.96585976356361,
      "beta": 66.46652984540276,
      "gamma": 66.46654355111157,
      "volume": 126.65048893320024
    },
    "properties": {},
    "sites": [
      {
        "species": [{ "element": "Nd", "occu": 1 }],
        "abc": [0.54057485, 0.7094251500000001, 0.20942515],
        "properties": { "magmom": 0.0 },
        "label": "Nd",
        "xyz": [3.749600664381425, 3.7179805730064452, 2.86381959691232]
      },
      {
        "species": [{ "element": "Nd", "occu": 1 }],
        "abc": [0.45942515, 0.29057485, 0.79057485],
        "properties": { "magmom": 0.0 },
        "label": "Nd",
        "xyz": [2.539309515618576, 1.4811440369935556, 5.6495570830876805]
      },
      {
        "species": [{ "element": "Zn", "occu": 1 }],
        "abc": [0.83515133, 0.7228063, 0.60689103],
        "properties": { "magmom": 0.0 },
        "label": "Zn",
        "xyz": [5.017010869750533, 3.764820076090083, 5.693764532960989]
      },
      {
        "species": [{ "element": "Zn", "occu": 1 }],
        "abc": [0.16484867, 0.2771937, 0.39310897],
        "properties": { "magmom": 0.0 },
        "label": "Zn",
        "xyz": [1.2718993102494673, 1.4343045339099172, 2.8196121470390114]
      },
      {
        "species": [{ "element": "Zn", "occu": 1 }],
        "abc": [0.83515133, 0.10689103, 0.222806299999999],
        "properties": { "magmom": 0.0 },
        "label": "Zn",
        "xyz": [3.73216072048575, 0.5488797227581553, 2.90396187354057]
      },
      {
        "species": [{ "element": "Zn", "occu": 1 }],
        "abc": [0.16484867, 0.89310897, 0.7771937],
        "properties": { "magmom": 0.0 },
        "label": "Zn",
        "xyz": [2.55674945951425, 4.650244887241846, 5.609414806459425]
      }
    ]
  },
  "task_ids": null,
  "uncorrected_energy_per_atom": null,
  "energy_per_atom": -2.797134845000002,
  "formation_energy_per_atom": -0.367923294166668,
  "energy_above_hull": 0.0,
  "is_stable": true,
  "equilibrium_reaction_energy_per_atom": null,
  "decomposes_to": null,
  "xas": null,
  "grain_boundaries": null,
  "band_gap": 0.0,
  "cbm": null,
  "vbm": null,
  "efermi": 3.12353007,
  "is_gap_direct": null,
  "is_metal": null,
  "es_source_calc_id": null,
  "bandstructure": null,
  "dos": null,
  "dos_energy_up": null,
  "dos_energy_down": null,
  "is_magnetic": null,
  "ordering": null,
  "total_magnetization": 9e-7,
  "total_magnetization_normalized_vol": null,
  "total_magnetization_normalized_formula_units": null,
  "num_magnetic_sites": null,
  "num_unique_magnetic_sites": null,
  "types_of_magnetic_species": null,
  "bulk_modulus": null,
  "shear_modulus": null,
  "universal_anisotropy": null,
  "homogeneous_poisson": null,
  "e_total": null,
  "e_ionic": null,
  "e_electronic": null,
  "n": null,
  "e_ij_max": null,
  "weighted_surface_energy_EV_PER_ANG2": null,
  "weighted_surface_energy": null,
  "weighted_work_function": null,
  "surface_anisotropy": null,
  "shape_factor": null,
  "has_reconstructed": null,
  "possible_species": null,
  "has_props": null,
  "theoretical": null,
  "database_IDs": null,
  "fields_not_requested": [
    "builder_meta",
    "nsites",
    "elements",
    "nelements",
    "composition",
    "composition_reduced",
    "chemsys",
    "symmetry",
    "property_name",
    "deprecated",
    "deprecation_reasons",
    "last_updated",
    "origins",
    "warnings",
    "task_ids",
    "uncorrected_energy_per_atom",
    "equilibrium_reaction_energy_per_atom",
    "decomposes_to",
    "xas",
    "grain_boundaries",
    "cbm",
    "vbm",
    "is_gap_direct",
    "is_metal",
    "es_source_calc_id",
    "bandstructure",
    "dos",
    "dos_energy_up",
    "dos_energy_down",
    "is_magnetic",
    "ordering",
    "total_magnetization_normalized_vol",
    "total_magnetization_normalized_formula_units",
    "num_magnetic_sites",
    "num_unique_magnetic_sites",
    "types_of_magnetic_species",
    "bulk_modulus",
    "shear_modulus",
    "universal_anisotropy",
    "homogeneous_poisson",
    "e_total",
    "e_ionic",
    "e_electronic",
    "n",
    "e_ij_max",
    "weighted_surface_energy_EV_PER_ANG2",
    "weighted_surface_energy",
    "weighted_work_function",
    "surface_anisotropy",
    "shape_factor",
    "has_reconstructed",
    "possible_species",
    "has_props",
    "theoretical",
    "database_IDs"
  ]
}
