{
  "builder_meta": null,
  "nsites": null,
  "elements": null,
  "nelements": null,
  "composition": null,
  "composition_reduced": null,
  "formula_pretty": "NdZn3",
  "formula_anonymous": "AB3",
  "chemsys": null,
  "volume": 308.3617158731436,
  "density": 7.333751842252929,
  "density_atomic": 19.272607242071476,
  "symmetry": null,
  "property_name": null,
  "material_id": "mp-1105669",
  "deprecated": null,
  "deprecation_reasons": null,
  "last_updated": null,
  "origins": null,
  "warnings": null,
  "structure": {
    "@module": "pymatgen.core.structure",
    "@class": "Structure",
    "charge": 0,
    "lattice": {
      "matrix": [
        [-4.69e-6, -4.49536182, -8.599999999999999e-7],
        [-6.72709499, -7.039999999999999e-6, -1.8180000000000002e-5],
        [-2.518e-5, -1.42e-6, -10.19690189]
      ],
      "pbc": [true, true, true],
      "a": 4.495361820002529,
      "b": 6.72709499002825,
      "c": 10.196901890031189,
      "alpha": 89.99970367301962,
      "beta": 89.99998105979982,
      "gamma": 89.99988026258046,
      "volume": 308.36171587314357
    },
    "properties": {},
    "sites": [
      {
        "species": [{ "element": "Nd", "occu": 1 }],
        "abc": [0.75000001, 0.21834738, 0.8445954],
        "properties": { "magmom": 0.0 },
        "label": "Nd",
        "xyz": [-1.468868350489845, -3.3715241464446417, -8.612261045100682]
      },
      {
        "species": [{ "element": "Nd", "occu": 1 }],
        "abc": [0.74999993, 0.71834259, 0.65544157],
        "properties": { "magmom": 0.0 },
        "label": "Nd",
        "xyz": [-4.832378859811029, -3.371527038183536, -6.683487088385793]
      },
      {
        "species": [{ "element": "Nd", "occu": 1 }],
        "abc": [0.24999997000000002, 0.7816990500000001, 0.15543356],
        "properties": { "magmom": 0.0 },
        "label": "Nd",
        "xyz": [-5.25856884925966, -1.1238460440161129, -1.5849551880221315]
      },
      {
        "species": [{ "element": "Nd", "occu": 1 }],
        "abc": [0.24999855, 0.2817016, 0.34453351],
        "properties": { "magmom": -0.0 },
        "label": "Nd",
        "xyz": [-1.8950432698819653, -1.1238364091422093, -3.5131797356211747]
      },
      {
        "species": [{ "element": "Zn", "occu": 1 }],
        "abc": [0.75000081, 0.9658161, 0.39195438],
        "properties": { "magmom": 0.0 },
        "label": "Zn",
        "xyz": [-6.497150034486427, -3.371532362163638, -3.9967385617531725]
      },
      {
        "species": [{ "element": "Zn", "occu": 1 }],
        "abc": [0.75000009, 0.46581034, 0.10800972],
        "properties": { "magmom": -0.0 },
        "label": "Zn",
        "xyz": [-3.1335566416893683, -3.37152520226116, -1.1013736314384293]
      },
      {
        "species": [{ "element": "Zn", "occu": 1 }],
        "abc": [0.25000086, 0.03419447, 0.60787862],
        "properties": { "magmom": 0.0 },
        "label": "Zn",
        "xyz": [-0.23004592671039029, -1.1238454249278746, -6.198479485824795]
      },
      {
        "species": [{ "element": "Zn", "occu": 1 }],
        "abc": [0.24999991, 0.53419345, 0.89216016],
        "properties": { "magmom": -0.0 },
        "label": "Zn",
        "xyz": [-3.593593718278222, -1.1238450780067513, -9.097279548323545]
      },
      {
        "species": [{ "element": "Zn", "occu": 1 }],
        "abc": [0.74999971, 0.5905524600000001, 0.35236662],
        "properties": { "magmom": 0.0 },
        "label": "Zn",
        "xyz": [-3.972714885088308, -3.3715247191949915, -3.593059234694385]
      },
      {
        "species": [{ "element": "Zn", "occu": 1 }],
        "abc": [0.749999899999999, 0.09050935, 0.14756693],
        "properties": { "magmom": 0.0 },
        "label": "Zn",
        "xyz": [-0.608872228167985, -3.3715217621946785, -1.5047277978783948]
      },
      {
        "species": [{ "element": "Zn", "occu": 1 }],
        "abc": [0.25000006, 0.40936196, 0.64767027],
        "properties": { "magmom": -0.0 },
        "label": "Zn",
        "xyz": [-2.753834271050261, -1.1238445263216912, -6.604237857460294]
      },
      {
        "species": [{ "element": "Zn", "occu": 1 }],
        "abc": [0.25000007, 0.90940235, 0.85239195],
        "properties": { "magmom": 0.0 },
        "label": "Zn",
        "xyz": [-6.117658628308856, -1.1238483822644407, -8.691773833910569]
      },
      {
        "species": [{ "element": "Zn", "occu": 1 }],
        "abc": [0.7499998800000001, 0.27413178, 0.54686352],
        "properties": { "magmom": -0.0 },
        "label": "Zn",
        "xyz": [-1.844127811360653, -3.371523531990512, -5.57631928937571]
      },
      {
        "species": [{ "element": "Zn", "occu": 1 }],
        "abc": [0.75000006, 0.77415921, 0.95316928],
        "properties": { "magmom": 0.0 },
        "label": "Zn",
        "xyz": [-5.20787006135611, -3.371528438302925, -9.719388351936427]
      },
      {
        "species": [{ "element": "Zn", "occu": 1 }],
        "abc": [0.24999921, 0.72589677, 0.45305109],
        "properties": { "magmom": -0.0 },
        "label": "Zn",
        "xyz": [-4.883189105046923, -1.123842657309971, -4.619730927690159]
      },
      {
        "species": [{ "element": "Zn", "occu": 1 }],
        "abc": [0.24999999, 0.22587814, 0.046911430000000004],
        "properties": { "magmom": 0.0 },
        "label": "Zn",
        "xyz": [-1.5195060576742792, -1.123842066842718, -0.4783555706941793]
      }
    ]
  },
  "task_ids": null,
  "uncorrected_energy_per_atom": null,
  "energy_per_atom": -2.482802113125,
  "formation_energy_per_atom": -0.3459575475,
  "energy_above_hull": 0.0,
  "is_stable": true,
  "equilibrium_reaction_energy_per_atom": null,
  "decomposes_to": null,
  "xas": null,
  "grain_boundaries": null,
  "band_gap": 0.0,
  "cbm": null,
  "vbm": null,
  "efermi": 2.97254373,
  "is_gap_direct": null,
  "is_metal": null,
  "es_source_calc_id": null,
  "bandstructure": null,
  "dos": null,
  "dos_energy_up": null,
  "dos_energy_down": null,
  "is_magnetic": null,
  "ordering": null,
  "total_magnetization": 0.0,
  "total_magnetization_normalized_vol": null,
  "total_magnetization_normalized_formula_units": null,
  "num_magnetic_sites": null,
  "num_unique_magnetic_sites": null,
  "types_of_magnetic_species": null,
  "bulk_modulus": null,
  "shear_modulus": null,
  "universal_anisotropy": null,
  "homogeneous_poisson": null,
  "e_total": null,
  "e_ionic": null,
  "e_electronic": null,
  "n": null,
  "e_ij_max": null,
  "weighted_surface_energy_EV_PER_ANG2": null,
  "weighted_surface_energy": null,
  "weighted_work_function": null,
  "surface_anisotropy": null,
  "shape_factor": null,
  "has_reconstructed": null,
  "possible_species": null,
  "has_props": null,
  "theoretical": null,
  "database_IDs": null,
  "fields_not_requested": [
    "builder_meta",
    "nsites",
    "elements",
    "nelements",
    "composition",
    "composition_reduced",
    "chemsys",
    "symmetry",
    "property_name",
    "deprecated",
    "deprecation_reasons",
    "last_updated",
    "origins",
    "warnings",
    "task_ids",
    "uncorrected_energy_per_atom",
    "equilibrium_reaction_energy_per_atom",
    "decomposes_to",
    "xas",
    "grain_boundaries",
    "cbm",
    "vbm",
    "is_gap_direct",
    "is_metal",
    "es_source_calc_id",
    "bandstructure",
    "dos",
    "dos_energy_up",
    "dos_energy_down",
    "is_magnetic",
    "ordering",
    "total_magnetization_normalized_vol",
    "total_magnetization_normalized_formula_units",
    "num_magnetic_sites",
    "num_unique_magnetic_sites",
    "types_of_magnetic_species",
    "bulk_modulus",
    "shear_modulus",
    "universal_anisotropy",
    "homogeneous_poisson",
    "e_total",
    "e_ionic",
    "e_electronic",
    "n",
    "e_ij_max",
    "weighted_surface_energy_EV_PER_ANG2",
    "weighted_surface_energy",
    "weighted_work_function",
    "surface_anisotropy",
    "shape_factor",
    "has_reconstructed",
    "possible_species",
    "has_props",
    "theoretical",
    "database_IDs"
  ]
}
