{
  "builder_meta": null,
  "nsites": null,
  "elements": null,
  "nelements": null,
  "composition": null,
  "composition_reduced": null,
  "formula_pretty": "Ni2B",
  "formula_anonymous": "AB2",
  "chemsys": null,
  "volume": 51.134900254022746,
  "density": 8.326112071976773,
  "density_atomic": 8.522483375670458,
  "symmetry": null,
  "property_name": null,
  "material_id": "mp-2536",
  "deprecated": null,
  "deprecation_reasons": null,
  "last_updated": null,
  "origins": null,
  "warnings": null,
  "structure": {
    "@module": "pymatgen.core.structure",
    "@class": "Structure",
    "charge": 0,
    "lattice": {
      "matrix": [
        [3.92372329, 0.00826659, -1.08583516],
        [-2.26961472, 3.20070734, -1.08583516],
        [-0.00425995, -0.00826659, 4.07119502]
      ],
      "pbc": [true, true, true],
      "a": 4.071205078068517,
      "b": 4.0712057732645714,
      "c": 4.071205641398754,
      "alpha": 105.52883311054879,
      "beta": 105.52880967945916,
      "gamma": 117.68133690759707,
      "volume": 51.134900254022746
    },
    "properties": {},
    "sites": [
      {
        "species": [{ "element": "Ni", "occu": 1 }],
        "abc": [0.91886749, 0.58113251, -0.0],
        "properties": { "magmom": -0.0 },
        "label": "Ni",
        "xyz": [2.286434871970295, 1.8676309910737825, -1.62875274]
      },
      {
        "species": [{ "element": "Ni", "occu": 1 }],
        "abc": [0.08113251, 0.08113251, 0.66226302],
        "properties": { "magmom": -0.0 },
        "label": "Ni",
        "xyz": [0.1313807727445617, 0.25487745260696254, 2.5200088450000573]
      },
      {
        "species": [{ "element": "Ni", "occu": 1 }],
        "abc": [0.58113251, 0.91886749, 0.0],
        "properties": { "magmom": -0.0 },
        "label": "Ni",
        "xyz": [0.19472798302970507, 2.9458299039262172, -1.62875274]
      },
      {
        "species": [{ "element": "Ni", "occu": 1 }],
        "abc": [0.41886749, 0.41886749, 0.33773698],
        "properties": { "magmom": -0.0 },
        "label": "Ni",
        "xyz": [0.6914135622554385, 1.3413429223930375, 0.4653510149999429]
      },
      {
        "species": [{ "element": "B", "occu": 1 }],
        "abc": [0.5, -0.0, 0.5],
        "properties": { "magmom": -0.0 },
        "label": "B",
        "xyz": [1.95973167, 0.0, 1.49267993]
      },
      {
        "species": [{ "element": "B", "occu": 1 }],
        "abc": [0.0, 0.5, 0.5],
        "properties": { "magmom": -0.0 },
        "label": "B",
        "xyz": [-1.1369373349999998, 1.5962203750000001, 1.49267993]
      }
    ]
  },
  "task_ids": null,
  "uncorrected_energy_per_atom": null,
  "energy_per_atom": -10.719249691666667,
  "formation_energy_per_atom": -0.28265351916666603,
  "energy_above_hull": 0.0,
  "is_stable": true,
  "equilibrium_reaction_energy_per_atom": null,
  "decomposes_to": null,
  "xas": null,
  "grain_boundaries": null,
  "band_gap": 0.0,
  "cbm": null,
  "vbm": null,
  "efermi": 8.797243420000001,
  "is_gap_direct": null,
  "is_metal": null,
  "es_source_calc_id": null,
  "bandstructure": null,
  "dos": null,
  "dos_energy_up": null,
  "dos_energy_down": null,
  "is_magnetic": null,
  "ordering": null,
  "total_magnetization": 0.0,
  "total_magnetization_normalized_vol": null,
  "total_magnetization_normalized_formula_units": null,
  "num_magnetic_sites": null,
  "num_unique_magnetic_sites": null,
  "types_of_magnetic_species": null,
  "bulk_modulus": null,
  "shear_modulus": null,
  "universal_anisotropy": null,
  "homogeneous_poisson": null,
  "e_total": null,
  "e_ionic": null,
  "e_electronic": null,
  "n": null,
  "e_ij_max": null,
  "weighted_surface_energy_EV_PER_ANG2": null,
  "weighted_surface_energy": null,
  "weighted_work_function": null,
  "surface_anisotropy": null,
  "shape_factor": null,
  "has_reconstructed": null,
  "possible_species": null,
  "has_props": null,
  "theoretical": null,
  "database_IDs": null,
  "fields_not_requested": [
    "builder_meta",
    "nsites",
    "elements",
    "nelements",
    "composition",
    "composition_reduced",
    "chemsys",
    "symmetry",
    "property_name",
    "deprecated",
    "deprecation_reasons",
    "last_updated",
    "origins",
    "warnings",
    "task_ids",
    "uncorrected_energy_per_atom",
    "equilibrium_reaction_energy_per_atom",
    "decomposes_to",
    "xas",
    "grain_boundaries",
    "cbm",
    "vbm",
    "is_gap_direct",
    "is_metal",
    "es_source_calc_id",
    "bandstructure",
    "dos",
    "dos_energy_up",
    "dos_energy_down",
    "is_magnetic",
    "ordering",
    "total_magnetization_normalized_vol",
    "total_magnetization_normalized_formula_units",
    "num_magnetic_sites",
    "num_unique_magnetic_sites",
    "types_of_magnetic_species",
    "bulk_modulus",
    "shear_modulus",
    "universal_anisotropy",
    "homogeneous_poisson",
    "e_total",
    "e_ionic",
    "e_electronic",
    "n",
    "e_ij_max",
    "weighted_surface_energy_EV_PER_ANG2",
    "weighted_surface_energy",
    "weighted_work_function",
    "surface_anisotropy",
    "shape_factor",
    "has_reconstructed",
    "possible_species",
    "has_props",
    "theoretical",
    "database_IDs"
  ]
}
