{
  "builder_meta": null,
  "nsites": null,
  "elements": null,
  "nelements": null,
  "composition": null,
  "composition_reduced": null,
  "formula_pretty": "Ni2Ge",
  "formula_anonymous": "AB2",
  "chemsys": null,
  "volume": 138.57335139122415,
  "density": 9.108444644890602,
  "density_atomic": 11.547779282602013,
  "symmetry": null,
  "property_name": null,
  "material_id": "mp-17383",
  "deprecated": null,
  "deprecation_reasons": null,
  "last_updated": null,
  "origins": null,
  "warnings": null,
  "structure": {
    "@module": "pymatgen.core.structure",
    "@class": "Structure",
    "charge": 0,
    "lattice": {
      "matrix": [
        [3.7879538200000002, 0.0, 0.0],
        [0.0, 5.09612578, 0.0],
        [0.0, 0.0, 7.17851986]
      ],
      "pbc": [true, true, true],
      "a": 3.7879538200000002,
      "b": 5.09612578,
      "c": 7.17851986,
      "alpha": 90.0,
      "beta": 90.0,
      "gamma": 90.0,
      "volume": 138.57335139122415
    },
    "properties": {},
    "sites": [
      {
        "species": [{ "element": "Ni", "occu": 1 }],
        "abc": [0.75, 0.6709522800000001, 0.940453299999999],
        "properties": { "magmom": -0.0 },
        "label": "Ni",
        "xyz": [2.840965365, 3.419257211257779, 6.751062691452531]
      },
      {
        "species": [{ "element": "Ni", "occu": 1 }],
        "abc": [0.25, 0.32904772, 0.059546699999999],
        "properties": { "magmom": -0.0 },
        "label": "Ni",
        "xyz": [0.9469884550000001, 1.6768685687422216, 0.4274571685474548]
      },
      {
        "species": [{ "element": "Ni", "occu": 1 }],
        "abc": [0.75, 0.17095228, 0.5595467],
        "properties": { "magmom": -0.0 },
        "label": "Ni",
        "xyz": [2.840965365, 0.8711943212577785, 4.016717098547462]
      },
      {
        "species": [{ "element": "Ni", "occu": 1 }],
        "abc": [0.25, 0.82904772, 0.4404533],
        "properties": { "magmom": -0.0 },
        "label": "Ni",
        "xyz": [0.9469884550000001, 4.224931458742222, 3.1618027614525377]
      },
      {
        "species": [{ "element": "Ni", "occu": 1 }],
        "abc": [0.75, 0.044515, 0.20656487],
        "properties": { "magmom": -0.0 },
        "label": "Ni",
        "xyz": [2.840965365, 0.22685403909670002, 1.4828300216733181]
      },
      {
        "species": [{ "element": "Ni", "occu": 1 }],
        "abc": [0.25, 0.955484999999999, 0.79343513],
        "properties": { "magmom": -0.0 },
        "label": "Ni",
        "xyz": [0.9469884550000001, 4.8692717409032955, 5.695689838326682]
      },
      {
        "species": [{ "element": "Ni", "occu": 1 }],
        "abc": [0.75, 0.544515, 0.29343513],
        "properties": { "magmom": -0.0 },
        "label": "Ni",
        "xyz": [2.840965365, 2.7749169290967, 2.1064299083266818]
      },
      {
        "species": [{ "element": "Ni", "occu": 1 }],
        "abc": [0.25, 0.455485, 0.70656487],
        "properties": { "magmom": -0.0 },
        "label": "Ni",
        "xyz": [0.9469884550000001, 2.3212088509033, 5.072089951673318]
      },
      {
        "species": [{ "element": "Ge", "occu": 1 }],
        "abc": [0.75, 0.712596, 0.61400951],
        "properties": { "magmom": -0.0 },
        "label": "Ge",
        "xyz": [2.840965365, 3.6314788463248804, 4.407679461763869]
      },
      {
        "species": [{ "element": "Ge", "occu": 1 }],
        "abc": [0.25, 0.287404, 0.38599049],
        "properties": { "magmom": -0.0 },
        "label": "Ge",
        "xyz": [0.9469884550000001, 1.46464693367512, 2.7708403982361314]
      },
      {
        "species": [{ "element": "Ge", "occu": 1 }],
        "abc": [0.75, 0.212595999999999, 0.88599049],
        "properties": { "magmom": -0.0 },
        "label": "Ge",
        "xyz": [2.840965365, 1.083415956324875, 6.360100328236131]
      },
      {
        "species": [{ "element": "Ge", "occu": 1 }],
        "abc": [0.25, 0.787404, 0.11400951000000001],
        "properties": { "magmom": -0.0 },
        "label": "Ge",
        "xyz": [0.9469884550000001, 4.01270982367512, 0.8184195317638686]
      }
    ]
  },
  "task_ids": null,
  "uncorrected_energy_per_atom": null,
  "energy_per_atom": -12.8715927975,
  "formation_energy_per_atom": -0.25978883083333404,
  "energy_above_hull": 0.004732982500000001,
  "is_stable": false,
  "equilibrium_reaction_energy_per_atom": null,
  "decomposes_to": null,
  "xas": null,
  "grain_boundaries": null,
  "band_gap": 0.0,
  "cbm": null,
  "vbm": null,
  "efermi": 8.97771088,
  "is_gap_direct": null,
  "is_metal": null,
  "es_source_calc_id": null,
  "bandstructure": null,
  "dos": null,
  "dos_energy_up": null,
  "dos_energy_down": null,
  "is_magnetic": null,
  "ordering": null,
  "total_magnetization": 1e-7,
  "total_magnetization_normalized_vol": null,
  "total_magnetization_normalized_formula_units": null,
  "num_magnetic_sites": null,
  "num_unique_magnetic_sites": null,
  "types_of_magnetic_species": null,
  "bulk_modulus": null,
  "shear_modulus": null,
  "universal_anisotropy": null,
  "homogeneous_poisson": null,
  "e_total": null,
  "e_ionic": null,
  "e_electronic": null,
  "n": null,
  "e_ij_max": null,
  "weighted_surface_energy_EV_PER_ANG2": null,
  "weighted_surface_energy": null,
  "weighted_work_function": null,
  "surface_anisotropy": null,
  "shape_factor": null,
  "has_reconstructed": null,
  "possible_species": null,
  "has_props": null,
  "theoretical": null,
  "database_IDs": null,
  "fields_not_requested": [
    "builder_meta",
    "nsites",
    "elements",
    "nelements",
    "composition",
    "composition_reduced",
    "chemsys",
    "symmetry",
    "property_name",
    "deprecated",
    "deprecation_reasons",
    "last_updated",
    "origins",
    "warnings",
    "task_ids",
    "uncorrected_energy_per_atom",
    "equilibrium_reaction_energy_per_atom",
    "decomposes_to",
    "xas",
    "grain_boundaries",
    "cbm",
    "vbm",
    "is_gap_direct",
    "is_metal",
    "es_source_calc_id",
    "bandstructure",
    "dos",
    "dos_energy_up",
    "dos_energy_down",
    "is_magnetic",
    "ordering",
    "total_magnetization_normalized_vol",
    "total_magnetization_normalized_formula_units",
    "num_magnetic_sites",
    "num_unique_magnetic_sites",
    "types_of_magnetic_species",
    "bulk_modulus",
    "shear_modulus",
    "universal_anisotropy",
    "homogeneous_poisson",
    "e_total",
    "e_ionic",
    "e_electronic",
    "n",
    "e_ij_max",
    "weighted_surface_energy_EV_PER_ANG2",
    "weighted_surface_energy",
    "weighted_work_function",
    "surface_anisotropy",
    "shape_factor",
    "has_reconstructed",
    "possible_species",
    "has_props",
    "theoretical",
    "database_IDs"
  ]
}
