{"builder_meta": null, "nsites": null, "elements": null, "nelements": null, "composition": null, "composition_reduced": null, "formula_pretty": "Ni2H", "formula_anonymous": "AB2", "chemsys": null, "volume": 22.933027097110035, "density": 8.572749258850552, "density_atomic": 7.644342365703345, "symmetry": null, "property_name": null, "material_id": "mp-1220079", "deprecated": null, "deprecation_reasons": null, "last_updated": null, "origins": null, "warnings": null, "structure": {"@module": "pymatgen.core.structure", "@class": "Structure", "charge": 0, "lattice": {"matrix": [[4.20585382, -1.26423696, -0.00041725000000000003], [4.20585382, 1.26423696, -0.00041725000000000003], [3.82605055, 0.0, 2.1561168]], "pbc": [true, true, true], "a": 4.391753820552354, "b": 4.391753820552354, "c": 4.391753916876211, "alpha": 33.460500240050266, "beta": 33.460500240050266, "gamma": 33.460488873446735, "volume": 22.933027097110035}, "properties": {}, "sites": [{"species": [{"element": "Ni", "occu": 1}], "abc": [0.25273095, 0.25273095, 0.25273095], "properties": {"magmom": 0.373}, "label": "Ni", "xyz": [3.0928602532289804, 0.0, 0.544706543197185]}, {"species": [{"element": "Ni", "occu": 1}], "abc": [0.74726905, 0.74726905, 0.74726905], "properties": {"magmom": 0.373}, "label": "Ni", "xyz": [9.14489793677102, 0.0, 1.610575756802815]}, {"species": [{"element": "H", "occu": 1}], "abc": [0.5, 0.5, 0.5], "properties": {"magmom": -0.002}, "label": "H", "xyz": [6.118879095, 0.0, 1.07764115]}]}, "task_ids": null, "uncorrected_energy_per_atom": null, "energy_per_atom": -9.103702703333333, "formation_energy_per_atom": 0.035812870416667, "energy_above_hull": 0.043231146666666005, "is_stable": false, "equilibrium_reaction_energy_per_atom": null, "decomposes_to": null, "xas": null, "grain_boundaries": null, "band_gap": 0.0, "cbm": null, "vbm": null, "efermi": 7.64600537, "is_gap_direct": null, "is_metal": null, "es_source_calc_id": null, "bandstructure": null, "dos": null, "dos_energy_up": null, "dos_energy_down": null, "is_magnetic": null, "ordering": null, "total_magnetization": 0.6908871, "total_magnetization_normalized_vol": null, "total_magnetization_normalized_formula_units": null, "num_magnetic_sites": null, "num_unique_magnetic_sites": null, "types_of_magnetic_species": null, "bulk_modulus": null, "shear_modulus": null, "universal_anisotropy": null, "homogeneous_poisson": null, "e_total": null, "e_ionic": null, "e_electronic": null, "n": null, "e_ij_max": null, "weighted_surface_energy_EV_PER_ANG2": null, "weighted_surface_energy": null, "weighted_work_function": null, "surface_anisotropy": null, "shape_factor": null, "has_reconstructed": null, "possible_species": null, "has_props": null, "theoretical": null, "database_IDs": null, "fields_not_requested": ["builder_meta", "nsites", "elements", "nelements", "composition", "composition_reduced", "chemsys", "symmetry", "property_name", "deprecated", "deprecation_reasons", "last_updated", "origins", "warnings", "task_ids", "uncorrected_energy_per_atom", "equilibrium_reaction_energy_per_atom", "decomposes_to", "xas", "grain_boundaries", "cbm", "vbm", "is_gap_direct", "is_metal", "es_source_calc_id", "bandstructure", "dos", "dos_energy_up", "dos_energy_down", "is_magnetic", "ordering", "total_magnetization_normalized_vol", "total_magnetization_normalized_formula_units", "num_magnetic_sites", "num_unique_magnetic_sites", "types_of_magnetic_species", "bulk_modulus", "shear_modulus", "universal_anisotropy", "homogeneous_poisson", "e_total", "e_ionic", "e_electronic", "n", "e_ij_max", "weighted_surface_energy_EV_PER_ANG2", "weighted_surface_energy", "weighted_work_function", "surface_anisotropy", "shape_factor", "has_reconstructed", "possible_species", "has_props", "theoretical", "database_IDs"]}