{"builder_meta": null, "nsites": null, "elements": null, "nelements": null, "composition": null, "composition_reduced": null, "formula_pretty": "Ni2O5", "formula_anonymous": "A2B5", "chemsys": null, "volume": 142.47066496800824, "density": 4.601136817709952, "density_atomic": 10.176476069143446, "symmetry": null, "property_name": null, "material_id": "mp-1094139", "deprecated": null, "deprecation_reasons": null, "last_updated": null, "origins": null, "warnings": null, "structure": {"@module": "pymatgen.core.structure", "@class": "Structure", "charge": 0, "lattice": {"matrix": [[2.389984, 5.581921, 0.0], [-2.389984, 5.581921, 0.0], [0.0, 1.07454, 5.339698999999999]], "pbc": [true, true, true], "a": 6.0720561237934065, "b": 6.0720561237934065, "c": 5.446744130414149, "alpha": 79.55120830879117, "beta": 79.55120830879117, "gamma": 46.35784263592774, "volume": 142.47066496800818}, "properties": {}, "sites": [{"species": [{"element": "Ni", "occu": 1}], "abc": [0.918647999999999, 0.364768, 0.698960999999999], "properties": {"magmom": 1.355999999999999}, "label": "Ni", "xyz": [1.323764337919998, 7.914988275075993, 3.732241352738994]}, {"species": [{"element": "Ni", "occu": 1}], "abc": [0.635232, 0.081352, 0.801039], "properties": {"magmom": 1.355999999999999}, "label": "Ni", "xyz": [1.3237643379200001, 4.860663724924001, 4.2773071472609985]}, {"species": [{"element": "Ni", "occu": 1}], "abc": [0.081352, 0.635232, 0.301039], "properties": {"magmom": 1.355999999999999}, "label": "Ni", "xyz": [-1.3237643379200001, 4.323393724924, 1.6074576472609996]}, {"species": [{"element": "Ni", "occu": 1}], "abc": [0.364768, 0.918647999999999, 0.198961], "properties": {"magmom": 1.355999999999999}, "label": "Ni", "xyz": [-1.323764337919998, 7.377718275075995, 1.0623918527389997]}, {"species": [{"element": "O", "occu": 1}], "abc": [0.8565800000000001, 0.719957, 0.621647], "properties": {"magmom": -0.33}, "label": "O", "xyz": [0.3265267840320005, 9.468089554957, 3.319407864252999]}, {"species": [{"element": "O", "occu": 1}], "abc": [0.280043, 0.14342000000000002, 0.878352999999999], "properties": {"magmom": -0.33}, "label": "O", "xyz": [0.3265267840319999, 3.307562445042999, 4.690140635746994]}, {"species": [{"element": "O", "occu": 1}], "abc": [0.14342000000000002, 0.280043, 0.378353], "properties": {"magmom": -0.33}, "label": "O", "xyz": [-0.3265267840319999, 2.7702924450429998, 2.0202911357469993]}, {"species": [{"element": "O", "occu": 1}], "abc": [0.719957, 0.8565800000000001, 0.121646999999999], "properties": {"magmom": -0.33}, "label": "O", "xyz": [-0.3265267840320005, 8.930819554956999, 0.6495583642529945]}, {"species": [{"element": "O", "occu": 1}], "abc": [0.016458999999999002, 0.983541, 0.25], "properties": {"magmom": 0.196}, "label": "O", "xyz": [-2.3113105066880024, 5.850555999999994, 1.3349247499999997]}, {"species": [{"element": "O", "occu": 1}], "abc": [0.983541, 0.016458999999999002, 0.75], "properties": {"magmom": 0.196}, "label": "O", "xyz": [2.3113105066880024, 6.387825999999994, 4.004774249999999]}, {"species": [{"element": "O", "occu": 1}], "abc": [0.464976, 0.418701, 0.502818], "properties": {"magmom": 0.335}, "label": "O", "xyz": [0.11059650960000011, 5.472913257237001, 2.6848967717819994]}, {"species": [{"element": "O", "occu": 1}], "abc": [0.581299, 0.5350239999999991, 0.9971819999999991], "properties": {"magmom": 0.335}, "label": "O", "xyz": [0.11059650960000234, 7.302738742762995, 5.324651728217994]}, {"species": [{"element": "O", "occu": 1}], "abc": [0.5350239999999991, 0.581299, 0.497181999999999], "properties": {"magmom": 0.335}, "label": "O", "xyz": [-0.11059650960000234, 6.7654687427629945, 2.654802228217994]}, {"species": [{"element": "O", "occu": 1}], "abc": [0.418701, 0.464976, 0.002817999999999], "properties": {"magmom": 0.335}, "label": "O", "xyz": [-0.11059650960000011, 4.9356432572369995, 0.015047271781994657]}]}, "task_ids": null, "uncorrected_energy_per_atom": null, "energy_per_atom": -5.370624897857143, "formation_energy_per_atom": -0.18489941428571402, "energy_above_hull": 0.5129339652380951, "is_stable": false, "equilibrium_reaction_energy_per_atom": null, "decomposes_to": null, "xas": null, "grain_boundaries": null, "band_gap": 0.0, "cbm": null, "vbm": null, "efermi": 2.62513764, "is_gap_direct": null, "is_metal": null, "es_source_calc_id": null, "bandstructure": null, "dos": null, "dos_energy_up": null, "dos_energy_down": null, "is_magnetic": null, "ordering": null, "total_magnetization": 5.9982458, "total_magnetization_normalized_vol": null, "total_magnetization_normalized_formula_units": null, "num_magnetic_sites": null, "num_unique_magnetic_sites": null, "types_of_magnetic_species": null, "bulk_modulus": null, "shear_modulus": null, "universal_anisotropy": null, "homogeneous_poisson": null, "e_total": null, "e_ionic": null, "e_electronic": null, "n": null, "e_ij_max": null, "weighted_surface_energy_EV_PER_ANG2": null, "weighted_surface_energy": null, "weighted_work_function": null, "surface_anisotropy": null, "shape_factor": null, "has_reconstructed": null, "possible_species": null, "has_props": null, "theoretical": null, "database_IDs": null, "fields_not_requested": ["builder_meta", "nsites", "elements", "nelements", "composition", "composition_reduced", "chemsys", "symmetry", "property_name", "deprecated", "deprecation_reasons", "last_updated", "origins", "warnings", "task_ids", "uncorrected_energy_per_atom", "equilibrium_reaction_energy_per_atom", "decomposes_to", "xas", "grain_boundaries", "cbm", "vbm", "is_gap_direct", "is_metal", "es_source_calc_id", "bandstructure", "dos", "dos_energy_up", "dos_energy_down", "is_magnetic", "ordering", "total_magnetization_normalized_vol", "total_magnetization_normalized_formula_units", "num_magnetic_sites", "num_unique_magnetic_sites", "types_of_magnetic_species", "bulk_modulus", "shear_modulus", "universal_anisotropy", "homogeneous_poisson", "e_total", "e_ionic", "e_electronic", "n", "e_ij_max", "weighted_surface_energy_EV_PER_ANG2", "weighted_surface_energy", "weighted_work_function", "surface_anisotropy", "shape_factor", "has_reconstructed", "possible_species", "has_props", "theoretical", "database_IDs"]}