{
  "builder_meta": null,
  "nsites": null,
  "elements": null,
  "nelements": null,
  "composition": null,
  "composition_reduced": null,
  "formula_pretty": "Ni2O3",
  "formula_anonymous": "A2B3",
  "chemsys": null,
  "volume": 205.35368662354134,
  "density": 5.34937079621259,
  "density_atomic": 10.267684331177067,
  "symmetry": null,
  "property_name": null,
  "material_id": "mp-1043875",
  "deprecated": null,
  "deprecation_reasons": null,
  "last_updated": null,
  "origins": null,
  "warnings": null,
  "structure": {
    "@module": "pymatgen.core.structure",
    "@class": "Structure",
    "charge": 0,
    "lattice": {
      "matrix": [
        [2.902758, 0.0, 0.0],
        [-1.451379, 4.8532779999999995, 0.0],
        [0.0, 0.0, 14.576609]
      ],
      "pbc": [true, true, true],
      "a": 2.902758,
      "b": 5.065649844484416,
      "c": 14.576609,
      "alpha": 90.0,
      "beta": 90.0,
      "gamma": 106.64936183670123,
      "volume": 205.35368662354128
    },
    "properties": {},
    "sites": [
      {
        "species": [{ "element": "Ni", "occu": 1 }],
        "abc": [0.863355, 0.726711999999999, 0.046747],
        "properties": { "magmom": 1.581999999999999 },
        "label": "Ni",
        "xyz": [1.4513760972420016, 3.526935361935995, 0.681412740923]
      },
      {
        "species": [{ "element": "Ni", "occu": 1 }],
        "abc": [0.136643, 0.273287, 0.9532529999999991],
        "properties": { "magmom": 1.581999999999999 },
        "label": "Ni",
        "xyz": [-1.4513790000392213e-6, 1.3263377847859998, 13.895196259076986]
      },
      {
        "species": [{ "element": "Ni", "occu": 1 }],
        "abc": [0.863355, 0.726711999999999, 0.453252999999999],
        "properties": { "magmom": 1.581999999999999 },
        "label": "Ni",
        "xyz": [1.4513760972420016, 3.526935361935995, 6.606891759076985]
      },
      {
        "species": [{ "element": "Ni", "occu": 1 }],
        "abc": [0.136643, 0.273287, 0.546747],
        "properties": { "magmom": 1.581999999999999 },
        "label": "Ni",
        "xyz": [-1.4513790000392213e-6, 1.3263377847859998, 7.969717240922999]
      },
      {
        "species": [{ "element": "Ni", "occu": 1 }],
        "abc": [0.406022, 0.812043, 0.635374],
        "properties": { "magmom": 1.425 },
        "label": "Ni",
        "xyz": [1.4513790000947324e-6, 3.9410704269539996, 9.261598366766]
      },
      {
        "species": [{ "element": "Ni", "occu": 1 }],
        "abc": [0.593978, 0.187956999999999, 0.364627],
        "properties": { "magmom": 1.425 },
        "label": "Ni",
        "xyz": [1.4513775486210014, 0.9122075730459951, 5.315025209842999]
      },
      {
        "species": [{ "element": "Ni", "occu": 1 }],
        "abc": [0.593978, 0.187956999999999, 0.135373],
        "properties": { "magmom": 1.425 },
        "label": "Ni",
        "xyz": [1.4513775486210014, 0.9122075730459951, 1.9732792901569998]
      },
      {
        "species": [{ "element": "Ni", "occu": 1 }],
        "abc": [0.406022, 0.812043, 0.864626],
        "properties": { "magmom": 1.424 },
        "label": "Ni",
        "xyz": [1.4513790000947324e-6, 3.9410704269539996, 12.603315133234]
      },
      {
        "species": [{ "element": "O", "occu": 1 }],
        "abc": [0.499998999999999, 0.0, 0.5],
        "properties": { "magmom": -0.049 },
        "label": "O",
        "xyz": [1.4513760972419971, 0.0, 7.2883045]
      },
      {
        "species": [{ "element": "O", "occu": 1 }],
        "abc": [0.499998999999999, 0.0, 0.0],
        "properties": { "magmom": -0.049 },
        "label": "O",
        "xyz": [1.4513760972419971, 0.0, 0.0]
      },
      {
        "species": [{ "element": "O", "occu": 1 }],
        "abc": [0.031745999999999004, 0.063493, 0.843383999999999],
        "properties": { "magmom": -0.402 },
        "label": "O",
        "xyz": [-1.4513790028841678e-6, 0.30814918005399994, 12.293678804855986]
      },
      {
        "species": [{ "element": "O", "occu": 1 }],
        "abc": [0.968254, 0.936507, 0.156617],
        "properties": { "magmom": -0.402 },
        "label": "O",
        "xyz": [1.451380451379, 4.545128819945999, 2.282944771753]
      },
      {
        "species": [{ "element": "O", "occu": 1 }],
        "abc": [0.968254, 0.936507, 0.343383],
        "properties": { "magmom": -0.402 },
        "label": "O",
        "xyz": [1.451380451379, 4.545128819945999, 5.005359728247]
      },
      {
        "species": [{ "element": "O", "occu": 1 }],
        "abc": [0.031745999999999004, 0.063493, 0.656617],
        "properties": { "magmom": -0.402 },
        "label": "O",
        "xyz": [-1.4513790028841678e-6, 0.30814918005399994, 9.571249271753]
      },
      {
        "species": [{ "element": "O", "occu": 1 }],
        "abc": [0.780269, 0.56054, 0.922617999999999],
        "properties": { "magmom": -0.084 },
        "label": "O",
        "xyz": [1.4513760972419998, 2.72045645012, 13.448641842361985]
      },
      {
        "species": [{ "element": "O", "occu": 1 }],
        "abc": [0.21973, 0.439461, 0.07738199999999901],
        "properties": { "magmom": -0.084 },
        "label": "O",
        "xyz": [-1.4513789999837101e-6, 2.1328264031579995, 1.1279671576379855]
      },
      {
        "species": [{ "element": "O", "occu": 1 }],
        "abc": [0.21973, 0.439461, 0.422618],
        "properties": { "magmom": -0.084 },
        "label": "O",
        "xyz": [-1.4513789999837101e-6, 2.1328264031579995, 6.160337342361999]
      },
      {
        "species": [{ "element": "O", "occu": 1 }],
        "abc": [0.780269, 0.56054, 0.577382],
        "properties": { "magmom": -0.084 },
        "label": "O",
        "xyz": [1.4513760972419998, 2.72045645012, 8.416271657638]
      },
      {
        "species": [{ "element": "O", "occu": 1 }],
        "abc": [0.325287999999999, 0.650575999999999, 0.75],
        "properties": { "magmom": -0.063 },
        "label": "O",
        "xyz": [-1.4432899320127035e-15, 3.157426188127995, 10.93245675]
      },
      {
        "species": [{ "element": "O", "occu": 1 }],
        "abc": [0.67471, 0.349423, 0.25],
        "properties": { "magmom": -0.06 },
        "label": "O",
        "xyz": [1.4513746458630001, 1.6958469585939997, 3.64415225]
      }
    ]
  },
  "task_ids": null,
  "uncorrected_energy_per_atom": null,
  "energy_per_atom": -6.043990028,
  "formation_energy_per_atom": -0.763158753,
  "energy_above_hull": 0.213807978333332,
  "is_stable": false,
  "equilibrium_reaction_energy_per_atom": null,
  "decomposes_to": null,
  "xas": null,
  "grain_boundaries": null,
  "band_gap": 0.0,
  "cbm": null,
  "vbm": null,
  "efermi": 3.32134089,
  "is_gap_direct": null,
  "is_metal": null,
  "es_source_calc_id": null,
  "bandstructure": null,
  "dos": null,
  "dos_energy_up": null,
  "dos_energy_down": null,
  "is_magnetic": null,
  "ordering": null,
  "total_magnetization": 9.6485468,
  "total_magnetization_normalized_vol": null,
  "total_magnetization_normalized_formula_units": null,
  "num_magnetic_sites": null,
  "num_unique_magnetic_sites": null,
  "types_of_magnetic_species": null,
  "bulk_modulus": null,
  "shear_modulus": null,
  "universal_anisotropy": null,
  "homogeneous_poisson": null,
  "e_total": null,
  "e_ionic": null,
  "e_electronic": null,
  "n": null,
  "e_ij_max": null,
  "weighted_surface_energy_EV_PER_ANG2": null,
  "weighted_surface_energy": null,
  "weighted_work_function": null,
  "surface_anisotropy": null,
  "shape_factor": null,
  "has_reconstructed": null,
  "possible_species": null,
  "has_props": null,
  "theoretical": null,
  "database_IDs": null,
  "fields_not_requested": [
    "builder_meta",
    "nsites",
    "elements",
    "nelements",
    "composition",
    "composition_reduced",
    "chemsys",
    "symmetry",
    "property_name",
    "deprecated",
    "deprecation_reasons",
    "last_updated",
    "origins",
    "warnings",
    "task_ids",
    "uncorrected_energy_per_atom",
    "equilibrium_reaction_energy_per_atom",
    "decomposes_to",
    "xas",
    "grain_boundaries",
    "cbm",
    "vbm",
    "is_gap_direct",
    "is_metal",
    "es_source_calc_id",
    "bandstructure",
    "dos",
    "dos_energy_up",
    "dos_energy_down",
    "is_magnetic",
    "ordering",
    "total_magnetization_normalized_vol",
    "total_magnetization_normalized_formula_units",
    "num_magnetic_sites",
    "num_unique_magnetic_sites",
    "types_of_magnetic_species",
    "bulk_modulus",
    "shear_modulus",
    "universal_anisotropy",
    "homogeneous_poisson",
    "e_total",
    "e_ionic",
    "e_electronic",
    "n",
    "e_ij_max",
    "weighted_surface_energy_EV_PER_ANG2",
    "weighted_surface_energy",
    "weighted_work_function",
    "surface_anisotropy",
    "shape_factor",
    "has_reconstructed",
    "possible_species",
    "has_props",
    "theoretical",
    "database_IDs"
  ]
}
