{"builder_meta": null, "nsites": null, "elements": null, "nelements": null, "composition": null, "composition_reduced": null, "formula_pretty": "Ni2P", "formula_anonymous": "AB2", "chemsys": null, "volume": 97.84254338278858, "density": 7.553723583612449, "density_atomic": 10.871393709198731, "symmetry": null, "property_name": null, "material_id": "mp-21167", "deprecated": null, "deprecation_reasons": null, "last_updated": null, "origins": null, "warnings": null, "structure": {"@module": "pymatgen.core.structure", "@class": "Structure", "charge": 0, "lattice": {"matrix": [[5.81965198, 0.0, -0.0], [-2.90982599, 5.03996649, 0.0], [-0.0, 0.0, 3.33582355]], "pbc": [true, true, true], "a": 5.81965198, "b": 5.81965200956229, "c": 3.33582355, "alpha": 90.0, "beta": 90.0, "gamma": 119.99999983196373, "volume": 97.84254338278858}, "properties": {}, "sites": [{"species": [{"element": "Ni", "occu": 1}], "abc": [0.60029052, -0.0, 0.5], "properties": {"magmom": 0.0}, "label": "Ni", "xyz": [3.4934819132932295, 0.0, 1.667911775]}, {"species": [{"element": "Ni", "occu": 1}], "abc": [-0.0, 0.60029052, 0.5], "properties": {"magmom": 0.0}, "label": "Ni", "xyz": [-1.7467409566466148, 3.0254441050646754, 1.667911775]}, {"species": [{"element": "Ni", "occu": 1}], "abc": [0.74019387, 0.74019387, -0.0], "properties": {"magmom": 0.0}, "label": "Ni", "xyz": [2.153835360564681, 3.7305523009034167, 0.0]}, {"species": [{"element": "Ni", "occu": 1}], "abc": [0.0, 0.25980613, -0.0], "properties": {"magmom": 0.0}, "label": "Ni", "xyz": [-0.7559906294353187, 1.3094141890965838, 0.0]}, {"species": [{"element": "Ni", "occu": 1}], "abc": [0.39970948, 0.39970948, 0.5], "properties": {"magmom": 0.0}, "label": "Ni", "xyz": [1.163085033353385, 2.0145223849353253, 1.667911775]}, {"species": [{"element": "Ni", "occu": 1}], "abc": [0.25980613, -0.0, 0.0], "properties": {"magmom": 0.0}, "label": "Ni", "xyz": [1.5119812588706374, 0.0, 0.0]}, {"species": [{"element": "P", "occu": 1}], "abc": [0.333333, 0.666667, 0.0], "properties": {"magmom": 0.0}, "label": "P", "xyz": [-2.909825989938497e-06, 3.35997933998883, 0.0]}, {"species": [{"element": "P", "occu": 1}], "abc": [-0.0, -0.0, 0.5], "properties": {"magmom": 0.0}, "label": "P", "xyz": [0.0, 0.0, 1.667911775]}, {"species": [{"element": "P", "occu": 1}], "abc": [0.666667, 0.333333, 0.0], "properties": {"magmom": 0.0}, "label": "P", "xyz": [2.90982889982599, 1.67998715001117, 0.0]}]}, "task_ids": null, "uncorrected_energy_per_atom": null, "energy_per_atom": -11.462328735555555, "formation_energy_per_atom": -0.47382519154761904, "energy_above_hull": 0.0022342603140080002, "is_stable": false, "equilibrium_reaction_energy_per_atom": null, "decomposes_to": null, "xas": null, "grain_boundaries": null, "band_gap": 0.0, "cbm": null, "vbm": null, "efermi": 10.2335158, "is_gap_direct": null, "is_metal": null, "es_source_calc_id": null, "bandstructure": null, "dos": null, "dos_energy_up": null, "dos_energy_down": null, "is_magnetic": null, "ordering": null, "total_magnetization": 1.1e-06, "total_magnetization_normalized_vol": null, "total_magnetization_normalized_formula_units": null, "num_magnetic_sites": null, "num_unique_magnetic_sites": null, "types_of_magnetic_species": null, "bulk_modulus": null, "shear_modulus": null, "universal_anisotropy": null, "homogeneous_poisson": null, "e_total": null, "e_ionic": null, "e_electronic": null, "n": null, "e_ij_max": null, "weighted_surface_energy_EV_PER_ANG2": null, "weighted_surface_energy": null, "weighted_work_function": null, "surface_anisotropy": null, "shape_factor": null, "has_reconstructed": null, "possible_species": null, "has_props": null, "theoretical": null, "database_IDs": null, "fields_not_requested": ["builder_meta", "nsites", "elements", "nelements", "composition", "composition_reduced", "chemsys", "symmetry", "property_name", "deprecated", "deprecation_reasons", "last_updated", "origins", "warnings", "task_ids", "uncorrected_energy_per_atom", "equilibrium_reaction_energy_per_atom", "decomposes_to", "xas", "grain_boundaries", "cbm", "vbm", "is_gap_direct", "is_metal", "es_source_calc_id", "bandstructure", "dos", "dos_energy_up", "dos_energy_down", "is_magnetic", "ordering", "total_magnetization_normalized_vol", "total_magnetization_normalized_formula_units", "num_magnetic_sites", "num_unique_magnetic_sites", "types_of_magnetic_species", "bulk_modulus", "shear_modulus", "universal_anisotropy", "homogeneous_poisson", "e_total", "e_ionic", "e_electronic", "n", "e_ij_max", "weighted_surface_energy_EV_PER_ANG2", "weighted_surface_energy", "weighted_work_function", "surface_anisotropy", "shape_factor", "has_reconstructed", "possible_species", "has_props", "theoretical", "database_IDs"]}