{
  "builder_meta": null,
  "nsites": null,
  "elements": null,
  "nelements": null,
  "composition": null,
  "composition_reduced": null,
  "formula_pretty": "Ni2S",
  "formula_anonymous": "AB2",
  "chemsys": null,
  "volume": 34.51171659445929,
  "density": 7.190907232749256,
  "density_atomic": 11.50390553148643,
  "symmetry": null,
  "property_name": null,
  "material_id": "mp-849078",
  "deprecated": null,
  "deprecation_reasons": null,
  "last_updated": null,
  "origins": null,
  "warnings": null,
  "structure": {
    "@module": "pymatgen.core.structure",
    "@class": "Structure",
    "charge": 0,
    "lattice": {
      "matrix": [
        [-1.431868, 1.431868, 4.208241],
        [1.431868, -1.431868, 4.208241],
        [1.431868, 1.431868, -4.208241]
      ],
      "pbc": [true, true, true],
      "a": 4.670094672801505,
      "b": 4.670094672801505,
      "c": 4.670094672801505,
      "alpha": 144.29066312158446,
      "beta": 144.29066312158446,
      "gamma": 51.39287003746677,
      "volume": 34.51171659445929
    },
    "properties": {},
    "sites": [
      {
        "species": [{ "element": "Ni", "occu": 1 }],
        "abc": [0.151444, 0.151444, 0.0],
        "properties": { "magmom": 0.003 },
        "label": "Ni",
        "xyz": [0.0, 0.0, 1.274625700008]
      },
      {
        "species": [{ "element": "Ni", "occu": 1 }],
        "abc": [0.848556, 0.848556, 0.0],
        "properties": { "magmom": 0.003 },
        "label": "Ni",
        "xyz": [0.0, 0.0, 7.141856299992]
      },
      {
        "species": [{ "element": "S", "occu": 1 }],
        "abc": [0.5, 0.5, 0.0],
        "properties": { "magmom": 0.0 },
        "label": "S",
        "xyz": [0.0, 0.0, 4.208241]
      }
    ]
  },
  "task_ids": null,
  "uncorrected_energy_per_atom": null,
  "energy_per_atom": -5.331572516666667,
  "formation_energy_per_atom": -0.098694874166665,
  "energy_above_hull": 0.377193551666666,
  "is_stable": false,
  "equilibrium_reaction_energy_per_atom": null,
  "decomposes_to": null,
  "xas": null,
  "grain_boundaries": null,
  "band_gap": 0.0,
  "cbm": null,
  "vbm": null,
  "efermi": 9.39145968,
  "is_gap_direct": null,
  "is_metal": null,
  "es_source_calc_id": null,
  "bandstructure": null,
  "dos": null,
  "dos_energy_up": null,
  "dos_energy_down": null,
  "is_magnetic": null,
  "ordering": null,
  "total_magnetization": 0.013967799999999002,
  "total_magnetization_normalized_vol": null,
  "total_magnetization_normalized_formula_units": null,
  "num_magnetic_sites": null,
  "num_unique_magnetic_sites": null,
  "types_of_magnetic_species": null,
  "bulk_modulus": null,
  "shear_modulus": null,
  "universal_anisotropy": null,
  "homogeneous_poisson": null,
  "e_total": null,
  "e_ionic": null,
  "e_electronic": null,
  "n": null,
  "e_ij_max": null,
  "weighted_surface_energy_EV_PER_ANG2": null,
  "weighted_surface_energy": null,
  "weighted_work_function": null,
  "surface_anisotropy": null,
  "shape_factor": null,
  "has_reconstructed": null,
  "possible_species": null,
  "has_props": null,
  "theoretical": null,
  "database_IDs": null,
  "fields_not_requested": [
    "builder_meta",
    "nsites",
    "elements",
    "nelements",
    "composition",
    "composition_reduced",
    "chemsys",
    "symmetry",
    "property_name",
    "deprecated",
    "deprecation_reasons",
    "last_updated",
    "origins",
    "warnings",
    "task_ids",
    "uncorrected_energy_per_atom",
    "equilibrium_reaction_energy_per_atom",
    "decomposes_to",
    "xas",
    "grain_boundaries",
    "cbm",
    "vbm",
    "is_gap_direct",
    "is_metal",
    "es_source_calc_id",
    "bandstructure",
    "dos",
    "dos_energy_up",
    "dos_energy_down",
    "is_magnetic",
    "ordering",
    "total_magnetization_normalized_vol",
    "total_magnetization_normalized_formula_units",
    "num_magnetic_sites",
    "num_unique_magnetic_sites",
    "types_of_magnetic_species",
    "bulk_modulus",
    "shear_modulus",
    "universal_anisotropy",
    "homogeneous_poisson",
    "e_total",
    "e_ionic",
    "e_electronic",
    "n",
    "e_ij_max",
    "weighted_surface_energy_EV_PER_ANG2",
    "weighted_surface_energy",
    "weighted_work_function",
    "surface_anisotropy",
    "shape_factor",
    "has_reconstructed",
    "possible_species",
    "has_props",
    "theoretical",
    "database_IDs"
  ]
}
