{"builder_meta": null, "nsites": null, "elements": null, "nelements": null, "composition": null, "composition_reduced": null, "formula_pretty": "Ni3B", "formula_anonymous": "AB3", "chemsys": null, "volume": 146.3140082138149, "density": 8.484222190133446, "density_atomic": 9.144625513363431, "symmetry": null, "property_name": null, "material_id": "mp-2058", "deprecated": null, "deprecation_reasons": null, "last_updated": null, "origins": null, "warnings": null, "structure": {"@module": "pymatgen.core.structure", "@class": "Structure", "charge": 0, "lattice": {"matrix": [[4.33863529, -0.0, 0.0], [-0.0, 5.15006108, 0.0], [0.0, 0.0, 6.5481766]], "pbc": [true, true, true], "a": 4.33863529, "b": 5.15006108, "c": 6.5481766, "alpha": 90.0, "beta": 90.0, "gamma": 90.0, "volume": 146.3140082138149}, "properties": {}, "sites": [{"species": [{"element": "Ni", "occu": 1}], "abc": [0.65406288, 0.8195922800000001, 0.93777876], "properties": {"magmom": 0.0}, "label": "Ni", "xyz": [2.8377402930470352, 4.220950302696463, 6.140740932209016]}, {"species": [{"element": "Ni", "occu": 1}], "abc": [0.15406288, 0.68040772, 0.062221240000000004], "properties": {"magmom": 0.0}, "label": "Ni", "xyz": [0.6684226480470352, 3.5041413173035383, 0.407435667790984]}, {"species": [{"element": "Ni", "occu": 1}], "abc": [0.84593712, 0.31959228, 0.5622212400000001], "properties": {"magmom": 0.0}, "label": "Ni", "xyz": [3.670212641952965, 1.6459197626964626, 3.681523967790984]}, {"species": [{"element": "Ni", "occu": 1}], "abc": [0.34593712, 0.18040772, 0.43777876], "properties": {"magmom": 0.0}, "label": "Ni", "xyz": [1.5008949969529648, 0.9291107773035376, 2.866652632209016]}, {"species": [{"element": "Ni", "occu": 1}], "abc": [0.86819239, 0.02816324, 0.25], "properties": {"magmom": 0.0}, "label": "Ni", "xyz": [3.7667701417634434, 0.1450424062106992, 1.63704415]}, {"species": [{"element": "Ni", "occu": 1}], "abc": [0.36819239, 0.47183676, 0.75], "properties": {"magmom": 0.0}, "label": "Ni", "xyz": [1.597452496763443, 2.4299881337893012, 4.91113245]}, {"species": [{"element": "Ni", "occu": 1}], "abc": [0.63180761, 0.52816324, 0.25], "properties": {"magmom": 0.0}, "label": "Ni", "xyz": [2.7411827932365567, 2.7200729462106996, 1.63704415]}, {"species": [{"element": "Ni", "occu": 1}], "abc": [0.13180761, 0.97183676, 0.75], "properties": {"magmom": 0.0}, "label": "Ni", "xyz": [0.5718651482365569, 5.005018673789301, 4.91113245]}, {"species": [{"element": "Ni", "occu": 1}], "abc": [0.65406288, 0.8195922800000001, 0.5622212400000001], "properties": {"magmom": 0.0}, "label": "Ni", "xyz": [2.8377402930470352, 4.220950302696463, 3.681523967790984]}, {"species": [{"element": "Ni", "occu": 1}], "abc": [0.15406288, 0.68040772, 0.43777876], "properties": {"magmom": 0.0}, "label": "Ni", "xyz": [0.6684226480470352, 3.5041413173035383, 2.866652632209016]}, {"species": [{"element": "Ni", "occu": 1}], "abc": [0.84593712, 0.31959228, 0.93777876], "properties": {"magmom": 0.0}, "label": "Ni", "xyz": [3.670212641952965, 1.6459197626964626, 6.140740932209016]}, {"species": [{"element": "Ni", "occu": 1}], "abc": [0.34593712, 0.18040772, 0.062221240000000004], "properties": {"magmom": 0.0}, "label": "Ni", "xyz": [1.5008949969529648, 0.9291107773035376, 0.407435667790984]}, {"species": [{"element": "B", "occu": 1}], "abc": [0.5619324, 0.11758642, 0.75], "properties": {"magmom": -0.0}, "label": "B", "xyz": [2.438019741234396, 0.6055772451785336, 4.91113245]}, {"species": [{"element": "B", "occu": 1}], "abc": [0.0619324, 0.38241358000000003, 0.25], "properties": {"magmom": -0.0}, "label": "B", "xyz": [0.268702096234396, 1.9694532948214667, 1.63704415]}, {"species": [{"element": "B", "occu": 1}], "abc": [0.9380676, 0.61758642, 0.75], "properties": {"magmom": -0.0}, "label": "B", "xyz": [4.069933193765604, 3.1806077851785335, 4.91113245]}, {"species": [{"element": "B", "occu": 1}], "abc": [0.4380676, 0.88241358, 0.25], "properties": {"magmom": -0.0}, "label": "B", "xyz": [1.900615548765604, 4.544483834821467, 1.63704415]}]}, "task_ids": null, "uncorrected_energy_per_atom": null, "energy_per_atom": -11.059479694375, "formation_energy_per_atom": -0.23660327500000003, "energy_above_hull": 0.0, "is_stable": true, "equilibrium_reaction_energy_per_atom": null, "decomposes_to": null, "xas": null, "grain_boundaries": null, "band_gap": 0.0, "cbm": null, "vbm": null, "efermi": 8.20622743, "is_gap_direct": null, "is_metal": null, "es_source_calc_id": null, "bandstructure": null, "dos": null, "dos_energy_up": null, "dos_energy_down": null, "is_magnetic": null, "ordering": null, "total_magnetization": 1e-07, "total_magnetization_normalized_vol": null, "total_magnetization_normalized_formula_units": null, "num_magnetic_sites": null, "num_unique_magnetic_sites": null, "types_of_magnetic_species": null, "bulk_modulus": null, "shear_modulus": null, "universal_anisotropy": null, "homogeneous_poisson": null, "e_total": null, "e_ionic": null, "e_electronic": null, "n": null, "e_ij_max": null, "weighted_surface_energy_EV_PER_ANG2": null, "weighted_surface_energy": null, "weighted_work_function": null, "surface_anisotropy": null, "shape_factor": null, "has_reconstructed": null, "possible_species": null, "has_props": null, "theoretical": null, "database_IDs": null, "fields_not_requested": ["builder_meta", "nsites", "elements", "nelements", "composition", "composition_reduced", "chemsys", "symmetry", "property_name", "deprecated", "deprecation_reasons", "last_updated", "origins", "warnings", "task_ids", "uncorrected_energy_per_atom", "equilibrium_reaction_energy_per_atom", "decomposes_to", "xas", "grain_boundaries", "cbm", "vbm", "is_gap_direct", "is_metal", "es_source_calc_id", "bandstructure", "dos", "dos_energy_up", "dos_energy_down", "is_magnetic", "ordering", "total_magnetization_normalized_vol", "total_magnetization_normalized_formula_units", "num_magnetic_sites", "num_unique_magnetic_sites", "types_of_magnetic_species", "bulk_modulus", "shear_modulus", "universal_anisotropy", "homogeneous_poisson", "e_total", "e_ionic", "e_electronic", "n", "e_ij_max", "weighted_surface_energy_EV_PER_ANG2", "weighted_surface_energy", "weighted_work_function", "surface_anisotropy", "shape_factor", "has_reconstructed", "possible_species", "has_props", "theoretical", "database_IDs"]}