{
  "builder_meta": null,
  "nsites": null,
  "elements": null,
  "nelements": null,
  "composition": null,
  "composition_reduced": null,
  "formula_pretty": "Ni3C",
  "formula_anonymous": "AB3",
  "chemsys": null,
  "volume": 76.65093953126872,
  "density": 8.149470559184525,
  "density_atomic": 9.58136744140859,
  "symmetry": null,
  "property_name": null,
  "material_id": "mp-7586",
  "deprecated": null,
  "deprecation_reasons": null,
  "last_updated": null,
  "origins": null,
  "warnings": null,
  "structure": {
    "@module": "pymatgen.core.structure",
    "@class": "Structure",
    "charge": 0,
    "lattice": {
      "matrix": [
        [4.04565316, -0.01484358, 2.9510643],
        [1.49199561, 3.76051673, 2.9510643],
        [-0.02194544, -0.01484358, 5.00755532]
      ],
      "pbc": [true, true, true],
      "a": 5.00762521816676,
      "b": 5.0076259324757535,
      "c": 5.007625407023204,
      "alpha": 54.142304692678564,
      "beta": 54.142302382220834,
      "gamma": 54.14229743044084,
      "volume": 76.65093953126872
    },
    "properties": {},
    "sites": [
      {
        "species": [{ "element": "Ni", "occu": 1 }],
        "abc": [0.92420769, 0.25, 0.57579231],
        "properties": { "magmom": -0.0 },
        "label": "Ni",
        "xyz": [4.099386648453233, 0.9178638124999999, 6.348474239900057]
      },
      {
        "species": [{ "element": "Ni", "occu": 1 }],
        "abc": [0.42420769, 0.07579231, 0.75],
        "properties": { "magmom": -0.0 },
        "label": "Ni",
        "xyz": [1.8128198953365595, 0.2675888039772161, 5.23119864]
      },
      {
        "species": [{ "element": "Ni", "occu": 1 }],
        "abc": [0.75, 0.42420769, 0.07579231],
        "properties": { "magmom": -0.0 },
        "label": "Ni",
        "xyz": [3.665492585616674, 1.582982401022784, 3.844696579900056]
      },
      {
        "species": [{ "element": "Ni", "occu": 1 }],
        "abc": [0.07579231, 0.75, 0.42420769],
        "properties": { "magmom": -0.0 },
        "label": "Ni",
        "xyz": [1.416316681546766, 2.8129657575, 4.561209680099944]
      },
      {
        "species": [{ "element": "Ni", "occu": 1 }],
        "abc": [0.25, 0.57579231, 0.92420769],
        "properties": { "magmom": -0.0 },
        "label": "Ni",
        "xyz": [1.8502107443833253, 2.147847168977216, 7.064987340099943]
      },
      {
        "species": [{ "element": "Ni", "occu": 1 }],
        "abc": [0.57579231, 0.92420769, 0.25],
        "properties": { "magmom": -0.0 },
        "label": "Ni",
        "xyz": [3.7028834346634403, 3.4632407660227837, 5.67848528]
      },
      {
        "species": [{ "element": "C", "occu": 1 }],
        "abc": [0.5, 0.5, 0.5],
        "properties": { "magmom": -0.0 },
        "label": "C",
        "xyz": [2.757851665, 1.865414785, 5.4548419599999995]
      },
      {
        "species": [{ "element": "C", "occu": 1 }],
        "abc": [0.0, 0.0, -0.0],
        "properties": { "magmom": -0.0 },
        "label": "C",
        "xyz": [0.0, 0.0, 0.0]
      }
    ]
  },
  "task_ids": null,
  "uncorrected_energy_per_atom": null,
  "energy_per_atom": -6.5833553275,
  "formation_energy_per_atom": 0.058913555624999,
  "energy_above_hull": 0.058913555624999,
  "is_stable": false,
  "equilibrium_reaction_energy_per_atom": null,
  "decomposes_to": null,
  "xas": null,
  "grain_boundaries": null,
  "band_gap": 0.0,
  "cbm": null,
  "vbm": null,
  "efermi": 8.16174219,
  "is_gap_direct": null,
  "is_metal": null,
  "es_source_calc_id": null,
  "bandstructure": null,
  "dos": null,
  "dos_energy_up": null,
  "dos_energy_down": null,
  "is_magnetic": null,
  "ordering": null,
  "total_magnetization": 6e-7,
  "total_magnetization_normalized_vol": null,
  "total_magnetization_normalized_formula_units": null,
  "num_magnetic_sites": null,
  "num_unique_magnetic_sites": null,
  "types_of_magnetic_species": null,
  "bulk_modulus": null,
  "shear_modulus": null,
  "universal_anisotropy": null,
  "homogeneous_poisson": null,
  "e_total": null,
  "e_ionic": null,
  "e_electronic": null,
  "n": null,
  "e_ij_max": null,
  "weighted_surface_energy_EV_PER_ANG2": null,
  "weighted_surface_energy": null,
  "weighted_work_function": null,
  "surface_anisotropy": null,
  "shape_factor": null,
  "has_reconstructed": null,
  "possible_species": null,
  "has_props": null,
  "theoretical": null,
  "database_IDs": null,
  "fields_not_requested": [
    "builder_meta",
    "nsites",
    "elements",
    "nelements",
    "composition",
    "composition_reduced",
    "chemsys",
    "symmetry",
    "property_name",
    "deprecated",
    "deprecation_reasons",
    "last_updated",
    "origins",
    "warnings",
    "task_ids",
    "uncorrected_energy_per_atom",
    "equilibrium_reaction_energy_per_atom",
    "decomposes_to",
    "xas",
    "grain_boundaries",
    "cbm",
    "vbm",
    "is_gap_direct",
    "is_metal",
    "es_source_calc_id",
    "bandstructure",
    "dos",
    "dos_energy_up",
    "dos_energy_down",
    "is_magnetic",
    "ordering",
    "total_magnetization_normalized_vol",
    "total_magnetization_normalized_formula_units",
    "num_magnetic_sites",
    "num_unique_magnetic_sites",
    "types_of_magnetic_species",
    "bulk_modulus",
    "shear_modulus",
    "universal_anisotropy",
    "homogeneous_poisson",
    "e_total",
    "e_ionic",
    "e_electronic",
    "n",
    "e_ij_max",
    "weighted_surface_energy_EV_PER_ANG2",
    "weighted_surface_energy",
    "weighted_work_function",
    "surface_anisotropy",
    "shape_factor",
    "has_reconstructed",
    "possible_species",
    "has_props",
    "theoretical",
    "database_IDs"
  ]
}
