{
  "builder_meta": null,
  "nsites": null,
  "elements": null,
  "nelements": null,
  "composition": null,
  "composition_reduced": null,
  "formula_pretty": "Ni3H",
  "formula_anonymous": "AB3",
  "chemsys": null,
  "volume": 76.04906288638361,
  "density": 7.733475299777325,
  "density_atomic": 9.506132860797951,
  "symmetry": null,
  "property_name": null,
  "material_id": "mp-976948",
  "deprecated": null,
  "deprecation_reasons": null,
  "last_updated": null,
  "origins": null,
  "warnings": null,
  "structure": {
    "@module": "pymatgen.core.structure",
    "@class": "Structure",
    "charge": 0,
    "lattice": {
      "matrix": [
        [2.48108, -4.297356, 0.0],
        [2.48108, 4.297356, 0.0],
        [0.0, 0.0, 3.566332]
      ],
      "pbc": [true, true, true],
      "a": 4.96215946510549,
      "b": 4.96215946510549,
      "c": 3.566332,
      "alpha": 90.0,
      "beta": 90.0,
      "gamma": 119.99999286835966,
      "volume": 76.04906288638361
    },
    "properties": {},
    "sites": [
      {
        "species": [{ "element": "Ni", "occu": 1 }],
        "abc": [0.176155999999999, 0.352311, 0.25],
        "properties": { "magmom": 0.59 },
        "label": "Ni",
        "xyz": [1.3111689043599974, 0.757000746180004, 0.891583]
      },
      {
        "species": [{ "element": "Ni", "occu": 1 }],
        "abc": [0.647689, 0.823843999999999, 0.25],
        "properties": { "magmom": 0.589 },
        "label": "Ni",
        "xyz": [3.6509910956399976, 0.7570007461799961, 0.891583]
      },
      {
        "species": [{ "element": "Ni", "occu": 1 }],
        "abc": [0.176155999999999, 0.823843999999999, 0.25],
        "properties": { "magmom": 0.589 },
        "label": "Ni",
        "xyz": [2.481079999999995, 2.783345912928, 0.891583]
      },
      {
        "species": [{ "element": "Ni", "occu": 1 }],
        "abc": [0.823843999999999, 0.647689, 0.75],
        "properties": { "magmom": 0.588 },
        "label": "Ni",
        "xyz": [3.6509910956399976, -0.7570007461799961, 2.6747490000000003]
      },
      {
        "species": [{ "element": "Ni", "occu": 1 }],
        "abc": [0.352311, 0.176155999999999, 0.75],
        "properties": { "magmom": 0.588 },
        "label": "Ni",
        "xyz": [1.3111689043599974, -0.757000746180004, 2.6747490000000003]
      },
      {
        "species": [{ "element": "Ni", "occu": 1 }],
        "abc": [0.823843999999999, 0.176155999999999, 0.75],
        "properties": { "magmom": 0.587 },
        "label": "Ni",
        "xyz": [2.481079999999995, -2.783345912928, 2.6747490000000003]
      },
      {
        "species": [{ "element": "H", "occu": 1 }],
        "abc": [0.333333, 0.666667, 0.75],
        "properties": { "magmom": 0.004 },
        "label": "H",
        "xyz": [2.48108, 1.4324548649039999, 2.6747490000000003]
      },
      {
        "species": [{ "element": "H", "occu": 1 }],
        "abc": [0.666667, 0.333333, 0.25],
        "properties": { "magmom": 0.004 },
        "label": "H",
        "xyz": [2.48108, -1.4324548649039999, 0.891583]
      }
    ]
  },
  "task_ids": null,
  "uncorrected_energy_per_atom": null,
  "energy_per_atom": -9.340352566249999,
  "formation_energy_per_atom": 0.5097134040625,
  "energy_above_hull": 0.5152771112500001,
  "is_stable": false,
  "equilibrium_reaction_energy_per_atom": null,
  "decomposes_to": null,
  "xas": null,
  "grain_boundaries": null,
  "band_gap": 0.0,
  "cbm": null,
  "vbm": null,
  "efermi": 6.75784673,
  "is_gap_direct": null,
  "is_metal": null,
  "es_source_calc_id": null,
  "bandstructure": null,
  "dos": null,
  "dos_energy_up": null,
  "dos_energy_down": null,
  "is_magnetic": null,
  "ordering": null,
  "total_magnetization": 3.3841897,
  "total_magnetization_normalized_vol": null,
  "total_magnetization_normalized_formula_units": null,
  "num_magnetic_sites": null,
  "num_unique_magnetic_sites": null,
  "types_of_magnetic_species": null,
  "bulk_modulus": null,
  "shear_modulus": null,
  "universal_anisotropy": null,
  "homogeneous_poisson": null,
  "e_total": null,
  "e_ionic": null,
  "e_electronic": null,
  "n": null,
  "e_ij_max": null,
  "weighted_surface_energy_EV_PER_ANG2": null,
  "weighted_surface_energy": null,
  "weighted_work_function": null,
  "surface_anisotropy": null,
  "shape_factor": null,
  "has_reconstructed": null,
  "possible_species": null,
  "has_props": null,
  "theoretical": null,
  "database_IDs": null,
  "fields_not_requested": [
    "builder_meta",
    "nsites",
    "elements",
    "nelements",
    "composition",
    "composition_reduced",
    "chemsys",
    "symmetry",
    "property_name",
    "deprecated",
    "deprecation_reasons",
    "last_updated",
    "origins",
    "warnings",
    "task_ids",
    "uncorrected_energy_per_atom",
    "equilibrium_reaction_energy_per_atom",
    "decomposes_to",
    "xas",
    "grain_boundaries",
    "cbm",
    "vbm",
    "is_gap_direct",
    "is_metal",
    "es_source_calc_id",
    "bandstructure",
    "dos",
    "dos_energy_up",
    "dos_energy_down",
    "is_magnetic",
    "ordering",
    "total_magnetization_normalized_vol",
    "total_magnetization_normalized_formula_units",
    "num_magnetic_sites",
    "num_unique_magnetic_sites",
    "types_of_magnetic_species",
    "bulk_modulus",
    "shear_modulus",
    "universal_anisotropy",
    "homogeneous_poisson",
    "e_total",
    "e_ionic",
    "e_electronic",
    "n",
    "e_ij_max",
    "weighted_surface_energy_EV_PER_ANG2",
    "weighted_surface_energy",
    "weighted_work_function",
    "surface_anisotropy",
    "shape_factor",
    "has_reconstructed",
    "possible_species",
    "has_props",
    "theoretical",
    "database_IDs"
  ]
}
