{
  "builder_meta": null,
  "nsites": null,
  "elements": null,
  "nelements": null,
  "composition": null,
  "composition_reduced": null,
  "formula_pretty": "Ni3Mo",
  "formula_anonymous": "AB3",
  "chemsys": null,
  "volume": 92.47042468297782,
  "density": 9.769613810100632,
  "density_atomic": 11.558803085372228,
  "symmetry": null,
  "property_name": null,
  "material_id": "mp-11506",
  "deprecated": null,
  "deprecation_reasons": null,
  "last_updated": null,
  "origins": null,
  "warnings": null,
  "structure": {
    "@module": "pymatgen.core.structure",
    "@class": "Structure",
    "charge": 0,
    "lattice": {
      "matrix": [
        [4.20168179, 0.0, 0.0],
        [-0.0, 4.42774148, 0.0],
        [0.0, 0.0, 4.97046978]
      ],
      "pbc": [true, true, true],
      "a": 4.20168179,
      "b": 4.42774148,
      "c": 4.97046978,
      "alpha": 90.0,
      "beta": 90.0,
      "gamma": 90.0,
      "volume": 92.47042468297782
    },
    "properties": {},
    "sites": [
      {
        "species": [{ "element": "Ni", "occu": 1 }],
        "abc": [0.75, 0.8406731900000001, 0.00147354],
        "properties": { "magmom": -0.0 },
        "label": "Ni",
        "xyz": [3.1512613425000002, 3.7222835544869213, 0.0073241860396212]
      },
      {
        "species": [{ "element": "Ni", "occu": 1 }],
        "abc": [0.25, 0.15932681, 0.99852646],
        "properties": { "magmom": -0.0 },
        "label": "Ni",
        "xyz": [1.0504204475, 0.7054579255130788, 4.963145593960379]
      },
      {
        "species": [{ "element": "Ni", "occu": 1 }],
        "abc": [0.75, 0.33370827000000003, 0.25],
        "properties": { "magmom": 0.0 },
        "label": "Ni",
        "xyz": [3.1512613425000002, 1.4775739492980398, 1.242617445]
      },
      {
        "species": [{ "element": "Ni", "occu": 1 }],
        "abc": [0.25, 0.66629173, 0.75],
        "properties": { "magmom": 0.0 },
        "label": "Ni",
        "xyz": [1.0504204475, 2.95016753070196, 3.727852335]
      },
      {
        "species": [{ "element": "Ni", "occu": 1 }],
        "abc": [0.25, 0.15932681, 0.50147354],
        "properties": { "magmom": -0.0 },
        "label": "Ni",
        "xyz": [1.0504204475, 0.7054579255130788, 2.4925590760396212]
      },
      {
        "species": [{ "element": "Ni", "occu": 1 }],
        "abc": [0.75, 0.8406731900000001, 0.49852646],
        "properties": { "magmom": -0.0 },
        "label": "Ni",
        "xyz": [3.1512613425000002, 3.7222835544869213, 2.477910703960379]
      },
      {
        "species": [{ "element": "Mo", "occu": 1 }],
        "abc": [0.75, 0.34555782, 0.75],
        "properties": { "magmom": -0.0 },
        "label": "Mo",
        "xyz": [3.1512613425000002, 1.5300406933523736, 3.727852335]
      },
      {
        "species": [{ "element": "Mo", "occu": 1 }],
        "abc": [0.25, 0.65444218, 0.25],
        "properties": { "magmom": -0.0 },
        "label": "Mo",
        "xyz": [1.0504204475, 2.897700786647626, 1.242617445]
      }
    ]
  },
  "task_ids": null,
  "uncorrected_energy_per_atom": null,
  "energy_per_atom": -15.556731396250001,
  "formation_energy_per_atom": -0.052448666249999006,
  "energy_above_hull": 0.0,
  "is_stable": true,
  "equilibrium_reaction_energy_per_atom": null,
  "decomposes_to": null,
  "xas": null,
  "grain_boundaries": null,
  "band_gap": 0.0,
  "cbm": null,
  "vbm": null,
  "efermi": 8.39069138,
  "is_gap_direct": null,
  "is_metal": null,
  "es_source_calc_id": null,
  "bandstructure": null,
  "dos": null,
  "dos_energy_up": null,
  "dos_energy_down": null,
  "is_magnetic": null,
  "ordering": null,
  "total_magnetization": 1e-7,
  "total_magnetization_normalized_vol": null,
  "total_magnetization_normalized_formula_units": null,
  "num_magnetic_sites": null,
  "num_unique_magnetic_sites": null,
  "types_of_magnetic_species": null,
  "bulk_modulus": null,
  "shear_modulus": null,
  "universal_anisotropy": null,
  "homogeneous_poisson": null,
  "e_total": null,
  "e_ionic": null,
  "e_electronic": null,
  "n": null,
  "e_ij_max": null,
  "weighted_surface_energy_EV_PER_ANG2": null,
  "weighted_surface_energy": null,
  "weighted_work_function": null,
  "surface_anisotropy": null,
  "shape_factor": null,
  "has_reconstructed": null,
  "possible_species": null,
  "has_props": null,
  "theoretical": null,
  "database_IDs": null,
  "fields_not_requested": [
    "builder_meta",
    "nsites",
    "elements",
    "nelements",
    "composition",
    "composition_reduced",
    "chemsys",
    "symmetry",
    "property_name",
    "deprecated",
    "deprecation_reasons",
    "last_updated",
    "origins",
    "warnings",
    "task_ids",
    "uncorrected_energy_per_atom",
    "equilibrium_reaction_energy_per_atom",
    "decomposes_to",
    "xas",
    "grain_boundaries",
    "cbm",
    "vbm",
    "is_gap_direct",
    "is_metal",
    "es_source_calc_id",
    "bandstructure",
    "dos",
    "dos_energy_up",
    "dos_energy_down",
    "is_magnetic",
    "ordering",
    "total_magnetization_normalized_vol",
    "total_magnetization_normalized_formula_units",
    "num_magnetic_sites",
    "num_unique_magnetic_sites",
    "types_of_magnetic_species",
    "bulk_modulus",
    "shear_modulus",
    "universal_anisotropy",
    "homogeneous_poisson",
    "e_total",
    "e_ionic",
    "e_electronic",
    "n",
    "e_ij_max",
    "weighted_surface_energy_EV_PER_ANG2",
    "weighted_surface_energy",
    "weighted_work_function",
    "surface_anisotropy",
    "shape_factor",
    "has_reconstructed",
    "possible_species",
    "has_props",
    "theoretical",
    "database_IDs"
  ]
}
