{
  "builder_meta": null,
  "nsites": null,
  "elements": null,
  "nelements": null,
  "composition": null,
  "composition_reduced": null,
  "formula_pretty": "Ni3N",
  "formula_anonymous": "AB3",
  "chemsys": null,
  "volume": 76.81361932638828,
  "density": 8.218509328604213,
  "density_atomic": 9.601702415798535,
  "symmetry": null,
  "property_name": null,
  "material_id": "mp-2033",
  "deprecated": null,
  "deprecation_reasons": null,
  "last_updated": null,
  "origins": null,
  "warnings": null,
  "structure": {
    "@module": "pymatgen.core.structure",
    "@class": "Structure",
    "charge": 0,
    "lattice": {
      "matrix": [
        [4.57972487, 0.0, -0.0],
        [-2.28986193, 3.96615764, 0.0],
        [0.0, 0.0, 4.22891415]
      ],
      "pbc": [true, true, true],
      "a": 4.57972487,
      "b": 4.579724236653742,
      "c": 4.22891415,
      "alpha": 90.0,
      "beta": 90.0,
      "gamma": 119.99999727939836,
      "volume": 76.81361932638828
    },
    "properties": {},
    "sites": [
      {
        "species": [{ "element": "Ni", "occu": 1 }],
        "abc": [-0.0, 0.6722349, 0.5],
        "properties": { "magmom": 0.0 },
        "label": "Ni",
        "xyz": [-1.539325105527357, 2.666189584509636, 2.114457075]
      },
      {
        "species": [{ "element": "Ni", "occu": 1 }],
        "abc": [0.0, 0.3277651, 0.0],
        "properties": { "magmom": 0.0 },
        "label": "Ni",
        "xyz": [-0.7505368244726429, 1.2999680554903639, 0.0]
      },
      {
        "species": [{ "element": "Ni", "occu": 1 }],
        "abc": [0.6722349, 0.6722349, -0.0],
        "properties": { "magmom": 0.0 },
        "label": "Ni",
        "xyz": [1.5393257844846056, 2.666189584509636, 0.0]
      },
      {
        "species": [{ "element": "Ni", "occu": 1 }],
        "abc": [0.6722349, 0.0, 0.5],
        "properties": { "magmom": 0.0 },
        "label": "Ni",
        "xyz": [3.0786508900119625, 0.0, 2.114457075]
      },
      {
        "species": [{ "element": "Ni", "occu": 1 }],
        "abc": [0.3277651, 0.3277651, 0.5],
        "properties": { "magmom": 0.0 },
        "label": "Ni",
        "xyz": [0.7505371555153939, 1.2999680554903639, 2.114457075]
      },
      {
        "species": [{ "element": "Ni", "occu": 1 }],
        "abc": [0.3277651, -0.0, 0.0],
        "properties": { "magmom": 0.0 },
        "label": "Ni",
        "xyz": [1.5010739799880368, 0.0, 0.0]
      },
      {
        "species": [{ "element": "N", "occu": 1 }],
        "abc": [0.666667, 0.333333, 0.75],
        "properties": { "magmom": -0.0 },
        "label": "N",
        "xyz": [2.2898648931956, 1.32205122461412, 3.1716856124999997]
      },
      {
        "species": [{ "element": "N", "occu": 1 }],
        "abc": [0.333333, 0.666667, 0.25],
        "properties": { "magmom": -0.0 },
        "label": "N",
        "xyz": [-1.9531956001461737e-6, 2.64410641538588, 1.0572285375]
      }
    ]
  },
  "task_ids": null,
  "uncorrected_energy_per_atom": null,
  "energy_per_atom": -11.25375068125,
  "formation_energy_per_atom": 0.014724856562498001,
  "energy_above_hull": 0.014724856562498001,
  "is_stable": false,
  "equilibrium_reaction_energy_per_atom": null,
  "decomposes_to": null,
  "xas": null,
  "grain_boundaries": null,
  "band_gap": 0.0,
  "cbm": null,
  "vbm": null,
  "efermi": 8.15671476,
  "is_gap_direct": null,
  "is_metal": null,
  "es_source_calc_id": null,
  "bandstructure": null,
  "dos": null,
  "dos_energy_up": null,
  "dos_energy_down": null,
  "is_magnetic": null,
  "ordering": null,
  "total_magnetization": 9e-7,
  "total_magnetization_normalized_vol": null,
  "total_magnetization_normalized_formula_units": null,
  "num_magnetic_sites": null,
  "num_unique_magnetic_sites": null,
  "types_of_magnetic_species": null,
  "bulk_modulus": null,
  "shear_modulus": null,
  "universal_anisotropy": null,
  "homogeneous_poisson": null,
  "e_total": null,
  "e_ionic": null,
  "e_electronic": null,
  "n": null,
  "e_ij_max": null,
  "weighted_surface_energy_EV_PER_ANG2": null,
  "weighted_surface_energy": null,
  "weighted_work_function": null,
  "surface_anisotropy": null,
  "shape_factor": null,
  "has_reconstructed": null,
  "possible_species": null,
  "has_props": null,
  "theoretical": null,
  "database_IDs": null,
  "fields_not_requested": [
    "builder_meta",
    "nsites",
    "elements",
    "nelements",
    "composition",
    "composition_reduced",
    "chemsys",
    "symmetry",
    "property_name",
    "deprecated",
    "deprecation_reasons",
    "last_updated",
    "origins",
    "warnings",
    "task_ids",
    "uncorrected_energy_per_atom",
    "equilibrium_reaction_energy_per_atom",
    "decomposes_to",
    "xas",
    "grain_boundaries",
    "cbm",
    "vbm",
    "is_gap_direct",
    "is_metal",
    "es_source_calc_id",
    "bandstructure",
    "dos",
    "dos_energy_up",
    "dos_energy_down",
    "is_magnetic",
    "ordering",
    "total_magnetization_normalized_vol",
    "total_magnetization_normalized_formula_units",
    "num_magnetic_sites",
    "num_unique_magnetic_sites",
    "types_of_magnetic_species",
    "bulk_modulus",
    "shear_modulus",
    "universal_anisotropy",
    "homogeneous_poisson",
    "e_total",
    "e_ionic",
    "e_electronic",
    "n",
    "e_ij_max",
    "weighted_surface_energy_EV_PER_ANG2",
    "weighted_surface_energy",
    "weighted_work_function",
    "surface_anisotropy",
    "shape_factor",
    "has_reconstructed",
    "possible_species",
    "has_props",
    "theoretical",
    "database_IDs"
  ]
}
