{
  "builder_meta": null,
  "nsites": null,
  "elements": null,
  "nelements": null,
  "composition": null,
  "composition_reduced": null,
  "formula_pretty": "Ni3O4",
  "formula_anonymous": "A3B4",
  "chemsys": null,
  "volume": 138.80680474007113,
  "density": 5.744078133199698,
  "density_atomic": 9.914771767147938,
  "symmetry": null,
  "property_name": null,
  "material_id": "mp-656887",
  "deprecated": null,
  "deprecation_reasons": null,
  "last_updated": null,
  "origins": null,
  "warnings": null,
  "structure": {
    "@module": "pymatgen.core.structure",
    "@class": "Structure",
    "charge": 0,
    "lattice": {
      "matrix": [
        [2.46389261, -0.00016128, 4.41395521],
        [-4.95923783, -2.85403018, 0.99288287],
        [-0.00157383, -5.70487513, 0.00119592]
      ],
      "pbc": [true, true, true],
      "a": 5.055073433246049,
      "b": 5.8073526254562315,
      "c": 5.704875472440922,
      "alpha": 60.54613682077663,
      "beta": 89.99538854995515,
      "gamma": 105.48140810327227,
      "volume": 138.80680474007113
    },
    "properties": {},
    "sites": [
      {
        "species": [{ "element": "Ni", "occu": 1 }],
        "abc": [3e-6, 9.28e-6, -7.4e-7],
        "properties": { "magmom": 1.708 },
        "label": "Ni",
        "xyz": [-3.86288845982e-5, -2.2264276314199998e-5, 2.24549336828e-5]
      },
      {
        "species": [{ "element": "Ni", "occu": 1 }],
        "abc": [1.6960000000000004e-5, 5.15e-6, 0.5000065],
        "properties": { "magmom": 1.708 },
        "label": "Ni",
        "xyz": [-0.0007706776860539, -2.852489347679081, 0.0006779418006221]
      },
      {
        "species": [{ "element": "Ni", "occu": 1 }],
        "abc": [0.5000154, 0.50003836, 0.74997787],
        "properties": { "magmom": 1.708 },
        "label": "Ni",
        "xyz": [-1.249005240088107, -5.705735311694791, 2.7044220154314176]
      },
      {
        "species": [{ "element": "Ni", "occu": 1 }],
        "abc": [0.50000947, 0.50004402, 0.2499759],
        "properties": { "magmom": 1.708 },
        "label": "Ni",
        "xyz": [-1.2482610021569573, -2.853302660945212, 2.703803498038104]
      },
      {
        "species": [{ "element": "Ni", "occu": 1 }],
        "abc": [4.299999999999999e-6, 0.49998655000000003, 0.50000552],
        "properties": { "magmom": -0.07 },
        "label": "Ni",
        "xyz": [-2.4803285422005055, -4.2794457598983, 0.4970450273342799]
      },
      {
        "species": [{ "element": "Ni", "occu": 1 }],
        "abc": [8.759999999999999e-6, 0.49999426, 1.3080000000000002e-5],
        "properties": { "magmom": -0.07 },
        "label": "Ni",
        "xyz": [-2.4795688858612888, -1.42707332904628, 0.49647441774259937]
      },
      {
        "species": [{ "element": "O", "occu": 1 }],
        "abc": [0.79371419, 0.29373381, 0.35326716],
        "properties": { "magmom": 0.1 },
        "label": "O",
        "xyz": [0.49837472223668056, -2.8537982041806798, 3.795484631752252]
      },
      {
        "species": [{ "element": "O", "occu": 1 }],
        "abc": [0.79371409, 0.29373046, 0.8532675],
        "properties": { "magmom": 0.1 },
        "label": "O",
        "xyz": [0.49760417375904786, -5.706228147820993, 3.7960788246057295]
      },
      {
        "species": [{ "element": "O", "occu": 1 }],
        "abc": [0.20630874, 0.70628147, 0.14671974000000002],
        "properties": { "magmom": 0.1 },
        "label": "O",
        "xyz": [-2.9945261167160027, -2.852799700234418, 1.6120677758244149]
      },
      {
        "species": [{ "element": "O", "occu": 1 }],
        "abc": [0.20630181, 0.70628945, 0.64671592],
        "properties": { "magmom": 0.1 },
        "label": "O",
        "xyz": [-2.9953696751976433, -5.705238246654587, 1.612643065751698]
      },
      {
        "species": [{ "element": "O", "occu": 1 }],
        "abc": [0.7722312, 0.72766513, 0.8860990400000001],
        "properties": { "magmom": 0.196 },
        "label": "O",
        "xyz": [-1.7073642626285592, -7.1319871634144345, 4.132139874801792]
      },
      {
        "species": [{ "element": "O", "occu": 1 }],
        "abc": [0.77223234, 0.72766538, 0.38609898],
        "properties": { "magmom": 0.196 },
        "label": "O",
        "xyz": [-1.706575778506012, -4.279549969813331, 4.131547194859694]
      },
      {
        "species": [{ "element": "O", "occu": 1 }],
        "abc": [0.22772446000000002, 0.27227867, 0.613924399999999],
        "properties": { "magmom": 0.196 },
        "label": "O",
        "xyz": [-0.7901722790942977, -4.279490310211336, 1.2762405984392675]
      },
      {
        "species": [{ "element": "O", "occu": 1 }],
        "abc": [0.22772327, 0.272279, 0.11392513],
        "properties": { "magmom": 0.196 },
        "label": "O",
        "xyz": [-0.7893899338238833, -1.4270578514082224, 1.2756377143569362]
      }
    ]
  },
  "task_ids": null,
  "uncorrected_energy_per_atom": null,
  "energy_per_atom": -6.351357792142857,
  "formation_energy_per_atom": -1.046750069285714,
  "energy_above_hull": 0.0,
  "is_stable": true,
  "equilibrium_reaction_energy_per_atom": null,
  "decomposes_to": null,
  "xas": null,
  "grain_boundaries": null,
  "band_gap": 0.0,
  "cbm": null,
  "vbm": null,
  "efermi": 4.96930009,
  "is_gap_direct": null,
  "is_metal": null,
  "es_source_calc_id": null,
  "bandstructure": null,
  "dos": null,
  "dos_energy_up": null,
  "dos_energy_down": null,
  "is_magnetic": null,
  "ordering": null,
  "total_magnetization": 8.0025888,
  "total_magnetization_normalized_vol": null,
  "total_magnetization_normalized_formula_units": null,
  "num_magnetic_sites": null,
  "num_unique_magnetic_sites": null,
  "types_of_magnetic_species": null,
  "bulk_modulus": null,
  "shear_modulus": null,
  "universal_anisotropy": null,
  "homogeneous_poisson": null,
  "e_total": null,
  "e_ionic": null,
  "e_electronic": null,
  "n": null,
  "e_ij_max": null,
  "weighted_surface_energy_EV_PER_ANG2": null,
  "weighted_surface_energy": null,
  "weighted_work_function": null,
  "surface_anisotropy": null,
  "shape_factor": null,
  "has_reconstructed": null,
  "possible_species": null,
  "has_props": null,
  "theoretical": null,
  "database_IDs": null,
  "fields_not_requested": [
    "builder_meta",
    "nsites",
    "elements",
    "nelements",
    "composition",
    "composition_reduced",
    "chemsys",
    "symmetry",
    "property_name",
    "deprecated",
    "deprecation_reasons",
    "last_updated",
    "origins",
    "warnings",
    "task_ids",
    "uncorrected_energy_per_atom",
    "equilibrium_reaction_energy_per_atom",
    "decomposes_to",
    "xas",
    "grain_boundaries",
    "cbm",
    "vbm",
    "is_gap_direct",
    "is_metal",
    "es_source_calc_id",
    "bandstructure",
    "dos",
    "dos_energy_up",
    "dos_energy_down",
    "is_magnetic",
    "ordering",
    "total_magnetization_normalized_vol",
    "total_magnetization_normalized_formula_units",
    "num_magnetic_sites",
    "num_unique_magnetic_sites",
    "types_of_magnetic_species",
    "bulk_modulus",
    "shear_modulus",
    "universal_anisotropy",
    "homogeneous_poisson",
    "e_total",
    "e_ionic",
    "e_electronic",
    "n",
    "e_ij_max",
    "weighted_surface_energy_EV_PER_ANG2",
    "weighted_surface_energy",
    "weighted_work_function",
    "surface_anisotropy",
    "shape_factor",
    "has_reconstructed",
    "possible_species",
    "has_props",
    "theoretical",
    "database_IDs"
  ]
}
