{"builder_meta": null, "nsites": null, "elements": null, "nelements": null, "composition": null, "composition_reduced": null, "formula_pretty": "Ni3P", "formula_anonymous": "AB3", "chemsys": null, "volume": 169.8574871565213, "density": 8.096697968420676, "density_atomic": 10.616092947282581, "symmetry": null, "property_name": null, "material_id": "mp-2296", "deprecated": null, "deprecation_reasons": null, "last_updated": null, "origins": null, "warnings": null, "structure": {"@module": "pymatgen.core.structure", "@class": "Structure", "charge": 0, "lattice": {"matrix": [[4.08631032, -0.00025842, 1.41449061], [2.04304556, 6.26782946, 0.70641964], [-0.00907981, -0.00059836, 6.62859303]], "pbc": [true, true, true], "a": 4.324201172921719, "b": 6.630139516454939, "c": 6.628599275740608, "alpha": 83.91295790276321, "beta": 70.98500900858376, "gamma": 70.97449780967928, "volume": 169.8574871565213}, "properties": {}, "sites": [{"species": [{"element": "Ni", "occu": 1}], "abc": [0.15768749, 0.33307355, 0.3982872], "properties": {"magmom": 0.0}, "label": "Ni", "xyz": [1.321228083101403, 2.087369140306625, 3.0984209290622067]}, {"species": [{"element": "Ni", "occu": 1}], "abc": [0.44358758000000004, 0.39818013, 0.66646011], "properties": {"magmom": -0.0}, "label": "Ni", "xyz": [2.6200853214831694, 2.4952117342267868, 5.326425570631411]}, {"species": [{"element": "Ni", "occu": 1}], "abc": [0.50875341, 0.60175547, 0.33315052], "properties": {"magmom": -0.0}, "label": "Ni", "xyz": [3.3053132073844025, 3.7713698465807863, 3.3530380185487867]}, {"species": [{"element": "Ni", "occu": 1}], "abc": [0.89017109, 0.66668688, 0.6014864400000001], "properties": {"magmom": 0.0}, "label": "Ni", "xyz": [4.994125599134125, 4.178089723620168, 5.7171081776843025]}, {"species": [{"element": "Ni", "occu": 1}], "abc": [0.57786907, 0.94662694, 0.38813385], "properties": {"magmom": -0.0}, "label": "Ni", "xyz": [4.29183012948062, 5.932914645466097, 4.0588875683106]}, {"species": [{"element": "Ni", "occu": 1}], "abc": [0.034170110000000004, 0.3879855, 0.05328252], "properties": {"magmom": -0.0}, "label": "Ni", "xyz": [0.931817931089994, 2.4317862345843366, 0.6756020176657227]}, {"species": [{"element": "Ni", "occu": 1}], "abc": [0.47607882, 0.61192969, 0.94660944], "properties": {"magmom": 0.0}, "label": "Ni", "xyz": [3.1870109976266923, 3.834781496917484, 7.380376907941196]}, {"species": [{"element": "Ni", "occu": 1}], "abc": [0.9122744700000001, 0.05318772, 0.61227696], "properties": {"magmom": -0.0}, "label": "Ni", "xyz": [3.830942158161876, 0.33276944631590816, 5.386511311058136]}, {"species": [{"element": "Ni", "occu": 1}], "abc": [0.18120202, 0.9649664800000001, 0.18919826], "properties": {"magmom": 0.0}, "label": "Ni", "xyz": [2.7102002825905447, 6.0480852963596385, 2.1920980967408275]}, {"species": [{"element": "Ni", "occu": 1}], "abc": [0.62950912, 0.18875099, 0.03512495], "properties": {"magmom": 0.0}, "label": "Ni", "xyz": [2.9576775577829633, 1.1828753206142928, 1.2566011443039056]}, {"species": [{"element": "Ni", "occu": 1}], "abc": [0.85406669, 0.811215999999999, 0.96456527], "properties": {"magmom": -0.0}, "label": "Ni", "xyz": [5.138574706931999, 5.083765678034366, 8.174838853703088]}, {"species": [{"element": "Ni", "occu": 1}], "abc": [0.33466925000000003, 0.03552546, 0.81158763], "properties": {"magmom": 0.0}, "label": "Ni", "xyz": [1.4327734819028675, 0.2220954179661798, 5.878166501696996]}, {"species": [{"element": "P", "occu": 1}], "abc": [0.7336531900000001, 0.23618247, 0.33399136], "properties": {"magmom": -0.0}, "label": "P", "xyz": [3.477433570190813, 1.4799620056740366, 3.418482284659478]}, {"species": [{"element": "P", "occu": 1}], "abc": [0.93175191, 0.33403589, 0.76378712], "properties": {"magmom": 0.0}, "label": "P", "xyz": [4.482942945527812, 2.092982189049614, 6.616757820741219]}, {"species": [{"element": "P", "occu": 1}], "abc": [0.02995056, 0.66600294, 0.23602979000000002], "properties": {"magmom": 0.0}, "label": "P", "xyz": [1.4809185262841857, 4.174243877169753, 2.077387763864347]}, {"species": [{"element": "P", "occu": 1}], "abc": [0.30460621, 0.76389488, 0.66602858], "properties": {"magmom": -0.0}, "label": "P", "xyz": [2.79934012938885, 4.787485592009248, 5.385325373088929]}]}, "task_ids": null, "uncorrected_energy_per_atom": null, "energy_per_atom": -11.660948611875, "formation_energy_per_atom": -0.42414166386904706, "energy_above_hull": 0.0, "is_stable": true, "equilibrium_reaction_energy_per_atom": null, "decomposes_to": null, "xas": null, "grain_boundaries": null, "band_gap": 0.0, "cbm": null, "vbm": null, "efermi": 9.56118466, "is_gap_direct": null, "is_metal": null, "es_source_calc_id": null, "bandstructure": null, "dos": null, "dos_energy_up": null, "dos_energy_down": null, "is_magnetic": null, "ordering": null, "total_magnetization": 1e-07, "total_magnetization_normalized_vol": null, "total_magnetization_normalized_formula_units": null, "num_magnetic_sites": null, "num_unique_magnetic_sites": null, "types_of_magnetic_species": null, "bulk_modulus": null, "shear_modulus": null, "universal_anisotropy": null, "homogeneous_poisson": null, "e_total": null, "e_ionic": null, "e_electronic": null, "n": null, "e_ij_max": null, "weighted_surface_energy_EV_PER_ANG2": null, "weighted_surface_energy": null, "weighted_work_function": null, "surface_anisotropy": null, "shape_factor": null, "has_reconstructed": null, "possible_species": null, "has_props": null, "theoretical": null, "database_IDs": null, "fields_not_requested": ["builder_meta", "nsites", "elements", "nelements", "composition", "composition_reduced", "chemsys", "symmetry", "property_name", "deprecated", "deprecation_reasons", "last_updated", "origins", "warnings", "task_ids", "uncorrected_energy_per_atom", "equilibrium_reaction_energy_per_atom", "decomposes_to", "xas", "grain_boundaries", "cbm", "vbm", "is_gap_direct", "is_metal", "es_source_calc_id", "bandstructure", "dos", "dos_energy_up", "dos_energy_down", "is_magnetic", "ordering", "total_magnetization_normalized_vol", "total_magnetization_normalized_formula_units", "num_magnetic_sites", "num_unique_magnetic_sites", "types_of_magnetic_species", "bulk_modulus", "shear_modulus", "universal_anisotropy", "homogeneous_poisson", "e_total", "e_ionic", "e_electronic", "n", "e_ij_max", "weighted_surface_energy_EV_PER_ANG2", "weighted_surface_energy", "weighted_work_function", "surface_anisotropy", "shape_factor", "has_reconstructed", "possible_species", "has_props", "theoretical", "database_IDs"]}