{
  "builder_meta": null,
  "nsites": null,
  "elements": null,
  "nelements": null,
  "composition": null,
  "composition_reduced": null,
  "formula_pretty": "Ni3Rh",
  "formula_anonymous": "AB3",
  "chemsys": null,
  "volume": 92.15740523853388,
  "density": 10.05381287968471,
  "density_atomic": 11.519675654816735,
  "symmetry": null,
  "property_name": null,
  "material_id": "mp-1186347",
  "deprecated": null,
  "deprecation_reasons": null,
  "last_updated": null,
  "origins": null,
  "warnings": null,
  "structure": {
    "@module": "pymatgen.core.structure",
    "@class": "Structure",
    "charge": 0,
    "lattice": {
      "matrix": [
        [2.54393663, -4.40615278, -2e-8],
        [2.54394756, 4.40615901, -0.0],
        [-2e-8, 1e-8, 4.1108645]
      ],
      "pbc": [true, true, true],
      "a": 5.0878085555725745,
      "b": 5.087819415961432,
      "c": 4.1108645,
      "alpha": 90.00000001867558,
      "beta": 90.00000048530903,
      "gamma": 119.99908709613997,
      "volume": 92.15740523853388
    },
    "properties": {},
    "sites": [
      {
        "species": [{ "element": "Ni", "occu": 1 }],
        "abc": [0.16326567, 0.32649786000000003, 0.24999998],
        "properties": { "magmom": 0.9380000000000001 },
        "label": "Ni",
        "xyz": [1.2459309476267142, 0.7192280043356557, 1.0277160395173968]
      },
      {
        "species": [{ "element": "Ni", "occu": 1 }],
        "abc": [0.6734906900000001, 0.8367433, 0.25000002],
        "properties": { "magmom": 0.9380000000000001 },
        "label": "Ni",
        "xyz": [3.8419487076363223, 0.7193211568045141, 1.0277161937474761]
      },
      {
        "species": [{ "element": "Ni", "occu": 1 }],
        "abc": [0.16326291, 0.83676642, 0.25000002],
        "properties": { "magmom": 0.9380000000000001 },
        "label": "Ni",
        "xyz": [2.544020384518328, 2.967564578481054, 1.0277162039520316]
      },
      {
        "species": [{ "element": "Ni", "occu": 1 }],
        "abc": [0.83673851, 0.67349931, 0.75],
        "properties": { "magmom": 0.9380000000000001 },
        "label": "Ni",
        "xyz": [3.8419566566568046, -0.7192526514842752, 3.08314835826523]
      },
      {
        "species": [{ "element": "Ni", "occu": 1 }],
        "abc": [0.32650758, 0.16325485, 0.74999998],
        "properties": { "magmom": 0.9380000000000001 },
        "label": "Ni",
        "xyz": [1.245926355050322, -0.7193154455543743, 3.0831482862525585]
      },
      {
        "species": [{ "element": "Ni", "occu": 1 }],
        "abc": [0.83673975, 0.16324012000000002, 0.7499999900000001],
        "properties": { "magmom": 0.9380000000000001 },
        "label": "Ni",
        "xyz": [2.54388718977015, -2.9675412425675245, 3.08314831715656]
      },
      {
        "species": [{ "element": "Rh", "occu": 1 }],
        "abc": [0.33333547, 0.66666809, 0.75000002],
        "properties": { "magmom": 0.9540000000000001 },
        "label": "Rh",
        "xyz": [2.543952958096626, 1.4687186111198842, 3.0831484505505804]
      },
      {
        "species": [{ "element": "Rh", "occu": 1 }],
        "abc": [0.66665943, 0.33333006, 0.24999998],
        "properties": { "magmom": 0.9540000000000001 },
        "label": "Rh",
        "xyz": [2.5439135315235752, -1.4686980511348757, 1.0277160294495216]
      }
    ]
  },
  "task_ids": null,
  "uncorrected_energy_per_atom": null,
  "energy_per_atom": -14.99608781625,
  "formation_energy_per_atom": 0.024257211249999,
  "energy_above_hull": 0.024257211249999,
  "is_stable": false,
  "equilibrium_reaction_energy_per_atom": null,
  "decomposes_to": null,
  "xas": null,
  "grain_boundaries": null,
  "band_gap": 0.0,
  "cbm": null,
  "vbm": null,
  "efermi": 7.66306184,
  "is_gap_direct": null,
  "is_metal": null,
  "es_source_calc_id": null,
  "bandstructure": null,
  "dos": null,
  "dos_energy_up": null,
  "dos_energy_down": null,
  "is_magnetic": null,
  "ordering": null,
  "total_magnetization": 7.1241861,
  "total_magnetization_normalized_vol": null,
  "total_magnetization_normalized_formula_units": null,
  "num_magnetic_sites": null,
  "num_unique_magnetic_sites": null,
  "types_of_magnetic_species": null,
  "bulk_modulus": null,
  "shear_modulus": null,
  "universal_anisotropy": null,
  "homogeneous_poisson": null,
  "e_total": null,
  "e_ionic": null,
  "e_electronic": null,
  "n": null,
  "e_ij_max": null,
  "weighted_surface_energy_EV_PER_ANG2": null,
  "weighted_surface_energy": null,
  "weighted_work_function": null,
  "surface_anisotropy": null,
  "shape_factor": null,
  "has_reconstructed": null,
  "possible_species": null,
  "has_props": null,
  "theoretical": null,
  "database_IDs": null,
  "fields_not_requested": [
    "builder_meta",
    "nsites",
    "elements",
    "nelements",
    "composition",
    "composition_reduced",
    "chemsys",
    "symmetry",
    "property_name",
    "deprecated",
    "deprecation_reasons",
    "last_updated",
    "origins",
    "warnings",
    "task_ids",
    "uncorrected_energy_per_atom",
    "equilibrium_reaction_energy_per_atom",
    "decomposes_to",
    "xas",
    "grain_boundaries",
    "cbm",
    "vbm",
    "is_gap_direct",
    "is_metal",
    "es_source_calc_id",
    "bandstructure",
    "dos",
    "dos_energy_up",
    "dos_energy_down",
    "is_magnetic",
    "ordering",
    "total_magnetization_normalized_vol",
    "total_magnetization_normalized_formula_units",
    "num_magnetic_sites",
    "num_unique_magnetic_sites",
    "types_of_magnetic_species",
    "bulk_modulus",
    "shear_modulus",
    "universal_anisotropy",
    "homogeneous_poisson",
    "e_total",
    "e_ionic",
    "e_electronic",
    "n",
    "e_ij_max",
    "weighted_surface_energy_EV_PER_ANG2",
    "weighted_surface_energy",
    "weighted_work_function",
    "surface_anisotropy",
    "shape_factor",
    "has_reconstructed",
    "possible_species",
    "has_props",
    "theoretical",
    "database_IDs"
  ]
}
