{
  "builder_meta": null,
  "nsites": null,
  "elements": null,
  "nelements": null,
  "composition": null,
  "composition_reduced": null,
  "formula_pretty": "Ni3Se4",
  "formula_anonymous": "A3B4",
  "chemsys": null,
  "volume": 244.52237152695685,
  "density": 6.681210431983996,
  "density_atomic": 17.46588368049692,
  "symmetry": null,
  "property_name": null,
  "material_id": "mp-1120781",
  "deprecated": null,
  "deprecation_reasons": null,
  "last_updated": null,
  "origins": null,
  "warnings": null,
  "structure": {
    "@module": "pymatgen.core.structure",
    "@class": "Structure",
    "charge": 0,
    "lattice": {
      "matrix": [
        [6.07768223, -0.00093998, 3.512624299999999],
        [2.02940802, 5.73165101, 3.50457071],
        [-2.02546935, -5.73869006, 3.51387239]
      ],
      "pbc": [true, true, true],
      "a": 7.019740140872072,
      "b": 7.018000860178363,
      "c": 7.0272604096999665,
      "alpha": 120.0394459180936,
      "beta": 89.95569062866645,
      "gamma": 59.99103076815227,
      "volume": 244.52237152695685
    },
    "properties": {},
    "sites": [
      {
        "species": [{ "element": "Ni", "occu": 1 }],
        "abc": [0.12612014, 0.24798461, 0.12402422],
        "properties": { "magmom": -0.0 },
        "label": "Ni",
        "xyz": [1.0185728338260274, 0.7095061314485057, 1.7478975515694606]
      },
      {
        "species": [{ "element": "Ni", "occu": 1 }],
        "abc": [0.50004341, 0.49992693, -2.2730000000000004e-5],
        "properties": { "magmom": 0.001 },
        "label": "Ni",
        "xyz": [4.053706707259908, 2.8650671028812313, 3.5084140387196574]
      },
      {
        "species": [{ "element": "Ni", "occu": 1 }],
        "abc": [0.49994039, 0.50009043, 0.49999946],
        "properties": { "magmom": 0.001 },
        "label": "Ni",
        "xyz": [3.040632772482967, -0.003468046874325559, 5.265639333303691]
      },
      {
        "species": [{ "element": "Ni", "occu": 1 }],
        "abc": [0.5000131800000001, 1.00003387, 0.50003055],
        "properties": { "magmom": 0.001 },
        "label": "Ni",
        "xyz": [4.055601421812787, 2.86185479164944, 7.018091399999736]
      },
      {
        "species": [{ "element": "Ni", "occu": 1 }],
        "abc": [0.87379266, 0.75199685, 0.87597716],
        "properties": { "magmom": -0.0 },
        "label": "Ni",
        "xyz": [5.0624776719111235, -0.7175992636842574, 8.782803421994513]
      },
      {
        "species": [{ "element": "Ni", "occu": 1 }],
        "abc": [1.00008233, 0.999954999999999, 0.49998625],
        "properties": { "magmom": 0.001 },
        "label": "Ni",
        "xyz": [7.094792477420656, 2.861186905304316, 8.774214377931301]
      },
      {
        "species": [{ "element": "Se", "occu": 1 }],
        "abc": [0.74149476, 0.01663545, 0.74063051],
        "properties": { "magmom": 0.0 },
        "label": "Se",
        "xyz": [3.0402052444565557, -4.155597342319931, 5.265373723396955]
      },
      {
        "species": [{ "element": "Se", "occu": 1 }],
        "abc": [0.74176759, 0.01673602, 0.27614493],
        "properties": { "magmom": 0.0 },
        "label": "Se",
        "xyz": [3.9828688218709103, -1.4894823856732637, 3.6345414722458935]
      },
      {
        "species": [{ "element": "Se", "occu": 1 }],
        "abc": [0.25859997, 0.98327951, 0.25932103],
        "properties": { "magmom": 0.0 },
        "label": "Se",
        "xyz": [3.041916967767772, 4.147408900594043, 5.265558116553785]
      },
      {
        "species": [{ "element": "Se", "occu": 1 }],
        "abc": [0.25822208, 0.98334937, 0.72391123],
        "properties": { "magmom": 0.0 },
        "label": "Se",
        "xyz": [2.098748836463785, 1.4816705062292321, 6.896986236711436]
      },
      {
        "species": [{ "element": "Se", "occu": 1 }],
        "abc": [0.74048944, 0.48533925, 0.74253671],
        "properties": { "magmom": 0.0 },
        "label": "Se",
        "xyz": [3.9814255300065984, -1.4800888796707712, 6.911146164631195]
      },
      {
        "species": [{ "element": "Se", "occu": 1 }],
        "abc": [0.25945785, 0.51464413, 0.25743847000000003],
        "properties": { "magmom": 0.0 },
        "label": "Se",
        "xyz": [2.099891558751034, 1.47215707346462, 3.61959062466403]
      },
      {
        "species": [{ "element": "Se", "occu": 1 }],
        "abc": [0.72582714, 0.514679, 0.25729576],
        "properties": { "magmom": 0.0 },
        "label": "Se",
        "xyz": [4.9346957253903465, 1.4727375267885876, 5.257391465143657]
      },
      {
        "species": [{ "element": "Se", "occu": 1 }],
        "abc": [0.27414905, 0.48534758, 0.74272645],
        "properties": { "magmom": 0.0 },
        "label": "Se",
        "xyz": [1.1467894209866658, -1.4806916434300503, 5.273763493867012]
      }
    ]
  },
  "task_ids": null,
  "uncorrected_energy_per_atom": null,
  "energy_per_atom": -13.672383913571428,
  "formation_energy_per_atom": -0.35932785589285704,
  "energy_above_hull": 0.0,
  "is_stable": true,
  "equilibrium_reaction_energy_per_atom": null,
  "decomposes_to": null,
  "xas": null,
  "grain_boundaries": null,
  "band_gap": 0.0,
  "cbm": null,
  "vbm": null,
  "efermi": 5.36867839,
  "is_gap_direct": null,
  "is_metal": null,
  "es_source_calc_id": null,
  "bandstructure": null,
  "dos": null,
  "dos_energy_up": null,
  "dos_energy_down": null,
  "is_magnetic": null,
  "ordering": null,
  "total_magnetization": 0.002640399999999,
  "total_magnetization_normalized_vol": null,
  "total_magnetization_normalized_formula_units": null,
  "num_magnetic_sites": null,
  "num_unique_magnetic_sites": null,
  "types_of_magnetic_species": null,
  "bulk_modulus": null,
  "shear_modulus": null,
  "universal_anisotropy": null,
  "homogeneous_poisson": null,
  "e_total": null,
  "e_ionic": null,
  "e_electronic": null,
  "n": null,
  "e_ij_max": null,
  "weighted_surface_energy_EV_PER_ANG2": null,
  "weighted_surface_energy": null,
  "weighted_work_function": null,
  "surface_anisotropy": null,
  "shape_factor": null,
  "has_reconstructed": null,
  "possible_species": null,
  "has_props": null,
  "theoretical": null,
  "database_IDs": null,
  "fields_not_requested": [
    "builder_meta",
    "nsites",
    "elements",
    "nelements",
    "composition",
    "composition_reduced",
    "chemsys",
    "symmetry",
    "property_name",
    "deprecated",
    "deprecation_reasons",
    "last_updated",
    "origins",
    "warnings",
    "task_ids",
    "uncorrected_energy_per_atom",
    "equilibrium_reaction_energy_per_atom",
    "decomposes_to",
    "xas",
    "grain_boundaries",
    "cbm",
    "vbm",
    "is_gap_direct",
    "is_metal",
    "es_source_calc_id",
    "bandstructure",
    "dos",
    "dos_energy_up",
    "dos_energy_down",
    "is_magnetic",
    "ordering",
    "total_magnetization_normalized_vol",
    "total_magnetization_normalized_formula_units",
    "num_magnetic_sites",
    "num_unique_magnetic_sites",
    "types_of_magnetic_species",
    "bulk_modulus",
    "shear_modulus",
    "universal_anisotropy",
    "homogeneous_poisson",
    "e_total",
    "e_ionic",
    "e_electronic",
    "n",
    "e_ij_max",
    "weighted_surface_energy_EV_PER_ANG2",
    "weighted_surface_energy",
    "weighted_work_function",
    "surface_anisotropy",
    "shape_factor",
    "has_reconstructed",
    "possible_species",
    "has_props",
    "theoretical",
    "database_IDs"
  ]
}
