{"builder_meta": null, "nsites": null, "elements": null, "nelements": null, "composition": null, "composition_reduced": null, "formula_pretty": "Ni3S2", "formula_anonymous": "A2B3", "chemsys": null, "volume": 65.48921551075674, "density": 6.090749723979862, "density_atomic": 13.097843102151348, "symmetry": null, "property_name": null, "material_id": "mp-362", "deprecated": null, "deprecation_reasons": null, "last_updated": null, "origins": null, "warnings": null, "structure": {"@module": "pymatgen.core.structure", "@class": "Structure", "charge": 0, "lattice": {"matrix": [[4.03041148, -0.024052340000000002, 0.062260380000000004], [0.06093465, 4.03002272, 0.06226037], [-0.02456274, -0.024052340000000002, 4.0308179]], "pbc": [true, true, true], "a": 4.0309640990826265, "b": 4.030964215787503, "c": 4.030964498257978, "alpha": 89.4621364633062, "beta": 89.46210539930038, "gamma": 89.46212027601257, "volume": 65.48921551075672}, "properties": {}, "sites": [{"species": [{"element": "Ni", "occu": 1}], "abc": [0.24520971, 0.75479029, 0.5], "properties": {"magmom": -0.0}, "label": "Ni", "xyz": [1.0220075423360193, 3.023897980219167, 2.077669322452097]}, {"species": [{"element": "Ni", "occu": 1}], "abc": [0.5, 0.24520971, 0.75479029], "properties": {"magmom": -0.0}, "label": "Ni", "xyz": [2.011607790207657, 0.9580200597808326, 3.0888192489503834]}, {"species": [{"element": "Ni", "occu": 1}], "abc": [0.75479029, 0.5, 0.24520971], "properties": {"magmom": -0.0}, "label": "Ni", "xyz": [3.0665597524563237, 1.99095902, 1.0665194035975192]}, {"species": [{"element": "S", "occu": 1}], "abc": [0.25403895, 0.25403895, 0.25403895], "properties": {"magmom": -0.0}, "label": "S", "xyz": [1.0331213822730403, 1.011562277867658, 1.0556178675404175]}, {"species": [{"element": "S", "occu": 1}], "abc": [0.74596105, 0.74596105, 0.74596105], "properties": {"magmom": -0.0}, "label": "S", "xyz": [3.033662007726959, 2.970355762132342, 3.099720782459582]}]}, "task_ids": null, "uncorrected_energy_per_atom": null, "energy_per_atom": -5.694491946, "formation_energy_per_atom": -0.571066110999999, "energy_above_hull": 0.0, "is_stable": true, "equilibrium_reaction_energy_per_atom": null, "decomposes_to": null, "xas": null, "grain_boundaries": null, "band_gap": 0.0, "cbm": null, "vbm": null, "efermi": 7.36047974, "is_gap_direct": null, "is_metal": null, "es_source_calc_id": null, "bandstructure": null, "dos": null, "dos_energy_up": null, "dos_energy_down": null, "is_magnetic": null, "ordering": null, "total_magnetization": 4e-07, "total_magnetization_normalized_vol": null, "total_magnetization_normalized_formula_units": null, "num_magnetic_sites": null, "num_unique_magnetic_sites": null, "types_of_magnetic_species": null, "bulk_modulus": null, "shear_modulus": null, "universal_anisotropy": null, "homogeneous_poisson": null, "e_total": null, "e_ionic": null, "e_electronic": null, "n": null, "e_ij_max": null, "weighted_surface_energy_EV_PER_ANG2": null, "weighted_surface_energy": null, "weighted_work_function": null, "surface_anisotropy": null, "shape_factor": null, "has_reconstructed": null, "possible_species": null, "has_props": null, "theoretical": null, "database_IDs": null, "fields_not_requested": ["builder_meta", "nsites", "elements", "nelements", "composition", "composition_reduced", "chemsys", "symmetry", "property_name", "deprecated", "deprecation_reasons", "last_updated", "origins", "warnings", "task_ids", "uncorrected_energy_per_atom", "equilibrium_reaction_energy_per_atom", "decomposes_to", "xas", "grain_boundaries", "cbm", "vbm", "is_gap_direct", "is_metal", "es_source_calc_id", "bandstructure", "dos", "dos_energy_up", "dos_energy_down", "is_magnetic", "ordering", "total_magnetization_normalized_vol", "total_magnetization_normalized_formula_units", "num_magnetic_sites", "num_unique_magnetic_sites", "types_of_magnetic_species", "bulk_modulus", "shear_modulus", "universal_anisotropy", "homogeneous_poisson", "e_total", "e_ionic", "e_electronic", "n", "e_ij_max", "weighted_surface_energy_EV_PER_ANG2", "weighted_surface_energy", "weighted_work_function", "surface_anisotropy", "shape_factor", "has_reconstructed", "possible_species", "has_props", "theoretical", "database_IDs"]}