{"builder_meta": null, "nsites": null, "elements": null, "nelements": null, "composition": null, "composition_reduced": null, "formula_pretty": "Ni3Sn2", "formula_anonymous": "A2B3", "chemsys": null, "volume": 297.3900880518235, "density": 9.235455568072057, "density_atomic": 14.869504402591176, "symmetry": null, "property_name": null, "material_id": "mp-669720", "deprecated": null, "deprecation_reasons": null, "last_updated": null, "origins": null, "warnings": null, "structure": {"@module": "pymatgen.core.structure", "@class": "Structure", "charge": 0, "lattice": {"matrix": [[5.15978058, 3.549999999999997e-06, 6.36e-06], [-3.03e-06, 7.09907482, -0.00032477], [-4.56e-06, -0.0004034, 8.11883104]], "pbc": [true, true, true], "a": 5.15978058000514, "b": 7.099074827429471, "c": 8.11883105002314, "alpha": 90.00546803248345, "beta": 89.99996155916392, "gamma": 89.9999850377124, "volume": 297.3900880518235}, "properties": {}, "sites": [{"species": [{"element": "Ni", "occu": 1}], "abc": [0.24999531, 0.40790161, 0.62804737], "properties": {"magmom": -0.0}, "label": "Ni", "xyz": [1.289916845791194, 2.8954715817627528, 5.098879597910656]}, {"species": [{"element": "Ni", "occu": 1}], "abc": [0.75000451, 0.59217724, 0.37191813], "properties": {"magmom": 0.0}, "label": "Ni", "xyz": [3.8698552153667056, 4.203763164203465, 3.019352906809204]}, {"species": [{"element": "Ni", "occu": 1}], "abc": [0.49599958, 0.73558159, 0.62356314], "properties": {"magmom": -0.0}, "label": "Ni", "xyz": [2.5592439283120196, 5.221698959052397, 5.06236803615621]}, {"species": [{"element": "Ni", "occu": 1}], "abc": [0.99597997, 0.26440167000000003, 0.37646823], "properties": {"magmom": -0.0}, "label": "Ni", "xyz": [5.139035589442794, 1.8768589063078611, 3.0564024160001027]}, {"species": [{"element": "Ni", "occu": 1}], "abc": [0.50401396, 0.7643762900000001, 0.12359368], "properties": {"magmom": -0.0}, "label": "Ni", "xyz": [2.600598563209557, 5.426316404903065, 1.0031911645729095]}, {"species": [{"element": "Ni", "occu": 1}], "abc": [0.99600497, 0.7643757, 0.12359575], "properties": {"magmom": -0.0}, "label": "Ni", "xyz": [5.139164222134491, 5.426313962181967, 1.0032110998076003]}, {"species": [{"element": "Ni", "occu": 1}], "abc": [0.50401113, 0.26439903, 0.37646788000000003], "properties": {"magmom": -0.0}, "label": "Ni", "xyz": [2.6005843228552616, 1.8768384184021438, 3.056396446344809]}, {"species": [{"element": "Ni", "occu": 1}], "abc": [0.00401173, 0.7355809600000001, 0.62356207], "properties": {"magmom": -0.0}, "label": "Ni", "xyz": [0.020694574292855396, 5.221692740510031, 5.062356220168876]}, {"species": [{"element": "Ni", "occu": 1}], "abc": [0.49597156000000003, 0.23558578, 0.87637301], "properties": {"magmom": 0.0}, "label": "Ni", "xyz": [2.5590997134344655, 1.6720893105748635, 7.115051039391581]}, {"species": [{"element": "Ni", "occu": 1}], "abc": [0.25000263, 0.90779256, 0.87186769], "properties": {"magmom": -0.0}, "label": "Ni", "xyz": [1.2899519888948021, 6.44413648056253, 7.0782532305721135]}, {"species": [{"element": "Ni", "occu": 1}], "abc": [0.00400471, 0.23558543, 0.87637042], "properties": {"magmom": 0.0}, "label": "Ni", "xyz": [0.0206587148135637, 1.672085080461165, 7.115026882823691]}, {"species": [{"element": "Ni", "occu": 1}], "abc": [0.74999785, 0.09213846, 0.12815827], "properties": {"magmom": -0.0}, "label": "Ni", "xyz": [3.869823477890508, 0.6540487847858267, 1.0404701866873725]}, {"species": [{"element": "Sn", "occu": 1}], "abc": [0.24999936, 0.0604646, 0.5960025], "properties": {"magmom": 0.0}, "label": "Sn", "xyz": [1.2899389417612908, 0.4290031794506, 4.838825549825387]}, {"species": [{"element": "Sn", "occu": 1}], "abc": [0.25000436, 0.59578022, 0.35913842], "properties": {"magmom": -0.0}, "label": "Sn", "xyz": [1.2899641987580668, 4.22934436913291, 2.915592250438237]}, {"species": [{"element": "Sn", "occu": 1}], "abc": [0.74999327, 0.40430427, 0.64086325], "properties": {"magmom": -0.0}, "label": "Sn", "xyz": [3.8697965622983386, 2.86993040101654, 5.202933910554709]}, {"species": [{"element": "Sn", "occu": 1}], "abc": [0.75000439, 0.90430296, 0.85911284], "properties": {"magmom": -0.0}, "label": "Sn", "xyz": [3.869851428844226, 6.419370469383396, 6.974703071810154]}, {"species": [{"element": "Sn", "occu": 1}], "abc": [0.24999778, 0.09575942, 0.14083502], "properties": {"magmom": -0.0}, "label": "Sn", "xyz": [1.2899327579283786, 0.6797473619448554, 1.1433862220940683]}, {"species": [{"element": "Sn", "occu": 1}], "abc": [0.24999973, 0.56047432, 0.903959], "properties": {"magmom": -0.0}, "label": "Sn", "xyz": [1.2899379315690138, 3.9784853628070636, 7.338909952840735]}, {"species": [{"element": "Sn", "occu": 1}], "abc": [0.75000256, 0.9395152, 0.40409532000000004], "properties": {"magmom": -0.0}, "label": "Sn", "xyz": [3.869843954632569, 6.669528349784264, 3.280481270799511]}, {"species": [{"element": "Sn", "occu": 1}], "abc": [0.7499996600000001, 0.43950568, 0.09600901], "properties": {"magmom": -0.0}, "label": "Sn", "xyz": [3.869831911171307, 3.1200476385991367, 0.7793429622458145]}]}, "task_ids": null, "uncorrected_energy_per_atom": null, "energy_per_atom": -5.332729955500001, "formation_energy_per_atom": -0.26081920550000004, "energy_above_hull": 0.0, "is_stable": true, "equilibrium_reaction_energy_per_atom": null, "decomposes_to": null, "xas": null, "grain_boundaries": null, "band_gap": 0.0, "cbm": null, "vbm": null, "efermi": 9.43599123, "is_gap_direct": null, "is_metal": null, "es_source_calc_id": null, "bandstructure": null, "dos": null, "dos_energy_up": null, "dos_energy_down": null, "is_magnetic": null, "ordering": null, "total_magnetization": 1e-07, "total_magnetization_normalized_vol": null, "total_magnetization_normalized_formula_units": null, "num_magnetic_sites": null, "num_unique_magnetic_sites": null, "types_of_magnetic_species": null, "bulk_modulus": null, "shear_modulus": null, "universal_anisotropy": null, "homogeneous_poisson": null, "e_total": null, "e_ionic": null, "e_electronic": null, "n": null, "e_ij_max": null, "weighted_surface_energy_EV_PER_ANG2": null, "weighted_surface_energy": null, "weighted_work_function": null, "surface_anisotropy": null, "shape_factor": null, "has_reconstructed": null, "possible_species": null, "has_props": null, "theoretical": null, "database_IDs": null, "fields_not_requested": ["builder_meta", "nsites", "elements", "nelements", "composition", "composition_reduced", "chemsys", "symmetry", "property_name", "deprecated", "deprecation_reasons", "last_updated", "origins", "warnings", "task_ids", "uncorrected_energy_per_atom", "equilibrium_reaction_energy_per_atom", "decomposes_to", "xas", "grain_boundaries", "cbm", "vbm", "is_gap_direct", "is_metal", "es_source_calc_id", "bandstructure", "dos", "dos_energy_up", "dos_energy_down", "is_magnetic", "ordering", "total_magnetization_normalized_vol", "total_magnetization_normalized_formula_units", "num_magnetic_sites", "num_unique_magnetic_sites", "types_of_magnetic_species", "bulk_modulus", "shear_modulus", "universal_anisotropy", "homogeneous_poisson", "e_total", "e_ionic", "e_electronic", "n", "e_ij_max", "weighted_surface_energy_EV_PER_ANG2", "weighted_surface_energy", "weighted_work_function", "surface_anisotropy", "shape_factor", "has_reconstructed", "possible_species", "has_props", "theoretical", "database_IDs"]}