{"builder_meta": null, "nsites": null, "elements": null, "nelements": null, "composition": null, "composition_reduced": null, "formula_pretty": "Ni3Se2", "formula_anonymous": "A2B3", "chemsys": null, "volume": 74.40625602044574, "density": 7.453948229834487, "density_atomic": 14.881251204089148, "symmetry": null, "property_name": null, "material_id": "mp-2056", "deprecated": null, "deprecation_reasons": null, "last_updated": null, "origins": null, "warnings": null, "structure": {"@module": "pymatgen.core.structure", "@class": "Structure", "charge": 0, "lattice": {"matrix": [[4.20600894, -4.295e-05, -0.051459950000000004], [-0.05209235, 4.20568627, -0.051459950000000004], [-4.329e-05, -4.295e-05, 4.20632236]], "pbc": [true, true, true], "a": 4.206323731200278, "b": 4.2063236609953165, "c": 4.20632236044204, "alpha": 90.70154883132344, "beta": 90.7015607929515, "gamma": 90.70154173730138, "volume": 74.40625602044574}, "properties": {}, "sites": [{"species": [{"element": "Ni", "occu": 1}], "abc": [0.24677158000000002, 0.75322842, 0.0], "properties": {"magmom": 0.0}, "label": "Ni", "xyz": [0.9986860331333383, 3.1678318253284328, -0.051459950000000004]}, {"species": [{"element": "Ni", "occu": 1}], "abc": [-0.0, 0.24677158000000002, 0.75322842], "properties": {"magmom": 0.0}, "label": "Ni", "xyz": [-0.012887518773714803, 1.0378114946715677, 3.15562269206525]}, {"species": [{"element": "Ni", "occu": 1}], "abc": [0.75322842, 0.0, 0.24677158000000002], "properties": {"magmom": 0.0}, "label": "Ni", "xyz": [3.1680747856403766, -4.295e-05, 0.9992397179347497]}, {"species": [{"element": "Se", "occu": 1}], "abc": [0.25788436, 0.25788436, 0.25788436], "properties": {"magmom": -0.0}, "label": "Se", "xyz": [1.071218957491588, 1.0845585598332133, 1.0582033172195255]}, {"species": [{"element": "Se", "occu": 1}], "abc": [0.74211564, 0.74211564, 0.74211564], "properties": {"magmom": -0.0}, "label": "Se", "xyz": [3.082654342508412, 3.121041810166787, 3.045199142780474]}]}, "task_ids": null, "uncorrected_energy_per_atom": null, "energy_per_atom": -13.200335974000001, "formation_energy_per_atom": -0.286681585625001, "energy_above_hull": 0.0, "is_stable": true, "equilibrium_reaction_energy_per_atom": null, "decomposes_to": null, "xas": null, "grain_boundaries": null, "band_gap": 0.0, "cbm": null, "vbm": null, "efermi": 6.12520908, "is_gap_direct": null, "is_metal": null, "es_source_calc_id": null, "bandstructure": null, "dos": null, "dos_energy_up": null, "dos_energy_down": null, "is_magnetic": null, "ordering": null, "total_magnetization": 1.8e-06, "total_magnetization_normalized_vol": null, "total_magnetization_normalized_formula_units": null, "num_magnetic_sites": null, "num_unique_magnetic_sites": null, "types_of_magnetic_species": null, "bulk_modulus": null, "shear_modulus": null, "universal_anisotropy": null, "homogeneous_poisson": null, "e_total": null, "e_ionic": null, "e_electronic": null, "n": null, "e_ij_max": null, "weighted_surface_energy_EV_PER_ANG2": null, "weighted_surface_energy": null, "weighted_work_function": null, "surface_anisotropy": null, "shape_factor": null, "has_reconstructed": null, "possible_species": null, "has_props": null, "theoretical": null, "database_IDs": null, "fields_not_requested": ["builder_meta", "nsites", "elements", "nelements", "composition", "composition_reduced", "chemsys", "symmetry", "property_name", "deprecated", "deprecation_reasons", "last_updated", "origins", "warnings", "task_ids", "uncorrected_energy_per_atom", "equilibrium_reaction_energy_per_atom", "decomposes_to", "xas", "grain_boundaries", "cbm", "vbm", "is_gap_direct", "is_metal", "es_source_calc_id", "bandstructure", "dos", "dos_energy_up", "dos_energy_down", "is_magnetic", "ordering", "total_magnetization_normalized_vol", "total_magnetization_normalized_formula_units", "num_magnetic_sites", "num_unique_magnetic_sites", "types_of_magnetic_species", "bulk_modulus", "shear_modulus", "universal_anisotropy", "homogeneous_poisson", "e_total", "e_ionic", "e_electronic", "n", "e_ij_max", "weighted_surface_energy_EV_PER_ANG2", "weighted_surface_energy", "weighted_work_function", "surface_anisotropy", "shape_factor", "has_reconstructed", "possible_species", "has_props", "theoretical", "database_IDs"]}