{
  "builder_meta": null,
  "nsites": null,
  "elements": null,
  "nelements": null,
  "composition": null,
  "composition_reduced": null,
  "formula_pretty": "Ni3S",
  "formula_anonymous": "AB3",
  "chemsys": null,
  "volume": 89.96129357743438,
  "density": 7.6840432675140615,
  "density_atomic": 11.245161697179297,
  "symmetry": null,
  "property_name": null,
  "material_id": "mp-976881",
  "deprecated": null,
  "deprecation_reasons": null,
  "last_updated": null,
  "origins": null,
  "warnings": null,
  "structure": {
    "@module": "pymatgen.core.structure",
    "@class": "Structure",
    "charge": 0,
    "lattice": {
      "matrix": [
        [2.542964, -4.404542, 0.0],
        [2.542964, 4.404542, 0.0],
        [0.0, 0.0, 4.015917]
      ],
      "pbc": [true, true, true],
      "a": 5.085927264035536,
      "b": 5.085927264035536,
      "c": 4.015917,
      "alpha": 90.0,
      "beta": 90.0,
      "gamma": 119.99999042632432,
      "volume": 89.96129357743438
    },
    "properties": {},
    "sites": [
      {
        "species": [{ "element": "Ni", "occu": 1 }],
        "abc": [0.166858, 0.333716, 0.25],
        "properties": { "magmom": 0.486 },
        "label": "Ni",
        "xyz": [1.272941661336, 0.7349330690360001, 1.00397925]
      },
      {
        "species": [{ "element": "Ni", "occu": 1 }],
        "abc": [0.666284, 0.833141999999999, 0.25],
        "properties": { "magmom": 0.47800000000000004 },
        "label": "Ni",
        "xyz": [3.8129863386639977, 0.7349330690359959, 1.00397925]
      },
      {
        "species": [{ "element": "Ni", "occu": 1 }],
        "abc": [0.166858, 0.833141999999999, 0.25],
        "properties": { "magmom": 0.48 },
        "label": "Ni",
        "xyz": [2.542963999999998, 2.934675861927996, 1.00397925]
      },
      {
        "species": [{ "element": "Ni", "occu": 1 }],
        "abc": [0.833141999999999, 0.666284, 0.75],
        "properties": { "magmom": 0.47300000000000003 },
        "label": "Ni",
        "xyz": [3.8129863386639977, -0.7349330690359959, 3.01193775]
      },
      {
        "species": [{ "element": "Ni", "occu": 1 }],
        "abc": [0.333716, 0.166858, 0.75],
        "properties": { "magmom": 0.47500000000000003 },
        "label": "Ni",
        "xyz": [1.272941661336, -0.7349330690360001, 3.01193775]
      },
      {
        "species": [{ "element": "Ni", "occu": 1 }],
        "abc": [0.833141999999999, 0.166858, 0.75],
        "properties": { "magmom": 0.47300000000000003 },
        "label": "Ni",
        "xyz": [2.542963999999998, -2.934675861927996, 3.01193775]
      },
      {
        "species": [{ "element": "S", "occu": 1 }],
        "abc": [0.333333, 0.666667, 0.75],
        "properties": { "magmom": 0.083 },
        "label": "S",
        "xyz": [2.542964, 1.468183603028, 3.01193775]
      },
      {
        "species": [{ "element": "S", "occu": 1 }],
        "abc": [0.666667, 0.333333, 0.25],
        "properties": { "magmom": 0.084 },
        "label": "S",
        "xyz": [2.542964, -1.468183603028, 1.00397925]
      }
    ]
  },
  "task_ids": null,
  "uncorrected_energy_per_atom": null,
  "energy_per_atom": -5.3558703575,
  "formation_energy_per_atom": 0.013822044375000002,
  "energy_above_hull": 0.370738363750001,
  "is_stable": false,
  "equilibrium_reaction_energy_per_atom": null,
  "decomposes_to": null,
  "xas": null,
  "grain_boundaries": null,
  "band_gap": 0.0,
  "cbm": null,
  "vbm": null,
  "efermi": 9.41048685,
  "is_gap_direct": null,
  "is_metal": null,
  "es_source_calc_id": null,
  "bandstructure": null,
  "dos": null,
  "dos_energy_up": null,
  "dos_energy_down": null,
  "is_magnetic": null,
  "ordering": null,
  "total_magnetization": 2.956322,
  "total_magnetization_normalized_vol": null,
  "total_magnetization_normalized_formula_units": null,
  "num_magnetic_sites": null,
  "num_unique_magnetic_sites": null,
  "types_of_magnetic_species": null,
  "bulk_modulus": null,
  "shear_modulus": null,
  "universal_anisotropy": null,
  "homogeneous_poisson": null,
  "e_total": null,
  "e_ionic": null,
  "e_electronic": null,
  "n": null,
  "e_ij_max": null,
  "weighted_surface_energy_EV_PER_ANG2": null,
  "weighted_surface_energy": null,
  "weighted_work_function": null,
  "surface_anisotropy": null,
  "shape_factor": null,
  "has_reconstructed": null,
  "possible_species": null,
  "has_props": null,
  "theoretical": null,
  "database_IDs": null,
  "fields_not_requested": [
    "builder_meta",
    "nsites",
    "elements",
    "nelements",
    "composition",
    "composition_reduced",
    "chemsys",
    "symmetry",
    "property_name",
    "deprecated",
    "deprecation_reasons",
    "last_updated",
    "origins",
    "warnings",
    "task_ids",
    "uncorrected_energy_per_atom",
    "equilibrium_reaction_energy_per_atom",
    "decomposes_to",
    "xas",
    "grain_boundaries",
    "cbm",
    "vbm",
    "is_gap_direct",
    "is_metal",
    "es_source_calc_id",
    "bandstructure",
    "dos",
    "dos_energy_up",
    "dos_energy_down",
    "is_magnetic",
    "ordering",
    "total_magnetization_normalized_vol",
    "total_magnetization_normalized_formula_units",
    "num_magnetic_sites",
    "num_unique_magnetic_sites",
    "types_of_magnetic_species",
    "bulk_modulus",
    "shear_modulus",
    "universal_anisotropy",
    "homogeneous_poisson",
    "e_total",
    "e_ionic",
    "e_electronic",
    "n",
    "e_ij_max",
    "weighted_surface_energy_EV_PER_ANG2",
    "weighted_surface_energy",
    "weighted_work_function",
    "surface_anisotropy",
    "shape_factor",
    "has_reconstructed",
    "possible_species",
    "has_props",
    "theoretical",
    "database_IDs"
  ]
}
