{
  "builder_meta": null,
  "nsites": null,
  "elements": null,
  "nelements": null,
  "composition": null,
  "composition_reduced": null,
  "formula_pretty": "Ni3S4",
  "formula_anonymous": "A3B4",
  "chemsys": null,
  "volume": 206.8054233418708,
  "density": 4.887384319718059,
  "density_atomic": 14.771815952990773,
  "symmetry": null,
  "property_name": null,
  "material_id": "mp-1050",
  "deprecated": null,
  "deprecation_reasons": null,
  "last_updated": null,
  "origins": null,
  "warnings": null,
  "structure": {
    "@module": "pymatgen.core.structure",
    "@class": "Structure",
    "charge": 0,
    "lattice": {
      "matrix": [
        [5.74852065, 2.05e-6, 3.3189134],
        [1.9161752600000002, 5.41975889, 3.3189134],
        [0.0, -0.0, 6.6378268]
      ],
      "pbc": [true, true, true],
      "a": 6.637821617080425,
      "b": 6.637823454225765,
      "c": 6.6378268,
      "alpha": 59.99998332626186,
      "beta": 59.99997417080006,
      "gamma": 59.99996049274161,
      "volume": 206.8054233418708
    },
    "properties": {},
    "sites": [
      {
        "species": [{ "element": "Ni", "occu": 1 }],
        "abc": [0.5, 0.0, 0.5],
        "properties": { "magmom": 0.0 },
        "label": "Ni",
        "xyz": [2.874260325, 1.025e-6, 4.9783701]
      },
      {
        "species": [{ "element": "Ni", "occu": 1 }],
        "abc": [-0.0, 0.5, 0.5],
        "properties": { "magmom": 0.0 },
        "label": "Ni",
        "xyz": [0.9580876300000001, 2.709879445, 4.9783701]
      },
      {
        "species": [{ "element": "Ni", "occu": 1 }],
        "abc": [0.5, 0.5, 0.0],
        "properties": { "magmom": 0.0 },
        "label": "Ni",
        "xyz": [3.832347955, 2.70988047, 3.3189134]
      },
      {
        "species": [{ "element": "Ni", "occu": 1 }],
        "abc": [0.5, 0.5, 0.5],
        "properties": { "magmom": 0.0 },
        "label": "Ni",
        "xyz": [3.832347955, 2.70988047, 6.6378268]
      },
      {
        "species": [{ "element": "Ni", "occu": 1 }],
        "abc": [0.125, 0.125, 0.125],
        "properties": { "magmom": -0.0 },
        "label": "Ni",
        "xyz": [0.95808698875, 0.6774701175, 1.6594567]
      },
      {
        "species": [{ "element": "Ni", "occu": 1 }],
        "abc": [0.875, 0.875, 0.875],
        "properties": { "magmom": -0.0 },
        "label": "Ni",
        "xyz": [6.70660892125, 4.7422908225, 11.6161969]
      },
      {
        "species": [{ "element": "S", "occu": 1 }],
        "abc": [0.74177391, 0.74177391, 0.74177291],
        "properties": { "magmom": -0.0 },
        "label": "S",
        "xyz": [5.685471454121708, 4.020237263729075, 9.847526840850776]
      },
      {
        "species": [{ "element": "S", "occu": 1 }],
        "abc": [0.25822609, 0.25822609, 0.72532273],
        "properties": { "magmom": -0.0 },
        "label": "S",
        "xyz": [1.979224455878292, 1.3995236762709247, 6.528626716504376]
      },
      {
        "species": [{ "element": "S", "occu": 1 }],
        "abc": [0.25822609, 0.72532273, 0.25822709],
        "properties": { "magmom": -0.0 },
        "label": "S",
        "xyz": [2.8742634814754187, 3.9310748434000544, 4.9783800567402]
      },
      {
        "species": [{ "element": "S", "occu": 1 }],
        "abc": [0.72532273, 0.25822609, 0.25822709],
        "properties": { "magmom": -0.0 },
        "label": "S",
        "xyz": [4.664339136463908, 1.3995246338190366, 4.9783800567402]
      },
      {
        "species": [{ "element": "S", "occu": 1 }],
        "abc": [0.74177391, 0.27467727000000003, 0.74177291],
        "properties": { "magmom": -0.0 },
        "label": "S",
        "xyz": [4.790432428524581, 1.488686096599946, 8.2972735432598]
      },
      {
        "species": [{ "element": "S", "occu": 1 }],
        "abc": [0.27467727000000003, 0.74177391, 0.74177291],
        "properties": { "magmom": -0.0 },
        "label": "S",
        "xyz": [3.000356773536092, 4.020236306180963, 8.2972735432598]
      },
      {
        "species": [{ "element": "S", "occu": 1 }],
        "abc": [0.25822609, 0.25822609, 0.25822709],
        "properties": { "magmom": -0.0 },
        "label": "S",
        "xyz": [1.979224455878292, 1.3995236762709247, 3.428126759149224]
      },
      {
        "species": [{ "element": "S", "occu": 1 }],
        "abc": [0.74177391, 0.74177391, 0.27467727000000003],
        "properties": { "magmom": -0.0 },
        "label": "S",
        "xyz": [5.685471454121708, 4.020237263729075, 6.747026883495624]
      }
    ]
  },
  "task_ids": null,
  "uncorrected_energy_per_atom": null,
  "energy_per_atom": -5.499950077142857,
  "formation_energy_per_atom": -0.657971747142855,
  "energy_above_hull": 0.0,
  "is_stable": true,
  "equilibrium_reaction_energy_per_atom": null,
  "decomposes_to": null,
  "xas": null,
  "grain_boundaries": null,
  "band_gap": 0.0,
  "cbm": null,
  "vbm": null,
  "efermi": 6.91835082,
  "is_gap_direct": null,
  "is_metal": null,
  "es_source_calc_id": null,
  "bandstructure": null,
  "dos": null,
  "dos_energy_up": null,
  "dos_energy_down": null,
  "is_magnetic": null,
  "ordering": null,
  "total_magnetization": 0.00011549999999900002,
  "total_magnetization_normalized_vol": null,
  "total_magnetization_normalized_formula_units": null,
  "num_magnetic_sites": null,
  "num_unique_magnetic_sites": null,
  "types_of_magnetic_species": null,
  "bulk_modulus": null,
  "shear_modulus": null,
  "universal_anisotropy": null,
  "homogeneous_poisson": null,
  "e_total": null,
  "e_ionic": null,
  "e_electronic": null,
  "n": null,
  "e_ij_max": null,
  "weighted_surface_energy_EV_PER_ANG2": null,
  "weighted_surface_energy": null,
  "weighted_work_function": null,
  "surface_anisotropy": null,
  "shape_factor": null,
  "has_reconstructed": null,
  "possible_species": null,
  "has_props": null,
  "theoretical": null,
  "database_IDs": null,
  "fields_not_requested": [
    "builder_meta",
    "nsites",
    "elements",
    "nelements",
    "composition",
    "composition_reduced",
    "chemsys",
    "symmetry",
    "property_name",
    "deprecated",
    "deprecation_reasons",
    "last_updated",
    "origins",
    "warnings",
    "task_ids",
    "uncorrected_energy_per_atom",
    "equilibrium_reaction_energy_per_atom",
    "decomposes_to",
    "xas",
    "grain_boundaries",
    "cbm",
    "vbm",
    "is_gap_direct",
    "is_metal",
    "es_source_calc_id",
    "bandstructure",
    "dos",
    "dos_energy_up",
    "dos_energy_down",
    "is_magnetic",
    "ordering",
    "total_magnetization_normalized_vol",
    "total_magnetization_normalized_formula_units",
    "num_magnetic_sites",
    "num_unique_magnetic_sites",
    "types_of_magnetic_species",
    "bulk_modulus",
    "shear_modulus",
    "universal_anisotropy",
    "homogeneous_poisson",
    "e_total",
    "e_ionic",
    "e_electronic",
    "n",
    "e_ij_max",
    "weighted_surface_energy_EV_PER_ANG2",
    "weighted_surface_energy",
    "weighted_work_function",
    "surface_anisotropy",
    "shape_factor",
    "has_reconstructed",
    "possible_species",
    "has_props",
    "theoretical",
    "database_IDs"
  ]
}
