{
  "builder_meta": null,
  "nsites": null,
  "elements": null,
  "nelements": null,
  "composition": null,
  "composition_reduced": null,
  "formula_pretty": "Ni3Sb",
  "formula_anonymous": "AB3",
  "chemsys": null,
  "volume": 100.15727126898034,
  "density": 9.875973684940673,
  "density_atomic": 12.519658908622542,
  "symmetry": null,
  "property_name": null,
  "material_id": "mp-672371",
  "deprecated": null,
  "deprecation_reasons": null,
  "last_updated": null,
  "origins": null,
  "warnings": null,
  "structure": {
    "@module": "pymatgen.core.structure",
    "@class": "Structure",
    "charge": 0,
    "lattice": {
      "matrix": [
        [4.24418622, 0.0, 0.0],
        [-0.0, 4.48876871, 0.0],
        [0.0, 0.0, 5.25727657]
      ],
      "pbc": [true, true, true],
      "a": 4.24418622,
      "b": 4.48876871,
      "c": 5.25727657,
      "alpha": 90.0,
      "beta": 90.0,
      "gamma": 90.0,
      "volume": 100.15727126898034
    },
    "properties": {},
    "sites": [
      {
        "species": [{ "element": "Ni", "occu": 1 }],
        "abc": [0.25, 0.31596464, 0.75],
        "properties": { "magmom": 0.0 },
        "label": "Ni",
        "xyz": [1.061046555, 1.4182921894984146, 3.9429574275]
      },
      {
        "species": [{ "element": "Ni", "occu": 1 }],
        "abc": [0.75, 0.68403536, 0.25],
        "properties": { "magmom": 0.0 },
        "label": "Ni",
        "xyz": [3.1831396649999997, 3.070476520501586, 1.3143191425]
      },
      {
        "species": [{ "element": "Ni", "occu": 1 }],
        "abc": [0.25, 0.8282689, 0.99940577],
        "properties": { "magmom": -0.0 },
        "label": "Ni",
        "xyz": [1.061046555, 3.717907521786119, 5.254152538543809]
      },
      {
        "species": [{ "element": "Ni", "occu": 1 }],
        "abc": [0.75, 0.1717311, 0.0005942300000000001],
        "properties": { "magmom": -0.0 },
        "label": "Ni",
        "xyz": [3.1831396649999997, 0.770861188213881, 0.0031240314561911003]
      },
      {
        "species": [{ "element": "Ni", "occu": 1 }],
        "abc": [0.25, 0.8282689, 0.50059423],
        "properties": { "magmom": -0.0 },
        "label": "Ni",
        "xyz": [1.061046555, 3.717907521786119, 2.631762316456191]
      },
      {
        "species": [{ "element": "Ni", "occu": 1 }],
        "abc": [0.75, 0.1717311, 0.49940577],
        "properties": { "magmom": -0.0 },
        "label": "Ni",
        "xyz": [3.1831396649999997, 0.770861188213881, 2.625514253543809]
      },
      {
        "species": [{ "element": "Sb", "occu": 1 }],
        "abc": [0.75, 0.67796034, 0.75],
        "properties": { "magmom": -0.0 },
        "label": "Sb",
        "xyz": [3.1831396649999997, 3.043207160812962, 3.9429574275]
      },
      {
        "species": [{ "element": "Sb", "occu": 1 }],
        "abc": [0.25, 0.32203966, 0.25],
        "properties": { "magmom": -0.0 },
        "label": "Sb",
        "xyz": [1.061046555, 1.4455615491870388, 1.3143191425]
      }
    ]
  },
  "task_ids": null,
  "uncorrected_energy_per_atom": null,
  "energy_per_atom": -15.5085990675,
  "formation_energy_per_atom": -0.09573226500000001,
  "energy_above_hull": 0.031380285,
  "is_stable": false,
  "equilibrium_reaction_energy_per_atom": null,
  "decomposes_to": null,
  "xas": null,
  "grain_boundaries": null,
  "band_gap": 0.0,
  "cbm": null,
  "vbm": null,
  "efermi": 10.06060376,
  "is_gap_direct": null,
  "is_metal": null,
  "es_source_calc_id": null,
  "bandstructure": null,
  "dos": null,
  "dos_energy_up": null,
  "dos_energy_down": null,
  "is_magnetic": null,
  "ordering": null,
  "total_magnetization": 0.0,
  "total_magnetization_normalized_vol": null,
  "total_magnetization_normalized_formula_units": null,
  "num_magnetic_sites": null,
  "num_unique_magnetic_sites": null,
  "types_of_magnetic_species": null,
  "bulk_modulus": null,
  "shear_modulus": null,
  "universal_anisotropy": null,
  "homogeneous_poisson": null,
  "e_total": null,
  "e_ionic": null,
  "e_electronic": null,
  "n": null,
  "e_ij_max": null,
  "weighted_surface_energy_EV_PER_ANG2": null,
  "weighted_surface_energy": null,
  "weighted_work_function": null,
  "surface_anisotropy": null,
  "shape_factor": null,
  "has_reconstructed": null,
  "possible_species": null,
  "has_props": null,
  "theoretical": null,
  "database_IDs": null,
  "fields_not_requested": [
    "builder_meta",
    "nsites",
    "elements",
    "nelements",
    "composition",
    "composition_reduced",
    "chemsys",
    "symmetry",
    "property_name",
    "deprecated",
    "deprecation_reasons",
    "last_updated",
    "origins",
    "warnings",
    "task_ids",
    "uncorrected_energy_per_atom",
    "equilibrium_reaction_energy_per_atom",
    "decomposes_to",
    "xas",
    "grain_boundaries",
    "cbm",
    "vbm",
    "is_gap_direct",
    "is_metal",
    "es_source_calc_id",
    "bandstructure",
    "dos",
    "dos_energy_up",
    "dos_energy_down",
    "is_magnetic",
    "ordering",
    "total_magnetization_normalized_vol",
    "total_magnetization_normalized_formula_units",
    "num_magnetic_sites",
    "num_unique_magnetic_sites",
    "types_of_magnetic_species",
    "bulk_modulus",
    "shear_modulus",
    "universal_anisotropy",
    "homogeneous_poisson",
    "e_total",
    "e_ionic",
    "e_electronic",
    "n",
    "e_ij_max",
    "weighted_surface_energy_EV_PER_ANG2",
    "weighted_surface_energy",
    "weighted_work_function",
    "surface_anisotropy",
    "shape_factor",
    "has_reconstructed",
    "possible_species",
    "has_props",
    "theoretical",
    "database_IDs"
  ]
}
