{"builder_meta": null, "nsites": null, "elements": null, "nelements": null, "composition": null, "composition_reduced": null, "formula_pretty": "Ni3Se", "formula_anonymous": "AB3", "chemsys": null, "volume": 96.18536604317995, "density": 8.806001018145647, "density_atomic": 12.023170755397494, "symmetry": null, "property_name": null, "material_id": "mp-1186370", "deprecated": null, "deprecation_reasons": null, "last_updated": null, "origins": null, "warnings": null, "structure": {"@module": "pymatgen.core.structure", "@class": "Structure", "charge": 0, "lattice": {"matrix": [[2.576277, -4.462243, 0.0], [2.576277, 4.462243, 0.0], [0.0, 0.0, 4.183437]], "pbc": [true, true, true], "a": 5.152554295859288, "b": 5.152554295859288, "c": 4.183437, "alpha": 90.0, "beta": 90.0, "gamma": 120.00000379887172, "volume": 96.18536604317995}, "properties": {}, "sites": [{"species": [{"element": "Ni", "occu": 1}], "abc": [0.164096, 0.328192, 0.25], "properties": {"magmom": 0.137}, "label": "Ni", "xyz": [1.268270251776, 0.732236227328, 1.04585925]}, {"species": [{"element": "Ni", "occu": 1}], "abc": [0.671808, 0.835904, 0.25], "properties": {"magmom": 0.136}, "label": "Ni", "xyz": [3.884283748224, 0.7322362273280003, 1.04585925]}, {"species": [{"element": "Ni", "occu": 1}], "abc": [0.164096, 0.835904, 0.25], "properties": {"magmom": 0.133}, "label": "Ni", "xyz": [2.576277, 2.9977705453440002, 1.04585925]}, {"species": [{"element": "Ni", "occu": 1}], "abc": [0.835904, 0.671808, 0.75], "properties": {"magmom": 0.11900000000000001}, "label": "Ni", "xyz": [3.884283748224, -0.7322362273280003, 3.1375777499999997]}, {"species": [{"element": "Ni", "occu": 1}], "abc": [0.328192, 0.164096, 0.75], "properties": {"magmom": 0.123}, "label": "Ni", "xyz": [1.268270251776, -0.732236227328, 3.1375777499999997]}, {"species": [{"element": "Ni", "occu": 1}], "abc": [0.835904, 0.164096, 0.75], "properties": {"magmom": 0.126}, "label": "Ni", "xyz": [2.576277, -2.9977705453440002, 3.1375777499999997]}, {"species": [{"element": "Se", "occu": 1}], "abc": [0.333333, 0.666667, 0.75], "properties": {"magmom": 0.012}, "label": "Se", "xyz": [2.576277, 1.487417308162, 3.1375777499999997]}, {"species": [{"element": "Se", "occu": 1}], "abc": [0.666667, 0.333333, 0.25], "properties": {"magmom": 0.012}, "label": "Se", "xyz": [2.576277, -1.487417308162, 1.04585925]}]}, "task_ids": null, "uncorrected_energy_per_atom": null, "energy_per_atom": -12.4694171975, "formation_energy_per_atom": 0.094760730234375, "energy_above_hull": 0.273936721249999, "is_stable": false, "equilibrium_reaction_energy_per_atom": null, "decomposes_to": null, "xas": null, "grain_boundaries": null, "band_gap": 0.0, "cbm": null, "vbm": null, "efermi": 8.65360693, "is_gap_direct": null, "is_metal": null, "es_source_calc_id": null, "bandstructure": null, "dos": null, "dos_energy_up": null, "dos_energy_down": null, "is_magnetic": null, "ordering": null, "total_magnetization": 0.7973038, "total_magnetization_normalized_vol": null, "total_magnetization_normalized_formula_units": null, "num_magnetic_sites": null, "num_unique_magnetic_sites": null, "types_of_magnetic_species": null, "bulk_modulus": null, "shear_modulus": null, "universal_anisotropy": null, "homogeneous_poisson": null, "e_total": null, "e_ionic": null, "e_electronic": null, "n": null, "e_ij_max": null, "weighted_surface_energy_EV_PER_ANG2": null, "weighted_surface_energy": null, "weighted_work_function": null, "surface_anisotropy": null, "shape_factor": null, "has_reconstructed": null, "possible_species": null, "has_props": null, "theoretical": null, "database_IDs": null, "fields_not_requested": ["builder_meta", "nsites", "elements", "nelements", "composition", "composition_reduced", "chemsys", "symmetry", "property_name", "deprecated", "deprecation_reasons", "last_updated", "origins", "warnings", "task_ids", "uncorrected_energy_per_atom", "equilibrium_reaction_energy_per_atom", "decomposes_to", "xas", "grain_boundaries", "cbm", "vbm", "is_gap_direct", "is_metal", "es_source_calc_id", "bandstructure", "dos", "dos_energy_up", "dos_energy_down", "is_magnetic", "ordering", "total_magnetization_normalized_vol", "total_magnetization_normalized_formula_units", "num_magnetic_sites", "num_unique_magnetic_sites", "types_of_magnetic_species", "bulk_modulus", "shear_modulus", "universal_anisotropy", "homogeneous_poisson", "e_total", "e_ionic", "e_electronic", "n", "e_ij_max", "weighted_surface_energy_EV_PER_ANG2", "weighted_surface_energy", "weighted_work_function", "surface_anisotropy", "shape_factor", "has_reconstructed", "possible_species", "has_props", "theoretical", "database_IDs"]}