{
  "builder_meta": null,
  "nsites": null,
  "elements": null,
  "nelements": null,
  "composition": null,
  "composition_reduced": null,
  "formula_pretty": "Ni3Te",
  "formula_anonymous": "AB3",
  "chemsys": null,
  "volume": 105.25191699521719,
  "density": 9.582207151168872,
  "density_atomic": 13.156489624402148,
  "symmetry": null,
  "property_name": null,
  "material_id": "mp-976953",
  "deprecated": null,
  "deprecation_reasons": null,
  "last_updated": null,
  "origins": null,
  "warnings": null,
  "structure": {
    "@module": "pymatgen.core.structure",
    "@class": "Structure",
    "charge": 0,
    "lattice": {
      "matrix": [
        [2.668065, -4.621224, 0.0],
        [2.668065, 4.621224, 0.0],
        [0.0, 0.0, 4.268218]
      ],
      "pbc": [true, true, true],
      "a": 5.336129880578339,
      "b": 5.336129880578339,
      "c": 4.268218,
      "alpha": 90.0,
      "beta": 90.0,
      "gamma": 119.9999985193626,
      "volume": 105.25191699521719
    },
    "properties": {},
    "sites": [
      {
        "species": [{ "element": "Ni", "occu": 1 }],
        "abc": [0.838872, 0.161128, 0.75],
        "properties": { "magmom": 0.003 },
        "label": "Ni",
        "xyz": [2.6680649999999995, -3.1320068386559994, 3.2011635]
      },
      {
        "species": [{ "element": "Ni", "occu": 1 }],
        "abc": [0.161128, 0.322256, 0.25],
        "properties": { "magmom": 0.002 },
        "label": "Ni",
        "xyz": [1.28969993196, 0.744608580672, 1.0670545]
      },
      {
        "species": [{ "element": "Ni", "occu": 1 }],
        "abc": [0.677744, 0.838872, 0.25],
        "properties": { "magmom": 0.002 },
        "label": "Ni",
        "xyz": [4.046430068039999, 0.7446085806719998, 1.0670545]
      },
      {
        "species": [{ "element": "Ni", "occu": 1 }],
        "abc": [0.161128, 0.838872, 0.25],
        "properties": { "magmom": 0.003 },
        "label": "Ni",
        "xyz": [2.6680649999999995, 3.1320068386559994, 1.0670545]
      },
      {
        "species": [{ "element": "Ni", "occu": 1 }],
        "abc": [0.838872, 0.677744, 0.75],
        "properties": { "magmom": 0.002 },
        "label": "Ni",
        "xyz": [4.046430068039999, -0.7446085806719998, 3.2011635]
      },
      {
        "species": [{ "element": "Ni", "occu": 1 }],
        "abc": [0.322256, 0.161128, 0.75],
        "properties": { "magmom": 0.002 },
        "label": "Ni",
        "xyz": [1.28969993196, -0.744608580672, 3.2011635]
      },
      {
        "species": [{ "element": "Te", "occu": 1 }],
        "abc": [0.333333, 0.666667, 0.75],
        "properties": { "magmom": 0.0 },
        "label": "Te",
        "xyz": [2.668065, 1.5404110808159999, 3.2011635]
      },
      {
        "species": [{ "element": "Te", "occu": 1 }],
        "abc": [0.666667, 0.333333, 0.25],
        "properties": { "magmom": 0.0 },
        "label": "Te",
        "xyz": [2.668065, -1.5404110808159999, 1.0670545]
      }
    ]
  },
  "task_ids": null,
  "uncorrected_energy_per_atom": null,
  "energy_per_atom": -15.282314135624999,
  "formation_energy_per_atom": 0.058279811875001,
  "energy_above_hull": 0.153487918124999,
  "is_stable": false,
  "equilibrium_reaction_energy_per_atom": null,
  "decomposes_to": null,
  "xas": null,
  "grain_boundaries": null,
  "band_gap": 0.0,
  "cbm": null,
  "vbm": null,
  "efermi": 10.18624813,
  "is_gap_direct": null,
  "is_metal": null,
  "es_source_calc_id": null,
  "bandstructure": null,
  "dos": null,
  "dos_energy_up": null,
  "dos_energy_down": null,
  "is_magnetic": null,
  "ordering": null,
  "total_magnetization": 0.017884399999999002,
  "total_magnetization_normalized_vol": null,
  "total_magnetization_normalized_formula_units": null,
  "num_magnetic_sites": null,
  "num_unique_magnetic_sites": null,
  "types_of_magnetic_species": null,
  "bulk_modulus": null,
  "shear_modulus": null,
  "universal_anisotropy": null,
  "homogeneous_poisson": null,
  "e_total": null,
  "e_ionic": null,
  "e_electronic": null,
  "n": null,
  "e_ij_max": null,
  "weighted_surface_energy_EV_PER_ANG2": null,
  "weighted_surface_energy": null,
  "weighted_work_function": null,
  "surface_anisotropy": null,
  "shape_factor": null,
  "has_reconstructed": null,
  "possible_species": null,
  "has_props": null,
  "theoretical": null,
  "database_IDs": null,
  "fields_not_requested": [
    "builder_meta",
    "nsites",
    "elements",
    "nelements",
    "composition",
    "composition_reduced",
    "chemsys",
    "symmetry",
    "property_name",
    "deprecated",
    "deprecation_reasons",
    "last_updated",
    "origins",
    "warnings",
    "task_ids",
    "uncorrected_energy_per_atom",
    "equilibrium_reaction_energy_per_atom",
    "decomposes_to",
    "xas",
    "grain_boundaries",
    "cbm",
    "vbm",
    "is_gap_direct",
    "is_metal",
    "es_source_calc_id",
    "bandstructure",
    "dos",
    "dos_energy_up",
    "dos_energy_down",
    "is_magnetic",
    "ordering",
    "total_magnetization_normalized_vol",
    "total_magnetization_normalized_formula_units",
    "num_magnetic_sites",
    "num_unique_magnetic_sites",
    "types_of_magnetic_species",
    "bulk_modulus",
    "shear_modulus",
    "universal_anisotropy",
    "homogeneous_poisson",
    "e_total",
    "e_ionic",
    "e_electronic",
    "n",
    "e_ij_max",
    "weighted_surface_energy_EV_PER_ANG2",
    "weighted_surface_energy",
    "weighted_work_function",
    "surface_anisotropy",
    "shape_factor",
    "has_reconstructed",
    "possible_species",
    "has_props",
    "theoretical",
    "database_IDs"
  ]
}
