{"builder_meta": null, "nsites": null, "elements": null, "nelements": null, "composition": null, "composition_reduced": null, "formula_pretty": "Ni3Te4", "formula_anonymous": "A3B4", "chemsys": null, "volume": 142.2717569632665, "density": 8.01232243755661, "density_atomic": 20.324536709038075, "symmetry": null, "property_name": null, "material_id": "mp-1220085", "deprecated": null, "deprecation_reasons": null, "last_updated": null, "origins": null, "warnings": null, "structure": {"@module": "pymatgen.core.structure", "@class": "Structure", "charge": 0, "lattice": {"matrix": [[1.97644255, 6.31751298, -0.03742223], [-1.97644255, 6.31751298, -0.03742223], [0.0, 3.58578786, 5.67591861]], "pbc": [true, true, true], "a": 6.6195691573709805, "b": 6.6195691573709805, "c": 6.7137118380421805, "alpha": 59.67207332958917, "beta": 59.67207332958917, "gamma": 34.74415387478643, "volume": 142.27175696326648}, "properties": {}, "sites": [{"species": [{"element": "Ni", "occu": 1}], "abc": [-0.0, -0.0, 0.0], "properties": {"magmom": -0.0}, "label": "Ni", "xyz": [0.0, 0.0, 0.0]}, {"species": [{"element": "Ni", "occu": 1}], "abc": [0.25218933, 0.25218933, 0.76051855], "properties": {"magmom": 0.0}, "label": "Ni", "xyz": [0.0, 5.9134769152798095, 4.297766416973603]}, {"species": [{"element": "Ni", "occu": 1}], "abc": [0.74781067, 0.74781067, 0.23948145], "properties": {"magmom": 0.0}, "label": "Ni", "xyz": [0.0, 10.30733690472019, 1.3033077330263965]}, {"species": [{"element": "Te", "occu": 1}], "abc": [0.12400617, 0.12400617, 0.21673118], "properties": {"magmom": -0.0}, "label": "Te", "xyz": [0.0, 2.343973211277648, 1.2208673630989417]}, {"species": [{"element": "Te", "occu": 1}], "abc": [0.6299372, 0.6299372, 0.7060020300000001], "properties": {"magmom": 0.0}, "label": "Te", "xyz": [0.0, 10.490846383479068, 3.9600627512068667]}, {"species": [{"element": "Te", "occu": 1}], "abc": [0.370062799999999, 0.370062799999999, 0.29399797], "properties": {"magmom": 0.0}, "label": "Te", "xyz": [0.0, 5.729967436520919, 1.6410113987931336]}, {"species": [{"element": "Te", "occu": 1}], "abc": [0.87599383, 0.87599383, 0.78326882], "properties": {"magmom": -0.0}, "label": "Te", "xyz": [0.0, 13.876840608722352, 4.380206786901058]}]}, "task_ids": null, "uncorrected_energy_per_atom": null, "energy_per_atom": -19.849502145714286, "formation_energy_per_atom": -0.190352328571427, "energy_above_hull": 0.015030465714286002, "is_stable": false, "equilibrium_reaction_energy_per_atom": null, "decomposes_to": null, "xas": null, "grain_boundaries": null, "band_gap": 0.0, "cbm": null, "vbm": null, "efermi": 8.50802316, "is_gap_direct": null, "is_metal": null, "es_source_calc_id": null, "bandstructure": null, "dos": null, "dos_energy_up": null, "dos_energy_down": null, "is_magnetic": null, "ordering": null, "total_magnetization": 0.0, "total_magnetization_normalized_vol": null, "total_magnetization_normalized_formula_units": null, "num_magnetic_sites": null, "num_unique_magnetic_sites": null, "types_of_magnetic_species": null, "bulk_modulus": null, "shear_modulus": null, "universal_anisotropy": null, "homogeneous_poisson": null, "e_total": null, "e_ionic": null, "e_electronic": null, "n": null, "e_ij_max": null, "weighted_surface_energy_EV_PER_ANG2": null, "weighted_surface_energy": null, "weighted_work_function": null, "surface_anisotropy": null, "shape_factor": null, "has_reconstructed": null, "possible_species": null, "has_props": null, "theoretical": null, "database_IDs": null, "fields_not_requested": ["builder_meta", "nsites", "elements", "nelements", "composition", "composition_reduced", "chemsys", "symmetry", "property_name", "deprecated", "deprecation_reasons", "last_updated", "origins", "warnings", "task_ids", "uncorrected_energy_per_atom", "equilibrium_reaction_energy_per_atom", "decomposes_to", "xas", "grain_boundaries", "cbm", "vbm", "is_gap_direct", "is_metal", "es_source_calc_id", "bandstructure", "dos", "dos_energy_up", "dos_energy_down", "is_magnetic", "ordering", "total_magnetization_normalized_vol", "total_magnetization_normalized_formula_units", "num_magnetic_sites", "num_unique_magnetic_sites", "types_of_magnetic_species", "bulk_modulus", "shear_modulus", "universal_anisotropy", "homogeneous_poisson", "e_total", "e_ionic", "e_electronic", "n", "e_ij_max", "weighted_surface_energy_EV_PER_ANG2", "weighted_surface_energy", "weighted_work_function", "surface_anisotropy", "shape_factor", "has_reconstructed", "possible_species", "has_props", "theoretical", "database_IDs"]}