{
  "builder_meta": null,
  "nsites": null,
  "elements": null,
  "nelements": null,
  "composition": null,
  "composition_reduced": null,
  "formula_pretty": "Ni4B3",
  "formula_anonymous": "A3B4",
  "chemsys": null,
  "volume": 229.8984262183969,
  "density": 7.7200528155308135,
  "density_atomic": 8.21065807922846,
  "symmetry": null,
  "property_name": null,
  "material_id": "mp-640067",
  "deprecated": null,
  "deprecation_reasons": null,
  "last_updated": null,
  "origins": null,
  "warnings": null,
  "structure": {
    "@module": "pymatgen.core.structure",
    "@class": "Structure",
    "charge": 0,
    "lattice": {
      "matrix": [
        [2.98129833, 0.0, 0.0],
        [-0.0, 6.5116321500000005, 0.0],
        [0.0, 0.0, 11.84242663]
      ],
      "pbc": [true, true, true],
      "a": 2.98129833,
      "b": 6.5116321500000005,
      "c": 11.84242663,
      "alpha": 90.0,
      "beta": 90.0,
      "gamma": 90.0,
      "volume": 229.8984262183969
    },
    "properties": {},
    "sites": [
      {
        "species": [{ "element": "Ni", "occu": 1 }],
        "abc": [0.25, 0.5082238, 0.64832311],
        "properties": { "magmom": -0.0 },
        "label": "Ni",
        "xyz": [0.7453245825, 3.3093664354751704, 7.677718862708419]
      },
      {
        "species": [{ "element": "Ni", "occu": 1 }],
        "abc": [0.75, 0.6187813600000001, 0.79928642],
        "properties": { "magmom": -0.0 },
        "label": "Ni",
        "xyz": [2.2359737475, 4.029276597596724, 9.465490785205365]
      },
      {
        "species": [{ "element": "Ni", "occu": 1 }],
        "abc": [0.25, 0.11878136, 0.7007135800000001],
        "properties": { "magmom": -0.0 },
        "label": "Ni",
        "xyz": [0.7453245825, 0.773460522596724, 8.298149159794637]
      },
      {
        "species": [{ "element": "Ni", "occu": 1 }],
        "abc": [0.75, 0.25103093, 0.0504796],
        "properties": { "magmom": 0.0 },
        "label": "Ni",
        "xyz": [2.2359737475, 1.6346210744323995, 0.597800959311748]
      },
      {
        "species": [{ "element": "Ni", "occu": 1 }],
        "abc": [0.25, 0.9917762, 0.14832311],
        "properties": { "magmom": -0.0 },
        "label": "Ni",
        "xyz": [0.7453245825, 6.45808178952483, 1.7565055477084195]
      },
      {
        "species": [{ "element": "Ni", "occu": 1 }],
        "abc": [0.75, 0.66898395, 0.12323657],
        "properties": { "magmom": -0.0 },
        "label": "Ni",
        "xyz": [2.2359737475, 4.356177396653993, 1.4594200383578593]
      },
      {
        "species": [{ "element": "Ni", "occu": 1 }],
        "abc": [0.25, 0.74896907, 0.949520399999999],
        "properties": { "magmom": 0.0 },
        "label": "Ni",
        "xyz": [0.7453245825, 4.877011075567601, 11.24462567068824]
      },
      {
        "species": [{ "element": "Ni", "occu": 1 }],
        "abc": [0.75, 0.0082238, 0.85167689],
        "properties": { "magmom": -0.0 },
        "label": "Ni",
        "xyz": [2.2359737475, 0.053550360475170006, 10.08592108229158]
      },
      {
        "species": [{ "element": "Ni", "occu": 1 }],
        "abc": [0.75, 0.4917762, 0.35167689],
        "properties": { "magmom": -0.0 },
        "label": "Ni",
        "xyz": [2.2359737475, 3.20226571452483, 4.164707767291581]
      },
      {
        "species": [{ "element": "Ni", "occu": 1 }],
        "abc": [0.25, 0.75103093, 0.4495204],
        "properties": { "magmom": 0.0 },
        "label": "Ni",
        "xyz": [0.7453245825, 4.8904371494324, 5.3234123556882516]
      },
      {
        "species": [{ "element": "Ni", "occu": 1 }],
        "abc": [0.25, 0.16898395, 0.37676343],
        "properties": { "magmom": -0.0 },
        "label": "Ni",
        "xyz": [0.7453245825, 1.1003613216539925, 4.461793276642141]
      },
      {
        "species": [{ "element": "Ni", "occu": 1 }],
        "abc": [0.75, 0.83101605, 0.62323657],
        "properties": { "magmom": -0.0 },
        "label": "Ni",
        "xyz": [2.2359737475, 5.411270828346008, 7.380633353357859]
      },
      {
        "species": [{ "element": "Ni", "occu": 1 }],
        "abc": [0.75, 0.88121864, 0.29928642],
        "properties": { "magmom": -0.0 },
        "label": "Ni",
        "xyz": [2.2359737475, 5.738171627403276, 3.5442774702053645]
      },
      {
        "species": [{ "element": "Ni", "occu": 1 }],
        "abc": [0.75, 0.24896907000000001, 0.5504796],
        "properties": { "magmom": 0.0 },
        "label": "Ni",
        "xyz": [2.2359737475, 1.6211950005676008, 6.519014274311748]
      },
      {
        "species": [{ "element": "Ni", "occu": 1 }],
        "abc": [0.25, 0.33101605, 0.87676343],
        "properties": { "magmom": -0.0 },
        "label": "Ni",
        "xyz": [0.7453245825, 2.1554547533460076, 10.383006591642141]
      },
      {
        "species": [{ "element": "Ni", "occu": 1 }],
        "abc": [0.25, 0.38121864, 0.20071358],
        "properties": { "magmom": -0.0 },
        "label": "Ni",
        "xyz": [0.7453245825, 2.482355552403276, 2.3769358447946356]
      },
      {
        "species": [{ "element": "B", "occu": 1 }],
        "abc": [0.75, 0.31554773, 0.74261412],
        "properties": { "magmom": 0.0 },
        "label": "B",
        "xyz": [2.2359737475, 2.0547307435275197, 8.794353230502017]
      },
      {
        "species": [{ "element": "B", "occu": 1 }],
        "abc": [0.25, 0.06319159, 0.97452147],
        "properties": { "magmom": -0.0 },
        "label": "B",
        "xyz": [0.7453245825, 0.41148038905361856, 11.540699007834746]
      },
      {
        "species": [{ "element": "B", "occu": 1 }],
        "abc": [0.75, 0.52198248, 0.96029056],
        "properties": { "magmom": -0.0 },
        "label": "B",
        "xyz": [2.2359737475, 3.3989578985047326, 11.372170500281614]
      },
      {
        "species": [{ "element": "B", "occu": 1 }],
        "abc": [0.75, 0.93680841, 0.02547853],
        "properties": { "magmom": -0.0 },
        "label": "B",
        "xyz": [2.2359737475, 6.100151760946382, 0.3017276221652539]
      },
      {
        "species": [{ "element": "B", "occu": 1 }],
        "abc": [0.75, 0.56319159, 0.52547853],
        "properties": { "magmom": -0.0 },
        "label": "B",
        "xyz": [2.2359737475, 3.6672964640536185, 6.222940937165254]
      },
      {
        "species": [{ "element": "B", "occu": 1 }],
        "abc": [0.25, 0.47801752000000003, 0.03970944],
        "properties": { "magmom": -0.0 },
        "label": "B",
        "xyz": [0.7453245825, 3.1126742514952683, 0.4702561297183872]
      },
      {
        "species": [{ "element": "B", "occu": 1 }],
        "abc": [0.25, 0.68445227, 0.25738588],
        "properties": { "magmom": 0.0 },
        "label": "B",
        "xyz": [0.7453245825, 4.456901406472481, 3.0480733994979845]
      },
      {
        "species": [{ "element": "B", "occu": 1 }],
        "abc": [0.25, 0.021982480000000002, 0.53970944],
        "properties": { "magmom": -0.0 },
        "label": "B",
        "xyz": [0.7453245825, 0.14314182350473204, 6.391469444718387]
      },
      {
        "species": [{ "element": "B", "occu": 1 }],
        "abc": [0.75, 0.97801752, 0.46029056],
        "properties": { "magmom": -0.0 },
        "label": "B",
        "xyz": [2.2359737475, 6.368490326495269, 5.450957185281613]
      },
      {
        "species": [{ "element": "B", "occu": 1 }],
        "abc": [0.75, 0.18445227, 0.24261412000000002],
        "properties": { "magmom": 0.0 },
        "label": "B",
        "xyz": [2.2359737475, 1.2010853314724805, 2.873139915502016]
      },
      {
        "species": [{ "element": "B", "occu": 1 }],
        "abc": [0.25, 0.81554773, 0.7573858800000001],
        "properties": { "magmom": 0.0 },
        "label": "B",
        "xyz": [0.7453245825, 5.31054681852752, 8.969286714497985]
      },
      {
        "species": [{ "element": "B", "occu": 1 }],
        "abc": [0.25, 0.43680841000000004, 0.47452147],
        "properties": { "magmom": -0.0 },
        "label": "B",
        "xyz": [0.7453245825, 2.844335685946382, 5.619485692834746]
      }
    ]
  },
  "task_ids": null,
  "uncorrected_energy_per_atom": null,
  "energy_per_atom": -10.272332912500001,
  "formation_energy_per_atom": -0.27719987928571505,
  "energy_above_hull": 0.0,
  "is_stable": true,
  "equilibrium_reaction_energy_per_atom": null,
  "decomposes_to": null,
  "xas": null,
  "grain_boundaries": null,
  "band_gap": 0.0,
  "cbm": null,
  "vbm": null,
  "efermi": 9.16743106,
  "is_gap_direct": null,
  "is_metal": null,
  "es_source_calc_id": null,
  "bandstructure": null,
  "dos": null,
  "dos_energy_up": null,
  "dos_energy_down": null,
  "is_magnetic": null,
  "ordering": null,
  "total_magnetization": 0.0,
  "total_magnetization_normalized_vol": null,
  "total_magnetization_normalized_formula_units": null,
  "num_magnetic_sites": null,
  "num_unique_magnetic_sites": null,
  "types_of_magnetic_species": null,
  "bulk_modulus": null,
  "shear_modulus": null,
  "universal_anisotropy": null,
  "homogeneous_poisson": null,
  "e_total": null,
  "e_ionic": null,
  "e_electronic": null,
  "n": null,
  "e_ij_max": null,
  "weighted_surface_energy_EV_PER_ANG2": null,
  "weighted_surface_energy": null,
  "weighted_work_function": null,
  "surface_anisotropy": null,
  "shape_factor": null,
  "has_reconstructed": null,
  "possible_species": null,
  "has_props": null,
  "theoretical": null,
  "database_IDs": null,
  "fields_not_requested": [
    "builder_meta",
    "nsites",
    "elements",
    "nelements",
    "composition",
    "composition_reduced",
    "chemsys",
    "symmetry",
    "property_name",
    "deprecated",
    "deprecation_reasons",
    "last_updated",
    "origins",
    "warnings",
    "task_ids",
    "uncorrected_energy_per_atom",
    "equilibrium_reaction_energy_per_atom",
    "decomposes_to",
    "xas",
    "grain_boundaries",
    "cbm",
    "vbm",
    "is_gap_direct",
    "is_metal",
    "es_source_calc_id",
    "bandstructure",
    "dos",
    "dos_energy_up",
    "dos_energy_down",
    "is_magnetic",
    "ordering",
    "total_magnetization_normalized_vol",
    "total_magnetization_normalized_formula_units",
    "num_magnetic_sites",
    "num_unique_magnetic_sites",
    "types_of_magnetic_species",
    "bulk_modulus",
    "shear_modulus",
    "universal_anisotropy",
    "homogeneous_poisson",
    "e_total",
    "e_ionic",
    "e_electronic",
    "n",
    "e_ij_max",
    "weighted_surface_energy_EV_PER_ANG2",
    "weighted_surface_energy",
    "weighted_work_function",
    "surface_anisotropy",
    "shape_factor",
    "has_reconstructed",
    "possible_species",
    "has_props",
    "theoretical",
    "database_IDs"
  ]
}
