{"builder_meta": null, "nsites": null, "elements": null, "nelements": null, "composition": null, "composition_reduced": null, "formula_pretty": "Ni4Ge", "formula_anonymous": "AB4", "chemsys": null, "volume": 58.354672019994176, "density": 8.747753602817639, "density_atomic": 11.670934403998835, "symmetry": null, "property_name": null, "material_id": "mp-1220076", "deprecated": null, "deprecation_reasons": null, "last_updated": null, "origins": null, "warnings": null, "structure": {"@module": "pymatgen.core.structure", "@class": "Structure", "charge": 0, "lattice": {"matrix": [[9.720855, -1.318433, 0.0], [9.720855, 1.318433, 0.0], [9.542036, 0.0, 2.276581]], "pbc": [true, true, true], "a": 9.809856650660803, "b": 9.809856650660803, "c": 9.809855864122417, "alpha": 15.447715399719877, "beta": 15.447715399719877, "gamma": 15.447714153176845, "volume": 58.354672019994176}, "properties": {}, "sites": [{"species": [{"element": "Ni", "occu": 1}], "abc": [0.600438, 0.600438, 0.600438], "properties": {"magmom": 0.13}, "label": "Ni", "xyz": [17.402942480748003, 0.0, 1.3669457424780003]}, {"species": [{"element": "Ni", "occu": 1}], "abc": [0.199627, 0.199627, 0.199627], "properties": {"magmom": 0.667}, "label": "Ni", "xyz": [5.785938262742, 0.0, 0.45446703528700005]}, {"species": [{"element": "Ni", "occu": 1}], "abc": [0.800373, 0.800373, 0.800373], "properties": {"magmom": 0.667}, "label": "Ni", "xyz": [23.197807737258, 0.0, 1.8221139647130002]}, {"species": [{"element": "Ni", "occu": 1}], "abc": [0.399562, 0.399562, 0.399562], "properties": {"magmom": 0.13}, "label": "Ni", "xyz": [11.580803519252, 0.0, 0.909635257522]}, {"species": [{"element": "Ge", "occu": 1}], "abc": [0.0, 0.0, 0.0], "properties": {"magmom": -0.01}, "label": "Ge", "xyz": [0.0, 0.0, 0.0]}]}, "task_ids": null, "uncorrected_energy_per_atom": null, "energy_per_atom": -12.244021372000002, "formation_energy_per_atom": 0.115747871999997, "energy_above_hull": 0.313572001999999, "is_stable": false, "equilibrium_reaction_energy_per_atom": null, "decomposes_to": null, "xas": null, "grain_boundaries": null, "band_gap": 0.0, "cbm": null, "vbm": null, "efermi": 8.15947333, "is_gap_direct": null, "is_metal": null, "es_source_calc_id": null, "bandstructure": null, "dos": null, "dos_energy_up": null, "dos_energy_down": null, "is_magnetic": null, "ordering": null, "total_magnetization": 1.4829564, "total_magnetization_normalized_vol": null, "total_magnetization_normalized_formula_units": null, "num_magnetic_sites": null, "num_unique_magnetic_sites": null, "types_of_magnetic_species": null, "bulk_modulus": null, "shear_modulus": null, "universal_anisotropy": null, "homogeneous_poisson": null, "e_total": null, "e_ionic": null, "e_electronic": null, "n": null, "e_ij_max": null, "weighted_surface_energy_EV_PER_ANG2": null, "weighted_surface_energy": null, "weighted_work_function": null, "surface_anisotropy": null, "shape_factor": null, "has_reconstructed": null, "possible_species": null, "has_props": null, "theoretical": null, "database_IDs": null, "fields_not_requested": ["builder_meta", "nsites", "elements", "nelements", "composition", "composition_reduced", "chemsys", "symmetry", "property_name", "deprecated", "deprecation_reasons", "last_updated", "origins", "warnings", "task_ids", "uncorrected_energy_per_atom", "equilibrium_reaction_energy_per_atom", "decomposes_to", "xas", "grain_boundaries", "cbm", "vbm", "is_gap_direct", "is_metal", "es_source_calc_id", "bandstructure", "dos", "dos_energy_up", "dos_energy_down", "is_magnetic", "ordering", "total_magnetization_normalized_vol", "total_magnetization_normalized_formula_units", "num_magnetic_sites", "num_unique_magnetic_sites", "types_of_magnetic_species", "bulk_modulus", "shear_modulus", "universal_anisotropy", "homogeneous_poisson", "e_total", "e_ionic", "e_electronic", "n", "e_ij_max", "weighted_surface_energy_EV_PER_ANG2", "weighted_surface_energy", "weighted_work_function", "surface_anisotropy", "shape_factor", "has_reconstructed", "possible_species", "has_props", "theoretical", "database_IDs"]}