{
  "builder_meta": null,
  "nsites": null,
  "elements": null,
  "nelements": null,
  "composition": null,
  "composition_reduced": null,
  "formula_pretty": "Ni4Mo",
  "formula_anonymous": "AB4",
  "chemsys": null,
  "volume": 56.66777668176201,
  "density": 9.69091933392666,
  "density_atomic": 11.3335553363524,
  "symmetry": null,
  "property_name": null,
  "material_id": "mp-11507",
  "deprecated": null,
  "deprecation_reasons": null,
  "last_updated": null,
  "origins": null,
  "warnings": null,
  "structure": {
    "@module": "pymatgen.core.structure",
    "@class": "Structure",
    "charge": 0,
    "lattice": {
      "matrix": [
        [3.22323555, 0.0, 1.42010096],
        [1.61159063, 4.01112285, 0.71011259],
        [-0.00556693, 4.7680000000000004e-5, 4.380614879999999]
      ],
      "pbc": [true, true, true],
      "a": 3.522205863855309,
      "b": 4.3807066515543385,
      "c": 4.380618417513721,
      "alpha": 80.69776393585781,
      "beta": 66.29536530646904,
      "gamma": 66.29588857798052,
      "volume": 56.66777668176198
    },
    "properties": {},
    "sites": [
      {
        "species": [{ "element": "Ni", "occu": 1 }],
        "abc": [0.801273799999999, 0.79803768, 0.59941372],
        "properties": { "magmom": 0.0 },
        "label": "Ni",
        "xyz": [3.8654673506982458, 3.201055753455157, 4.330386957573391]
      },
      {
        "species": [{ "element": "Ni", "occu": 1 }],
        "abc": [0.1987262, 0.20196232, 0.40058628],
        "properties": { "magmom": 0.0 },
        "label": "Ni",
        "xyz": [0.9637918993017512, 0.8101147765448423, 2.180441472426607]
      },
      {
        "species": [{ "element": "Ni", "occu": 1 }],
        "abc": [0.5993204400000001, 0.59943289, 0.20192823000000001],
        "properties": { "magmom": 0.0 },
        "label": "Ni",
        "xyz": [2.8966672565660287, 2.4044085900585426, 2.1613301832707696]
      },
      {
        "species": [{ "element": "Ni", "occu": 1 }],
        "abc": [0.40067956, 0.40056711, 0.7980717700000001],
        "properties": { "magmom": 0.0 },
        "label": "Ni",
        "xyz": [1.9325919934339715, 1.606761939941457, 4.34949824672923]
      },
      {
        "species": [{ "element": "Mo", "occu": 1 }],
        "abc": [-0.0, -0.0, 0.0],
        "properties": { "magmom": 0.0 },
        "label": "Mo",
        "xyz": [0.0, 0.0, 0.0]
      }
    ]
  },
  "task_ids": null,
  "uncorrected_energy_per_atom": null,
  "energy_per_atom": -14.834522178,
  "formation_energy_per_atom": -0.034752561999999,
  "energy_above_hull": 0.0072063710000000005,
  "is_stable": false,
  "equilibrium_reaction_energy_per_atom": null,
  "decomposes_to": null,
  "xas": null,
  "grain_boundaries": null,
  "band_gap": 0.0,
  "cbm": null,
  "vbm": null,
  "efermi": 8.22663782,
  "is_gap_direct": null,
  "is_metal": null,
  "es_source_calc_id": null,
  "bandstructure": null,
  "dos": null,
  "dos_energy_up": null,
  "dos_energy_down": null,
  "is_magnetic": null,
  "ordering": null,
  "total_magnetization": 4e-7,
  "total_magnetization_normalized_vol": null,
  "total_magnetization_normalized_formula_units": null,
  "num_magnetic_sites": null,
  "num_unique_magnetic_sites": null,
  "types_of_magnetic_species": null,
  "bulk_modulus": null,
  "shear_modulus": null,
  "universal_anisotropy": null,
  "homogeneous_poisson": null,
  "e_total": null,
  "e_ionic": null,
  "e_electronic": null,
  "n": null,
  "e_ij_max": null,
  "weighted_surface_energy_EV_PER_ANG2": null,
  "weighted_surface_energy": null,
  "weighted_work_function": null,
  "surface_anisotropy": null,
  "shape_factor": null,
  "has_reconstructed": null,
  "possible_species": null,
  "has_props": null,
  "theoretical": null,
  "database_IDs": null,
  "fields_not_requested": [
    "builder_meta",
    "nsites",
    "elements",
    "nelements",
    "composition",
    "composition_reduced",
    "chemsys",
    "symmetry",
    "property_name",
    "deprecated",
    "deprecation_reasons",
    "last_updated",
    "origins",
    "warnings",
    "task_ids",
    "uncorrected_energy_per_atom",
    "equilibrium_reaction_energy_per_atom",
    "decomposes_to",
    "xas",
    "grain_boundaries",
    "cbm",
    "vbm",
    "is_gap_direct",
    "is_metal",
    "es_source_calc_id",
    "bandstructure",
    "dos",
    "dos_energy_up",
    "dos_energy_down",
    "is_magnetic",
    "ordering",
    "total_magnetization_normalized_vol",
    "total_magnetization_normalized_formula_units",
    "num_magnetic_sites",
    "num_unique_magnetic_sites",
    "types_of_magnetic_species",
    "bulk_modulus",
    "shear_modulus",
    "universal_anisotropy",
    "homogeneous_poisson",
    "e_total",
    "e_ionic",
    "e_electronic",
    "n",
    "e_ij_max",
    "weighted_surface_energy_EV_PER_ANG2",
    "weighted_surface_energy",
    "weighted_work_function",
    "surface_anisotropy",
    "shape_factor",
    "has_reconstructed",
    "possible_species",
    "has_props",
    "theoretical",
    "database_IDs"
  ]
}
