{"builder_meta": null, "nsites": null, "elements": null, "nelements": null, "composition": null, "composition_reduced": null, "formula_pretty": "Ni4Ru", "formula_anonymous": "AB4", "chemsys": null, "volume": 57.41985618557617, "density": 9.71234438946005, "density_atomic": 11.483971237115234, "symmetry": null, "property_name": null, "material_id": "mp-1220081", "deprecated": null, "deprecation_reasons": null, "last_updated": null, "origins": null, "warnings": null, "structure": {"@module": "pymatgen.core.structure", "@class": "Structure", "charge": 0, "lattice": {"matrix": [[10.156796, -1.279183999999999, 0.0], [10.156796, 1.279183999999999, 0.0], [9.995691, 0.0, 2.209746]], "pbc": [true, true, true], "a": 10.237031634779292, "b": 10.237031634779292, "c": 10.237031598661646, "alpha": 14.356488275796519, "beta": 14.356488275796519, "gamma": 14.356491460805282, "volume": 57.41985618557613}, "properties": {}, "sites": [{"species": [{"element": "Ni", "occu": 1}], "abc": [0.598397, 0.598397, 0.598397], "properties": {"magmom": 0.246}, "label": "Ni", "xyz": [18.136984019350997, 0.0, 1.322305377162]}, {"species": [{"element": "Ni", "occu": 1}], "abc": [0.199487, 0.199487, 0.199487], "properties": {"magmom": 0.612}, "label": "Ni", "xyz": [6.046307937821, 0.0, 0.440815600302]}, {"species": [{"element": "Ni", "occu": 1}], "abc": [0.800512999999999, 0.800512999999999, 0.800512999999999], "properties": {"magmom": 0.612}, "label": "Ni", "xyz": [24.26297506217897, 0.0, 1.768930399697998]}, {"species": [{"element": "Ni", "occu": 1}], "abc": [0.401603, 0.401603, 0.401603], "properties": {"magmom": 0.246}, "label": "Ni", "xyz": [12.172298980649, 0.0, 0.887440622838]}, {"species": [{"element": "Ru", "occu": 1}], "abc": [0.0, 0.0, 0.0], "properties": {"magmom": 0.031}, "label": "Ru", "xyz": [0.0, 0.0, 0.0]}]}, "task_ids": null, "uncorrected_energy_per_atom": null, "energy_per_atom": -14.565711485, "formation_energy_per_atom": 0.104569302000001, "energy_above_hull": 0.104569301999999, "is_stable": false, "equilibrium_reaction_energy_per_atom": null, "decomposes_to": null, "xas": null, "grain_boundaries": null, "band_gap": 0.0, "cbm": null, "vbm": null, "efermi": 7.87752174, "is_gap_direct": null, "is_metal": null, "es_source_calc_id": null, "bandstructure": null, "dos": null, "dos_energy_up": null, "dos_energy_down": null, "is_magnetic": null, "ordering": null, "total_magnetization": 1.664163799999999, "total_magnetization_normalized_vol": null, "total_magnetization_normalized_formula_units": null, "num_magnetic_sites": null, "num_unique_magnetic_sites": null, "types_of_magnetic_species": null, "bulk_modulus": null, "shear_modulus": null, "universal_anisotropy": null, "homogeneous_poisson": null, "e_total": null, "e_ionic": null, "e_electronic": null, "n": null, "e_ij_max": null, "weighted_surface_energy_EV_PER_ANG2": null, "weighted_surface_energy": null, "weighted_work_function": null, "surface_anisotropy": null, "shape_factor": null, "has_reconstructed": null, "possible_species": null, "has_props": null, "theoretical": null, "database_IDs": null, "fields_not_requested": ["builder_meta", "nsites", "elements", "nelements", "composition", "composition_reduced", "chemsys", "symmetry", "property_name", "deprecated", "deprecation_reasons", "last_updated", "origins", "warnings", "task_ids", "uncorrected_energy_per_atom", "equilibrium_reaction_energy_per_atom", "decomposes_to", "xas", "grain_boundaries", "cbm", "vbm", "is_gap_direct", "is_metal", "es_source_calc_id", "bandstructure", "dos", "dos_energy_up", "dos_energy_down", "is_magnetic", "ordering", "total_magnetization_normalized_vol", "total_magnetization_normalized_formula_units", "num_magnetic_sites", "num_unique_magnetic_sites", "types_of_magnetic_species", "bulk_modulus", "shear_modulus", "universal_anisotropy", "homogeneous_poisson", "e_total", "e_ionic", "e_electronic", "n", "e_ij_max", "weighted_surface_energy_EV_PER_ANG2", "weighted_surface_energy", "weighted_work_function", "surface_anisotropy", "shape_factor", "has_reconstructed", "possible_species", "has_props", "theoretical", "database_IDs"]}