{"builder_meta": null, "nsites": null, "elements": null, "nelements": null, "composition": null, "composition_reduced": null, "formula_pretty": "Ni4W", "formula_anonymous": "AB4", "chemsys": null, "volume": 56.83838294137466, "density": 12.22983837043788, "density_atomic": 11.367676588274932, "symmetry": null, "property_name": null, "material_id": "mp-30811", "deprecated": null, "deprecation_reasons": null, "last_updated": null, "origins": null, "warnings": null, "structure": {"@module": "pymatgen.core.structure", "@class": "Structure", "charge": 0, "lattice": {"matrix": [[3.22122771, 0.0, 1.41236528], [1.610611169999999, 4.01993431, 0.7061894200000001], [-0.003602799999999, -7.219999999999999e-06, 4.38778164]], "pbc": [true, true, true], "a": 3.517255129191131, "b": 4.387783460309302, "c": 4.38778311913215, "alpha": 80.75586712821148, "beta": 66.37172892820112, "gamma": 66.37174002164019, "volume": 56.83838294137466}, "properties": {}, "sites": [{"species": [{"element": "Ni", "occu": 1}], "abc": [0.19892845, 0.20157618, 0.40056592], "properties": {"magmom": 0.0}, "label": "Ni", "xyz": [0.9640115236647042, 0.8103201099747934, 2.18090639100994]}, {"species": [{"element": "Ni", "occu": 1}], "abc": [0.59949437, 0.59943408, 0.20157618], "properties": {"magmom": 0.0}, "label": "Ni", "xyz": [2.8958368628983617, 2.4096841693952653, 2.1544913006922424]}, {"species": [{"element": "Ni", "occu": 1}], "abc": [0.40050563, 0.40056592, 0.79842382], "properties": {"magmom": 0.0}, "label": "Ni", "xyz": [1.9323992171016382, 1.6102429206047348, 4.351845039307758]}, {"species": [{"element": "Ni", "occu": 1}], "abc": [0.80107155, 0.79842382, 0.59943408], "properties": {"magmom": 0.0}, "label": "Ni", "xyz": [3.8642245563352957, 3.2096069800252063, 4.32542994899006]}, {"species": [{"element": "W", "occu": 1}], "abc": [-0.0, -0.0, 0.0], "properties": {"magmom": -0.0}, "label": "W", "xyz": [0.0, 0.0, 0.0]}]}, "task_ids": null, "uncorrected_energy_per_atom": null, "energy_per_atom": -19.911611616000002, "formation_energy_per_atom": -0.052679011999998006, "energy_above_hull": 0.0, "is_stable": true, "equilibrium_reaction_energy_per_atom": null, "decomposes_to": null, "xas": null, "grain_boundaries": null, "band_gap": 0.0, "cbm": null, "vbm": null, "efermi": 7.8002446899999995, "is_gap_direct": null, "is_metal": null, "es_source_calc_id": null, "bandstructure": null, "dos": null, "dos_energy_up": null, "dos_energy_down": null, "is_magnetic": null, "ordering": null, "total_magnetization": 7e-07, "total_magnetization_normalized_vol": null, "total_magnetization_normalized_formula_units": null, "num_magnetic_sites": null, "num_unique_magnetic_sites": null, "types_of_magnetic_species": null, "bulk_modulus": null, "shear_modulus": null, "universal_anisotropy": null, "homogeneous_poisson": null, "e_total": null, "e_ionic": null, "e_electronic": null, "n": null, "e_ij_max": null, "weighted_surface_energy_EV_PER_ANG2": null, "weighted_surface_energy": null, "weighted_work_function": null, "surface_anisotropy": null, "shape_factor": null, "has_reconstructed": null, "possible_species": null, "has_props": null, "theoretical": null, "database_IDs": null, "fields_not_requested": ["builder_meta", "nsites", "elements", "nelements", "composition", "composition_reduced", "chemsys", "symmetry", "property_name", "deprecated", "deprecation_reasons", "last_updated", "origins", "warnings", "task_ids", "uncorrected_energy_per_atom", "equilibrium_reaction_energy_per_atom", "decomposes_to", "xas", "grain_boundaries", "cbm", "vbm", "is_gap_direct", "is_metal", "es_source_calc_id", "bandstructure", "dos", "dos_energy_up", "dos_energy_down", "is_magnetic", "ordering", "total_magnetization_normalized_vol", "total_magnetization_normalized_formula_units", "num_magnetic_sites", "num_unique_magnetic_sites", "types_of_magnetic_species", "bulk_modulus", "shear_modulus", "universal_anisotropy", "homogeneous_poisson", "e_total", "e_ionic", "e_electronic", "n", "e_ij_max", "weighted_surface_energy_EV_PER_ANG2", "weighted_surface_energy", "weighted_work_function", "surface_anisotropy", "shape_factor", "has_reconstructed", "possible_species", "has_props", "theoretical", "database_IDs"]}