{"builder_meta": null, "nsites": null, "elements": null, "nelements": null, "composition": null, "composition_reduced": null, "formula_pretty": "Ni5As2", "formula_anonymous": "A2B5", "chemsys": null, "volume": 490.247499693355, "density": 9.009333932546769, "density_atomic": 11.672559516508452, "symmetry": null, "property_name": null, "material_id": "mp-941", "deprecated": null, "deprecation_reasons": null, "last_updated": null, "origins": null, "warnings": null, "structure": {"@module": "pymatgen.core.structure", "@class": "Structure", "charge": 0, "lattice": {"matrix": [[6.74223981, 0.0, 0.0], [-3.37111991, 5.83895111, 0.0], [0.0, 0.0, 12.45306781]], "pbc": [true, true, true], "a": 6.74223981, "b": 6.742239947715347, "c": 12.45306781, "alpha": 90.0, "beta": 90.0, "gamma": 119.99999937338487, "volume": 490.247499693355}, "properties": {}, "sites": [{"species": [{"element": "Ni", "occu": 1}], "abc": [0.0, 0.0, 0.94919604], "properties": {"magmom": -0.0}, "label": "Ni", "xyz": [0.0, 0.0, 11.820402651103473]}, {"species": [{"element": "Ni", "occu": 1}], "abc": [0.0, 0.0, 0.44919604], "properties": {"magmom": -0.0}, "label": "Ni", "xyz": [0.0, 0.0, 5.593868746103473]}, {"species": [{"element": "Ni", "occu": 1}], "abc": [0.333333, 0.666667, 0.09491519], "properties": {"magmom": -0.0}, "label": "Ni", "xyz": [-3.374453239946007e-06, 3.89263601965037, 1.181985297269034]}, {"species": [{"element": "Ni", "occu": 1}], "abc": [0.666667, 0.333333, 0.59491519], "properties": {"magmom": -0.0}, "label": "Ni", "xyz": [3.3711232744532396, 1.94631509034963, 7.4085192022690345]}, {"species": [{"element": "Ni", "occu": 1}], "abc": [0.333333, 0.666667, 0.59491519], "properties": {"magmom": -0.0}, "label": "Ni", "xyz": [-3.374453239946007e-06, 3.89263601965037, 7.4085192022690345]}, {"species": [{"element": "Ni", "occu": 1}], "abc": [0.666667, 0.333333, 0.09491519], "properties": {"magmom": -0.0}, "label": "Ni", "xyz": [3.3711232744532396, 1.94631509034963, 1.181985297269034]}, {"species": [{"element": "Ni", "occu": 1}], "abc": [0.24976712, 0.0, 0.12147142], "properties": {"magmom": 0.0}, "label": "Ni", "xyz": [1.6839898196930472, 0.0, 1.5126918302369903]}, {"species": [{"element": "Ni", "occu": 1}], "abc": [0.24976712, 0.24976712, 0.62147142], "properties": {"magmom": 0.0}, "label": "Ni", "xyz": [0.841994908597688, 1.4583780025655033, 7.739225735236991]}, {"species": [{"element": "Ni", "occu": 1}], "abc": [-0.0, 0.75023288, 0.62147142], "properties": {"magmom": 0.0}, "label": "Ni", "xyz": [-2.5291249989046407, 4.380573107434497, 7.739225735236991]}, {"species": [{"element": "Ni", "occu": 1}], "abc": [0.0, 0.24976712, 0.12147142], "properties": {"magmom": 0.0}, "label": "Ni", "xyz": [-0.8419949110953592, 1.4583780025655033, 1.5126918302369903]}, {"species": [{"element": "Ni", "occu": 1}], "abc": [0.75023288, 0.75023288, 0.12147142], "properties": {"magmom": 0.0}, "label": "Ni", "xyz": [2.529124991402312, 4.380573107434497, 1.5126918302369903]}, {"species": [{"element": "Ni", "occu": 1}], "abc": [0.75023288, 0.0, 0.62147142], "properties": {"magmom": 0.0}, "label": "Ni", "xyz": [5.058249990306953, 0.0, 7.739225735236991]}, {"species": [{"element": "Ni", "occu": 1}], "abc": [0.62399567, 0.0, 0.2194564], "properties": {"magmom": 0.0}, "label": "Ni", "xyz": [4.207128447541622, 0.0, 2.732905430538484]}, {"species": [{"element": "Ni", "occu": 1}], "abc": [0.62399567, 0.62399567, 0.7194554], "properties": {"magmom": 0.0}, "label": "Ni", "xyz": [2.1035642206508327, 3.6434802099816936, 8.959426882470673]}, {"species": [{"element": "Ni", "occu": 1}], "abc": [0.0, 0.37600433, 0.7194554], "properties": {"magmom": 0.0}, "label": "Ni", "xyz": [-1.2675556831092103, 2.1954709000183064, 8.959426882470673]}, {"species": [{"element": "Ni", "occu": 1}], "abc": [-0.0, 0.62399567, 0.2194564], "properties": {"magmom": 0.0}, "label": "Ni", "xyz": [-2.1035642268907897, 3.6434802099816936, 2.732905430538484]}, {"species": [{"element": "Ni", "occu": 1}], "abc": [0.37600433, 0.37600433, 0.2194564], "properties": {"magmom": 0.0}, "label": "Ni", "xyz": [1.267555679349167, 2.1954709000183064, 2.732905430538484]}, {"species": [{"element": "Ni", "occu": 1}], "abc": [0.37600433, 0.0, 0.7194554], "properties": {"magmom": 0.0}, "label": "Ni", "xyz": [2.535111362458377, 0.0, 8.959426882470673]}, {"species": [{"element": "Ni", "occu": 1}], "abc": [0.31105684, 0.0, 0.32905125], "properties": {"magmom": -0.0}, "label": "Ni", "xyz": [2.0972198098208006, 0.0, 4.097697529215263]}, {"species": [{"element": "Ni", "occu": 1}], "abc": [0.31105684, 0.31105684, 0.82905125], "properties": {"magmom": -0.0}, "label": "Ni", "xyz": [1.0486099033551162, 1.8162456811910923, 10.324231434215262]}, {"species": [{"element": "Ni", "occu": 1}], "abc": [-0.0, 0.68894316, 0.82905125], "properties": {"magmom": -0.0}, "label": "Ni", "xyz": [-2.322510003534316, 4.022705428808908, 10.324231434215262]}, {"species": [{"element": "Ni", "occu": 1}], "abc": [0.0, 0.31105684, 0.32905125], "properties": {"magmom": -0.0}, "label": "Ni", "xyz": [-1.0486099064656844, 1.8162456811910923, 4.097697529215263]}, {"species": [{"element": "Ni", "occu": 1}], "abc": [0.68894316, 0.68894316, 0.32905125], "properties": {"magmom": -0.0}, "label": "Ni", "xyz": [2.3225099966448837, 4.022705428808908, 4.097697529215263]}, {"species": [{"element": "Ni", "occu": 1}], "abc": [0.68894316, 0.0, 0.82905125], "properties": {"magmom": -0.0}, "label": "Ni", "xyz": [4.6450200001791995, 0.0, 10.324231434215262]}, {"species": [{"element": "Ni", "occu": 1}], "abc": [0.62567953, 0.0, 0.43261457000000003], "properties": {"magmom": 0.0}, "label": "Ni", "xyz": [4.218481435468089, 0.0, 5.387378575803992]}, {"species": [{"element": "Ni", "occu": 1}], "abc": [0.62567953, 0.62567953, 0.93261457], "properties": {"magmom": 0.0}, "label": "Ni", "xyz": [2.1092407146056464, 3.653312186197778, 11.613912480803993]}, {"species": [{"element": "Ni", "occu": 1}], "abc": [0.0, 0.37432047, 0.93261457], "properties": {"magmom": 0.0}, "label": "Ni", "xyz": [-1.2618791891375578, 2.185638923802222, 11.613912480803993]}, {"species": [{"element": "Ni", "occu": 1}], "abc": [-0.0, 0.62567953, 0.43261457000000003], "properties": {"magmom": 0.0}, "label": "Ni", "xyz": [-2.1092407208624424, 3.653312186197778, 5.387378575803992]}, {"species": [{"element": "Ni", "occu": 1}], "abc": [0.37432047, 0.37432047, 0.43261457000000003], "properties": {"magmom": 0.0}, "label": "Ni", "xyz": [1.261879185394353, 2.185638923802222, 5.387378575803992]}, {"species": [{"element": "Ni", "occu": 1}], "abc": [0.37432047, 0.0, 0.93261457], "properties": {"magmom": 0.0}, "label": "Ni", "xyz": [2.5237583745319108, 0.0, 11.613912480803993]}, {"species": [{"element": "As", "occu": 1}], "abc": [0.0, 0.0, 0.25500836], "properties": {"magmom": -0.0}, "label": "As", "xyz": [0.0, 0.0, 3.1756363991968914]}, {"species": [{"element": "As", "occu": 1}], "abc": [0.0, 0.0, 0.75500836], "properties": {"magmom": -0.0}, "label": "As", "xyz": [0.0, 0.0, 9.402170304196892]}, {"species": [{"element": "As", "occu": 1}], "abc": [0.333333, 0.666667, 0.29459813], "properties": {"magmom": -0.0}, "label": "As", "xyz": [-3.374453239946007e-06, 3.89263601965037, 3.6686504895891954]}, {"species": [{"element": "As", "occu": 1}], "abc": [0.666667, 0.333333, 0.79459813], "properties": {"magmom": -0.0}, "label": "As", "xyz": [3.3711232744532396, 1.94631509034963, 9.895184394589196]}, {"species": [{"element": "As", "occu": 1}], "abc": [0.333333, 0.666667, 0.79459813], "properties": {"magmom": -0.0}, "label": "As", "xyz": [-3.374453239946007e-06, 3.89263601965037, 9.895184394589196]}, {"species": [{"element": "As", "occu": 1}], "abc": [0.666667, 0.333333, 0.29459813], "properties": {"magmom": -0.0}, "label": "As", "xyz": [3.3711232744532396, 1.94631509034963, 3.6686504895891954]}, {"species": [{"element": "As", "occu": 1}], "abc": [0.66921887, 0.0, 0.022997], "properties": {"magmom": 0.0}, "label": "As", "xyz": [4.5120341069172145, 0.0, 0.28638320042657]}, {"species": [{"element": "As", "occu": 1}], "abc": [0.66921887, 0.66921887, 0.522996999999999], "properties": {"magmom": 0.0}, "label": "As", "xyz": [2.2560170501125127, 3.9075362638194457, 6.512917105426558]}, {"species": [{"element": "As", "occu": 1}], "abc": [0.0, 0.33078113000000003, 0.522996999999999], "properties": {"magmom": 0.0}, "label": "As", "xyz": [-1.1151028531952984, 1.9314148461805545, 6.512917105426558]}, {"species": [{"element": "As", "occu": 1}], "abc": [-0.0, 0.66921887, 0.022997], "properties": {"magmom": 0.0}, "label": "As", "xyz": [-2.2560170568047018, 3.9075362638194457, 0.28638320042657]}, {"species": [{"element": "As", "occu": 1}], "abc": [0.33078113000000003, 0.33078113000000003, 0.022997], "properties": {"magmom": 0.0}, "label": "As", "xyz": [1.115102849887487, 1.9314148461805545, 0.28638320042657]}, {"species": [{"element": "As", "occu": 1}], "abc": [0.33078113000000003, 0.0, 0.522996999999999], "properties": {"magmom": 0.0}, "label": "As", "xyz": [2.2302057030827855, 0.0, 6.512917105426558]}]}, "task_ids": null, "uncorrected_energy_per_atom": null, "energy_per_atom": -12.97277163142857, "formation_energy_per_atom": -0.21225052071428402, "energy_above_hull": 0.0, "is_stable": true, "equilibrium_reaction_energy_per_atom": null, "decomposes_to": null, "xas": null, "grain_boundaries": null, "band_gap": 0.0, "cbm": null, "vbm": null, "efermi": 8.59475039, "is_gap_direct": null, "is_metal": null, "es_source_calc_id": null, "bandstructure": null, "dos": null, "dos_energy_up": null, "dos_energy_down": null, "is_magnetic": null, "ordering": null, "total_magnetization": 2e-07, "total_magnetization_normalized_vol": null, "total_magnetization_normalized_formula_units": null, "num_magnetic_sites": null, "num_unique_magnetic_sites": null, "types_of_magnetic_species": null, "bulk_modulus": null, "shear_modulus": null, "universal_anisotropy": null, "homogeneous_poisson": null, "e_total": null, "e_ionic": null, "e_electronic": null, "n": null, "e_ij_max": null, "weighted_surface_energy_EV_PER_ANG2": null, "weighted_surface_energy": null, "weighted_work_function": null, "surface_anisotropy": null, "shape_factor": null, "has_reconstructed": null, "possible_species": null, "has_props": null, "theoretical": null, "database_IDs": null, "fields_not_requested": ["builder_meta", "nsites", "elements", "nelements", "composition", "composition_reduced", "chemsys", "symmetry", "property_name", "deprecated", "deprecation_reasons", "last_updated", "origins", "warnings", "task_ids", "uncorrected_energy_per_atom", "equilibrium_reaction_energy_per_atom", "decomposes_to", "xas", "grain_boundaries", "cbm", "vbm", "is_gap_direct", "is_metal", "es_source_calc_id", "bandstructure", "dos", "dos_energy_up", "dos_energy_down", "is_magnetic", "ordering", "total_magnetization_normalized_vol", "total_magnetization_normalized_formula_units", "num_magnetic_sites", "num_unique_magnetic_sites", "types_of_magnetic_species", "bulk_modulus", "shear_modulus", "universal_anisotropy", "homogeneous_poisson", "e_total", "e_ionic", "e_electronic", "n", "e_ij_max", "weighted_surface_energy_EV_PER_ANG2", "weighted_surface_energy", "weighted_work_function", "surface_anisotropy", "shape_factor", "has_reconstructed", "possible_species", "has_props", "theoretical", "database_IDs"]}