{"builder_meta": null, "nsites": null, "elements": null, "nelements": null, "composition": null, "composition_reduced": null, "formula_pretty": "Ni5Cl6", "formula_anonymous": "A5B6", "chemsys": null, "volume": 187.10169966948507, "density": 4.4924229384967305, "density_atomic": 17.009245424498644, "symmetry": null, "property_name": null, "material_id": "mp-1094110", "deprecated": null, "deprecation_reasons": null, "last_updated": null, "origins": null, "warnings": null, "structure": {"@module": "pymatgen.core.structure", "@class": "Structure", "charge": 0, "lattice": {"matrix": [[5.166685, 3.120982, 0.0], [-5.166685, 3.120982, 0.0], [0.0, 2.233242, 5.801556]], "pbc": [true, true, true], "a": 6.036154614781584, "b": 6.036154614781584, "c": 6.216544204918034, "alpha": 79.29541599487668, "beta": 79.29541599487668, "gamma": 117.73110337744941, "volume": 187.10169966948507}, "properties": {}, "sites": [{"species": [{"element": "Ni", "occu": 1}], "abc": [0.0, 0.0, 0.0], "properties": {"magmom": 1.082}, "label": "Ni", "xyz": [0.0, 0.0, 0.0]}, {"species": [{"element": "Ni", "occu": 1}], "abc": [0.666918, 0.333082, 0.0], "properties": {"magmom": 1.005}, "label": "Ni", "xyz": [1.7248254536600003, 3.1209819999999997, 0.0]}, {"species": [{"element": "Ni", "occu": 1}], "abc": [0.82835, 0.17165000000000002, 0.5], "properties": {"magmom": 1.02}, "label": "Ni", "xyz": [3.3929620395000004, 4.237603, 2.900778]}, {"species": [{"element": "Ni", "occu": 1}], "abc": [0.17165000000000002, 0.82835, 0.5], "properties": {"magmom": 1.02}, "label": "Ni", "xyz": [-3.3929620395000004, 4.237603, 2.900778]}, {"species": [{"element": "Ni", "occu": 1}], "abc": [0.333082, 0.666918, 0.0], "properties": {"magmom": 1.005}, "label": "Ni", "xyz": [-1.7248254536600003, 3.1209819999999997, 0.0]}, {"species": [{"element": "Cl", "occu": 1}], "abc": [0.384949, 0.036923, 0.742763], "properties": {"magmom": 0.115}, "label": "Cl", "xyz": [1.79814071381, 2.97542444595, 4.3091811392279995]}, {"species": [{"element": "Cl", "occu": 1}], "abc": [0.740445, 0.740445, 0.783975], "properties": {"magmom": 0.117}, "label": "Cl", "xyz": [0.0, 6.372636930930001, 4.5482748651]}, {"species": [{"element": "Cl", "occu": 1}], "abc": [0.036923, 0.384949, 0.742763], "properties": {"magmom": 0.115}, "label": "Cl", "xyz": [-1.79814071381, 2.97542444595, 4.3091811392279995]}, {"species": [{"element": "Cl", "occu": 1}], "abc": [0.615051, 0.963077, 0.257237], "properties": {"magmom": 0.115}, "label": "Cl", "xyz": [-1.7981407138099996, 5.499781554049999, 1.492374860772]}, {"species": [{"element": "Cl", "occu": 1}], "abc": [0.259555, 0.259555, 0.216025], "properties": {"magmom": 0.117}, "label": "Cl", "xyz": [0.0, 2.10256906907, 1.2532811349]}, {"species": [{"element": "Cl", "occu": 1}], "abc": [0.963077, 0.615051, 0.257237], "properties": {"magmom": 0.115}, "label": "Cl", "xyz": [1.7981407138099996, 5.499781554049999, 1.492374860772]}]}, "task_ids": null, "uncorrected_energy_per_atom": null, "energy_per_atom": -9.275053131818181, "formation_energy_per_atom": -0.47294229681818106, "energy_above_hull": 0.331738955454545, "is_stable": false, "equilibrium_reaction_energy_per_atom": null, "decomposes_to": null, "xas": null, "grain_boundaries": null, "band_gap": 0.0, "cbm": null, "vbm": null, "efermi": 5.51529431, "is_gap_direct": null, "is_metal": null, "es_source_calc_id": null, "bandstructure": null, "dos": null, "dos_energy_up": null, "dos_energy_down": null, "is_magnetic": null, "ordering": null, "total_magnetization": 5.9998977, "total_magnetization_normalized_vol": null, "total_magnetization_normalized_formula_units": null, "num_magnetic_sites": null, "num_unique_magnetic_sites": null, "types_of_magnetic_species": null, "bulk_modulus": null, "shear_modulus": null, "universal_anisotropy": null, "homogeneous_poisson": null, "e_total": null, "e_ionic": null, "e_electronic": null, "n": null, "e_ij_max": null, "weighted_surface_energy_EV_PER_ANG2": null, "weighted_surface_energy": null, "weighted_work_function": null, "surface_anisotropy": null, "shape_factor": null, "has_reconstructed": null, "possible_species": null, "has_props": null, "theoretical": null, "database_IDs": null, "fields_not_requested": ["builder_meta", "nsites", "elements", "nelements", "composition", "composition_reduced", "chemsys", "symmetry", "property_name", "deprecated", "deprecation_reasons", "last_updated", "origins", "warnings", "task_ids", "uncorrected_energy_per_atom", "equilibrium_reaction_energy_per_atom", "decomposes_to", "xas", "grain_boundaries", "cbm", "vbm", "is_gap_direct", "is_metal", "es_source_calc_id", "bandstructure", "dos", "dos_energy_up", "dos_energy_down", "is_magnetic", "ordering", "total_magnetization_normalized_vol", "total_magnetization_normalized_formula_units", "num_magnetic_sites", "num_unique_magnetic_sites", "types_of_magnetic_species", "bulk_modulus", "shear_modulus", "universal_anisotropy", "homogeneous_poisson", "e_total", "e_ionic", "e_electronic", "n", "e_ij_max", "weighted_surface_energy_EV_PER_ANG2", "weighted_surface_energy", "weighted_work_function", "surface_anisotropy", "shape_factor", "has_reconstructed", "possible_species", "has_props", "theoretical", "database_IDs"]}