{"builder_meta": null, "nsites": null, "elements": null, "nelements": null, "composition": null, "composition_reduced": null, "formula_pretty": "Ni5Ge3", "formula_anonymous": "A3B5", "chemsys": null, "volume": 193.54185381653127, "density": 8.775136487597724, "density_atomic": 12.096365863533205, "symmetry": null, "property_name": null, "material_id": "mp-1428", "deprecated": null, "deprecation_reasons": null, "last_updated": null, "origins": null, "warnings": null, "structure": {"@module": "pymatgen.core.structure", "@class": "Structure", "charge": 0, "lattice": {"matrix": [[3.33698294, 5.35848219, 0.00109907], [-3.33698294, 5.35848219, 0.00109907], [0.0, 3.23813237, 5.41255619]], "pbc": [true, true, true], "a": 6.312589621569987, "b": 6.312589621569987, "c": 6.3072391547767666, "alpha": 64.15413081065962, "beta": 64.15413081065962, "gamma": 63.824988746525676, "volume": 193.54185381653127}, "properties": {}, "sites": [{"species": [{"element": "Ni", "occu": 1}], "abc": [0.6717142500000001, 0.18228654, 0.14574645], "properties": {"magmom": -0.0}, "label": "Ni", "xyz": [1.6332119186332676, 5.048094321018517, 0.7897994567662908]}, {"species": [{"element": "Ni", "occu": 1}], "abc": [0.81771346, 0.32828575, 0.35425355000000003], "properties": {"magmom": -0.0}, "label": "Ni", "xyz": [1.6332119186332672, 7.287936243981483, 1.9186767782337093]}, {"species": [{"element": "Ni", "occu": 1}], "abc": [0.32828575, 0.81771346, 0.85425355], "properties": {"magmom": -0.0}, "label": "Ni", "xyz": [-1.6332119186332672, 8.907002428981484, 4.624954873233709]}, {"species": [{"element": "Ni", "occu": 1}], "abc": [0.18228654, 0.6717142500000001, 0.64574645], "properties": {"magmom": -0.0}, "label": "Ni", "xyz": [-1.6332119186332676, 6.667160506018517, 3.496077551766291]}, {"species": [{"element": "Ni", "occu": 1}], "abc": [0.0, 0.5, 0.5], "properties": {"magmom": -0.0}, "label": "Ni", "xyz": [-1.66849147, 4.29830728, 2.7068276300000003]}, {"species": [{"element": "Ni", "occu": 1}], "abc": [0.5, -0.0, 0.0], "properties": {"magmom": -0.0}, "label": "Ni", "xyz": [1.66849147, 2.679241095, 0.000549535]}, {"species": [{"element": "Ni", "occu": 1}], "abc": [0.73927863, 0.91264555, 0.5854717700000001], "properties": {"magmom": 0.0}, "label": "Ni", "xyz": [-0.5785224544003449, 10.74764138791855, 3.170714433092269]}, {"species": [{"element": "Ni", "occu": 1}], "abc": [0.08735445, 0.26072137, 0.91452823], "properties": {"magmom": 0.0}, "label": "Ni", "xyz": [-0.5785224544003448, 4.826521547081452, 4.950317991907731]}, {"species": [{"element": "Ni", "occu": 1}], "abc": [0.26072137, 0.08735445, 0.41452823], "properties": {"magmom": 0.0}, "label": "Ni", "xyz": [0.5785224544003448, 3.207455362081451, 2.244039896907731]}, {"species": [{"element": "Ni", "occu": 1}], "abc": [0.91264555, 0.73927863, 0.08547177], "properties": {"magmom": 0.0}, "label": "Ni", "xyz": [0.5785224544003449, 9.12857520291855, 0.4644363380922689]}, {"species": [{"element": "Ge", "occu": 1}], "abc": [0.89694719, 0.10305281000000001, 0.75], "properties": {"magmom": 0.0}, "label": "Ge", "xyz": [2.649212002221877, 7.7870814675, 4.0605162125000005]}, {"species": [{"element": "Ge", "occu": 1}], "abc": [0.10305281000000001, 0.89694719, 0.25], "properties": {"magmom": 0.0}, "label": "Ge", "xyz": [-2.649212002221877, 6.1680152825, 1.3542381175]}, {"species": [{"element": "Ge", "occu": 1}], "abc": [0.58475383, 0.71646068, 0.45086446], "properties": {"magmom": -0.0}, "label": "Ge", "xyz": [-0.43950351153113854, 8.432493579613148, 2.4417593496555132]}, {"species": [{"element": "Ge", "occu": 1}], "abc": [0.28353932, 0.41524617, 0.04913554], "properties": {"magmom": -0.0}, "label": "Ge", "xyz": [-0.4395035115311392, 3.9035369853868533, 0.2667168853444869]}, {"species": [{"element": "Ge", "occu": 1}], "abc": [0.41524617, 0.28353932, 0.54913554], "properties": {"magmom": -0.0}, "label": "Ge", "xyz": [0.4395035115311392, 5.522603170386853, 2.972994980344487]}, {"species": [{"element": "Ge", "occu": 1}], "abc": [0.71646068, 0.58475383, 0.95086446], "properties": {"magmom": -0.0}, "label": "Ge", "xyz": [0.43950351153113854, 10.051559764613149, 5.148037444655513]}]}, "task_ids": null, "uncorrected_energy_per_atom": null, "energy_per_atom": -12.96370745625, "formation_energy_per_atom": -0.27314263875, "energy_above_hull": 0.0, "is_stable": true, "equilibrium_reaction_energy_per_atom": null, "decomposes_to": null, "xas": null, "grain_boundaries": null, "band_gap": 0.0, "cbm": null, "vbm": null, "efermi": 8.61347337, "is_gap_direct": null, "is_metal": null, "es_source_calc_id": null, "bandstructure": null, "dos": null, "dos_energy_up": null, "dos_energy_down": null, "is_magnetic": null, "ordering": null, "total_magnetization": 0.0, "total_magnetization_normalized_vol": null, "total_magnetization_normalized_formula_units": null, "num_magnetic_sites": null, "num_unique_magnetic_sites": null, "types_of_magnetic_species": null, "bulk_modulus": null, "shear_modulus": null, "universal_anisotropy": null, "homogeneous_poisson": null, "e_total": null, "e_ionic": null, "e_electronic": null, "n": null, "e_ij_max": null, "weighted_surface_energy_EV_PER_ANG2": null, "weighted_surface_energy": null, "weighted_work_function": null, "surface_anisotropy": null, "shape_factor": null, "has_reconstructed": null, "possible_species": null, "has_props": null, "theoretical": null, "database_IDs": null, "fields_not_requested": ["builder_meta", "nsites", "elements", "nelements", "composition", "composition_reduced", "chemsys", "symmetry", "property_name", "deprecated", "deprecation_reasons", "last_updated", "origins", "warnings", "task_ids", "uncorrected_energy_per_atom", "equilibrium_reaction_energy_per_atom", "decomposes_to", "xas", "grain_boundaries", "cbm", "vbm", "is_gap_direct", "is_metal", "es_source_calc_id", "bandstructure", "dos", "dos_energy_up", "dos_energy_down", "is_magnetic", "ordering", "total_magnetization_normalized_vol", "total_magnetization_normalized_formula_units", "num_magnetic_sites", "num_unique_magnetic_sites", "types_of_magnetic_species", "bulk_modulus", "shear_modulus", "universal_anisotropy", "homogeneous_poisson", "e_total", "e_ionic", "e_electronic", "n", "e_ij_max", "weighted_surface_energy_EV_PER_ANG2", "weighted_surface_energy", "weighted_work_function", "surface_anisotropy", "shape_factor", "has_reconstructed", "possible_species", "has_props", "theoretical", "database_IDs"]}