{"builder_meta": null, "nsites": null, "elements": null, "nelements": null, "composition": null, "composition_reduced": null, "formula_pretty": "Ni5Ge2", "formula_anonymous": "A2B5", "chemsys": null, "volume": 481.46503972110094, "density": 9.079245308555516, "density_atomic": 11.46345332669288, "symmetry": null, "property_name": null, "material_id": "mp-1200317", "deprecated": null, "deprecation_reasons": null, "last_updated": null, "origins": null, "warnings": null, "structure": {"@module": "pymatgen.core.structure", "@class": "Structure", "charge": 0, "lattice": {"matrix": [[3.36925316, -5.83571745, 0.0], [3.36925316, 5.83571745, -0.0], [0.0, 0.0, 12.243535959999999]], "pbc": [true, true, true], "a": 6.738506141008146, "b": 6.738506141008146, "c": 12.243535959999999, "alpha": 90.0, "beta": 90.0, "gamma": 119.99999824263634, "volume": 481.4650397211009}, "properties": {}, "sites": [{"species": [{"element": "Ni", "occu": 1}], "abc": [-0.0, -0.0, 0.57307969], "properties": {"magmom": 0.0}, "label": "Ni", "xyz": [0.0, 0.0, 7.016521792460653]}, {"species": [{"element": "Ni", "occu": 1}], "abc": [-0.0, -0.0, 0.07307969], "properties": {"magmom": 0.0}, "label": "Ni", "xyz": [0.0, 0.0, 0.8947538124606523]}, {"species": [{"element": "Ni", "occu": 1}], "abc": [0.666667, 0.333333, 0.42980529], "properties": {"magmom": 0.0}, "label": "Ni", "xyz": [3.3692531600000004, -1.9452430404783, 5.262336523913228]}, {"species": [{"element": "Ni", "occu": 1}], "abc": [0.333333, 0.666667, 0.42980529], "properties": {"magmom": 0.0}, "label": "Ni", "xyz": [3.3692531600000004, 1.9452430404783, 5.262336523913228]}, {"species": [{"element": "Ni", "occu": 1}], "abc": [0.333333, 0.666667, 0.92980529], "properties": {"magmom": 0.0}, "label": "Ni", "xyz": [3.3692531600000004, 1.9452430404783, 11.384104503913228]}, {"species": [{"element": "Ni", "occu": 1}], "abc": [0.666667, 0.333333, 0.92980529], "properties": {"magmom": 0.0}, "label": "Ni", "xyz": [3.3692531600000004, -1.9452430404783, 11.384104503913228]}, {"species": [{"element": "Ni", "occu": 1}], "abc": [0.72398345, 0.0, 0.40120652], "properties": {"magmom": 0.0}, "label": "Ni", "xyz": [2.4392835267002018, -4.224962852676202, 4.912186455006459]}, {"species": [{"element": "Ni", "occu": 1}], "abc": [0.27601655, 0.27601655, 0.40120652], "properties": {"magmom": 0.0}, "label": "Ni", "xyz": [1.8599392665995962, 0.0, 4.912186455006459]}, {"species": [{"element": "Ni", "occu": 1}], "abc": [0.0, 0.72398345, 0.40120652], "properties": {"magmom": 0.0}, "label": "Ni", "xyz": [2.4392835267002018, 4.224962852676202, 4.912186455006459]}, {"species": [{"element": "Ni", "occu": 1}], "abc": [0.27601655, -0.0, 0.90120652], "properties": {"magmom": 0.0}, "label": "Ni", "xyz": [0.9299696332997981, -1.6107545973237976, 11.033954435006459]}, {"species": [{"element": "Ni", "occu": 1}], "abc": [0.72398345, 0.72398345, 0.90120652], "properties": {"magmom": 0.0}, "label": "Ni", "xyz": [4.8785670534004035, 0.0, 11.033954435006459]}, {"species": [{"element": "Ni", "occu": 1}], "abc": [-0.0, 0.27601655, 0.90120652], "properties": {"magmom": 0.0}, "label": "Ni", "xyz": [0.9299696332997981, 1.6107545973237976, 11.033954435006459]}, {"species": [{"element": "Ni", "occu": 1}], "abc": [0.37148265, -0.0, 0.30712239], "properties": {"magmom": 0.0}, "label": "Ni", "xyz": [1.251619092397674, -2.1678677829772424, 3.760264026086144]}, {"species": [{"element": "Ni", "occu": 1}], "abc": [0.62851735, 0.62851735, 0.30712239], "properties": {"magmom": 0.0}, "label": "Ni", "xyz": [4.2352681352046515, 0.0, 3.760264026086144]}, {"species": [{"element": "Ni", "occu": 1}], "abc": [-0.0, 0.37148265, 0.30712239], "properties": {"magmom": 0.0}, "label": "Ni", "xyz": [1.251619092397674, 2.1678677829772424, 3.760264026086144]}, {"species": [{"element": "Ni", "occu": 1}], "abc": [0.62851735, 0.0, 0.80712239], "properties": {"magmom": 0.0}, "label": "Ni", "xyz": [2.1176340676023258, -3.6678496670227574, 9.882032006086144]}, {"species": [{"element": "Ni", "occu": 1}], "abc": [0.37148265, 0.37148265, 0.80712239], "properties": {"magmom": 0.0}, "label": "Ni", "xyz": [2.503238184795348, 0.0, 9.882032006086144]}, {"species": [{"element": "Ni", "occu": 1}], "abc": [0.0, 0.62851735, 0.80712239], "properties": {"magmom": 0.0}, "label": "Ni", "xyz": [2.1176340676023258, 3.6678496670227574, 9.882032006086144]}, {"species": [{"element": "Ni", "occu": 1}], "abc": [0.69252624, 0.0, 0.19554894], "properties": {"magmom": -0.0}, "label": "Ni", "xyz": [2.333296222502918, -4.041387463350888, 2.394210478829882]}, {"species": [{"element": "Ni", "occu": 1}], "abc": [0.30747376, 0.30747376, 0.19554894], "properties": {"magmom": -0.0}, "label": "Ni", "xyz": [2.0719138749941632, 0.0, 2.394210478829882]}, {"species": [{"element": "Ni", "occu": 1}], "abc": [0.0, 0.69252624, 0.19554894], "properties": {"magmom": -0.0}, "label": "Ni", "xyz": [2.333296222502918, 4.041387463350888, 2.394210478829882]}, {"species": [{"element": "Ni", "occu": 1}], "abc": [0.30747376, -0.0, 0.69554894], "properties": {"magmom": -0.0}, "label": "Ni", "xyz": [1.0359569374970816, -1.7943299866491118, 8.515978458829881]}, {"species": [{"element": "Ni", "occu": 1}], "abc": [0.69252624, 0.69252624, 0.69554894], "properties": {"magmom": -0.0}, "label": "Ni", "xyz": [4.666592445005836, 0.0, 8.515978458829881]}, {"species": [{"element": "Ni", "occu": 1}], "abc": [-0.0, 0.30747376, 0.69554894], "properties": {"magmom": -0.0}, "label": "Ni", "xyz": [1.0359569374970816, 1.7943299866491118, 8.515978458829881]}, {"species": [{"element": "Ni", "occu": 1}], "abc": [0.36970223, 0.0, 0.09765036], "properties": {"magmom": -0.0}, "label": "Ni", "xyz": [1.2456204066865468, -2.1574777549149133, 1.1955856941669456]}, {"species": [{"element": "Ni", "occu": 1}], "abc": [0.63029777, 0.63029777, 0.09765036], "properties": {"magmom": -0.0}, "label": "Ni", "xyz": [4.247265506626906, 0.0, 1.1955856941669456]}, {"species": [{"element": "Ni", "occu": 1}], "abc": [0.0, 0.36970223, 0.09765036], "properties": {"magmom": -0.0}, "label": "Ni", "xyz": [1.2456204066865468, 2.1574777549149133, 1.1955856941669456]}, {"species": [{"element": "Ni", "occu": 1}], "abc": [0.63029777, -0.0, 0.59765036], "properties": {"magmom": -0.0}, "label": "Ni", "xyz": [2.123632753313453, -3.6782396950850864, 7.317353674166946]}, {"species": [{"element": "Ni", "occu": 1}], "abc": [0.36970223, 0.36970223, 0.59765036], "properties": {"magmom": -0.0}, "label": "Ni", "xyz": [2.4912408133730937, 0.0, 7.317353674166946]}, {"species": [{"element": "Ni", "occu": 1}], "abc": [-0.0, 0.63029777, 0.59765036], "properties": {"magmom": -0.0}, "label": "Ni", "xyz": [2.123632753313453, 3.6782396950850864, 7.317353674166946]}, {"species": [{"element": "Ge", "occu": 1}], "abc": [-0.0, -0.0, 0.2787386], "properties": {"magmom": -0.0}, "label": "Ge", "xyz": [0.0, 0.0, 3.4127460725400556]}, {"species": [{"element": "Ge", "occu": 1}], "abc": [-0.0, -0.0, 0.7787386], "properties": {"magmom": -0.0}, "label": "Ge", "xyz": [0.0, 0.0, 9.534514052540054]}, {"species": [{"element": "Ge", "occu": 1}], "abc": [0.666667, 0.333333, 0.22218154], "properties": {"magmom": 0.0}, "label": "Ge", "xyz": [3.3692531600000004, -1.9452430404783, 2.7202876746381786]}, {"species": [{"element": "Ge", "occu": 1}], "abc": [0.333333, 0.666667, 0.22218154], "properties": {"magmom": 0.0}, "label": "Ge", "xyz": [3.3692531600000004, 1.9452430404783, 2.7202876746381786]}, {"species": [{"element": "Ge", "occu": 1}], "abc": [0.333333, 0.666667, 0.72218154], "properties": {"magmom": 0.0}, "label": "Ge", "xyz": [3.3692531600000004, 1.9452430404783, 8.842055654638179]}, {"species": [{"element": "Ge", "occu": 1}], "abc": [0.666667, 0.333333, 0.72218154], "properties": {"magmom": 0.0}, "label": "Ge", "xyz": [3.3692531600000004, -1.9452430404783, 8.842055654638179]}, {"species": [{"element": "Ge", "occu": 1}], "abc": [0.32983293, 0.0, 0.5022208], "properties": {"magmom": -0.0}, "label": "Ge", "xyz": [1.111290641674559, -1.9248117851856286, 6.148958424659968]}, {"species": [{"element": "Ge", "occu": 1}], "abc": [0.67016707, 0.67016707, 0.5022208], "properties": {"magmom": -0.0}, "label": "Ge", "xyz": [4.5159250366508825, 0.0, 6.148958424659968]}, {"species": [{"element": "Ge", "occu": 1}], "abc": [0.0, 0.32983293, 0.5022208], "properties": {"magmom": -0.0}, "label": "Ge", "xyz": [1.111290641674559, 1.9248117851856286, 6.148958424659968]}, {"species": [{"element": "Ge", "occu": 1}], "abc": [0.67016707, -0.0, 0.002220799999999], "properties": {"magmom": -0.0}, "label": "Ge", "xyz": [2.2579625183254413, -3.910905664814371, 0.027190444659955758]}, {"species": [{"element": "Ge", "occu": 1}], "abc": [0.32983293, 0.32983293, 0.002220799999999], "properties": {"magmom": -0.0}, "label": "Ge", "xyz": [2.222581283349118, 0.0, 0.027190444659955758]}, {"species": [{"element": "Ge", "occu": 1}], "abc": [-0.0, 0.67016707, 0.002220799999999], "properties": {"magmom": -0.0}, "label": "Ge", "xyz": [2.2579625183254413, 3.910905664814371, 0.027190444659955758]}]}, "task_ids": null, "uncorrected_energy_per_atom": null, "energy_per_atom": -12.761250873809523, "formation_energy_per_atom": -0.23945930809523602, "energy_above_hull": 0.015210133333335001, "is_stable": false, "equilibrium_reaction_energy_per_atom": null, "decomposes_to": null, "xas": null, "grain_boundaries": null, "band_gap": 0.0, "cbm": null, "vbm": null, "efermi": 7.3603071700000005, "is_gap_direct": null, "is_metal": null, "es_source_calc_id": null, "bandstructure": null, "dos": null, "dos_energy_up": null, "dos_energy_down": null, "is_magnetic": null, "ordering": null, "total_magnetization": 5e-07, "total_magnetization_normalized_vol": null, "total_magnetization_normalized_formula_units": null, "num_magnetic_sites": null, "num_unique_magnetic_sites": null, "types_of_magnetic_species": null, "bulk_modulus": null, "shear_modulus": null, "universal_anisotropy": null, "homogeneous_poisson": null, "e_total": null, "e_ionic": null, "e_electronic": null, "n": null, "e_ij_max": null, "weighted_surface_energy_EV_PER_ANG2": null, "weighted_surface_energy": null, "weighted_work_function": null, "surface_anisotropy": null, "shape_factor": null, "has_reconstructed": null, "possible_species": null, "has_props": null, "theoretical": null, "database_IDs": null, "fields_not_requested": ["builder_meta", "nsites", "elements", "nelements", "composition", "composition_reduced", "chemsys", "symmetry", "property_name", "deprecated", "deprecation_reasons", "last_updated", "origins", "warnings", "task_ids", "uncorrected_energy_per_atom", "equilibrium_reaction_energy_per_atom", "decomposes_to", "xas", "grain_boundaries", "cbm", "vbm", "is_gap_direct", "is_metal", "es_source_calc_id", "bandstructure", "dos", "dos_energy_up", "dos_energy_down", "is_magnetic", "ordering", "total_magnetization_normalized_vol", "total_magnetization_normalized_formula_units", "num_magnetic_sites", "num_unique_magnetic_sites", "types_of_magnetic_species", "bulk_modulus", "shear_modulus", "universal_anisotropy", "homogeneous_poisson", "e_total", "e_ionic", "e_electronic", "n", "e_ij_max", "weighted_surface_energy_EV_PER_ANG2", "weighted_surface_energy", "weighted_work_function", "surface_anisotropy", "shape_factor", "has_reconstructed", "possible_species", "has_props", "theoretical", "database_IDs"]}