{
  "builder_meta": null,
  "nsites": null,
  "elements": null,
  "nelements": null,
  "composition": null,
  "composition_reduced": null,
  "formula_pretty": "Ni5O7",
  "formula_anonymous": "A5B7",
  "chemsys": null,
  "volume": 242.67164034062952,
  "density": 5.548953462447889,
  "density_atomic": 10.11131834752623,
  "symmetry": null,
  "property_name": null,
  "material_id": "mp-1046095",
  "deprecated": null,
  "deprecation_reasons": null,
  "last_updated": null,
  "origins": null,
  "warnings": null,
  "structure": {
    "@module": "pymatgen.core.structure",
    "@class": "Structure",
    "charge": 0,
    "lattice": {
      "matrix": [
        [2.906902, 0.0, 0.0],
        [-1.453451, 4.916943, 0.0],
        [0.0, 0.0, 16.978271]
      ],
      "pbc": [true, true, true],
      "a": 2.906902,
      "b": 5.127265184740302,
      "c": 16.978271,
      "alpha": 90.0,
      "beta": 90.0,
      "gamma": 106.46770774034329,
      "volume": 242.67164034062952
    },
    "properties": {},
    "sites": [
      {
        "species": [{ "element": "Ni", "occu": 1 }],
        "abc": [0.268522, 0.537042, 0.579075],
        "properties": { "magmom": 1.687 },
        "label": "Ni",
        "xyz": [2.9069019998884116e-6, 2.640604902606, 9.831692279324999]
      },
      {
        "species": [{ "element": "Ni", "occu": 1 }],
        "abc": [0.0, 0.0, 0.5],
        "properties": { "magmom": 1.703 },
        "label": "Ni",
        "xyz": [0.0, 0.0, 8.4891355]
      },
      {
        "species": [{ "element": "Ni", "occu": 1 }],
        "abc": [0.0, 0.0, 0.0],
        "properties": { "magmom": 1.703 },
        "label": "Ni",
        "xyz": [0.0, 0.0, 0.0]
      },
      {
        "species": [{ "element": "Ni", "occu": 1 }],
        "abc": [0.731478, 0.46295699999999906, 0.420925],
        "properties": { "magmom": 1.686 },
        "label": "Ni",
        "xyz": [1.4534495465490012, 2.276333180450995, 7.1465787206749996]
      },
      {
        "species": [{ "element": "Ni", "occu": 1 }],
        "abc": [0.731478, 0.46295699999999906, 0.07907499999999901],
        "properties": { "magmom": 1.686 },
        "label": "Ni",
        "xyz": [1.4534495465490012, 2.276333180450995, 1.342556779324983]
      },
      {
        "species": [{ "element": "Ni", "occu": 1 }],
        "abc": [0.268522, 0.537042, 0.920925],
        "properties": { "magmom": 1.687 },
        "label": "Ni",
        "xyz": [2.9069019998884116e-6, 2.640604902606, 15.635714220675]
      },
      {
        "species": [{ "element": "Ni", "occu": 1 }],
        "abc": [0.467396, 0.934790999999999, 0.153977],
        "properties": { "magmom": 1.4140000000000001 },
        "label": "Ni",
        "xyz": [1.4534510013319846e-6, 4.596314063912995, 2.6142632337669998]
      },
      {
        "species": [{ "element": "Ni", "occu": 1 }],
        "abc": [0.532604, 0.065208, 0.846024],
        "properties": { "magmom": 1.415 },
        "label": "Ni",
        "xyz": [1.453451, 0.320624019144, 14.364024744504]
      },
      {
        "species": [{ "element": "Ni", "occu": 1 }],
        "abc": [0.532604, 0.065208, 0.653976],
        "properties": { "magmom": 1.415 },
        "label": "Ni",
        "xyz": [1.453451, 0.320624019144, 11.103381755495999]
      },
      {
        "species": [{ "element": "Ni", "occu": 1 }],
        "abc": [0.467396, 0.934790999999999, 0.346024],
        "properties": { "magmom": 1.4140000000000001 },
        "label": "Ni",
        "xyz": [1.4534510013319846e-6, 4.596314063912995, 5.874889244504]
      },
      {
        "species": [{ "element": "O", "occu": 1 }],
        "abc": [0.638907999999999, 0.277817, 0.965422999999999],
        "properties": { "magmom": 0.029 },
        "label": "O",
        "xyz": [1.4534495465489974, 1.366010353431, 16.391213323632982]
      },
      {
        "species": [{ "element": "O", "occu": 1 }],
        "abc": [0.361093, 0.722183999999999, 0.034577],
        "properties": { "magmom": 0.029 },
        "label": "O",
        "xyz": [2.9069020013317015e-6, 3.550937563511995, 0.5870576763669999]
      },
      {
        "species": [{ "element": "O", "occu": 1 }],
        "abc": [0.361093, 0.722183999999999, 0.465423],
        "properties": { "magmom": 0.029 },
        "label": "O",
        "xyz": [2.9069020013317015e-6, 3.550937563511995, 7.902077823632999]
      },
      {
        "species": [{ "element": "O", "occu": 1 }],
        "abc": [0.638907999999999, 0.277817, 0.534577],
        "properties": { "magmom": 0.029 },
        "label": "O",
        "xyz": [1.4534495465489974, 1.366010353431, 9.076193176367]
      },
      {
        "species": [{ "element": "O", "occu": 1 }],
        "abc": [0.155013999999999, 0.31003000000000003, 0.8255800000000001],
        "properties": { "magmom": -0.434 },
        "label": "O",
        "xyz": [-2.906902002941525e-6, 1.5243998382900001, 14.016920972180001]
      },
      {
        "species": [{ "element": "O", "occu": 1 }],
        "abc": [0.844986, 0.6899700000000001, 0.17442000000000002],
        "properties": { "magmom": -0.434 },
        "label": "O",
        "xyz": [1.4534539069019998, 3.3925431617100004, 2.9613500278200005]
      },
      {
        "species": [{ "element": "O", "occu": 1 }],
        "abc": [0.844986, 0.6899700000000001, 0.325581],
        "properties": { "magmom": -0.434 },
        "label": "O",
        "xyz": [1.4534539069019998, 3.3925431617100004, 5.527802450451]
      },
      {
        "species": [{ "element": "O", "occu": 1 }],
        "abc": [0.155013999999999, 0.31003000000000003, 0.67442],
        "properties": { "magmom": -0.434 },
        "label": "O",
        "xyz": [-2.906902002941525e-6, 1.5243998382900001, 11.45048552782]
      },
      {
        "species": [{ "element": "O", "occu": 1 }],
        "abc": [0.912196, 0.824388999999999, 0.8938],
        "properties": { "magmom": -0.064 },
        "label": "O",
        "xyz": [1.4534553603530014, 4.053473722826995, 15.1751786198]
      },
      {
        "species": [{ "element": "O", "occu": 1 }],
        "abc": [0.087804, 0.175611, 0.1062],
        "properties": { "magmom": -0.065 },
        "label": "O",
        "xyz": [-4.360352999999151e-6, 0.8634692771729999, 1.8030923802]
      },
      {
        "species": [{ "element": "O", "occu": 1 }],
        "abc": [0.087804, 0.175611, 0.39380000000000004],
        "properties": { "magmom": -0.065 },
        "label": "O",
        "xyz": [-4.360352999999151e-6, 0.8634692771729999, 6.686043119800001]
      },
      {
        "species": [{ "element": "O", "occu": 1 }],
        "abc": [0.912196, 0.824388999999999, 0.6062000000000001],
        "properties": { "magmom": -0.064 },
        "label": "O",
        "xyz": [1.4534553603530014, 4.053473722826995, 10.2922278802]
      },
      {
        "species": [{ "element": "O", "occu": 1 }],
        "abc": [0.439969, 0.879938, 0.75],
        "properties": { "magmom": 0.032 },
        "label": "O",
        "xyz": [0.0, 4.326604989534, 12.73370325]
      },
      {
        "species": [{ "element": "O", "occu": 1 }],
        "abc": [0.560032, 0.120063999999999, 0.25],
        "properties": { "magmom": 0.01 },
        "label": "O",
        "xyz": [1.4534510000000014, 0.590347844351995, 4.24456775]
      }
    ]
  },
  "task_ids": null,
  "uncorrected_energy_per_atom": null,
  "energy_per_atom": -6.120149282916667,
  "formation_energy_per_atom": -0.8254484133333321,
  "energy_above_hull": 0.19222526513888902,
  "is_stable": false,
  "equilibrium_reaction_energy_per_atom": null,
  "decomposes_to": null,
  "xas": null,
  "grain_boundaries": null,
  "band_gap": 0.0,
  "cbm": null,
  "vbm": null,
  "efermi": 3.72151787,
  "is_gap_direct": null,
  "is_metal": null,
  "es_source_calc_id": null,
  "bandstructure": null,
  "dos": null,
  "dos_energy_up": null,
  "dos_energy_down": null,
  "is_magnetic": null,
  "ordering": null,
  "total_magnetization": 13.7910543,
  "total_magnetization_normalized_vol": null,
  "total_magnetization_normalized_formula_units": null,
  "num_magnetic_sites": null,
  "num_unique_magnetic_sites": null,
  "types_of_magnetic_species": null,
  "bulk_modulus": null,
  "shear_modulus": null,
  "universal_anisotropy": null,
  "homogeneous_poisson": null,
  "e_total": null,
  "e_ionic": null,
  "e_electronic": null,
  "n": null,
  "e_ij_max": null,
  "weighted_surface_energy_EV_PER_ANG2": null,
  "weighted_surface_energy": null,
  "weighted_work_function": null,
  "surface_anisotropy": null,
  "shape_factor": null,
  "has_reconstructed": null,
  "possible_species": null,
  "has_props": null,
  "theoretical": null,
  "database_IDs": null,
  "fields_not_requested": [
    "builder_meta",
    "nsites",
    "elements",
    "nelements",
    "composition",
    "composition_reduced",
    "chemsys",
    "symmetry",
    "property_name",
    "deprecated",
    "deprecation_reasons",
    "last_updated",
    "origins",
    "warnings",
    "task_ids",
    "uncorrected_energy_per_atom",
    "equilibrium_reaction_energy_per_atom",
    "decomposes_to",
    "xas",
    "grain_boundaries",
    "cbm",
    "vbm",
    "is_gap_direct",
    "is_metal",
    "es_source_calc_id",
    "bandstructure",
    "dos",
    "dos_energy_up",
    "dos_energy_down",
    "is_magnetic",
    "ordering",
    "total_magnetization_normalized_vol",
    "total_magnetization_normalized_formula_units",
    "num_magnetic_sites",
    "num_unique_magnetic_sites",
    "types_of_magnetic_species",
    "bulk_modulus",
    "shear_modulus",
    "universal_anisotropy",
    "homogeneous_poisson",
    "e_total",
    "e_ionic",
    "e_electronic",
    "n",
    "e_ij_max",
    "weighted_surface_energy_EV_PER_ANG2",
    "weighted_surface_energy",
    "weighted_work_function",
    "surface_anisotropy",
    "shape_factor",
    "has_reconstructed",
    "possible_species",
    "has_props",
    "theoretical",
    "database_IDs"
  ]
}
