{
  "builder_meta": null,
  "nsites": null,
  "elements": null,
  "nelements": null,
  "composition": null,
  "composition_reduced": null,
  "formula_pretty": "Ni5O4",
  "formula_anonymous": "A4B5",
  "chemsys": null,
  "volume": 89.31197939925765,
  "density": 6.6461849487514115,
  "density_atomic": 9.923553266584184,
  "symmetry": null,
  "property_name": null,
  "material_id": "mp-1220234",
  "deprecated": null,
  "deprecation_reasons": null,
  "last_updated": null,
  "origins": null,
  "warnings": null,
  "structure": {
    "@module": "pymatgen.core.structure",
    "@class": "Structure",
    "charge": 0,
    "lattice": {
      "matrix": [
        [-3.296638, 3.296638, 2.054505],
        [3.296638, -3.296638, 2.054505],
        [3.296638, 3.296638, -2.054505]
      ],
      "pbc": [true, true, true],
      "a": 5.094765451040215,
      "b": 5.094765451040215,
      "c": 5.094765451040215,
      "alpha": 99.35883055464438,
      "beta": 99.35883055464438,
      "gamma": 132.43597732319634,
      "volume": 89.31197939925765
    },
    "properties": {},
    "sites": [
      {
        "species": [{ "element": "Ni", "occu": 1 }],
        "abc": [0.404653, 0.791327, 0.19598000000000002],
        "properties": { "magmom": 1.704 },
        "label": "Ni",
        "xyz": [1.920799317252, -0.6286490867719999, 2.054505]
      },
      {
        "species": [{ "element": "Ni", "occu": 1 }],
        "abc": [0.0, 0.0, 0.0],
        "properties": { "magmom": 0.8320000000000001 },
        "label": "Ni",
        "xyz": [0.0, 0.0, 0.0]
      },
      {
        "species": [{ "element": "Ni", "occu": 1 }],
        "abc": [0.595347, 0.208673, 0.8040200000000001],
        "properties": { "magmom": 1.704 },
        "label": "Ni",
        "xyz": [1.3758386827480003, 3.9252870867720002, -2.220446049250313e-16]
      },
      {
        "species": [{ "element": "Ni", "occu": 1 }],
        "abc": [0.208673, 0.404653, 0.613325999999999],
        "properties": { "magmom": 1.704 },
        "label": "Ni",
        "xyz": [2.667988913227997, 1.3758386827479971, 1.9984014443252818e-15]
      },
      {
        "species": [{ "element": "Ni", "occu": 1 }],
        "abc": [0.791327, 0.595347, 0.386673999999999],
        "properties": { "magmom": 1.704 },
        "label": "Ni",
        "xyz": [0.6286490867719967, 1.920799317251997, 2.054505000000002]
      },
      {
        "species": [{ "element": "O", "occu": 1 }],
        "abc": [0.102334, 0.697925999999999, 0.8002600000000001],
        "properties": { "magmom": 0.121 },
        "label": "O",
        "xyz": [4.601618745575998, 0.6747163061840036, -1.9984014443252818e-15]
      },
      {
        "species": [{ "element": "O", "occu": 1 }],
        "abc": [0.697925999999999, 0.897666, 0.595592999999999],
        "properties": { "magmom": 0.121 },
        "label": "O",
        "xyz": [2.621924990454, 1.3049840422139938, 2.054502945495]
      },
      {
        "species": [{ "element": "O", "occu": 1 }],
        "abc": [0.302074, 0.102334, 0.404406999999999],
        "properties": { "magmom": 0.121 },
        "label": "O",
        "xyz": [0.6747130095459968, 1.9916539577859969, 2.0545050020137623e-6]
      },
      {
        "species": [{ "element": "O", "occu": 1 }],
        "abc": [0.897666, 0.302074, 0.19974000000000003],
        "properties": { "magmom": 0.121 },
        "label": "O",
        "xyz": [-1.304980745576, 2.621921693816, 2.054505]
      }
    ]
  },
  "task_ids": null,
  "uncorrected_energy_per_atom": null,
  "energy_per_atom": -6.142301674444444,
  "formation_energy_per_atom": -0.7320208499999991,
  "energy_above_hull": 0.350721638888889,
  "is_stable": false,
  "equilibrium_reaction_energy_per_atom": null,
  "decomposes_to": null,
  "xas": null,
  "grain_boundaries": null,
  "band_gap": 0.0,
  "cbm": null,
  "vbm": null,
  "efermi": 7.15017428,
  "is_gap_direct": null,
  "is_metal": null,
  "es_source_calc_id": null,
  "bandstructure": null,
  "dos": null,
  "dos_energy_up": null,
  "dos_energy_down": null,
  "is_magnetic": null,
  "ordering": null,
  "total_magnetization": 8.0042764,
  "total_magnetization_normalized_vol": null,
  "total_magnetization_normalized_formula_units": null,
  "num_magnetic_sites": null,
  "num_unique_magnetic_sites": null,
  "types_of_magnetic_species": null,
  "bulk_modulus": null,
  "shear_modulus": null,
  "universal_anisotropy": null,
  "homogeneous_poisson": null,
  "e_total": null,
  "e_ionic": null,
  "e_electronic": null,
  "n": null,
  "e_ij_max": null,
  "weighted_surface_energy_EV_PER_ANG2": null,
  "weighted_surface_energy": null,
  "weighted_work_function": null,
  "surface_anisotropy": null,
  "shape_factor": null,
  "has_reconstructed": null,
  "possible_species": null,
  "has_props": null,
  "theoretical": null,
  "database_IDs": null,
  "fields_not_requested": [
    "builder_meta",
    "nsites",
    "elements",
    "nelements",
    "composition",
    "composition_reduced",
    "chemsys",
    "symmetry",
    "property_name",
    "deprecated",
    "deprecation_reasons",
    "last_updated",
    "origins",
    "warnings",
    "task_ids",
    "uncorrected_energy_per_atom",
    "equilibrium_reaction_energy_per_atom",
    "decomposes_to",
    "xas",
    "grain_boundaries",
    "cbm",
    "vbm",
    "is_gap_direct",
    "is_metal",
    "es_source_calc_id",
    "bandstructure",
    "dos",
    "dos_energy_up",
    "dos_energy_down",
    "is_magnetic",
    "ordering",
    "total_magnetization_normalized_vol",
    "total_magnetization_normalized_formula_units",
    "num_magnetic_sites",
    "num_unique_magnetic_sites",
    "types_of_magnetic_species",
    "bulk_modulus",
    "shear_modulus",
    "universal_anisotropy",
    "homogeneous_poisson",
    "e_total",
    "e_ionic",
    "e_electronic",
    "n",
    "e_ij_max",
    "weighted_surface_energy_EV_PER_ANG2",
    "weighted_surface_energy",
    "weighted_work_function",
    "surface_anisotropy",
    "shape_factor",
    "has_reconstructed",
    "possible_species",
    "has_props",
    "theoretical",
    "database_IDs"
  ]
}
