{
  "builder_meta": null,
  "nsites": null,
  "elements": null,
  "nelements": null,
  "composition": null,
  "composition_reduced": null,
  "formula_pretty": "Ni5O6",
  "formula_anonymous": "A5B6",
  "chemsys": null,
  "volume": 104.29367122360046,
  "density": 6.200943768911236,
  "density_atomic": 9.481242838509132,
  "symmetry": null,
  "property_name": null,
  "material_id": "mp-754806",
  "deprecated": null,
  "deprecation_reasons": null,
  "last_updated": null,
  "origins": null,
  "warnings": null,
  "structure": {
    "@module": "pymatgen.core.structure",
    "@class": "Structure",
    "charge": 0,
    "lattice": {
      "matrix": [
        [5.05593485, 0.01607671, 0.02080395],
        [0.87962111, 4.94912681, 0.02046638],
        [0.88651674, -2.67144777, 4.16489812]
      ],
      "pbc": [true, true, true],
      "a": 5.056003211271186,
      "b": 5.0267293891086595,
      "c": 5.026820214421612,
      "alpha": 119.27491519762444,
      "beta": 79.7423855028113,
      "gamma": 79.73892345730265,
      "volume": 104.29367122360046
    },
    "properties": {},
    "sites": [
      {
        "species": [{ "element": "Ni", "occu": 1 }],
        "abc": [0.0, 0.666667, 0.333333],
        "properties": { "magmom": 1.576 },
        "label": "Ni",
        "xyz": [0.88191965103479, 2.40893782352486, 1.4019422451894201]
      },
      {
        "species": [{ "element": "Ni", "occu": 1 }],
        "abc": [0.99998409, 0.0062285100000000005, 0.99375673],
        "properties": { "magmom": 1.157 },
        "label": "Ni",
        "xyz": [5.942315115589043, -2.6078670602340948, 4.1598266305759966]
      },
      {
        "species": [{ "element": "Ni", "occu": 1 }],
        "abc": [0.49999542, 0.83408742, 0.16587072],
        "properties": { "magmom": 1.562 },
        "label": "Ni",
        "xyz": [3.408672340991676, 3.692927728522104, 0.7183072796998949]
      },
      {
        "species": [{ "element": "Ni", "occu": 1 }],
        "abc": [0.50000458, 0.49924558, 0.5007952800000001],
        "properties": { "magmom": 1.562 },
        "label": "Ni",
        "xyz": [3.411100931456794, 1.1410196794008063, 2.1063811402125654]
      },
      {
        "species": [{ "element": "Ni", "occu": 1 }],
        "abc": [1.5910000000000002e-5, 0.32710449, 0.67290927],
        "properties": { "magmom": 1.157 },
        "label": "Ni",
        "xyz": [0.8843537868594272, -0.17876011184299467, 2.8092935293364634]
      },
      {
        "species": [{ "element": "O", "occu": 1 }],
        "abc": [0.23593423, 0.25760698, 0.29245931000000003],
        "properties": { "magmom": 0.185 },
        "label": "O",
        "xyz": [1.6787347075401124, 0.49743288584067824, 1.2282438766630384]
      },
      {
        "species": [{ "element": "O", "occu": 1 }],
        "abc": [0.22686646, 0.91432592, 0.58100753],
        "properties": { "magmom": 0.045 },
        "label": "O",
        "xyz": [2.466355323473354, 2.9766309196643537, 2.4432698296159305]
      },
      {
        "species": [{ "element": "O", "occu": 1 }],
        "abc": [0.23594251, 0.62577084, 0.92427646],
        "properties": { "magmom": 0.185 },
        "label": "O",
        "xyz": [2.562737753969846, 0.6316561325396686, 3.867233090599529]
      },
      {
        "species": [{ "element": "O", "occu": 1 }],
        "abc": [0.76406577, 0.07572702, 0.37420669],
        "properties": { "magmom": 0.185 },
        "label": "O",
        "xyz": [4.261418334529467, -0.6126073387909583, 1.575978183715802]
      },
      {
        "species": [{ "element": "O", "occu": 1 }],
        "abc": [0.77313354, 0.41900808, 0.08565947],
        "properties": { "magmom": 0.045 },
        "label": "O",
        "xyz": [4.353419715112965, 1.8573187659375963, 0.38142277566102983]
      },
      {
        "species": [{ "element": "O", "occu": 1 }],
        "abc": [0.76405749, 0.70756216, 0.74238954],
        "properties": { "magmom": 0.185 },
        "label": "O",
        "xyz": [5.143552258478623, 1.5308435053832417, 3.1223534493129312]
      }
    ]
  },
  "task_ids": null,
  "uncorrected_energy_per_atom": null,
  "energy_per_atom": -6.394561785454545,
  "formation_energy_per_atom": -1.06833911,
  "energy_above_hull": 0.040714679545455004,
  "is_stable": false,
  "equilibrium_reaction_energy_per_atom": null,
  "decomposes_to": null,
  "xas": null,
  "grain_boundaries": null,
  "band_gap": 0.0,
  "cbm": null,
  "vbm": null,
  "efermi": 4.57043271,
  "is_gap_direct": null,
  "is_metal": null,
  "es_source_calc_id": null,
  "bandstructure": null,
  "dos": null,
  "dos_energy_up": null,
  "dos_energy_down": null,
  "is_magnetic": null,
  "ordering": null,
  "total_magnetization": 8.0000003,
  "total_magnetization_normalized_vol": null,
  "total_magnetization_normalized_formula_units": null,
  "num_magnetic_sites": null,
  "num_unique_magnetic_sites": null,
  "types_of_magnetic_species": null,
  "bulk_modulus": null,
  "shear_modulus": null,
  "universal_anisotropy": null,
  "homogeneous_poisson": null,
  "e_total": null,
  "e_ionic": null,
  "e_electronic": null,
  "n": null,
  "e_ij_max": null,
  "weighted_surface_energy_EV_PER_ANG2": null,
  "weighted_surface_energy": null,
  "weighted_work_function": null,
  "surface_anisotropy": null,
  "shape_factor": null,
  "has_reconstructed": null,
  "possible_species": null,
  "has_props": null,
  "theoretical": null,
  "database_IDs": null,
  "fields_not_requested": [
    "builder_meta",
    "nsites",
    "elements",
    "nelements",
    "composition",
    "composition_reduced",
    "chemsys",
    "symmetry",
    "property_name",
    "deprecated",
    "deprecation_reasons",
    "last_updated",
    "origins",
    "warnings",
    "task_ids",
    "uncorrected_energy_per_atom",
    "equilibrium_reaction_energy_per_atom",
    "decomposes_to",
    "xas",
    "grain_boundaries",
    "cbm",
    "vbm",
    "is_gap_direct",
    "is_metal",
    "es_source_calc_id",
    "bandstructure",
    "dos",
    "dos_energy_up",
    "dos_energy_down",
    "is_magnetic",
    "ordering",
    "total_magnetization_normalized_vol",
    "total_magnetization_normalized_formula_units",
    "num_magnetic_sites",
    "num_unique_magnetic_sites",
    "types_of_magnetic_species",
    "bulk_modulus",
    "shear_modulus",
    "universal_anisotropy",
    "homogeneous_poisson",
    "e_total",
    "e_ionic",
    "e_electronic",
    "n",
    "e_ij_max",
    "weighted_surface_energy_EV_PER_ANG2",
    "weighted_surface_energy",
    "weighted_work_function",
    "surface_anisotropy",
    "shape_factor",
    "has_reconstructed",
    "possible_species",
    "has_props",
    "theoretical",
    "database_IDs"
  ]
}
