{"builder_meta": null, "nsites": null, "elements": null, "nelements": null, "composition": null, "composition_reduced": null, "formula_pretty": "Ni5P2", "formula_anonymous": "A2B5", "chemsys": null, "volume": 454.39361483274655, "density": 7.792975288479045, "density_atomic": 10.81889559125587, "symmetry": null, "property_name": null, "material_id": "mp-1200923", "deprecated": null, "deprecation_reasons": null, "last_updated": null, "origins": null, "warnings": null, "structure": {"@module": "pymatgen.core.structure", "@class": "Structure", "charge": 0, "lattice": {"matrix": [[-3.273724999999999, -5.6702580000000005, 0.0], [-3.273611, 5.670193, 0.0], [0.0, 0.0, -12.239601]], "pbc": [true, true, true], "a": 6.547449974011943, "b": 6.547336682695492, "c": 12.239601, "alpha": 90.0, "beta": 90.0, "gamma": 120.0005792893318, "volume": 454.3936148327464}, "properties": {}, "sites": [{"species": [{"element": "Ni", "occu": 1}], "abc": [0.999991, 0.0, 0.574533], "properties": {"magmom": -0.0}, "label": "Ni", "xyz": [-3.2736955364749987, -5.670206967678, -7.032054681332999]}, {"species": [{"element": "Ni", "occu": 1}], "abc": [9e-06, 0.0, 0.074533], "properties": {"magmom": -0.0}, "label": "Ni", "xyz": [-2.946352499999999e-05, -5.1032322e-05, -0.9122541813330001]}, {"species": [{"element": "Ni", "occu": 1}], "abc": [0.666651, 0.333315, 0.436870999999999], "properties": {"magmom": 0.0}, "label": "Ni", "xyz": [-3.273575695439999, -1.8901227861630001, -5.347126728470988]}, {"species": [{"element": "Ni", "occu": 1}], "abc": [0.333335999999999, 0.666685, 0.436870999999999], "properties": {"magmom": 0.0}, "label": "Ni", "xyz": [-3.2737177461349964, 1.8901314995170055, -5.347126728470988]}, {"species": [{"element": "Ni", "occu": 1}], "abc": [0.333349, 0.666685, 0.936871], "properties": {"magmom": 0.0}, "label": "Ni", "xyz": [-3.2737603045599997, 1.890057786163, -11.466927228471]}, {"species": [{"element": "Ni", "occu": 1}], "abc": [0.666663999999999, 0.333315, 0.936871], "properties": {"magmom": 0.0}, "label": "Ni", "xyz": [-3.273618253864996, -1.8901964995169946, -11.466927228471]}, {"species": [{"element": "Ni", "occu": 1}], "abc": [0.764899, 0.0, 0.403783], "properties": {"magmom": -0.0}, "label": "Ni", "xyz": [-2.504068978774999, -4.337174673942, -4.942142810583]}, {"species": [{"element": "Ni", "occu": 1}], "abc": [0.23513799999999901, 0.235133999999999, 0.403777999999999], "properties": {"magmom": -0.0}, "label": "Ni", "xyz": [-1.5395143979239934, -3.796474200012945e-05, -4.942081612577988]}, {"species": [{"element": "Ni", "occu": 1}], "abc": [4e-06, 0.764865999999999, 0.403777999999999], "properties": {"magmom": -0.0}, "label": "Ni", "xyz": [-2.5038868460259964, 4.336915158105994, -4.942081612577988]}, {"species": [{"element": "Ni", "occu": 1}], "abc": [0.235100999999999, 0.0, 0.903783], "properties": {"magmom": -0.0}, "label": "Ni", "xyz": [-0.7696560212249964, -1.3330833260579944, -11.061943310583]}, {"species": [{"element": "Ni", "occu": 1}], "abc": [0.764861999999999, 0.764865999999999, 0.903778], "properties": {"magmom": -0.0}, "label": "Ni", "xyz": [-5.0078216020759925, -2.703525800029638e-05, -11.061882112578]}, {"species": [{"element": "Ni", "occu": 1}], "abc": [0.999996, 0.235133999999999, 0.903778], "properties": {"magmom": -0.0}, "label": "Ni", "xyz": [-4.043449153973996, -4.336980158106006, -11.061882112578]}, {"species": [{"element": "Ni", "occu": 1}], "abc": [0.382546999999999, 0.0, 0.305009], "properties": {"magmom": -0.0}, "label": "Ni", "xyz": [-1.2523536775749964, -2.1691401871259948, -3.7331884614089996]}, {"species": [{"element": "Ni", "occu": 1}], "abc": [0.61746, 0.617463, 0.305014], "properties": {"magmom": -0.0}, "label": "Ni", "xyz": [-4.042727907392999, -2.31243210002674e-05, -3.733249659414]}, {"species": [{"element": "Ni", "occu": 1}], "abc": [0.999996999999999, 0.382536999999999, 0.305014], "properties": {"magmom": -0.0}, "label": "Ni", "xyz": [-4.525992509931992, -3.5011823695850004, -3.733249659414]}, {"species": [{"element": "Ni", "occu": 1}], "abc": [0.617452999999999, 0.0, 0.805009], "properties": {"magmom": -0.0}, "label": "Ni", "xyz": [-2.0213713224249963, -3.5011178128739946, -9.852988961409]}, {"species": [{"element": "Ni", "occu": 1}], "abc": [0.38254000000000005, 0.382536999999999, 0.805014], "properties": {"magmom": -0.0}, "label": "Ni", "xyz": [-2.5046080926069965, -4.187567900570954e-05, -9.853050159414]}, {"species": [{"element": "Ni", "occu": 1}], "abc": [3e-06, 0.617463, 0.805014], "properties": {"magmom": -0.0}, "label": "Ni", "xyz": [-2.021343490068, 3.501117369585, -9.853050159414]}, {"species": [{"element": "Ni", "occu": 1}], "abc": [0.69388, 0.0, 0.196035], "properties": {"magmom": -0.0}, "label": "Ni", "xyz": [-2.2715723029999992, -3.9344786210400007, -2.399390182035]}, {"species": [{"element": "Ni", "occu": 1}], "abc": [0.30613, 0.30613, 0.19604000000000002], "properties": {"magmom": -0.0}, "label": "Ni", "xyz": [-2.0043359696799996, -1.9898450000166434e-05, -2.3994513800400004]}, {"species": [{"element": "Ni", "occu": 1}], "abc": [0.0, 0.6938700000000001, 0.19604000000000002], "properties": {"magmom": -0.0}, "label": "Ni", "xyz": [-2.27146046457, 3.934376816910001, -2.3994513800400004]}, {"species": [{"element": "Ni", "occu": 1}], "abc": [0.30612, 0.0, 0.696035], "properties": {"magmom": -0.0}, "label": "Ni", "xyz": [-1.0021526969999996, -1.7357793789600002, -8.519190682035]}, {"species": [{"element": "Ni", "occu": 1}], "abc": [0.6938700000000001, 0.6938700000000001, 0.6960400000000001], "properties": {"magmom": -0.0}, "label": "Ni", "xyz": [-4.54300003032, -4.510155000003735e-05, -8.519251880040002]}, {"species": [{"element": "Ni", "occu": 1}], "abc": [0.0, 0.30613, 0.6960400000000001], "properties": {"magmom": -0.0}, "label": "Ni", "xyz": [-1.00215053543, 1.73581618309, -8.519251880040002]}, {"species": [{"element": "Ni", "occu": 1}], "abc": [0.38494, 0.0, 0.088214], "properties": {"magmom": 0.0}, "label": "Ni", "xyz": [-1.2601877014999996, -2.18270911452, -1.079704162614]}, {"species": [{"element": "Ni", "occu": 1}], "abc": [0.61512, 0.615039, 0.088221], "properties": {"magmom": 0.0}, "label": "Ni", "xyz": [-4.027132157829, -0.0004992684330002994, -1.079789839821]}, {"species": [{"element": "Ni", "occu": 1}], "abc": [8.1e-05, 0.384961, 0.088221], "properties": {"magmom": 0.0}, "label": "Ni", "xyz": [-1.260477735896, 2.182343876575, -1.079789839821]}, {"species": [{"element": "Ni", "occu": 1}], "abc": [0.61506, 0.0, 0.588214], "properties": {"magmom": 0.0}, "label": "Ni", "xyz": [-2.0135372984999993, -3.4875488854800007, -7.199504662614]}, {"species": [{"element": "Ni", "occu": 1}], "abc": [0.38488000000000006, 0.384961, 0.588221], "properties": {"magmom": 0.0}, "label": "Ni", "xyz": [-2.520203842171, 0.00043426843299965157, -7.199590339821]}, {"species": [{"element": "Ni", "occu": 1}], "abc": [0.999919, 0.615039, 0.588221], "properties": {"magmom": 0.0}, "label": "Ni", "xyz": [-5.286858264103999, -2.1824088765750003, -7.199590339821]}, {"species": [{"element": "P", "occu": 1}], "abc": [8e-06, 0.0, 0.268509], "properties": {"magmom": -0.0}, "label": "P", "xyz": [-2.618979999999999e-05, -4.5362064e-05, -3.286443024909]}, {"species": [{"element": "P", "occu": 1}], "abc": [0.999992, 0.0, 0.768509], "properties": {"magmom": -0.0}, "label": "P", "xyz": [-3.2736988101999986, -5.670212637936, -9.406243524909]}, {"species": [{"element": "P", "occu": 1}], "abc": [0.6666700000000001, 0.333331, 0.232047], "properties": {"magmom": -0.0}, "label": "P", "xyz": [-3.2736902739909994, -1.890139797977001, -2.840162693247]}, {"species": [{"element": "P", "occu": 1}], "abc": [0.333339, 0.666669, 0.232047], "properties": {"magmom": -0.0}, "label": "P", "xyz": [-3.273675189533999, 1.8900237656549996, -2.840162693247]}, {"species": [{"element": "P", "occu": 1}], "abc": [0.33333, 0.666669, 0.732047], "properties": {"magmom": -0.0}, "label": "P", "xyz": [-3.2736457260089993, 1.8900747979769996, -8.959963193247]}, {"species": [{"element": "P", "occu": 1}], "abc": [0.666661, 0.333331, 0.732047], "properties": {"magmom": -0.0}, "label": "P", "xyz": [-3.2736608104659988, -1.8900887656549998, -8.959963193247]}, {"species": [{"element": "P", "occu": 1}], "abc": [0.324818999999999, 0.0, 0.502324], "properties": {"magmom": -0.0}, "label": "P", "xyz": [-1.0633680807749963, -1.8418075333019945, -6.1482453327240005]}, {"species": [{"element": "P", "occu": 1}], "abc": [0.675159, 0.675157, 0.502325999999999], "properties": {"magmom": -0.0}, "label": "P", "xyz": [-4.420486279201999, -5.522572099980749e-05, -6.148269811925989]}, {"species": [{"element": "P", "occu": 1}], "abc": [2e-06, 0.324843, 0.502325999999999], "properties": {"magmom": -0.0}, "label": "P", "xyz": [-1.063416165523, 1.841911164183, -6.148269811925989]}, {"species": [{"element": "P", "occu": 1}], "abc": [0.675180999999999, 0.0, 0.002324], "properties": {"magmom": -0.0}, "label": "P", "xyz": [-2.210356919224996, -3.8284504666979946, -0.028444832724000002]}, {"species": [{"element": "P", "occu": 1}], "abc": [0.324841, 0.324843, 0.002326], "properties": {"magmom": -0.0}, "label": "P", "xyz": [-2.1268497207979995, -9.774279000174246e-06, -0.028469311926]}, {"species": [{"element": "P", "occu": 1}], "abc": [0.999997999999999, 0.675157, 0.002326], "properties": {"magmom": -0.0}, "label": "P", "xyz": [-5.483919834476996, -1.841976164182995, -0.028469311926]}]}, "task_ids": null, "uncorrected_energy_per_atom": null, "energy_per_atom": -11.576029459166667, "formation_energy_per_atom": -0.44563825573129, "energy_above_hull": 0.016759994523807, "is_stable": false, "equilibrium_reaction_energy_per_atom": null, "decomposes_to": null, "xas": null, "grain_boundaries": null, "band_gap": 0.011300000000000001, "cbm": null, "vbm": null, "efermi": 9.98704438, "is_gap_direct": null, "is_metal": null, "es_source_calc_id": null, "bandstructure": null, "dos": null, "dos_energy_up": null, "dos_energy_down": null, "is_magnetic": null, "ordering": null, "total_magnetization": 0.0012222, "total_magnetization_normalized_vol": null, "total_magnetization_normalized_formula_units": null, "num_magnetic_sites": null, "num_unique_magnetic_sites": null, "types_of_magnetic_species": null, "bulk_modulus": null, "shear_modulus": null, "universal_anisotropy": null, "homogeneous_poisson": null, "e_total": null, "e_ionic": null, "e_electronic": null, "n": null, "e_ij_max": null, "weighted_surface_energy_EV_PER_ANG2": null, "weighted_surface_energy": null, "weighted_work_function": null, "surface_anisotropy": null, "shape_factor": null, "has_reconstructed": null, "possible_species": null, "has_props": null, "theoretical": null, "database_IDs": null, "fields_not_requested": ["builder_meta", "nsites", "elements", "nelements", "composition", "composition_reduced", "chemsys", "symmetry", "property_name", "deprecated", "deprecation_reasons", "last_updated", "origins", "warnings", "task_ids", "uncorrected_energy_per_atom", "equilibrium_reaction_energy_per_atom", "decomposes_to", "xas", "grain_boundaries", "cbm", "vbm", "is_gap_direct", "is_metal", "es_source_calc_id", "bandstructure", "dos", "dos_energy_up", "dos_energy_down", "is_magnetic", "ordering", "total_magnetization_normalized_vol", "total_magnetization_normalized_formula_units", "num_magnetic_sites", "num_unique_magnetic_sites", "types_of_magnetic_species", "bulk_modulus", "shear_modulus", "universal_anisotropy", "homogeneous_poisson", "e_total", "e_ionic", "e_electronic", "n", "e_ij_max", "weighted_surface_energy_EV_PER_ANG2", "weighted_surface_energy", "weighted_work_function", "surface_anisotropy", "shape_factor", "has_reconstructed", "possible_species", "has_props", "theoretical", "database_IDs"]}