{"builder_meta": null, "nsites": null, "elements": null, "nelements": null, "composition": null, "composition_reduced": null, "formula_pretty": "Ni5Sb2", "formula_anonymous": "A2B5", "chemsys": null, "volume": 186.09934951449318, "density": 9.582923251291543, "density_atomic": 13.292810679606657, "symmetry": null, "property_name": null, "material_id": "mp-2409", "deprecated": null, "deprecation_reasons": null, "last_updated": null, "origins": null, "warnings": null, "structure": {"@module": "pymatgen.core.structure", "@class": "Structure", "charge": 0, "lattice": {"matrix": [[4.97746496, 0.0, -2.08663746], [-1.09688969, 5.37351095, -2.6165225], [-0.0070237400000000005, -0.0040782200000000005, 6.96318444]], "pbc": [true, true, true], "a": 5.397148628442897, "b": 6.076510257936248, "c": 6.963189176681908, "alpha": 115.52670865300342, "beta": 112.80204489825115, "gamma": 89.99999324509952, "volume": 186.09934951449318}, "properties": {}, "sites": [{"species": [{"element": "Ni", "occu": 1}], "abc": [0.75226801, 0.0, 0.0], "properties": {"magmom": 0.0}, "label": "Ni", "xyz": [3.7443876603039294, 0.0, -1.5697106096256546]}, {"species": [{"element": "Ni", "occu": 1}], "abc": [0.2510564, 0.0, 0.0], "properties": {"magmom": 0.0}, "label": "Ni", "xyz": [1.2496244339837441, 0.0, -0.523863688812744]}, {"species": [{"element": "Ni", "occu": 1}], "abc": [0.37369995, 0.149533399999999, 0.74407716], "properties": {"magmom": 0.0}, "label": "Ni", "xyz": [1.6908305573963287, 0.8004848519352695, 4.010112682599766]}, {"species": [{"element": "Ni", "occu": 1}], "abc": [0.62962279, 0.8504666, 0.25592284], "properties": {"magmom": 0.0}, "label": "Ni", "xyz": [2.1992597945248624, 4.568947878064725, -1.7570215563536038]}, {"species": [{"element": "Ni", "occu": 1}], "abc": [0.8984276, 0.59589781, 0.79383769], "properties": {"magmom": -0.0}, "label": "Ni", "xyz": [3.812682024477556, 3.1988259623719077, 2.093765538069923]}, {"species": [{"element": "Ni", "occu": 1}], "abc": [0.10458891000000001, 0.40410219000000003, 0.20616231000000002], "properties": {"magmom": -0.0}, "label": "Ni", "xyz": [0.07588407834893306, 2.1706067676280925, 0.1599645791656128]}, {"species": [{"element": "Ni", "occu": 1}], "abc": [0.52249669, 0.74136545, 0.5400618500000001], "properties": {"magmom": 0.0}, "label": "Ni", "xyz": [1.7837195935454528, 3.9815328724887706, 0.7304897238299821]}, {"species": [{"element": "Ni", "occu": 1}], "abc": [0.98243484, 0.25863455, 0.45993815], "properties": {"magmom": 0.0}, "label": "Ni", "xyz": [4.603110934228736, 1.3878998575112296, 0.4759257109369046]}, {"species": [{"element": "Ni", "occu": 1}], "abc": [0.02084962, 0.741478899999999, 0.54010305], "properties": {"magmom": -0.0}, "label": "Ni", "xyz": [-0.7133358511796318, 3.982142329283379, 1.7772353305125295]}, {"species": [{"element": "Ni", "occu": 1}], "abc": [0.48074657, 0.2585211, 0.45989695], "properties": {"magmom": -0.0}, "label": "Ni", "xyz": [2.1060998809741354, 1.387290400716616, 1.5227772096401964]}, {"species": [{"element": "Sb", "occu": 1}], "abc": [0.87504188, 0.15011598, 0.74674694], "properties": {"magmom": 0.0}, "label": "Sb", "xyz": [4.185584669113923, 0.8036044639943343, 2.9810596680692387]}, {"species": [{"element": "Sb", "occu": 1}], "abc": [0.12829494, 0.84988402, 0.25325306000000003], "properties": {"magmom": 0.0}, "label": "Sb", "xyz": [-0.2954242344860958, 4.565828266005666, -0.7279979216785153]}, {"species": [{"element": "Sb", "occu": 1}], "abc": [0.39810155, 0.5988799, 0.79303229], "properties": {"magmom": 0.0}, "label": "Sb", "xyz": [1.3190612751718924, 3.2148535402391816, 3.1243537618837545]}, {"species": [{"element": "Sb", "occu": 1}], "abc": [0.60506926, 0.4011201, 0.20696771], "properties": {"magmom": 0.0}, "label": "Sb", "xyz": [2.5702728504979255, 2.1545791897608186, -0.8709456128082973]}]}, "task_ids": null, "uncorrected_energy_per_atom": null, "energy_per_atom": -16.024049410714287, "formation_energy_per_atom": -0.12101837357142801, "energy_above_hull": 0.024253112142854003, "is_stable": false, "equilibrium_reaction_energy_per_atom": null, "decomposes_to": null, "xas": null, "grain_boundaries": null, "band_gap": 0.0, "cbm": null, "vbm": null, "efermi": 9.75994977, "is_gap_direct": null, "is_metal": null, "es_source_calc_id": null, "bandstructure": null, "dos": null, "dos_energy_up": null, "dos_energy_down": null, "is_magnetic": null, "ordering": null, "total_magnetization": 1e-07, "total_magnetization_normalized_vol": null, "total_magnetization_normalized_formula_units": null, "num_magnetic_sites": null, "num_unique_magnetic_sites": null, "types_of_magnetic_species": null, "bulk_modulus": null, "shear_modulus": null, "universal_anisotropy": null, "homogeneous_poisson": null, "e_total": null, "e_ionic": null, "e_electronic": null, "n": null, "e_ij_max": null, "weighted_surface_energy_EV_PER_ANG2": null, "weighted_surface_energy": null, "weighted_work_function": null, "surface_anisotropy": null, "shape_factor": null, "has_reconstructed": null, "possible_species": null, "has_props": null, "theoretical": null, "database_IDs": null, "fields_not_requested": ["builder_meta", "nsites", "elements", "nelements", "composition", "composition_reduced", "chemsys", "symmetry", "property_name", "deprecated", "deprecation_reasons", "last_updated", "origins", "warnings", "task_ids", "uncorrected_energy_per_atom", "equilibrium_reaction_energy_per_atom", "decomposes_to", "xas", "grain_boundaries", "cbm", "vbm", "is_gap_direct", "is_metal", "es_source_calc_id", "bandstructure", "dos", "dos_energy_up", "dos_energy_down", "is_magnetic", "ordering", "total_magnetization_normalized_vol", "total_magnetization_normalized_formula_units", "num_magnetic_sites", "num_unique_magnetic_sites", "types_of_magnetic_species", "bulk_modulus", "shear_modulus", "universal_anisotropy", "homogeneous_poisson", "e_total", "e_ionic", "e_electronic", "n", "e_ij_max", "weighted_surface_energy_EV_PER_ANG2", "weighted_surface_energy", "weighted_work_function", "surface_anisotropy", "shape_factor", "has_reconstructed", "possible_species", "has_props", "theoretical", "database_IDs"]}