{
  "builder_meta": null,
  "nsites": null,
  "elements": null,
  "nelements": null,
  "composition": null,
  "composition_reduced": null,
  "formula_pretty": "Ni6O7",
  "formula_anonymous": "A6B7",
  "chemsys": null,
  "volume": 250.6962229455596,
  "density": 6.148872081506998,
  "density_atomic": 9.642162420983063,
  "symmetry": null,
  "property_name": null,
  "material_id": "mp-766450",
  "deprecated": null,
  "deprecation_reasons": null,
  "last_updated": null,
  "origins": null,
  "warnings": null,
  "structure": {
    "@module": "pymatgen.core.structure",
    "@class": "Structure",
    "charge": 0,
    "lattice": {
      "matrix": [
        [-4.377653, -2.561401, 0.020808999999999002],
        [0.00587, 3.366116, 4.744869],
        [-2.933214, 6.895796, -4.864309]
      ],
      "pbc": [true, true, true],
      "a": 5.071987173257736,
      "b": 5.817607172155662,
      "c": 8.934049971367578,
      "alpha": 89.87397370402695,
      "beta": 96.23778937141157,
      "gamma": 106.8416302693351,
      "volume": 250.6962229455596
    },
    "properties": {},
    "sites": [
      {
        "species": [{ "element": "Ni", "occu": 1 }],
        "abc": [0.856553999999999, 0.21404, 0.713140999999999],
        "properties": { "magmom": 1.755 },
        "label": "Ni",
        "xyz": [-5.840234938135993, 3.4441800517219954, -2.435522391622997]
      },
      {
        "species": [{ "element": "Ni", "occu": 1 }],
        "abc": [0.845522999999999, 0.710727, 0.711374],
        "properties": { "magmom": 1.405 },
        "label": "Ni",
        "xyz": [-5.783846506064995, 5.132156052313002, -0.07044195269600095]
      },
      {
        "species": [{ "element": "Ni", "occu": 1 }],
        "abc": [0.716773, 0.430734, 0.42449000000000003],
        "properties": { "magmom": 1.763 },
        "label": "Ni",
        "xyz": [-4.380375076049, 2.5411539742110003, -0.006158794207001161]
      },
      {
        "species": [{ "element": "Ni", "occu": 1 }],
        "abc": [0.426083999999999, 0.8549800000000001, 0.861224],
        "properties": { "magmom": 1.763 },
        "label": "Ni",
        "xyz": [-4.386383462187996, 7.725414888300002, -0.12362517464000078]
      },
      {
        "species": [{ "element": "Ni", "occu": 1 }],
        "abc": [0.571429, 0.142856999999999, 0.142856999999999],
        "properties": { "magmom": 1.778 },
        "label": "Ni",
        "xyz": [
          -2.9197094579449967, 0.0023271505549899985, -0.0051719740190006025
        ]
      },
      {
        "species": [{ "element": "Ni", "occu": 1 }],
        "abc": [0.571429, 0.642857, 0.142856999999999],
        "properties": { "magmom": 1.734 },
        "label": "Ni",
        "xyz": [-2.916774457944997, 1.685385150554993, 2.367262525981004]
      },
      {
        "species": [{ "element": "Ni", "occu": 1 }],
        "abc": [0.286303, 0.071674, 0.572574],
        "properties": { "magmom": 1.755 },
        "label": "Ni",
        "xyz": [-2.932396533315, 3.4562797065849997, -2.4391354415330007]
      },
      {
        "species": [{ "element": "Ni", "occu": 1 }],
        "abc": [0.297334999999999, 0.574987999999999, 0.5743400000000001],
        "properties": { "magmom": 1.405 },
        "label": "Ni",
        "xyz": [-2.982916403954996, 5.134413614912999, -0.05933725047300609]
      },
      {
        "species": [{ "element": "Ni", "occu": 1 }],
        "abc": [0.131029, 0.278744999999999, 0.288781],
        "properties": { "magmom": 1.42 },
        "label": "Ni",
        "xyz": [-1.419019733921, 2.594045057466997, -0.07938492546300502]
      },
      {
        "species": [{ "element": "Ni", "occu": 1 }],
        "abc": [0.148043999999999, 0.789623, 0.29024],
        "properties": { "magmom": 1.776 },
        "label": "Ni",
        "xyz": [-1.4947862050819956, 4.280198395664002, 2.337921297822999]
      },
      {
        "species": [{ "element": "Ni", "occu": 1 }],
        "abc": [0.011828, 0.006968999999999, 0.996933],
        "properties": { "magmom": 1.42 },
        "label": "Ni",
        "xyz": [-2.975955804316, 6.867808805043996, -4.816077043384006]
      },
      {
        "species": [{ "element": "Ni", "occu": 1 }],
        "abc": [0.994813, 0.496091, 0.995475],
        "properties": { "magmom": 1.776 },
        "label": "Ni",
        "xyz": [-7.271975266368999, 5.986377362643, -2.4677101309790013]
      },
      {
        "species": [{ "element": "O", "occu": 1 }],
        "abc": [0.034548999999999004, 0.738127, 0.504833],
        "properties": { "magmom": 0.028 },
        "label": "O",
        "xyz": [-1.6276939512689956, 5.877352643651002, 1.047371145106999]
      },
      {
        "species": [{ "element": "O", "occu": 1 }],
        "abc": [0.736428, 0.166196999999999, 0.931249],
        "properties": { "magmom": 0.018000000000000002 },
        "label": "O",
        "xyz": [-5.9544032713799995, 5.094854094427996, -3.7259755684960063]
      },
      {
        "species": [{ "element": "O", "occu": 1 }],
        "abc": [0.736287999999999, 0.704195999999999, 0.940566999999999],
        "properties": { "magmom": -0.02 },
        "label": "O",
        "xyz": [-5.977964033881992, 6.970434759579992, -1.218569335887001]
      },
      {
        "species": [{ "element": "O", "occu": 1 }],
        "abc": [0.861788, 0.459663, 0.217288999999999],
        "properties": { "magmom": 0.084 },
        "label": "O",
        "xyz": [-4.407265738599997, 0.8382749509639928, 1.1420128273380035]
      },
      {
        "species": [{ "element": "O", "occu": 1 }],
        "abc": [0.873687999999999, 0.973432, 0.203327999999999],
        "properties": { "magmom": 0.016 },
        "label": "O",
        "xyz": [-4.415393384615992, 2.4409281223119956, 3.647937673648003]
      },
      {
        "species": [{ "element": "O", "occu": 1 }],
        "abc": [0.580141999999999, 0.411647, 0.628906],
        "properties": { "magmom": -0.04 },
        "label": "O",
        "xyz": [-4.381959882719995, 4.236482733286002, -1.093909851833001]
      },
      {
        "species": [{ "element": "O", "occu": 1 }],
        "abc": [0.562715, 0.874066999999999, 0.656808],
        "properties": { "magmom": -0.04 },
        "label": "O",
        "xyz": [-4.384798655517, 6.030086129224996, 0.9641258829859942]
      },
      {
        "species": [{ "element": "O", "occu": 1 }],
        "abc": [0.406429, 0.119517, 0.354465],
        "properties": { "magmom": 0.018000000000000002 },
        "label": "O",
        "xyz": [-2.8182252668569996, 1.8055987680829997, -1.1486774003510005]
      },
      {
        "species": [{ "element": "O", "occu": 1 }],
        "abc": [0.406568999999999, 0.581518, 0.345147],
        "properties": { "magmom": -0.02 },
        "label": "O",
        "xyz": [-2.7887945043549953, 3.296134102931002, 1.0887853670399992]
      },
      {
        "species": [{ "element": "O", "occu": 1 }],
        "abc": [0.113844, 0.006863999999999, 0.775976999999999],
        "properties": { "magmom": 0.006 },
        "label": "O",
        "xyz": [-2.774435836529997, 5.08248397747199, -3.7396541442810007]
      },
      {
        "species": [{ "element": "O", "occu": 1 }],
        "abc": [0.108308, 0.547586999999999, 0.780880999999999],
        "properties": { "magmom": 0.028 },
        "label": "O",
        "xyz": [-2.761411586967997, 6.95061721885999, -1.1979641139540003]
      },
      {
        "species": [{ "element": "O", "occu": 1 }],
        "abc": [0.26917, 0.312282, 0.082386],
        "properties": { "magmom": 0.016 },
        "label": "O",
        "xyz": [-1.4181555312739997, 0.9298421787979999, 1.0865873783139994]
      },
      {
        "species": [{ "element": "O", "occu": 1 }],
        "abc": [0.281069, 0.826051, 0.068425],
        "properties": { "magmom": 0.084 },
        "label": "O",
        "xyz": [-1.4262787996369999, 2.5324979115469994, 3.5925122038149992]
      },
      {
        "species": [{ "element": "O", "occu": 1 }],
        "abc": [0.029013999999999002, 0.27885000000000004, 0.509737],
        "properties": { "magmom": 0.006 },
        "label": "O",
        "xyz": [-1.6205440793599957, 4.379367323638003, -1.1558078037570003]
      }
    ]
  },
  "task_ids": null,
  "uncorrected_energy_per_atom": null,
  "energy_per_atom": -6.400953059615384,
  "formation_energy_per_atom": -1.068910973846152,
  "energy_above_hull": 0.05691689423077,
  "is_stable": false,
  "equilibrium_reaction_energy_per_atom": null,
  "decomposes_to": null,
  "xas": null,
  "grain_boundaries": null,
  "band_gap": 0.0,
  "cbm": null,
  "vbm": null,
  "efermi": 4.97940223,
  "is_gap_direct": null,
  "is_metal": null,
  "es_source_calc_id": null,
  "bandstructure": null,
  "dos": null,
  "dos_energy_up": null,
  "dos_energy_down": null,
  "is_magnetic": null,
  "ordering": null,
  "total_magnetization": 19.9999234,
  "total_magnetization_normalized_vol": null,
  "total_magnetization_normalized_formula_units": null,
  "num_magnetic_sites": null,
  "num_unique_magnetic_sites": null,
  "types_of_magnetic_species": null,
  "bulk_modulus": null,
  "shear_modulus": null,
  "universal_anisotropy": null,
  "homogeneous_poisson": null,
  "e_total": null,
  "e_ionic": null,
  "e_electronic": null,
  "n": null,
  "e_ij_max": null,
  "weighted_surface_energy_EV_PER_ANG2": null,
  "weighted_surface_energy": null,
  "weighted_work_function": null,
  "surface_anisotropy": null,
  "shape_factor": null,
  "has_reconstructed": null,
  "possible_species": null,
  "has_props": null,
  "theoretical": null,
  "database_IDs": null,
  "fields_not_requested": [
    "builder_meta",
    "nsites",
    "elements",
    "nelements",
    "composition",
    "composition_reduced",
    "chemsys",
    "symmetry",
    "property_name",
    "deprecated",
    "deprecation_reasons",
    "last_updated",
    "origins",
    "warnings",
    "task_ids",
    "uncorrected_energy_per_atom",
    "equilibrium_reaction_energy_per_atom",
    "decomposes_to",
    "xas",
    "grain_boundaries",
    "cbm",
    "vbm",
    "is_gap_direct",
    "is_metal",
    "es_source_calc_id",
    "bandstructure",
    "dos",
    "dos_energy_up",
    "dos_energy_down",
    "is_magnetic",
    "ordering",
    "total_magnetization_normalized_vol",
    "total_magnetization_normalized_formula_units",
    "num_magnetic_sites",
    "num_unique_magnetic_sites",
    "types_of_magnetic_species",
    "bulk_modulus",
    "shear_modulus",
    "universal_anisotropy",
    "homogeneous_poisson",
    "e_total",
    "e_ionic",
    "e_electronic",
    "n",
    "e_ij_max",
    "weighted_surface_energy_EV_PER_ANG2",
    "weighted_surface_energy",
    "weighted_work_function",
    "surface_anisotropy",
    "shape_factor",
    "has_reconstructed",
    "possible_species",
    "has_props",
    "theoretical",
    "database_IDs"
  ]
}
