{"builder_meta": null, "nsites": null, "elements": null, "nelements": null, "composition": null, "composition_reduced": null, "formula_pretty": "Ni6Se5", "formula_anonymous": "A5B6", "chemsys": null, "volume": 1378.8935873590349, "density": 7.196244506604987, "density_atomic": 15.669245310898123, "symmetry": null, "property_name": null, "material_id": "mp-568251", "deprecated": null, "deprecation_reasons": null, "last_updated": null, "origins": null, "warnings": null, "structure": {"@module": "pymatgen.core.structure", "@class": "Structure", "charge": 0, "lattice": {"matrix": [[6.861563, 0.0, 0.0], [0.0, 11.812285, 0.0], [0.0, 0.0, 17.012721]], "pbc": [true, true, true], "a": 6.861563, "b": 11.812285, "c": 17.012721, "alpha": 90.0, "beta": 90.0, "gamma": 90.0, "volume": 1378.8935873590349}, "properties": {}, "sites": [{"species": [{"element": "Ni", "occu": 1}], "abc": [0.127153, 0.653478, 0.004181], "properties": {"magmom": -0.001}, "label": "Ni", "xyz": [0.872468320139, 7.719068377229999, 0.07113018650099999]}, {"species": [{"element": "Ni", "occu": 1}], "abc": [0.614256, 0.458904999999999, 0.924144], "properties": {"magmom": -0.002}, "label": "Ni", "xyz": [4.214756242128001, 5.420716647924988, 15.722204035824]}, {"species": [{"element": "Ni", "occu": 1}], "abc": [0.865923999999999, 0.962131, 0.07206], "properties": {"magmom": -0.003}, "label": "Ni", "xyz": [5.941592079211993, 11.364965579335, 1.2259366752599998]}, {"species": [{"element": "Ni", "occu": 1}], "abc": [0.376704, 0.283175, 0.880042999999999], "properties": {"magmom": -0.004}, "label": "Ni", "xyz": [2.584778228352, 3.3449438048749998, 14.971926027002983]}, {"species": [{"element": "Ni", "occu": 1}], "abc": [0.370758, 0.727787, 0.622937], "properties": {"magmom": -0.014}, "label": "Ni", "xyz": [2.543979374754, 8.596827463294998, 10.597853381576998]}, {"species": [{"element": "Ni", "occu": 1}], "abc": [0.139247999999999, 0.192472, 0.779436999999999], "properties": {"magmom": -0.007}, "label": "Ni", "xyz": [0.9554589246239933, 2.2735341185199998, 13.260344218076984]}, {"species": [{"element": "Ni", "occu": 1}], "abc": [0.366871, 0.042474, 0.569549], "properties": {"magmom": -0.002}, "label": "Ni", "xyz": [2.5173084793730003, 0.5017149930899999, 9.689578232829]}, {"species": [{"element": "Ni", "occu": 1}], "abc": [0.372847, 0.153478, 0.004181], "properties": {"magmom": -0.001}, "label": "Ni", "xyz": [2.558313179861, 1.8129258772299999, 0.07113018650099999]}, {"species": [{"element": "Ni", "occu": 1}], "abc": [0.133129, 0.542474, 0.569549], "properties": {"magmom": -0.001}, "label": "Ni", "xyz": [0.913473020627, 6.40785749309, 9.689578232829]}, {"species": [{"element": "Ni", "occu": 1}], "abc": [0.36592399999999903, 0.962131, 0.9279400000000001], "properties": {"magmom": -0.003}, "label": "Ni", "xyz": [2.5108105792119932, 11.364965579335, 15.786784324740001]}, {"species": [{"element": "Ni", "occu": 1}], "abc": [0.612991, 0.354958999999999, 0.505088], "properties": {"magmom": -0.006}, "label": "Ni", "xyz": [4.206076364933, 4.192876871314988, 8.592921224447998]}, {"species": [{"element": "Ni", "occu": 1}], "abc": [0.378416, 0.326513, 0.275576999999999], "properties": {"magmom": -0.008}, "label": "Ni", "xyz": [2.596525224208, 3.856864612205, 4.688314615016983]}, {"species": [{"element": "Ni", "occu": 1}], "abc": [0.633128999999999, 0.542474, 0.430451], "properties": {"magmom": -0.001}, "label": "Ni", "xyz": [4.344254520626993, 6.40785749309, 7.323142767170999]}, {"species": [{"element": "Ni", "occu": 1}], "abc": [0.360751999999999, 0.692472, 0.779436999999999], "properties": {"magmom": -0.006}, "label": "Ni", "xyz": [2.4753225753759933, 8.179676618519998, 13.260344218076984]}, {"species": [{"element": "Ni", "occu": 1}], "abc": [0.878416, 0.326513, 0.724422999999999], "properties": {"magmom": -0.008}, "label": "Ni", "xyz": [6.0273067242080005, 3.856864612205, 12.324406384982982]}, {"species": [{"element": "Ni", "occu": 1}], "abc": [0.127107, 0.990035999999999, 0.724407999999999], "properties": {"magmom": -0.007}, "label": "Ni", "xyz": [0.872152688241, 11.694587392259988, 12.324151194167984]}, {"species": [{"element": "Ni", "occu": 1}], "abc": [0.887008999999999, 0.854958999999999, 0.505088], "properties": {"magmom": -0.006}, "label": "Ni", "xyz": [6.086268135066994, 10.099019371314988, 8.592921224447998]}, {"species": [{"element": "Ni", "occu": 1}], "abc": [0.621584, 0.826512999999999, 0.724422999999999], "properties": {"magmom": -0.007}, "label": "Ni", "xyz": [4.265037775792, 9.763007112204988, 12.324406384982982]}, {"species": [{"element": "Ni", "occu": 1}], "abc": [0.108126, 0.550472, 0.422377], "properties": {"magmom": -0.0}, "label": "Ni", "xyz": [0.741913360938, 6.502332148519999, 7.185782057817]}, {"species": [{"element": "Ni", "occu": 1}], "abc": [0.891874, 0.050471999999999004, 0.577623], "properties": {"magmom": -0.001}, "label": "Ni", "xyz": [6.119649639062, 0.5961896485199882, 9.826938942183]}, {"species": [{"element": "Ni", "occu": 1}], "abc": [0.129242, 0.227787, 0.622937], "properties": {"magmom": -0.014}, "label": "Ni", "xyz": [0.886802125246, 2.690684963295, 10.597853381576998]}, {"species": [{"element": "Ni", "occu": 1}], "abc": [0.391874, 0.050471999999999004, 0.422377], "properties": {"magmom": -0.001}, "label": "Ni", "xyz": [2.688868139062, 0.5961896485199882, 7.185782057817]}, {"species": [{"element": "Ni", "occu": 1}], "abc": [0.108086999999999, 0.188674999999999, 0.223352], "properties": {"magmom": -0.001}, "label": "Ni", "xyz": [0.7416457599809932, 2.2286828723749883, 3.799825260792]}, {"species": [{"element": "Ni", "occu": 1}], "abc": [0.891913, 0.688674999999999, 0.776648], "properties": {"magmom": -0.001}, "label": "Ni", "xyz": [6.119917240019, 8.134825372374989, 13.212895739208]}, {"species": [{"element": "Ni", "occu": 1}], "abc": [0.639247999999999, 0.192472, 0.220562999999999], "properties": {"magmom": -0.007}, "label": "Ni", "xyz": [4.386240424623994, 2.2735341185199998, 3.7523767819229827]}, {"species": [{"element": "Ni", "occu": 1}], "abc": [0.372893, 0.49003599999999903, 0.724407999999999], "properties": {"magmom": -0.007}, "label": "Ni", "xyz": [2.558628811759, 5.788444892259988, 12.324151194167984]}, {"species": [{"element": "Ni", "occu": 1}], "abc": [0.385744, 0.958905, 0.07585599999999901], "properties": {"magmom": -0.002}, "label": "Ni", "xyz": [2.646806757872, 11.326859147925, 1.290516964175983]}, {"species": [{"element": "Ni", "occu": 1}], "abc": [0.860752, 0.692472, 0.220562999999999], "properties": {"magmom": -0.005}, "label": "Ni", "xyz": [5.906104075376, 8.179676618519998, 3.7523767819229827]}, {"species": [{"element": "Ni", "occu": 1}], "abc": [0.123295999999999, 0.783175, 0.880042999999999], "properties": {"magmom": -0.003}, "label": "Ni", "xyz": [0.8460032716479932, 9.251086304874999, 14.971926027002983]}, {"species": [{"element": "Ni", "occu": 1}], "abc": [0.6081259999999991, 0.550472, 0.577623], "properties": {"magmom": -0.001}, "label": "Ni", "xyz": [4.172694860937994, 6.502332148519999, 9.826938942183]}, {"species": [{"element": "Ni", "occu": 1}], "abc": [0.885744, 0.958905, 0.924144], "properties": {"magmom": -0.002}, "label": "Ni", "xyz": [6.077588257872, 11.326859147925, 15.722204035824]}, {"species": [{"element": "Ni", "occu": 1}], "abc": [0.623296, 0.783175, 0.119957], "properties": {"magmom": -0.003}, "label": "Ni", "xyz": [4.276784771648, 9.251086304874999, 2.040794972997]}, {"species": [{"element": "Ni", "occu": 1}], "abc": [0.134076, 0.462130999999999, 0.9279400000000001], "properties": {"magmom": -0.003}, "label": "Ni", "xyz": [0.919970920788, 5.458823079334988, 15.786784324740001]}, {"species": [{"element": "Ni", "occu": 1}], "abc": [0.876703999999999, 0.283175, 0.119957], "properties": {"magmom": -0.004}, "label": "Ni", "xyz": [6.0155597283519935, 3.3449438048749998, 2.040794972997]}, {"species": [{"element": "Ni", "occu": 1}], "abc": [0.627153, 0.653478, 0.995819], "properties": {"magmom": -0.001}, "label": "Ni", "xyz": [4.3032498201389995, 7.719068377229999, 16.941590813498998]}, {"species": [{"element": "Ni", "occu": 1}], "abc": [0.112991, 0.354958999999999, 0.494911999999999], "properties": {"magmom": -0.006}, "label": "Ni", "xyz": [0.775294864933, 4.192876871314988, 8.419799775551983]}, {"species": [{"element": "Ni", "occu": 1}], "abc": [0.872892999999999, 0.49003599999999903, 0.275592], "properties": {"magmom": -0.007}, "label": "Ni", "xyz": [5.989410311758993, 5.788444892259988, 4.688569805832]}, {"species": [{"element": "Ni", "occu": 1}], "abc": [0.870757999999999, 0.727787, 0.377063], "properties": {"magmom": -0.013000000000000001}, "label": "Ni", "xyz": [5.9747608747539935, 8.596827463294998, 6.414867618422999]}, {"species": [{"element": "Ni", "occu": 1}], "abc": [0.608086999999999, 0.188674999999999, 0.776648], "properties": {"magmom": -0.001}, "label": "Ni", "xyz": [4.172427259980994, 2.2286828723749883, 13.212895739208]}, {"species": [{"element": "Ni", "occu": 1}], "abc": [0.634076, 0.462130999999999, 0.07206], "properties": {"magmom": -0.003}, "label": "Ni", "xyz": [4.350752420788, 5.458823079334988, 1.2259366752599998]}, {"species": [{"element": "Ni", "occu": 1}], "abc": [0.114256, 0.458904999999999, 0.07585599999999901], "properties": {"magmom": -0.002}, "label": "Ni", "xyz": [0.783974742128, 5.420716647924988, 1.290516964175983]}, {"species": [{"element": "Ni", "occu": 1}], "abc": [0.627107, 0.990035999999999, 0.275592], "properties": {"magmom": -0.007}, "label": "Ni", "xyz": [4.302934188241, 11.694587392259988, 4.688569805832]}, {"species": [{"element": "Ni", "occu": 1}], "abc": [0.387009, 0.854958999999999, 0.494911999999999], "properties": {"magmom": -0.006}, "label": "Ni", "xyz": [2.655486635067, 10.099019371314988, 8.419799775551983]}, {"species": [{"element": "Ni", "occu": 1}], "abc": [0.121584, 0.826512999999999, 0.275576999999999], "properties": {"magmom": -0.007}, "label": "Ni", "xyz": [0.834256275792, 9.763007112204988, 4.688314615016983]}, {"species": [{"element": "Ni", "occu": 1}], "abc": [0.629242, 0.227787, 0.377063], "properties": {"magmom": -0.014}, "label": "Ni", "xyz": [4.317583625246, 2.690684963295, 6.414867618422999]}, {"species": [{"element": "Ni", "occu": 1}], "abc": [0.866871, 0.042474, 0.430451], "properties": {"magmom": -0.002}, "label": "Ni", "xyz": [5.948089979373, 0.5017149930899999, 7.323142767170999]}, {"species": [{"element": "Ni", "occu": 1}], "abc": [0.391912999999999, 0.688674999999999, 0.223352], "properties": {"magmom": -0.001}, "label": "Ni", "xyz": [2.6891357400189935, 8.134825372374989, 3.799825260792]}, {"species": [{"element": "Ni", "occu": 1}], "abc": [0.872846999999999, 0.153478, 0.995819], "properties": {"magmom": -0.001}, "label": "Ni", "xyz": [5.989094679860994, 1.8129258772299999, 16.941590813498998]}, {"species": [{"element": "Se", "occu": 1}], "abc": [0.110642999999999, 0.385623999999999, 0.203367], "properties": {"magmom": -0.001}, "label": "Se", "xyz": [0.7591839150089932, 4.555100590839988, 3.4598260316069998]}, {"species": [{"element": "Se", "occu": 1}], "abc": [0.127894, 0.625813, 0.692983], "properties": {"magmom": -0.001}, "label": "Se", "xyz": [0.8775527383220001, 7.392281512704999, 11.789526436743]}, {"species": [{"element": "Se", "occu": 1}], "abc": [0.872105999999999, 0.125813, 0.307017], "properties": {"magmom": -0.002}, "label": "Se", "xyz": [5.9840102616779935, 1.486139012705, 5.223194563257]}, {"species": [{"element": "Se", "occu": 1}], "abc": [0.873721, 0.130355, 0.701666], "properties": {"magmom": -0.0}, "label": "Se", "xyz": [5.995091685923, 1.5397904111749998, 11.937247893185999]}, {"species": [{"element": "Se", "occu": 1}], "abc": [0.629235, 0.114692999999999, 0.095582], "properties": {"magmom": -0.001}, "label": "Se", "xyz": [4.317535594305, 1.3547864035049881, 1.626109898622]}, {"species": [{"element": "Se", "occu": 1}], "abc": [0.625039, 0.152123999999999, 0.507218], "properties": {"magmom": -0.001}, "label": "Se", "xyz": [4.288744475957, 1.7969320433399882, 8.629158320177998]}, {"species": [{"element": "Se", "occu": 1}], "abc": [0.6175619999999991, 0.107446, 0.901072], "properties": {"magmom": -0.001}, "label": "Se", "xyz": [4.237440569405994, 1.26918277411, 15.329686536911998]}, {"species": [{"element": "Se", "occu": 1}], "abc": [0.633444, 0.905952, 0.599479], "properties": {"magmom": -0.001}, "label": "Se", "xyz": [4.346415912972001, 10.70136322032, 10.198768972359]}, {"species": [{"element": "Se", "occu": 1}], "abc": [0.370764999999999, 0.614692999999999, 0.9044179999999991], "properties": {"magmom": -0.001}, "label": "Se", "xyz": [2.5440274056949934, 7.260928903504988, 15.386611101377984]}, {"species": [{"element": "Se", "occu": 1}], "abc": [0.372106, 0.125813, 0.692983], "properties": {"magmom": -0.002}, "label": "Se", "xyz": [2.553228761678, 1.486139012705, 11.789526436743]}, {"species": [{"element": "Se", "occu": 1}], "abc": [0.133444, 0.905952, 0.400520999999999], "properties": {"magmom": -0.001}, "label": "Se", "xyz": [0.9156344129720001, 10.70136322032, 6.813952027640983]}, {"species": [{"element": "Se", "occu": 1}], "abc": [0.117562, 0.107446, 0.098928], "properties": {"magmom": -0.001}, "label": "Se", "xyz": [0.8066590694060001, 1.26918277411, 1.6830344630879999]}, {"species": [{"element": "Se", "occu": 1}], "abc": [0.626278999999999, 0.630355, 0.701666], "properties": {"magmom": -0.0}, "label": "Se", "xyz": [4.297252814076994, 7.4459329111749994, 11.937247893185999]}, {"species": [{"element": "Se", "occu": 1}], "abc": [0.356898, 0.385328, 0.599561999999999], "properties": {"magmom": -0.001}, "label": "Se", "xyz": [2.448878111574, 4.55160415448, 10.200181028201984]}, {"species": [{"element": "Se", "occu": 1}], "abc": [0.125038999999999, 0.152123999999999, 0.492782], "properties": {"magmom": -0.001}, "label": "Se", "xyz": [0.8579629759569932, 1.7969320433399882, 8.383562679821999]}, {"species": [{"element": "Se", "occu": 1}], "abc": [0.366556, 0.405952, 0.400520999999999], "properties": {"magmom": -0.001}, "label": "Se", "xyz": [2.515147087028, 4.79522072032, 6.813952027640983]}, {"species": [{"element": "Se", "occu": 1}], "abc": [0.627894, 0.625813, 0.307017], "properties": {"magmom": -0.001}, "label": "Se", "xyz": [4.308334238322, 7.392281512704999, 5.223194563257]}, {"species": [{"element": "Se", "occu": 1}], "abc": [0.882438, 0.607445999999999, 0.901072], "properties": {"magmom": -0.001}, "label": "Se", "xyz": [6.054903930594, 7.175325274109988, 15.329686536911998]}, {"species": [{"element": "Se", "occu": 1}], "abc": [0.610642999999999, 0.385623999999999, 0.796632999999999], "properties": {"magmom": -0.001}, "label": "Se", "xyz": [4.189965415008993, 4.555100590839988, 13.552894968392982]}, {"species": [{"element": "Se", "occu": 1}], "abc": [0.874961, 0.652123999999999, 0.507218], "properties": {"magmom": -0.001}, "label": "Se", "xyz": [6.003600024043, 7.703074543339988, 8.629158320177998]}, {"species": [{"element": "Se", "occu": 1}], "abc": [0.389357, 0.885624, 0.203367], "properties": {"magmom": -0.001}, "label": "Se", "xyz": [2.6715975849910003, 10.461243090839998, 3.4598260316069998]}, {"species": [{"element": "Se", "occu": 1}], "abc": [0.639254, 0.388161, 0.199713], "properties": {"magmom": -0.002}, "label": "Se", "xyz": [4.386281594002, 4.585068357885, 3.3976615490729998]}, {"species": [{"element": "Se", "occu": 1}], "abc": [0.866556, 0.405952, 0.599479], "properties": {"magmom": -0.001}, "label": "Se", "xyz": [5.945928587028, 4.79522072032, 10.198768972359]}, {"species": [{"element": "Se", "occu": 1}], "abc": [0.860746, 0.888161, 0.199713], "properties": {"magmom": -0.001}, "label": "Se", "xyz": [5.9060629059980005, 10.491210857885, 3.3976615490729998]}, {"species": [{"element": "Se", "occu": 1}], "abc": [0.143102, 0.885328, 0.599561999999999], "properties": {"magmom": -0.001}, "label": "Se", "xyz": [0.9819033884260001, 10.45774665448, 10.200181028201984]}, {"species": [{"element": "Se", "occu": 1}], "abc": [0.373720999999999, 0.130355, 0.298334], "properties": {"magmom": -0.001}, "label": "Se", "xyz": [2.5643101859229933, 1.5397904111749998, 5.075473106813999]}, {"species": [{"element": "Se", "occu": 1}], "abc": [0.125927999999999, 0.856028, 0.009987], "properties": {"magmom": -0.0}, "label": "Se", "xyz": [0.8640629054639932, 10.11164670398, 0.16990604462699999]}, {"species": [{"element": "Se", "occu": 1}], "abc": [0.856897999999999, 0.385328, 0.400437999999999], "properties": {"magmom": -0.001}, "label": "Se", "xyz": [5.879659611573993, 4.55160415448, 6.812539971797983]}, {"species": [{"element": "Se", "occu": 1}], "abc": [0.874072, 0.356028, 0.990012999999999], "properties": {"magmom": -0.0}, "label": "Se", "xyz": [5.997500094536, 4.2055042039799995, 16.842814955372983]}, {"species": [{"element": "Se", "occu": 1}], "abc": [0.625927999999999, 0.856028, 0.990012999999999], "properties": {"magmom": -0.0}, "label": "Se", "xyz": [4.294844405463993, 10.11164670398, 16.842814955372983]}, {"species": [{"element": "Se", "occu": 1}], "abc": [0.126279, 0.630355, 0.298334], "properties": {"magmom": -0.0}, "label": "Se", "xyz": [0.8664713140770001, 7.4459329111749994, 5.075473106813999]}, {"species": [{"element": "Se", "occu": 1}], "abc": [0.360746, 0.888161, 0.800287], "properties": {"magmom": -0.001}, "label": "Se", "xyz": [2.4752814059980004, 10.491210857885, 13.615059450927]}, {"species": [{"element": "Se", "occu": 1}], "abc": [0.374961, 0.652123999999999, 0.492782], "properties": {"magmom": -0.001}, "label": "Se", "xyz": [2.572818524043, 7.703074543339988, 8.383562679821999]}, {"species": [{"element": "Se", "occu": 1}], "abc": [0.129235, 0.114692999999999, 0.9044179999999991], "properties": {"magmom": -0.001}, "label": "Se", "xyz": [0.886754094305, 1.3547864035049881, 15.386611101377984]}, {"species": [{"element": "Se", "occu": 1}], "abc": [0.889357, 0.885624, 0.796632999999999], "properties": {"magmom": -0.001}, "label": "Se", "xyz": [6.102379084991, 10.461243090839998, 13.552894968392982]}, {"species": [{"element": "Se", "occu": 1}], "abc": [0.382438, 0.607445999999999, 0.098928], "properties": {"magmom": -0.001}, "label": "Se", "xyz": [2.6241224305940003, 7.175325274109988, 1.6830344630879999]}, {"species": [{"element": "Se", "occu": 1}], "abc": [0.870765, 0.614692999999999, 0.095582], "properties": {"magmom": -0.001}, "label": "Se", "xyz": [5.974808905695, 7.260928903504988, 1.626109898622]}, {"species": [{"element": "Se", "occu": 1}], "abc": [0.139254, 0.388161, 0.800287], "properties": {"magmom": -0.002}, "label": "Se", "xyz": [0.955500094002, 4.585068357885, 13.615059450927]}, {"species": [{"element": "Se", "occu": 1}], "abc": [0.374071999999999, 0.356028, 0.009987], "properties": {"magmom": -0.0}, "label": "Se", "xyz": [2.566718594535993, 4.2055042039799995, 0.16990604462699999]}, {"species": [{"element": "Se", "occu": 1}], "abc": [0.643102, 0.885328, 0.400437999999999], "properties": {"magmom": -0.001}, "label": "Se", "xyz": [4.412684888426, 10.45774665448, 6.812539971797983]}]}, "task_ids": null, "uncorrected_energy_per_atom": null, "energy_per_atom": -13.332132583181817, "formation_energy_per_atom": -0.291395845482952, "energy_above_hull": 0.018440948636364002, "is_stable": false, "equilibrium_reaction_energy_per_atom": null, "decomposes_to": null, "xas": null, "grain_boundaries": null, "band_gap": 0.0, "cbm": null, "vbm": null, "efermi": 6.38596055, "is_gap_direct": null, "is_metal": null, "es_source_calc_id": null, "bandstructure": null, "dos": null, "dos_energy_up": null, "dos_energy_down": null, "is_magnetic": null, "ordering": null, "total_magnetization": 0.5789232, "total_magnetization_normalized_vol": null, "total_magnetization_normalized_formula_units": null, "num_magnetic_sites": null, "num_unique_magnetic_sites": null, "types_of_magnetic_species": null, "bulk_modulus": null, "shear_modulus": null, "universal_anisotropy": null, "homogeneous_poisson": null, "e_total": null, "e_ionic": null, "e_electronic": null, "n": null, "e_ij_max": null, "weighted_surface_energy_EV_PER_ANG2": null, "weighted_surface_energy": null, "weighted_work_function": null, "surface_anisotropy": null, "shape_factor": null, "has_reconstructed": null, "possible_species": null, "has_props": null, "theoretical": null, "database_IDs": null, "fields_not_requested": ["builder_meta", "nsites", "elements", "nelements", "composition", "composition_reduced", "chemsys", "symmetry", "property_name", "deprecated", "deprecation_reasons", "last_updated", "origins", "warnings", "task_ids", "uncorrected_energy_per_atom", "equilibrium_reaction_energy_per_atom", "decomposes_to", "xas", "grain_boundaries", "cbm", "vbm", "is_gap_direct", "is_metal", "es_source_calc_id", "bandstructure", "dos", "dos_energy_up", "dos_energy_down", "is_magnetic", "ordering", "total_magnetization_normalized_vol", "total_magnetization_normalized_formula_units", "num_magnetic_sites", "num_unique_magnetic_sites", "types_of_magnetic_species", "bulk_modulus", "shear_modulus", "universal_anisotropy", "homogeneous_poisson", "e_total", "e_ionic", "e_electronic", "n", "e_ij_max", "weighted_surface_energy_EV_PER_ANG2", "weighted_surface_energy", "weighted_work_function", "surface_anisotropy", "shape_factor", "has_reconstructed", "possible_species", "has_props", "theoretical", "database_IDs"]}