{"builder_meta": null, "nsites": null, "elements": null, "nelements": null, "composition": null, "composition_reduced": null, "formula_pretty": "Ni7Ge4", "formula_anonymous": "A4B7", "chemsys": null, "volume": 135.67666759001386, "density": 8.584563856417164, "density_atomic": 12.33424250818308, "symmetry": null, "property_name": null, "material_id": "mp-1219825", "deprecated": null, "deprecation_reasons": null, "last_updated": null, "origins": null, "warnings": null, "structure": {"@module": "pymatgen.core.structure", "@class": "Structure", "charge": 0, "lattice": {"matrix": [[-1.984611, -3.436044, 0.0], [-1.968611999999999, 3.426803, -5.000943], [1.968611999999999, -3.426803, -5.000943]], "pbc": [true, true, true], "a": 3.9680069545373784, "b": 6.373997403247196, "c": 6.373997403247196, "alpha": 76.63536860104588, "beta": 71.87600306830102, "gamma": 108.12399693169898, "volume": 135.67666759001384}, "properties": {}, "sites": [{"species": [{"element": "Ni", "occu": 1}], "abc": [0.005810999999999, 0.133653, 0.121996], "properties": {"magmom": 0.0}, "label": "Ni", "xyz": [-0.03448068460499801, 0.019979390887003456, -1.278486077007]}, {"species": [{"element": "Ni", "occu": 1}], "abc": [0.997135999999999, 0.622904, 0.628247], "properties": {"magmom": 0.0}, "label": "Ni", "xyz": [-1.968408780179998, -3.444512578412996, -6.256934835393]}, {"species": [{"element": "Ni", "occu": 1}], "abc": [0.005810999999999, 0.378004, 0.366347], "properties": {"magmom": 0.0}, "label": "Ni", "xyz": [-0.03448068460499798, 0.019979390887003623, -3.7224569229930005]}, {"species": [{"element": "Ni", "occu": 1}], "abc": [0.997135999999999, 0.871753, 0.877096], "properties": {"magmom": 0.0}, "label": "Ni", "xyz": [-1.9684087801799977, -3.444512578412996, -8.745894164607002]}, {"species": [{"element": "Ni", "occu": 1}], "abc": [0.335065, 0.085239, 0.414761], "properties": {"magmom": 0.0}, "label": "Ni", "xyz": [-0.016272721251000433, -2.280505061026, -2.5004715]}, {"species": [{"element": "Ni", "occu": 1}], "abc": [0.66642, 0.662612, 0.329285999999999], "properties": {"magmom": 0.0}, "label": "Ni", "xyz": [-1.9787740261320015, -1.1476059057019967, -4.960425359813995]}, {"species": [{"element": "Ni", "occu": 1}], "abc": [0.66642, 0.170714, 0.837387999999999], "properties": {"magmom": 0.0}, "label": "Ni", "xyz": [-0.010162026132002788, -4.574408905701997, -5.041460640185996]}, {"species": [{"element": "Ge", "occu": 1}], "abc": [0.332727999999999, 0.8307700000000001, 0.165152], "properties": {"magmom": 0.0}, "label": "Ge", "xyz": [-1.9706792310239976, 1.137673711222004, -4.980549154446001]}, {"species": [{"element": "Ge", "occu": 1}], "abc": [0.332727999999999, 0.334848, 0.6692300000000001], "properties": {"magmom": 0.0}, "label": "Ge", "xyz": [-0.002067231023998195, -2.289129288777997, -5.021336845554001]}, {"species": [{"element": "Ge", "occu": 1}], "abc": [0.684684, 0.433581, 0.066418999999999], "properties": {"magmom": 0.0}, "label": "Ge", "xyz": [-2.0816309170680016, -1.0944125070099964, -2.500471499999995]}, {"species": [{"element": "Ge", "occu": 1}], "abc": [0.642762, 0.892573, 0.607426999999999], "properties": {"magmom": 0.0}, "label": "Ge", "xyz": [-1.8369743729340013, -1.2314193452899964, -7.501414499999996]}]}, "task_ids": null, "uncorrected_energy_per_atom": null, "energy_per_atom": -12.914044919886367, "formation_energy_per_atom": -0.24496033443182003, "energy_above_hull": 0.025831170113635, "is_stable": false, "equilibrium_reaction_energy_per_atom": null, "decomposes_to": null, "xas": null, "grain_boundaries": null, "band_gap": 0.0, "cbm": null, "vbm": null, "efermi": 7.327624099999999, "is_gap_direct": null, "is_metal": null, "es_source_calc_id": null, "bandstructure": null, "dos": null, "dos_energy_up": null, "dos_energy_down": null, "is_magnetic": null, "ordering": null, "total_magnetization": 0.0025027, "total_magnetization_normalized_vol": null, "total_magnetization_normalized_formula_units": null, "num_magnetic_sites": null, "num_unique_magnetic_sites": null, "types_of_magnetic_species": null, "bulk_modulus": null, "shear_modulus": null, "universal_anisotropy": null, "homogeneous_poisson": null, "e_total": null, "e_ionic": null, "e_electronic": null, "n": null, "e_ij_max": null, "weighted_surface_energy_EV_PER_ANG2": null, "weighted_surface_energy": null, "weighted_work_function": null, "surface_anisotropy": null, "shape_factor": null, "has_reconstructed": null, "possible_species": null, "has_props": null, "theoretical": null, "database_IDs": null, "fields_not_requested": ["builder_meta", "nsites", "elements", "nelements", "composition", "composition_reduced", "chemsys", "symmetry", "property_name", "deprecated", "deprecation_reasons", "last_updated", "origins", "warnings", "task_ids", "uncorrected_energy_per_atom", "equilibrium_reaction_energy_per_atom", "decomposes_to", "xas", "grain_boundaries", "cbm", "vbm", "is_gap_direct", "is_metal", "es_source_calc_id", "bandstructure", "dos", "dos_energy_up", "dos_energy_down", "is_magnetic", "ordering", "total_magnetization_normalized_vol", "total_magnetization_normalized_formula_units", "num_magnetic_sites", "num_unique_magnetic_sites", "types_of_magnetic_species", "bulk_modulus", "shear_modulus", "universal_anisotropy", "homogeneous_poisson", "e_total", "e_ionic", "e_electronic", "n", "e_ij_max", "weighted_surface_energy_EV_PER_ANG2", "weighted_surface_energy", "weighted_work_function", "surface_anisotropy", "shape_factor", "has_reconstructed", "possible_species", "has_props", "theoretical", "database_IDs"]}