{
  "builder_meta": null,
  "nsites": null,
  "elements": null,
  "nelements": null,
  "composition": null,
  "composition_reduced": null,
  "formula_pretty": "Ni7Sn8",
  "formula_anonymous": "A7B8",
  "chemsys": null,
  "volume": 263.09585830780196,
  "density": 8.587058499745128,
  "density_atomic": 17.5397238871868,
  "symmetry": null,
  "property_name": null,
  "material_id": "mp-1219822",
  "deprecated": null,
  "deprecation_reasons": null,
  "last_updated": null,
  "origins": null,
  "warnings": null,
  "structure": {
    "@module": "pymatgen.core.structure",
    "@class": "Structure",
    "charge": 0,
    "lattice": {
      "matrix": [
        [0.0, 4.088433, 0.0],
        [0.026923, 0.0, 5.257998],
        [12.250452, 0.0, 2.2873200000000002]
      ],
      "pbc": [true, true, true],
      "a": 4.088433,
      "b": 5.258066927677223,
      "c": 12.462159001822437,
      "alpha": 79.13053098991233,
      "beta": 90.0,
      "gamma": 90.0,
      "volume": 263.09585830780196
    },
    "properties": {},
    "sites": [
      {
        "species": [{ "element": "Ni", "occu": 1 }],
        "abc": [0.5, 0.372266999999999, 0.291012999999999],
        "properties": { "magmom": -0.0 },
        "label": "Ni",
        "xyz": [3.575063332316988, 2.0442165, 2.6230189966259925]
      },
      {
        "species": [{ "element": "Ni", "occu": 1 }],
        "abc": [0.0, 0.873419, 0.785675999999999],
        "properties": { "magmom": -0.0 },
        "label": "Ni",
        "xyz": [9.64840118528899, 0.0, 6.389527783481998]
      },
      {
        "species": [{ "element": "Ni", "occu": 1 }],
        "abc": [0.0, 0.126581, 0.214324],
        "properties": { "magmom": -0.0 },
        "label": "Ni",
        "xyz": [2.628973814711, 0.0, 1.155790216518]
      },
      {
        "species": [{ "element": "Ni", "occu": 1 }],
        "abc": [0.5, 0.627733, 0.708986999999999],
        "properties": { "magmom": -0.0 },
        "label": "Ni",
        "xyz": [8.702311667682988, 2.0442165, 4.922299003373998]
      },
      {
        "species": [{ "element": "Ni", "occu": 1 }],
        "abc": [0.0, 0.0, 0.0],
        "properties": { "magmom": -0.0 },
        "label": "Ni",
        "xyz": [0.0, 0.0, 0.0]
      },
      {
        "species": [{ "element": "Ni", "occu": 1 }],
        "abc": [0.5, 0.5, 0.5],
        "properties": { "magmom": 0.0 },
        "label": "Ni",
        "xyz": [6.1386875, 2.0442165, 3.772659]
      },
      {
        "species": [{ "element": "Ni", "occu": 1 }],
        "abc": [0.0, 0.5, 0.0],
        "properties": { "magmom": -0.0 },
        "label": "Ni",
        "xyz": [0.0134615, 0.0, 2.628999]
      },
      {
        "species": [{ "element": "Sn", "occu": 1 }],
        "abc": [0.5, 0.857607, 0.33183],
        "properties": { "magmom": -0.0 },
        "label": "Sn",
        "xyz": [4.088156840421, 2.0442165, 5.268297286386]
      },
      {
        "species": [{ "element": "Sn", "occu": 1 }],
        "abc": [0.0, 0.35350000000000004, 0.816711],
        "properties": { "magmom": 0.0 },
        "label": "Sn",
        "xyz": [10.014596183872, 0.0, 3.7267816975200003]
      },
      {
        "species": [{ "element": "Sn", "occu": 1 }],
        "abc": [0.0, 0.6465000000000001, 0.183288999999999],
        "properties": { "magmom": 0.0 },
        "label": "Sn",
        "xyz": [2.262778816127988, 0.0, 3.818536302479998]
      },
      {
        "species": [{ "element": "Sn", "occu": 1 }],
        "abc": [0.5, 0.142393, 0.66817],
        "properties": { "magmom": -0.0 },
        "label": "Sn",
        "xyz": [8.189218159579001, 2.0442165, 2.277020713614]
      },
      {
        "species": [{ "element": "Sn", "occu": 1 }],
        "abc": [0.5, 0.220697999999999, 0.079613],
        "properties": { "magmom": 0.0 },
        "label": "Sn",
        "xyz": [0.98123708733, 2.0442165, 1.3425300497639947]
      },
      {
        "species": [{ "element": "Sn", "occu": 1 }],
        "abc": [0.0, 0.742495999999999, 0.569661],
        "properties": { "magmom": -0.0 },
        "label": "Sn",
        "xyz": [6.99859495658, 0.0, 5.207039481527995]
      },
      {
        "species": [{ "element": "Sn", "occu": 1 }],
        "abc": [0.0, 0.257504, 0.43033899999999903],
        "properties": { "magmom": -0.0 },
        "label": "Sn",
        "xyz": [5.278780043419988, 0.0, 2.3382785184719976]
      },
      {
        "species": [{ "element": "Sn", "occu": 1 }],
        "abc": [0.5, 0.779301999999999, 0.920387],
        "properties": { "magmom": 0.0 },
        "label": "Sn",
        "xyz": [11.296137912669998, 2.0442165, 6.202787950235995]
      }
    ]
  },
  "task_ids": null,
  "uncorrected_energy_per_atom": null,
  "energy_per_atom": -5.063267956666666,
  "formation_energy_per_atom": -0.22743251666666503,
  "energy_above_hull": 0.004870725714285,
  "is_stable": false,
  "equilibrium_reaction_energy_per_atom": null,
  "decomposes_to": null,
  "xas": null,
  "grain_boundaries": null,
  "band_gap": 0.0,
  "cbm": null,
  "vbm": null,
  "efermi": 9.22609989,
  "is_gap_direct": null,
  "is_metal": null,
  "es_source_calc_id": null,
  "bandstructure": null,
  "dos": null,
  "dos_energy_up": null,
  "dos_energy_down": null,
  "is_magnetic": null,
  "ordering": null,
  "total_magnetization": 0.0006064,
  "total_magnetization_normalized_vol": null,
  "total_magnetization_normalized_formula_units": null,
  "num_magnetic_sites": null,
  "num_unique_magnetic_sites": null,
  "types_of_magnetic_species": null,
  "bulk_modulus": null,
  "shear_modulus": null,
  "universal_anisotropy": null,
  "homogeneous_poisson": null,
  "e_total": null,
  "e_ionic": null,
  "e_electronic": null,
  "n": null,
  "e_ij_max": null,
  "weighted_surface_energy_EV_PER_ANG2": null,
  "weighted_surface_energy": null,
  "weighted_work_function": null,
  "surface_anisotropy": null,
  "shape_factor": null,
  "has_reconstructed": null,
  "possible_species": null,
  "has_props": null,
  "theoretical": null,
  "database_IDs": null,
  "fields_not_requested": [
    "builder_meta",
    "nsites",
    "elements",
    "nelements",
    "composition",
    "composition_reduced",
    "chemsys",
    "symmetry",
    "property_name",
    "deprecated",
    "deprecation_reasons",
    "last_updated",
    "origins",
    "warnings",
    "task_ids",
    "uncorrected_energy_per_atom",
    "equilibrium_reaction_energy_per_atom",
    "decomposes_to",
    "xas",
    "grain_boundaries",
    "cbm",
    "vbm",
    "is_gap_direct",
    "is_metal",
    "es_source_calc_id",
    "bandstructure",
    "dos",
    "dos_energy_up",
    "dos_energy_down",
    "is_magnetic",
    "ordering",
    "total_magnetization_normalized_vol",
    "total_magnetization_normalized_formula_units",
    "num_magnetic_sites",
    "num_unique_magnetic_sites",
    "types_of_magnetic_species",
    "bulk_modulus",
    "shear_modulus",
    "universal_anisotropy",
    "homogeneous_poisson",
    "e_total",
    "e_ionic",
    "e_electronic",
    "n",
    "e_ij_max",
    "weighted_surface_energy_EV_PER_ANG2",
    "weighted_surface_energy",
    "weighted_work_function",
    "surface_anisotropy",
    "shape_factor",
    "has_reconstructed",
    "possible_species",
    "has_props",
    "theoretical",
    "database_IDs"
  ]
}
