{"builder_meta": null, "nsites": null, "elements": null, "nelements": null, "composition": null, "composition_reduced": null, "formula_pretty": "NiAg3", "formula_anonymous": "AB3", "chemsys": null, "volume": 64.56931565771657, "density": 9.831616730278608, "density_atomic": 16.142328914429143, "symmetry": null, "property_name": null, "material_id": "mp-976762", "deprecated": null, "deprecation_reasons": null, "last_updated": null, "origins": null, "warnings": null, "structure": {"@module": "pymatgen.core.structure", "@class": "Structure", "charge": 0, "lattice": {"matrix": [[-2.011118, 2.011118, 3.991086], [2.011118, -2.011118, 3.991086], [2.011118, 2.011118, -3.991086]], "pbc": [true, true, true], "a": 4.900812042839839, "b": 4.900812042839839, "c": 4.900812042839839, "alpha": 131.54456455813883, "beta": 131.54456455813883, "gamma": 70.94929580617011, "volume": 64.56931565771657}, "properties": {}, "sites": [{"species": [{"element": "Ni", "occu": 1}], "abc": [0.0, 0.0, 0.0], "properties": {"magmom": 0.004}, "label": "Ni", "xyz": [0.0, 0.0, 0.0]}, {"species": [{"element": "Ag", "occu": 1}], "abc": [0.25, 0.75, 0.5], "properties": {"magmom": 0.0}, "label": "Ag", "xyz": [2.0111180000000006, -2.220446049250313e-16, 1.995543]}, {"species": [{"element": "Ag", "occu": 1}], "abc": [0.75, 0.25, 0.5], "properties": {"magmom": 0.0}, "label": "Ag", "xyz": [-2.220446049250313e-16, 2.0111180000000006, 1.995543]}, {"species": [{"element": "Ag", "occu": 1}], "abc": [0.5, 0.5, 0.0], "properties": {"magmom": -0.0}, "label": "Ag", "xyz": [0.0, 0.0, 3.991086]}]}, "task_ids": null, "uncorrected_energy_per_atom": null, "energy_per_atom": -18.827369991250002, "formation_energy_per_atom": 0.1849671575, "energy_above_hull": 0.1849671575, "is_stable": false, "equilibrium_reaction_energy_per_atom": null, "decomposes_to": null, "xas": null, "grain_boundaries": null, "band_gap": 0.0, "cbm": null, "vbm": null, "efermi": 3.59017703, "is_gap_direct": null, "is_metal": null, "es_source_calc_id": null, "bandstructure": null, "dos": null, "dos_energy_up": null, "dos_energy_down": null, "is_magnetic": null, "ordering": null, "total_magnetization": 0.0055739, "total_magnetization_normalized_vol": null, "total_magnetization_normalized_formula_units": null, "num_magnetic_sites": null, "num_unique_magnetic_sites": null, "types_of_magnetic_species": null, "bulk_modulus": null, "shear_modulus": null, "universal_anisotropy": null, "homogeneous_poisson": null, "e_total": null, "e_ionic": null, "e_electronic": null, "n": null, "e_ij_max": null, "weighted_surface_energy_EV_PER_ANG2": null, "weighted_surface_energy": null, "weighted_work_function": null, "surface_anisotropy": null, "shape_factor": null, "has_reconstructed": null, "possible_species": null, "has_props": null, "theoretical": null, "database_IDs": null, "fields_not_requested": ["builder_meta", "nsites", "elements", "nelements", "composition", "composition_reduced", "chemsys", "symmetry", "property_name", "deprecated", "deprecation_reasons", "last_updated", "origins", "warnings", "task_ids", "uncorrected_energy_per_atom", "equilibrium_reaction_energy_per_atom", "decomposes_to", "xas", "grain_boundaries", "cbm", "vbm", "is_gap_direct", "is_metal", "es_source_calc_id", "bandstructure", "dos", "dos_energy_up", "dos_energy_down", "is_magnetic", "ordering", "total_magnetization_normalized_vol", "total_magnetization_normalized_formula_units", "num_magnetic_sites", "num_unique_magnetic_sites", "types_of_magnetic_species", "bulk_modulus", "shear_modulus", "universal_anisotropy", "homogeneous_poisson", "e_total", "e_ionic", "e_electronic", "n", "e_ij_max", "weighted_surface_energy_EV_PER_ANG2", "weighted_surface_energy", "weighted_work_function", "surface_anisotropy", "shape_factor", "has_reconstructed", "possible_species", "has_props", "theoretical", "database_IDs"]}