{"builder_meta": null, "nsites": null, "elements": null, "nelements": null, "composition": null, "composition_reduced": null, "formula_pretty": "NiAs2", "formula_anonymous": "AB2", "chemsys": null, "volume": 97.45425336200302, "density": 7.106578916153326, "density_atomic": 16.242375560333837, "symmetry": null, "property_name": null, "material_id": "mp-19814", "deprecated": null, "deprecation_reasons": null, "last_updated": null, "origins": null, "warnings": null, "structure": {"@module": "pymatgen.core.structure", "@class": "Structure", "charge": 0, "lattice": {"matrix": [[3.56413788, 0.0, 0.0], [0.0, 4.74225463, -0.0], [0.0, -0.0, 5.76582468]], "pbc": [true, true, true], "a": 3.56413788, "b": 4.74225463, "c": 5.76582468, "alpha": 90.0, "beta": 90.0, "gamma": 90.0, "volume": 97.45425336200302}, "properties": {}, "sites": [{"species": [{"element": "Ni", "occu": 1}], "abc": [0.5, 0.5, 0.5], "properties": {"magmom": 0.0}, "label": "Ni", "xyz": [1.78206894, 2.371127315, 2.88291234]}, {"species": [{"element": "Ni", "occu": 1}], "abc": [-0.0, 0.0, -0.0], "properties": {"magmom": 0.0}, "label": "Ni", "xyz": [0.0, 0.0, 0.0]}, {"species": [{"element": "As", "occu": 1}], "abc": [0.5, 0.70475833, 0.12964191], "properties": {"magmom": 0.0}, "label": "As", "xyz": [1.78206894, 3.3421434534735677, 0.7474925242403387]}, {"species": [{"element": "As", "occu": 1}], "abc": [0.5, 0.29524167, 0.87035809], "properties": {"magmom": 0.0}, "label": "As", "xyz": [1.78206894, 1.400111176526432, 5.018332155759661]}, {"species": [{"element": "As", "occu": 1}], "abc": [-0.0, 0.79524167, 0.62964191], "properties": {"magmom": 0.0}, "label": "As", "xyz": [0.0, 3.771238491526432, 3.630404864240339]}, {"species": [{"element": "As", "occu": 1}], "abc": [0.0, 0.20475833000000002, 0.37035809000000003], "properties": {"magmom": 0.0}, "label": "As", "xyz": [0.0, 0.9710161384735679, 2.1354198157596613]}]}, "task_ids": null, "uncorrected_energy_per_atom": null, "energy_per_atom": -14.079833045, "formation_energy_per_atom": -0.280906666666666, "energy_above_hull": 0.0, "is_stable": true, "equilibrium_reaction_energy_per_atom": null, "decomposes_to": null, "xas": null, "grain_boundaries": null, "band_gap": 0.0, "cbm": null, "vbm": null, "efermi": 6.41190615, "is_gap_direct": null, "is_metal": null, "es_source_calc_id": null, "bandstructure": null, "dos": null, "dos_energy_up": null, "dos_energy_down": null, "is_magnetic": null, "ordering": null, "total_magnetization": 0.0, "total_magnetization_normalized_vol": null, "total_magnetization_normalized_formula_units": null, "num_magnetic_sites": null, "num_unique_magnetic_sites": null, "types_of_magnetic_species": null, "bulk_modulus": null, "shear_modulus": null, "universal_anisotropy": null, "homogeneous_poisson": null, "e_total": null, "e_ionic": null, "e_electronic": null, "n": null, "e_ij_max": null, "weighted_surface_energy_EV_PER_ANG2": null, "weighted_surface_energy": null, "weighted_work_function": null, "surface_anisotropy": null, "shape_factor": null, "has_reconstructed": null, "possible_species": null, "has_props": null, "theoretical": null, "database_IDs": null, "fields_not_requested": ["builder_meta", "nsites", "elements", "nelements", "composition", "composition_reduced", "chemsys", "symmetry", "property_name", "deprecated", "deprecation_reasons", "last_updated", "origins", "warnings", "task_ids", "uncorrected_energy_per_atom", "equilibrium_reaction_energy_per_atom", "decomposes_to", "xas", "grain_boundaries", "cbm", "vbm", "is_gap_direct", "is_metal", "es_source_calc_id", "bandstructure", "dos", "dos_energy_up", "dos_energy_down", "is_magnetic", "ordering", "total_magnetization_normalized_vol", "total_magnetization_normalized_formula_units", "num_magnetic_sites", "num_unique_magnetic_sites", "types_of_magnetic_species", "bulk_modulus", "shear_modulus", "universal_anisotropy", "homogeneous_poisson", "e_total", "e_ionic", "e_electronic", "n", "e_ij_max", "weighted_surface_energy_EV_PER_ANG2", "weighted_surface_energy", "weighted_work_function", "surface_anisotropy", "shape_factor", "has_reconstructed", "possible_species", "has_props", "theoretical", "database_IDs"]}