{"builder_meta": null, "nsites": null, "elements": null, "nelements": null, "composition": null, "composition_reduced": null, "formula_pretty": "NiAu3", "formula_anonymous": "AB3", "chemsys": null, "volume": 130.53489760831707, "density": 16.52699395075552, "density_atomic": 16.316862201039633, "symmetry": null, "property_name": null, "material_id": "mp-976806", "deprecated": null, "deprecation_reasons": null, "last_updated": null, "origins": null, "warnings": null, "structure": {"@module": "pymatgen.core.structure", "@class": "Structure", "charge": 0, "lattice": {"matrix": [[2.834867, -4.910133, 0.0], [2.834867, 4.910133, 0.0], [0.0, 0.0, 4.688897]], "pbc": [true, true, true], "a": 5.669733413960308, "b": 5.669733413960308, "c": 4.688897, "alpha": 90.0, "beta": 90.0, "gamma": 119.99999316157007, "volume": 130.53489760831707}, "properties": {}, "sites": [{"species": [{"element": "Ni", "occu": 1}], "abc": [0.666667, 0.333333, 0.25], "properties": {"magmom": -0.023}, "label": "Ni", "xyz": [2.834867, -1.6367142734220002, 1.17222425]}, {"species": [{"element": "Ni", "occu": 1}], "abc": [0.333333, 0.666667, 0.75], "properties": {"magmom": 0.023}, "label": "Ni", "xyz": [2.834867, 1.6367142734220002, 3.5166727499999997]}, {"species": [{"element": "Au", "occu": 1}], "abc": [0.830075999999999, 0.660153, 0.75], "properties": {"magmom": -0.001}, "label": "Au", "xyz": [4.224601014542998, -0.8343445297589951, 3.5166727499999997]}, {"species": [{"element": "Au", "occu": 1}], "abc": [0.339847, 0.169924, 0.75], "properties": {"magmom": -0.001}, "label": "Au", "xyz": [1.445132985457, -0.8343445297590002, 3.5166727499999997]}, {"species": [{"element": "Au", "occu": 1}], "abc": [0.830075999999999, 0.169924, 0.75], "properties": {"magmom": -0.001}, "label": "Au", "xyz": [2.8348669999999974, -3.2414341202159953, 3.5166727499999997]}, {"species": [{"element": "Au", "occu": 1}], "abc": [0.660153, 0.830075999999999, 0.25], "properties": {"magmom": 0.001}, "label": "Au", "xyz": [4.224601014542998, 0.8343445297589951, 1.17222425]}, {"species": [{"element": "Au", "occu": 1}], "abc": [0.169924, 0.830075999999999, 0.25], "properties": {"magmom": 0.001}, "label": "Au", "xyz": [2.8348669999999974, 3.2414341202159953, 1.17222425]}, {"species": [{"element": "Au", "occu": 1}], "abc": [0.169924, 0.339847, 0.25], "properties": {"magmom": 0.001}, "label": "Au", "xyz": [1.445132985457, 0.8343445297590002, 1.17222425]}]}, "task_ids": null, "uncorrected_energy_per_atom": null, "energy_per_atom": -40.845300120000005, "formation_energy_per_atom": 0.08884928249999201, "energy_above_hull": 0.08884928249999201, "is_stable": false, "equilibrium_reaction_energy_per_atom": null, "decomposes_to": null, "xas": null, "grain_boundaries": null, "band_gap": 0.0, "cbm": null, "vbm": null, "efermi": 5.48464182, "is_gap_direct": null, "is_metal": null, "es_source_calc_id": null, "bandstructure": null, "dos": null, "dos_energy_up": null, "dos_energy_down": null, "is_magnetic": null, "ordering": null, "total_magnetization": 0.0012066, "total_magnetization_normalized_vol": null, "total_magnetization_normalized_formula_units": null, "num_magnetic_sites": null, "num_unique_magnetic_sites": null, "types_of_magnetic_species": null, "bulk_modulus": null, "shear_modulus": null, "universal_anisotropy": null, "homogeneous_poisson": null, "e_total": null, "e_ionic": null, "e_electronic": null, "n": null, "e_ij_max": null, "weighted_surface_energy_EV_PER_ANG2": null, "weighted_surface_energy": null, "weighted_work_function": null, "surface_anisotropy": null, "shape_factor": null, "has_reconstructed": null, "possible_species": null, "has_props": null, "theoretical": null, "database_IDs": null, "fields_not_requested": ["builder_meta", "nsites", "elements", "nelements", "composition", "composition_reduced", "chemsys", "symmetry", "property_name", "deprecated", "deprecation_reasons", "last_updated", "origins", "warnings", "task_ids", "uncorrected_energy_per_atom", "equilibrium_reaction_energy_per_atom", "decomposes_to", "xas", "grain_boundaries", "cbm", "vbm", "is_gap_direct", "is_metal", "es_source_calc_id", "bandstructure", "dos", "dos_energy_up", "dos_energy_down", "is_magnetic", "ordering", "total_magnetization_normalized_vol", "total_magnetization_normalized_formula_units", "num_magnetic_sites", "num_unique_magnetic_sites", "types_of_magnetic_species", "bulk_modulus", "shear_modulus", "universal_anisotropy", "homogeneous_poisson", "e_total", "e_ionic", "e_electronic", "n", "e_ij_max", "weighted_surface_energy_EV_PER_ANG2", "weighted_surface_energy", "weighted_work_function", "surface_anisotropy", "shape_factor", "has_reconstructed", "possible_species", "has_props", "theoretical", "database_IDs"]}