{"builder_meta": null, "nsites": null, "elements": null, "nelements": null, "composition": null, "composition_reduced": null, "formula_pretty": "NiB", "formula_anonymous": "AB", "chemsys": null, "volume": 31.630317938291025, "density": 7.297730723147378, "density_atomic": 7.907579484572756, "symmetry": null, "property_name": null, "material_id": "mp-14019", "deprecated": null, "deprecation_reasons": null, "last_updated": null, "origins": null, "warnings": null, "structure": {"@module": "pymatgen.core.structure", "@class": "Structure", "charge": 0, "lattice": {"matrix": [[2.71315389, 0.0, -1.07300924], [-0.0, 2.96569364, 0.0], [-0.0122014, -0.0, 3.93582365]], "pbc": [true, true, true], "a": 2.9176279509127805, "b": 2.96569364, "c": 3.935842562661937, "alpha": 90.0, "beta": 111.7556309590229, "gamma": 90.0, "volume": 31.630317938291025}, "properties": {}, "sites": [{"species": [{"element": "Ni", "occu": 1}], "abc": [0.14668799, 0.75, 0.29337498], "properties": {"magmom": 0.0}, "label": "Ni", "xyz": [0.39440750520380913, 2.22427023, 0.9972746159352496]}, {"species": [{"element": "Ni", "occu": 1}], "abc": [0.85331201, 0.25, 0.70662502], "properties": {"magmom": 0.0}, "label": "Ni", "xyz": [2.306544984796191, 0.74142341, 1.865539794064751]}, {"species": [{"element": "B", "occu": 1}], "abc": [0.43204783, 0.75, 0.86409665], "properties": {"magmom": -0.0}, "label": "B", "xyz": [1.1616690617652488, 2.22427023, 2.9373407172438233]}, {"species": [{"element": "B", "occu": 1}], "abc": [0.56795217, 0.25, 0.13590335], "properties": {"magmom": -0.0}, "label": "B", "xyz": [1.5392834282347514, 0.74142341, -0.07452630724382325]}]}, "task_ids": null, "uncorrected_energy_per_atom": null, "energy_per_atom": -9.9047392625, "formation_energy_per_atom": -0.240703583749999, "energy_above_hull": 0.001846310625001, "is_stable": false, "equilibrium_reaction_energy_per_atom": null, "decomposes_to": null, "xas": null, "grain_boundaries": null, "band_gap": 0.0, "cbm": null, "vbm": null, "efermi": 9.34900673, "is_gap_direct": null, "is_metal": null, "es_source_calc_id": null, "bandstructure": null, "dos": null, "dos_energy_up": null, "dos_energy_down": null, "is_magnetic": null, "ordering": null, "total_magnetization": 0.0, "total_magnetization_normalized_vol": null, "total_magnetization_normalized_formula_units": null, "num_magnetic_sites": null, "num_unique_magnetic_sites": null, "types_of_magnetic_species": null, "bulk_modulus": null, "shear_modulus": null, "universal_anisotropy": null, "homogeneous_poisson": null, "e_total": null, "e_ionic": null, "e_electronic": null, "n": null, "e_ij_max": null, "weighted_surface_energy_EV_PER_ANG2": null, "weighted_surface_energy": null, "weighted_work_function": null, "surface_anisotropy": null, "shape_factor": null, "has_reconstructed": null, "possible_species": null, "has_props": null, "theoretical": null, "database_IDs": null, "fields_not_requested": ["builder_meta", "nsites", "elements", "nelements", "composition", "composition_reduced", "chemsys", "symmetry", "property_name", "deprecated", "deprecation_reasons", "last_updated", "origins", "warnings", "task_ids", "uncorrected_energy_per_atom", "equilibrium_reaction_energy_per_atom", "decomposes_to", "xas", "grain_boundaries", "cbm", "vbm", "is_gap_direct", "is_metal", "es_source_calc_id", "bandstructure", "dos", "dos_energy_up", "dos_energy_down", "is_magnetic", "ordering", "total_magnetization_normalized_vol", "total_magnetization_normalized_formula_units", "num_magnetic_sites", "num_unique_magnetic_sites", "types_of_magnetic_species", "bulk_modulus", "shear_modulus", "universal_anisotropy", "homogeneous_poisson", "e_total", "e_ionic", "e_electronic", "n", "e_ij_max", "weighted_surface_energy_EV_PER_ANG2", "weighted_surface_energy", "weighted_work_function", "surface_anisotropy", "shape_factor", "has_reconstructed", "possible_species", "has_props", "theoretical", "database_IDs"]}