{"builder_meta": null, "nsites": null, "elements": null, "nelements": null, "composition": null, "composition_reduced": null, "formula_pretty": "NiBi3", "formula_anonymous": "AB3", "chemsys": null, "volume": 433.7177428646935, "density": 10.500128781384422, "density_atomic": 27.107358929043343, "symmetry": null, "property_name": null, "material_id": "mp-23179", "deprecated": null, "deprecation_reasons": null, "last_updated": null, "origins": null, "warnings": null, "structure": {"@module": "pymatgen.core.structure", "@class": "Structure", "charge": 0, "lattice": {"matrix": [[4.10805876, 0.0, 0.0], [0.0, 8.96427368, 0.0], [0.0, 0.0, 11.77756297]], "pbc": [true, true, true], "a": 4.10805876, "b": 8.96427368, "c": 11.77756297, "alpha": 90.0, "beta": 90.0, "gamma": 90.0, "volume": 433.7177428646935}, "properties": {}, "sites": [{"species": [{"element": "Ni", "occu": 1}], "abc": [0.25, 0.5864625, 0.98228252], "properties": {"magmom": -0.0}, "label": "Ni", "xyz": [1.02701469, 5.257210353057, 11.568894233630285]}, {"species": [{"element": "Ni", "occu": 1}], "abc": [0.75, 0.4135375, 0.01771748], "properties": {"magmom": -0.0}, "label": "Ni", "xyz": [3.08104407, 3.707063326943, 0.2086687363697156]}, {"species": [{"element": "Ni", "occu": 1}], "abc": [0.25, 0.0864625, 0.5177174800000001], "properties": {"magmom": -0.0}, "label": "Ni", "xyz": [1.02701469, 0.775073513057, 6.097450221369717]}, {"species": [{"element": "Ni", "occu": 1}], "abc": [0.75, 0.9135375, 0.48228252], "properties": {"magmom": -0.0}, "label": "Ni", "xyz": [3.08104407, 8.189200166943, 5.680112748630284]}, {"species": [{"element": "Bi", "occu": 1}], "abc": [0.75, 0.69564703, 0.10957937], "properties": {"magmom": -0.0}, "label": "Bi", "xyz": [3.08104407, 6.235970361599171, 1.2905779303879288]}, {"species": [{"element": "Bi", "occu": 1}], "abc": [0.25, 0.30435297, 0.89042063], "properties": {"magmom": -0.0}, "label": "Bi", "xyz": [1.02701469, 2.7283033184008296, 10.48698503961207]}, {"species": [{"element": "Bi", "occu": 1}], "abc": [0.75, 0.19564703, 0.39042063], "properties": {"magmom": -0.0}, "label": "Bi", "xyz": [3.08104407, 1.7538335215991703, 4.598203554612071]}, {"species": [{"element": "Bi", "occu": 1}], "abc": [0.25, 0.8043529700000001, 0.6095793700000001], "properties": {"magmom": -0.0}, "label": "Bi", "xyz": [1.02701469, 7.2104401584008295, 7.179359415387929]}, {"species": [{"element": "Bi", "occu": 1}], "abc": [0.75, 0.62710172, 0.4182047], "properties": {"magmom": -0.0}, "label": "Bi", "xyz": [3.08104407, 5.621511443278729, 4.925432188599959]}, {"species": [{"element": "Bi", "occu": 1}], "abc": [0.25, 0.37289828, 0.5817953], "properties": {"magmom": -0.0}, "label": "Bi", "xyz": [1.02701469, 3.3427622367212706, 6.852130781400041]}, {"species": [{"element": "Bi", "occu": 1}], "abc": [0.75, 0.12710172, 0.0817953], "properties": {"magmom": -0.0}, "label": "Bi", "xyz": [3.08104407, 1.1393746032787295, 0.963349296400041]}, {"species": [{"element": "Bi", "occu": 1}], "abc": [0.25, 0.87289828, 0.9182047], "properties": {"magmom": -0.0}, "label": "Bi", "xyz": [1.02701469, 7.8248990767212705, 10.814213673599959]}, {"species": [{"element": "Bi", "occu": 1}], "abc": [0.25, 0.9038407900000001, 0.32948511], "properties": {"magmom": 0.0}, "label": "Bi", "xyz": [1.02701469, 8.102276204707408, 3.880531630702377]}, {"species": [{"element": "Bi", "occu": 1}], "abc": [0.75, 0.09615921000000001, 0.67051489], "properties": {"magmom": 0.0}, "label": "Bi", "xyz": [3.08104407, 0.8619974752925929, 7.897031339297623]}, {"species": [{"element": "Bi", "occu": 1}], "abc": [0.25, 0.40384079, 0.17051489], "properties": {"magmom": 0.0}, "label": "Bi", "xyz": [1.02701469, 3.6201393647074074, 2.0082498542976235]}, {"species": [{"element": "Bi", "occu": 1}], "abc": [0.75, 0.59615921, 0.82948511], "properties": {"magmom": 0.0}, "label": "Bi", "xyz": [3.08104407, 5.344134315292593, 9.769313115702378]}]}, "task_ids": null, "uncorrected_energy_per_atom": null, "energy_per_atom": -46.836013364375, "formation_energy_per_atom": 0.036121234374995, "energy_above_hull": 0.036121234374995, "is_stable": false, "equilibrium_reaction_energy_per_atom": null, "decomposes_to": null, "xas": null, "grain_boundaries": null, "band_gap": 0.0, "cbm": null, "vbm": null, "efermi": 6.68867037, "is_gap_direct": null, "is_metal": null, "es_source_calc_id": null, "bandstructure": null, "dos": null, "dos_energy_up": null, "dos_energy_down": null, "is_magnetic": null, "ordering": null, "total_magnetization": 1e-06, "total_magnetization_normalized_vol": null, "total_magnetization_normalized_formula_units": null, "num_magnetic_sites": null, "num_unique_magnetic_sites": null, "types_of_magnetic_species": null, "bulk_modulus": null, "shear_modulus": null, "universal_anisotropy": null, "homogeneous_poisson": null, "e_total": null, "e_ionic": null, "e_electronic": null, "n": null, "e_ij_max": null, "weighted_surface_energy_EV_PER_ANG2": null, "weighted_surface_energy": null, "weighted_work_function": null, "surface_anisotropy": null, "shape_factor": null, "has_reconstructed": null, "possible_species": null, "has_props": null, "theoretical": null, "database_IDs": null, "fields_not_requested": ["builder_meta", "nsites", "elements", "nelements", "composition", "composition_reduced", "chemsys", "symmetry", "property_name", "deprecated", "deprecation_reasons", "last_updated", "origins", "warnings", "task_ids", "uncorrected_energy_per_atom", "equilibrium_reaction_energy_per_atom", "decomposes_to", "xas", "grain_boundaries", "cbm", "vbm", "is_gap_direct", "is_metal", "es_source_calc_id", "bandstructure", "dos", "dos_energy_up", "dos_energy_down", "is_magnetic", "ordering", "total_magnetization_normalized_vol", "total_magnetization_normalized_formula_units", "num_magnetic_sites", "num_unique_magnetic_sites", "types_of_magnetic_species", "bulk_modulus", "shear_modulus", "universal_anisotropy", "homogeneous_poisson", "e_total", "e_ionic", "e_electronic", "n", "e_ij_max", "weighted_surface_energy_EV_PER_ANG2", "weighted_surface_energy", "weighted_work_function", "surface_anisotropy", "shape_factor", "has_reconstructed", "possible_species", "has_props", "theoretical", "database_IDs"]}