{"builder_meta": null, "nsites": null, "elements": null, "nelements": null, "composition": null, "composition_reduced": null, "formula_pretty": "NiCl", "formula_anonymous": "AB", "chemsys": null, "volume": 70.78110318558011, "density": 4.417387357466317, "density_atomic": 17.695275796395027, "symmetry": null, "property_name": null, "material_id": "mp-1186339", "deprecated": null, "deprecation_reasons": null, "last_updated": null, "origins": null, "warnings": null, "structure": {"@module": "pymatgen.core.structure", "@class": "Structure", "charge": 0, "lattice": {"matrix": [[1.809459, -3.134076, 0.0], [1.809459, 3.134076, 0.0], [0.0, 0.0, 6.240639]], "pbc": [true, true, true], "a": 3.6189189333911584, "b": 3.6189189333911584, "c": 6.240639, "alpha": 90.0, "beta": 90.0, "gamma": 120.00001706384157, "volume": 70.78110318558011}, "properties": {}, "sites": [{"species": [{"element": "Ni", "occu": 1}], "abc": [0.666667, 0.333333, 0.866115], "properties": {"magmom": 0.889}, "label": "Ni", "xyz": [1.809459, -1.044694089384, 5.405111047485]}, {"species": [{"element": "Ni", "occu": 1}], "abc": [0.333333, 0.666667, 0.366114999999999], "properties": {"magmom": 0.885}, "label": "Ni", "xyz": [1.809459, 1.044694089384, 2.284791547484994]}, {"species": [{"element": "Cl", "occu": 1}], "abc": [0.666667, 0.333333, 0.508886], "properties": {"magmom": 0.105}, "label": "Cl", "xyz": [1.809459, -1.044694089384, 3.1757738181539996]}, {"species": [{"element": "Cl", "occu": 1}], "abc": [0.333333, 0.666667, 0.008886], "properties": {"magmom": 0.106}, "label": "Cl", "xyz": [1.809459, 1.044694089384, 0.055454318153999996]}]}, "task_ids": null, "uncorrected_energy_per_atom": null, "energy_per_atom": -9.38876788, "formation_energy_per_atom": -0.32168985124999905, "energy_above_hull": 0.41593463, "is_stable": false, "equilibrium_reaction_energy_per_atom": null, "decomposes_to": null, "xas": null, "grain_boundaries": null, "band_gap": 0.0, "cbm": null, "vbm": null, "efermi": 5.16234124, "is_gap_direct": null, "is_metal": null, "es_source_calc_id": null, "bandstructure": null, "dos": null, "dos_energy_up": null, "dos_energy_down": null, "is_magnetic": null, "ordering": null, "total_magnetization": 1.9956203, "total_magnetization_normalized_vol": null, "total_magnetization_normalized_formula_units": null, "num_magnetic_sites": null, "num_unique_magnetic_sites": null, "types_of_magnetic_species": null, "bulk_modulus": null, "shear_modulus": null, "universal_anisotropy": null, "homogeneous_poisson": null, "e_total": null, "e_ionic": null, "e_electronic": null, "n": null, "e_ij_max": null, "weighted_surface_energy_EV_PER_ANG2": null, "weighted_surface_energy": null, "weighted_work_function": null, "surface_anisotropy": null, "shape_factor": null, "has_reconstructed": null, "possible_species": null, "has_props": null, "theoretical": null, "database_IDs": null, "fields_not_requested": ["builder_meta", "nsites", "elements", "nelements", "composition", "composition_reduced", "chemsys", "symmetry", "property_name", "deprecated", "deprecation_reasons", "last_updated", "origins", "warnings", "task_ids", "uncorrected_energy_per_atom", "equilibrium_reaction_energy_per_atom", "decomposes_to", "xas", "grain_boundaries", "cbm", "vbm", "is_gap_direct", "is_metal", "es_source_calc_id", "bandstructure", "dos", "dos_energy_up", "dos_energy_down", "is_magnetic", "ordering", "total_magnetization_normalized_vol", "total_magnetization_normalized_formula_units", "num_magnetic_sites", "num_unique_magnetic_sites", "types_of_magnetic_species", "bulk_modulus", "shear_modulus", "universal_anisotropy", "homogeneous_poisson", "e_total", "e_ionic", "e_electronic", "n", "e_ij_max", "weighted_surface_energy_EV_PER_ANG2", "weighted_surface_energy", "weighted_work_function", "surface_anisotropy", "shape_factor", "has_reconstructed", "possible_species", "has_props", "theoretical", "database_IDs"]}