{
  "builder_meta": null,
  "nsites": null,
  "elements": null,
  "nelements": null,
  "composition": null,
  "composition_reduced": null,
  "formula_pretty": "NiCl6",
  "formula_anonymous": "AB6",
  "chemsys": null,
  "volume": 2949.9161028275607,
  "density": 0.152780356156096,
  "density_atomic": 421.41658611822294,
  "symmetry": null,
  "property_name": null,
  "material_id": "mp-1207348",
  "deprecated": null,
  "deprecation_reasons": null,
  "last_updated": null,
  "origins": null,
  "warnings": null,
  "structure": {
    "@module": "pymatgen.core.structure",
    "@class": "Structure",
    "charge": 0,
    "lattice": {
      "matrix": [
        [5.036866, -6.471699, 0.0],
        [5.036866, 6.471699, 0.0],
        [0.0, 0.0, 45.248164]
      ],
      "pbc": [true, true, true],
      "a": 8.200786977391683,
      "b": 8.200786977391683,
      "c": 45.248164,
      "alpha": 90.0,
      "beta": 90.0,
      "gamma": 104.21338800026376,
      "volume": 2949.9161028275607
    },
    "properties": {},
    "sites": [
      {
        "species": [{ "element": "Ni", "occu": 1 }],
        "abc": [0.0, 0.0, 0.0],
        "properties": { "magmom": 0.373 },
        "label": "Ni",
        "xyz": [0.0, 0.0, 0.0]
      },
      {
        "species": [{ "element": "Cl", "occu": 1 }],
        "abc": [0.0, 0.0, 0.249972],
        "properties": { "magmom": 0.927 },
        "label": "Cl",
        "xyz": [0.0, 0.0, 11.310774051408]
      },
      {
        "species": [{ "element": "Cl", "occu": 1 }],
        "abc": [0.0, 0.0, 0.750027999999999],
        "properties": { "magmom": 0.882 },
        "label": "Cl",
        "xyz": [0.0, 0.0, 33.93738994859196]
      },
      {
        "species": [{ "element": "Cl", "occu": 1 }],
        "abc": [0.263735, 0.030900999999999002, 0.0],
        "properties": { "magmom": 0.195 },
        "label": "Cl",
        "xyz": [1.4840420507759948, -1.5068315649660065, 0.0]
      },
      {
        "species": [{ "element": "Cl", "occu": 1 }],
        "abc": [0.736265, 0.969098999999999, 0.0],
        "properties": { "magmom": 0.195 },
        "label": "Cl",
        "xyz": [8.589689949223995, 1.506831564965995, 0.0]
      },
      {
        "species": [{ "element": "Cl", "occu": 1 }],
        "abc": [0.030900999999999002, 0.263735, 0.0],
        "properties": { "magmom": 0.20600000000000002 },
        "label": "Cl",
        "xyz": [1.4840420507759948, 1.5068315649660065, 0.0]
      },
      {
        "species": [{ "element": "Cl", "occu": 1 }],
        "abc": [0.969098999999999, 0.736265, 0.0],
        "properties": { "magmom": 0.20600000000000002 },
        "label": "Cl",
        "xyz": [8.589689949223995, -1.506831564965995, 0.0]
      }
    ]
  },
  "task_ids": null,
  "uncorrected_energy_per_atom": null,
  "energy_per_atom": -7.141621832857142,
  "formation_energy_per_atom": -0.156428897857141,
  "energy_above_hull": 0.26507080571428604,
  "is_stable": false,
  "equilibrium_reaction_energy_per_atom": null,
  "decomposes_to": null,
  "xas": null,
  "grain_boundaries": null,
  "band_gap": 0.0,
  "cbm": null,
  "vbm": null,
  "efermi": -7.37037081,
  "is_gap_direct": null,
  "is_metal": null,
  "es_source_calc_id": null,
  "bandstructure": null,
  "dos": null,
  "dos_energy_up": null,
  "dos_energy_down": null,
  "is_magnetic": null,
  "ordering": null,
  "total_magnetization": 4.0,
  "total_magnetization_normalized_vol": null,
  "total_magnetization_normalized_formula_units": null,
  "num_magnetic_sites": null,
  "num_unique_magnetic_sites": null,
  "types_of_magnetic_species": null,
  "bulk_modulus": null,
  "shear_modulus": null,
  "universal_anisotropy": null,
  "homogeneous_poisson": null,
  "e_total": null,
  "e_ionic": null,
  "e_electronic": null,
  "n": null,
  "e_ij_max": null,
  "weighted_surface_energy_EV_PER_ANG2": null,
  "weighted_surface_energy": null,
  "weighted_work_function": null,
  "surface_anisotropy": null,
  "shape_factor": null,
  "has_reconstructed": null,
  "possible_species": null,
  "has_props": null,
  "theoretical": null,
  "database_IDs": null,
  "fields_not_requested": [
    "builder_meta",
    "nsites",
    "elements",
    "nelements",
    "composition",
    "composition_reduced",
    "chemsys",
    "symmetry",
    "property_name",
    "deprecated",
    "deprecation_reasons",
    "last_updated",
    "origins",
    "warnings",
    "task_ids",
    "uncorrected_energy_per_atom",
    "equilibrium_reaction_energy_per_atom",
    "decomposes_to",
    "xas",
    "grain_boundaries",
    "cbm",
    "vbm",
    "is_gap_direct",
    "is_metal",
    "es_source_calc_id",
    "bandstructure",
    "dos",
    "dos_energy_up",
    "dos_energy_down",
    "is_magnetic",
    "ordering",
    "total_magnetization_normalized_vol",
    "total_magnetization_normalized_formula_units",
    "num_magnetic_sites",
    "num_unique_magnetic_sites",
    "types_of_magnetic_species",
    "bulk_modulus",
    "shear_modulus",
    "universal_anisotropy",
    "homogeneous_poisson",
    "e_total",
    "e_ionic",
    "e_electronic",
    "n",
    "e_ij_max",
    "weighted_surface_energy_EV_PER_ANG2",
    "weighted_surface_energy",
    "weighted_work_function",
    "surface_anisotropy",
    "shape_factor",
    "has_reconstructed",
    "possible_species",
    "has_props",
    "theoretical",
    "database_IDs"
  ]
}
