{"builder_meta": null, "nsites": null, "elements": null, "nelements": null, "composition": null, "composition_reduced": null, "formula_pretty": "NiCl2", "formula_anonymous": "AB2", "chemsys": null, "volume": 62.17607917091151, "density": 3.461216428851331, "density_atomic": 20.72535972363717, "symmetry": null, "property_name": null, "material_id": "mp-27396", "deprecated": null, "deprecation_reasons": null, "last_updated": null, "origins": null, "warnings": null, "structure": {"@module": "pymatgen.core.structure", "@class": "Structure", "charge": 0, "lattice": {"matrix": [[3.3782575, 0.03020843, 5.30062512], [1.56817042, 2.99238804, 5.300625099999999], [0.04943679, 0.03020843, 6.28544239]], "pbc": [true, true, true], "a": 6.285711013745727, "b": 6.285711662083142, "c": 6.285709393812084, "alpha": 32.05965901768789, "beta": 32.05964350281029, "gamma": 32.059652457989706, "volume": 62.17607917091151}, "properties": {}, "sites": [{"species": [{"element": "Ni", "occu": 1}], "abc": [0.0, -0.0, -0.0], "properties": {"magmom": 1.583}, "label": "Ni", "xyz": [0.0, 0.0, 0.0]}, {"species": [{"element": "Cl", "occu": 1}], "abc": [0.25986553, 0.25986553, 0.25986553], "properties": {"magmom": 0.17200000000000001}, "label": "Cl", "xyz": [1.2982530306724465, 0.7933187633250971, 4.3882693250447335]}, {"species": [{"element": "Cl", "occu": 1}], "abc": [0.74013447, 0.74013447, 0.74013447], "properties": {"magmom": 0.17200000000000001}, "label": "Cl", "xyz": [3.697611679327554, 2.259486136674903, 12.498423284955265]}]}, "task_ids": null, "uncorrected_energy_per_atom": null, "energy_per_atom": -9.079030959999999, "formation_energy_per_atom": -0.9834993083333331, "energy_above_hull": 0.0, "is_stable": true, "equilibrium_reaction_energy_per_atom": null, "decomposes_to": null, "xas": null, "grain_boundaries": null, "band_gap": 0.0, "cbm": null, "vbm": null, "efermi": 2.32413053, "is_gap_direct": null, "is_metal": null, "es_source_calc_id": null, "bandstructure": null, "dos": null, "dos_energy_up": null, "dos_energy_down": null, "is_magnetic": null, "ordering": null, "total_magnetization": 1.9999999, "total_magnetization_normalized_vol": null, "total_magnetization_normalized_formula_units": null, "num_magnetic_sites": null, "num_unique_magnetic_sites": null, "types_of_magnetic_species": null, "bulk_modulus": null, "shear_modulus": null, "universal_anisotropy": null, "homogeneous_poisson": null, "e_total": null, "e_ionic": null, "e_electronic": null, "n": null, "e_ij_max": null, "weighted_surface_energy_EV_PER_ANG2": null, "weighted_surface_energy": null, "weighted_work_function": null, "surface_anisotropy": null, "shape_factor": null, "has_reconstructed": null, "possible_species": null, "has_props": null, "theoretical": null, "database_IDs": null, "fields_not_requested": ["builder_meta", "nsites", "elements", "nelements", "composition", "composition_reduced", "chemsys", "symmetry", "property_name", "deprecated", "deprecation_reasons", "last_updated", "origins", "warnings", "task_ids", "uncorrected_energy_per_atom", "equilibrium_reaction_energy_per_atom", "decomposes_to", "xas", "grain_boundaries", "cbm", "vbm", "is_gap_direct", "is_metal", "es_source_calc_id", "bandstructure", "dos", "dos_energy_up", "dos_energy_down", "is_magnetic", "ordering", "total_magnetization_normalized_vol", "total_magnetization_normalized_formula_units", "num_magnetic_sites", "num_unique_magnetic_sites", "types_of_magnetic_species", "bulk_modulus", "shear_modulus", "universal_anisotropy", "homogeneous_poisson", "e_total", "e_ionic", "e_electronic", "n", "e_ij_max", "weighted_surface_energy_EV_PER_ANG2", "weighted_surface_energy", "weighted_work_function", "surface_anisotropy", "shape_factor", "has_reconstructed", "possible_species", "has_props", "theoretical", "database_IDs"]}