{
  "builder_meta": null,
  "nsites": null,
  "elements": null,
  "nelements": null,
  "composition": null,
  "composition_reduced": null,
  "formula_pretty": "NiF2",
  "formula_anonymous": "AB2",
  "chemsys": null,
  "volume": 66.09767602083656,
  "density": 4.858200007945914,
  "density_atomic": 11.016279336806093,
  "symmetry": null,
  "property_name": null,
  "material_id": "mp-559798",
  "deprecated": null,
  "deprecation_reasons": null,
  "last_updated": null,
  "origins": null,
  "warnings": null,
  "structure": {
    "@module": "pymatgen.core.structure",
    "@class": "Structure",
    "charge": 0,
    "lattice": {
      "matrix": [
        [3.0795406, 0.0, 0.0],
        [0.0, 4.6328701500000005, 8.03e-6],
        [0.0, 8.03e-6, 4.6328701500000005]
      ],
      "pbc": [true, true, true],
      "a": 3.0795406,
      "b": 4.632870150006959,
      "c": 4.632870150006959,
      "alpha": 89.99980138225567,
      "beta": 90.0,
      "gamma": 90.0,
      "volume": 66.09767602083657
    },
    "properties": {},
    "sites": [
      {
        "species": [{ "element": "Ni", "occu": 1 }],
        "abc": [0.5, 0.5, 0.5],
        "properties": { "magmom": 1.779 },
        "label": "Ni",
        "xyz": [1.5397703, 2.3164390900000003, 2.3164390900000003]
      },
      {
        "species": [{ "element": "Ni", "occu": 1 }],
        "abc": [-0.0, -0.0, -0.0],
        "properties": { "magmom": 1.779 },
        "label": "Ni",
        "xyz": [0.0, 0.0, 0.0]
      },
      {
        "species": [{ "element": "F", "occu": 1 }],
        "abc": [0.0, 0.69631822, 0.69631822],
        "properties": { "magmom": 0.1 },
        "label": "F",
        "xyz": [0.0, 3.22595748777444, 3.22595748777444]
      },
      {
        "species": [{ "element": "F", "occu": 1 }],
        "abc": [0.5, 0.80368178, 0.19631822000000002],
        "properties": { "magmom": 0.1 },
        "label": "F",
        "xyz": [1.5397703, 3.723354905096174, 0.9095232749038266]
      },
      {
        "species": [{ "element": "F", "occu": 1 }],
        "abc": [0.0, 0.30368178, 0.30368178],
        "properties": { "magmom": 0.1 },
        "label": "F",
        "xyz": [0.0, 1.4069206922255606, 1.4069206922255606]
      },
      {
        "species": [{ "element": "F", "occu": 1 }],
        "abc": [0.5, 0.19631822000000002, 0.80368178],
        "properties": { "magmom": 0.1 },
        "label": "F",
        "xyz": [1.5397703, 0.9095232749038266, 3.723354905096174]
      }
    ]
  },
  "task_ids": null,
  "uncorrected_energy_per_atom": null,
  "energy_per_atom": -8.308581643333333,
  "formation_energy_per_atom": -2.23065729,
  "energy_above_hull": 0.0,
  "is_stable": true,
  "equilibrium_reaction_energy_per_atom": null,
  "decomposes_to": null,
  "xas": null,
  "grain_boundaries": null,
  "band_gap": 4.9116,
  "cbm": null,
  "vbm": null,
  "efermi": 0.401624,
  "is_gap_direct": null,
  "is_metal": null,
  "es_source_calc_id": null,
  "bandstructure": null,
  "dos": null,
  "dos_energy_up": null,
  "dos_energy_down": null,
  "is_magnetic": null,
  "ordering": null,
  "total_magnetization": 4.0012901,
  "total_magnetization_normalized_vol": null,
  "total_magnetization_normalized_formula_units": null,
  "num_magnetic_sites": null,
  "num_unique_magnetic_sites": null,
  "types_of_magnetic_species": null,
  "bulk_modulus": null,
  "shear_modulus": null,
  "universal_anisotropy": null,
  "homogeneous_poisson": null,
  "e_total": null,
  "e_ionic": null,
  "e_electronic": null,
  "n": null,
  "e_ij_max": null,
  "weighted_surface_energy_EV_PER_ANG2": null,
  "weighted_surface_energy": null,
  "weighted_work_function": null,
  "surface_anisotropy": null,
  "shape_factor": null,
  "has_reconstructed": null,
  "possible_species": null,
  "has_props": null,
  "theoretical": null,
  "database_IDs": null,
  "fields_not_requested": [
    "builder_meta",
    "nsites",
    "elements",
    "nelements",
    "composition",
    "composition_reduced",
    "chemsys",
    "symmetry",
    "property_name",
    "deprecated",
    "deprecation_reasons",
    "last_updated",
    "origins",
    "warnings",
    "task_ids",
    "uncorrected_energy_per_atom",
    "equilibrium_reaction_energy_per_atom",
    "decomposes_to",
    "xas",
    "grain_boundaries",
    "cbm",
    "vbm",
    "is_gap_direct",
    "is_metal",
    "es_source_calc_id",
    "bandstructure",
    "dos",
    "dos_energy_up",
    "dos_energy_down",
    "is_magnetic",
    "ordering",
    "total_magnetization_normalized_vol",
    "total_magnetization_normalized_formula_units",
    "num_magnetic_sites",
    "num_unique_magnetic_sites",
    "types_of_magnetic_species",
    "bulk_modulus",
    "shear_modulus",
    "universal_anisotropy",
    "homogeneous_poisson",
    "e_total",
    "e_ionic",
    "e_electronic",
    "n",
    "e_ij_max",
    "weighted_surface_energy_EV_PER_ANG2",
    "weighted_surface_energy",
    "weighted_work_function",
    "surface_anisotropy",
    "shape_factor",
    "has_reconstructed",
    "possible_species",
    "has_props",
    "theoretical",
    "database_IDs"
  ]
}
