{"builder_meta": null, "nsites": null, "elements": null, "nelements": null, "composition": null, "composition_reduced": null, "formula_pretty": "NiF3", "formula_anonymous": "AB3", "chemsys": null, "volume": 84.55430844225538, "density": 4.543954278394464, "density_atomic": 10.569288555281922, "symmetry": null, "property_name": null, "material_id": "mp-614777", "deprecated": null, "deprecation_reasons": null, "last_updated": null, "origins": null, "warnings": null, "structure": {"@module": "pymatgen.core.structure", "@class": "Structure", "charge": 0, "lattice": {"matrix": [[4.2485349, 0.03060627, 2.85592948], [1.56151748, 3.95151656, 2.8572547], [0.06866127, 0.04594313, 5.11792862]], "pbc": [true, true, true], "a": 5.119308423509409, "b": 5.120226985688415, "c": 5.118595364023934, "alpha": 55.321009625622644, "beta": 55.32035035521443, "gamma": 55.31793458885078, "volume": 84.55430844225539}, "properties": {}, "sites": [{"species": [{"element": "Ni", "occu": 1}], "abc": [-0.0, -0.0, 0.0], "properties": {"magmom": 0.212}, "label": "Ni", "xyz": [0.0, 0.0, 0.0]}, {"species": [{"element": "Ni", "occu": 1}], "abc": [0.5, 0.5, 0.5], "properties": {"magmom": 1.588}, "label": "Ni", "xyz": [2.939356825, 2.01403298, 5.4155564]}, {"species": [{"element": "F", "occu": 1}], "abc": [0.61914523, 0.23917121, 0.89952016], "properties": {"magmom": 0.029}, "label": "F", "xyz": [3.065692339527481, 1.0053654947173305, 7.055288149766547]}, {"species": [{"element": "F", "occu": 1}], "abc": [0.8991924, 0.61947266, 0.23913939], "properties": {"magmom": 0.029}, "label": "F", "xyz": [4.803987294411282, 2.4863642119164884, 5.561919580908795]}, {"species": [{"element": "F", "occu": 1}], "abc": [0.23874725, 0.89937786, 0.61927446], "properties": {"magmom": 0.029}, "label": "F", "xyz": [2.4612404443211817, 3.589665077304079, 6.420999409573917]}, {"species": [{"element": "F", "occu": 1}], "abc": [0.38085477, 0.76082879, 0.10047984], "properties": {"magmom": 0.029}, "label": "F", "xyz": [2.813021310472519, 3.0227004652826692, 3.775824650233453]}, {"species": [{"element": "F", "occu": 1}], "abc": [0.1008076, 0.38052734, 0.76086061], "properties": {"magmom": 0.029}, "label": "F", "xyz": [1.0747263555887179, 1.5417017480835118, 5.269193219091203]}, {"species": [{"element": "F", "occu": 1}], "abc": [0.76125275, 0.10062214, 0.38072554000000003], "properties": {"magmom": 0.029}, "label": "F", "xyz": [3.417473205678818, 0.43840088269592103, 4.4101133904260825]}]}, "task_ids": null, "uncorrected_energy_per_atom": null, "energy_per_atom": -7.258612345, "formation_energy_per_atom": -1.9186620925, "energy_above_hull": 0.0, "is_stable": true, "equilibrium_reaction_energy_per_atom": null, "decomposes_to": null, "xas": null, "grain_boundaries": null, "band_gap": 0.0, "cbm": null, "vbm": null, "efermi": -1.174814169999999, "is_gap_direct": null, "is_metal": null, "es_source_calc_id": null, "bandstructure": null, "dos": null, "dos_energy_up": null, "dos_energy_down": null, "is_magnetic": null, "ordering": null, "total_magnetization": 1.999999799999999, "total_magnetization_normalized_vol": null, "total_magnetization_normalized_formula_units": null, "num_magnetic_sites": null, "num_unique_magnetic_sites": null, "types_of_magnetic_species": null, "bulk_modulus": null, "shear_modulus": null, "universal_anisotropy": null, "homogeneous_poisson": null, "e_total": null, "e_ionic": null, "e_electronic": null, "n": null, "e_ij_max": null, "weighted_surface_energy_EV_PER_ANG2": null, "weighted_surface_energy": null, "weighted_work_function": null, "surface_anisotropy": null, "shape_factor": null, "has_reconstructed": null, "possible_species": null, "has_props": null, "theoretical": null, "database_IDs": null, "fields_not_requested": ["builder_meta", "nsites", "elements", "nelements", "composition", "composition_reduced", "chemsys", "symmetry", "property_name", "deprecated", "deprecation_reasons", "last_updated", "origins", "warnings", "task_ids", "uncorrected_energy_per_atom", "equilibrium_reaction_energy_per_atom", "decomposes_to", "xas", "grain_boundaries", "cbm", "vbm", "is_gap_direct", "is_metal", "es_source_calc_id", "bandstructure", "dos", "dos_energy_up", "dos_energy_down", "is_magnetic", "ordering", "total_magnetization_normalized_vol", "total_magnetization_normalized_formula_units", "num_magnetic_sites", "num_unique_magnetic_sites", "types_of_magnetic_species", "bulk_modulus", "shear_modulus", "universal_anisotropy", "homogeneous_poisson", "e_total", "e_ionic", "e_electronic", "n", "e_ij_max", "weighted_surface_energy_EV_PER_ANG2", "weighted_surface_energy", "weighted_work_function", "surface_anisotropy", "shape_factor", "has_reconstructed", "possible_species", "has_props", "theoretical", "database_IDs"]}