{
  "builder_meta": null,
  "nsites": null,
  "elements": null,
  "nelements": null,
  "composition": null,
  "composition_reduced": null,
  "formula_pretty": "NiF4",
  "formula_anonymous": "AB4",
  "chemsys": null,
  "volume": 151.3604910698371,
  "density": 2.955236798417384,
  "density_atomic": 15.13604910698371,
  "symmetry": null,
  "property_name": null,
  "material_id": "mp-1406123",
  "deprecated": null,
  "deprecation_reasons": null,
  "last_updated": null,
  "origins": null,
  "warnings": null,
  "structure": {
    "@module": "pymatgen.core.structure",
    "@class": "Structure",
    "charge": 0,
    "lattice": {
      "matrix": [
        [-2.738286, 2.738286, 5.046554],
        [2.738286, -2.738286, 5.046554],
        [2.738286, 2.738286, -5.046554]
      ],
      "pbc": [true, true, true],
      "a": 6.361142013075011,
      "b": 6.361142013075011,
      "c": 6.361142013075011,
      "alpha": 129.00511382864835,
      "beta": 129.00511382864835,
      "gamma": 75.00234553203211,
      "volume": 151.3604910698371
    },
    "properties": {},
    "sites": [
      {
        "species": [{ "element": "Ni", "occu": 1 }],
        "abc": [0.5, 0.0, 0.5],
        "properties": { "magmom": 1.552 },
        "label": "Ni",
        "xyz": [0.0, 2.738286, 0.0]
      },
      {
        "species": [{ "element": "Ni", "occu": 1 }],
        "abc": [0.0, 0.5, 0.5],
        "properties": { "magmom": 1.552 },
        "label": "Ni",
        "xyz": [2.738286, 0.0, 0.0]
      },
      {
        "species": [{ "element": "F", "occu": 1 }],
        "abc": [0.456078999999999, 0.956079, 0.172355999999999],
        "properties": { "magmom": 0.1 },
        "label": "F",
        "xyz": [1.841103021816, -0.8971829781840054, 6.2567277423080006]
      },
      {
        "species": [{ "element": "F", "occu": 1 }],
        "abc": [0.216276, 0.716275999999999, 0.172355999999999],
        "properties": { "magmom": 0.1 },
        "label": "F",
        "xyz": [1.8411030218159947, -0.8971829781840001, 3.8363701645840003]
      },
      {
        "species": [{ "element": "F", "occu": 1 }],
        "abc": [0.543921, 0.043920999999999, 0.827643999999999],
        "properties": { "magmom": 0.1 },
        "label": "F",
        "xyz": [0.8971829781839946, 3.6354689781840004, -1.2101737423080001]
      },
      {
        "species": [{ "element": "F", "occu": 1 }],
        "abc": [0.043920999999999, 0.216276, 0.5],
        "properties": { "magmom": 0.1 },
        "label": "F",
        "xyz": [1.8411002835300025, 0.8971857164699973, -1.210178788862005]
      },
      {
        "species": [{ "element": "F", "occu": 1 }],
        "abc": [0.783724, 0.283724, 0.827643999999999],
        "properties": { "magmom": 0.1 },
        "label": "F",
        "xyz": [0.8971829781839977, 3.6354689781839973, 1.2101838354160046]
      },
      {
        "species": [{ "element": "F", "occu": 1 }],
        "abc": [0.283724, 0.456078999999999, 0.5],
        "properties": { "magmom": 0.1 },
        "label": "F",
        "xyz": [1.8411002835299972, 0.8971857164700027, 1.2101787888619953]
      },
      {
        "species": [{ "element": "F", "occu": 1 }],
        "abc": [0.956079, 0.783724, 0.5],
        "properties": { "magmom": 0.1 },
        "label": "F",
        "xyz": [0.8971857164699999, 1.84110028353, 6.256732788862001]
      },
      {
        "species": [{ "element": "F", "occu": 1 }],
        "abc": [0.716275999999999, 0.543921, 0.5],
        "properties": { "magmom": 0.1 },
        "label": "F",
        "xyz": [0.8971857164700028, 1.8411002835299972, 3.8363752111379954]
      }
    ]
  },
  "task_ids": null,
  "uncorrected_energy_per_atom": null,
  "energy_per_atom": -6.2589966245,
  "formation_energy_per_atom": -1.3618308325,
  "energy_above_hull": 0.17309884149999902,
  "is_stable": false,
  "equilibrium_reaction_energy_per_atom": null,
  "decomposes_to": null,
  "xas": null,
  "grain_boundaries": null,
  "band_gap": 0.8967,
  "cbm": null,
  "vbm": null,
  "efermi": -3.651888999999999,
  "is_gap_direct": null,
  "is_metal": null,
  "es_source_calc_id": null,
  "bandstructure": null,
  "dos": null,
  "dos_energy_up": null,
  "dos_energy_down": null,
  "is_magnetic": null,
  "ordering": null,
  "total_magnetization": 3.9998441,
  "total_magnetization_normalized_vol": null,
  "total_magnetization_normalized_formula_units": null,
  "num_magnetic_sites": null,
  "num_unique_magnetic_sites": null,
  "types_of_magnetic_species": null,
  "bulk_modulus": null,
  "shear_modulus": null,
  "universal_anisotropy": null,
  "homogeneous_poisson": null,
  "e_total": null,
  "e_ionic": null,
  "e_electronic": null,
  "n": null,
  "e_ij_max": null,
  "weighted_surface_energy_EV_PER_ANG2": null,
  "weighted_surface_energy": null,
  "weighted_work_function": null,
  "surface_anisotropy": null,
  "shape_factor": null,
  "has_reconstructed": null,
  "possible_species": null,
  "has_props": null,
  "theoretical": null,
  "database_IDs": null,
  "fields_not_requested": [
    "builder_meta",
    "nsites",
    "elements",
    "nelements",
    "composition",
    "composition_reduced",
    "chemsys",
    "symmetry",
    "property_name",
    "deprecated",
    "deprecation_reasons",
    "last_updated",
    "origins",
    "warnings",
    "task_ids",
    "uncorrected_energy_per_atom",
    "equilibrium_reaction_energy_per_atom",
    "decomposes_to",
    "xas",
    "grain_boundaries",
    "cbm",
    "vbm",
    "is_gap_direct",
    "is_metal",
    "es_source_calc_id",
    "bandstructure",
    "dos",
    "dos_energy_up",
    "dos_energy_down",
    "is_magnetic",
    "ordering",
    "total_magnetization_normalized_vol",
    "total_magnetization_normalized_formula_units",
    "num_magnetic_sites",
    "num_unique_magnetic_sites",
    "types_of_magnetic_species",
    "bulk_modulus",
    "shear_modulus",
    "universal_anisotropy",
    "homogeneous_poisson",
    "e_total",
    "e_ionic",
    "e_electronic",
    "n",
    "e_ij_max",
    "weighted_surface_energy_EV_PER_ANG2",
    "weighted_surface_energy",
    "weighted_work_function",
    "surface_anisotropy",
    "shape_factor",
    "has_reconstructed",
    "possible_species",
    "has_props",
    "theoretical",
    "database_IDs"
  ]
}
