{"builder_meta": null, "nsites": null, "elements": null, "nelements": null, "composition": null, "composition_reduced": null, "formula_pretty": "NiGe", "formula_anonymous": "AB", "chemsys": null, "volume": 106.13642059004104, "density": 8.219016252367101, "density_atomic": 13.26705257375513, "symmetry": null, "property_name": null, "material_id": "mp-1099", "deprecated": null, "deprecation_reasons": null, "last_updated": null, "origins": null, "warnings": null, "structure": {"@module": "pymatgen.core.structure", "@class": "Structure", "charge": 0, "lattice": {"matrix": [[3.45091852, -0.0, 0.0], [-0.0, 5.32965429, 0.0], [0.0, 0.0, 5.77072917]], "pbc": [true, true, true], "a": 3.45091852, "b": 5.32965429, "c": 5.77072917, "alpha": 90.0, "beta": 90.0, "gamma": 90.0, "volume": 106.13642059004104}, "properties": {}, "sites": [{"species": [{"element": "Ni", "occu": 1}], "abc": [0.25, 0.50554278, 0.30926607], "properties": {"magmom": -0.0}, "label": "Ni", "xyz": [0.86272963, 2.694368246205526, 1.784690731440262]}, {"species": [{"element": "Ni", "occu": 1}], "abc": [0.75, 0.49445722000000003, 0.69073393], "properties": {"magmom": -0.0}, "label": "Ni", "xyz": [2.58818889, 2.6352860437944736, 3.9860384385597385]}, {"species": [{"element": "Ni", "occu": 1}], "abc": [0.25, 0.00554278, 0.19073393], "properties": {"magmom": -0.0}, "label": "Ni", "xyz": [0.86272963, 0.029541101205526197, 1.100673853559738]}, {"species": [{"element": "Ni", "occu": 1}], "abc": [0.75, 0.99445722, 0.8092660700000001], "properties": {"magmom": -0.0}, "label": "Ni", "xyz": [2.58818889, 5.300113188794474, 4.670055316440262]}, {"species": [{"element": "Ge", "occu": 1}], "abc": [0.25, 0.6896565, 0.91301742], "properties": {"magmom": -0.0}, "label": "Ge", "xyz": [0.86272963, 3.675630723851385, 5.268776258312141]}, {"species": [{"element": "Ge", "occu": 1}], "abc": [0.75, 0.3103435, 0.08698258], "properties": {"magmom": -0.0}, "label": "Ge", "xyz": [2.58818889, 1.654023566148615, 0.5019529116878586]}, {"species": [{"element": "Ge", "occu": 1}], "abc": [0.25, 0.189656499999999, 0.58698258], "properties": {"magmom": -0.0}, "label": "Ge", "xyz": [0.86272963, 1.0108035788513796, 3.3873174966878588]}, {"species": [{"element": "Ge", "occu": 1}], "abc": [0.75, 0.8103435, 0.41301742], "properties": {"magmom": -0.0}, "label": "Ge", "xyz": [2.58818889, 4.318850711148615, 2.3834116733121418]}]}, "task_ids": null, "uncorrected_energy_per_atom": null, "energy_per_atom": -13.1925999, "formation_energy_per_atom": -0.26575252999999804, "energy_above_hull": 0.0, "is_stable": true, "equilibrium_reaction_energy_per_atom": null, "decomposes_to": null, "xas": null, "grain_boundaries": null, "band_gap": 0.0, "cbm": null, "vbm": null, "efermi": 8.30223044, "is_gap_direct": null, "is_metal": null, "es_source_calc_id": null, "bandstructure": null, "dos": null, "dos_energy_up": null, "dos_energy_down": null, "is_magnetic": null, "ordering": null, "total_magnetization": 0.0, "total_magnetization_normalized_vol": null, "total_magnetization_normalized_formula_units": null, "num_magnetic_sites": null, "num_unique_magnetic_sites": null, "types_of_magnetic_species": null, "bulk_modulus": null, "shear_modulus": null, "universal_anisotropy": null, "homogeneous_poisson": null, "e_total": null, "e_ionic": null, "e_electronic": null, "n": null, "e_ij_max": null, "weighted_surface_energy_EV_PER_ANG2": null, "weighted_surface_energy": null, "weighted_work_function": null, "surface_anisotropy": null, "shape_factor": null, "has_reconstructed": null, "possible_species": null, "has_props": null, "theoretical": null, "database_IDs": null, "fields_not_requested": ["builder_meta", "nsites", "elements", "nelements", "composition", "composition_reduced", "chemsys", "symmetry", "property_name", "deprecated", "deprecation_reasons", "last_updated", "origins", "warnings", "task_ids", "uncorrected_energy_per_atom", "equilibrium_reaction_energy_per_atom", "decomposes_to", "xas", "grain_boundaries", "cbm", "vbm", "is_gap_direct", "is_metal", "es_source_calc_id", "bandstructure", "dos", "dos_energy_up", "dos_energy_down", "is_magnetic", "ordering", "total_magnetization_normalized_vol", "total_magnetization_normalized_formula_units", "num_magnetic_sites", "num_unique_magnetic_sites", "types_of_magnetic_species", "bulk_modulus", "shear_modulus", "universal_anisotropy", "homogeneous_poisson", "e_total", "e_ionic", "e_electronic", "n", "e_ij_max", "weighted_surface_energy_EV_PER_ANG2", "weighted_surface_energy", "weighted_work_function", "surface_anisotropy", "shape_factor", "has_reconstructed", "possible_species", "has_props", "theoretical", "database_IDs"]}