{"builder_meta": null, "nsites": null, "elements": null, "nelements": null, "composition": null, "composition_reduced": null, "formula_pretty": "NiGe2", "formula_anonymous": "AB2", "chemsys": null, "volume": 178.129789915634, "density": 7.605820439302073, "density_atomic": 14.844149159636167, "symmetry": null, "property_name": null, "material_id": "mp-29900", "deprecated": null, "deprecation_reasons": null, "last_updated": null, "origins": null, "warnings": null, "structure": {"@module": "pymatgen.core.structure", "@class": "Structure", "charge": 0, "lattice": {"matrix": [[5.7413212, 0.0, 0.0], [0.0, 5.05492504, -2.68989268], [0.0, 0.01788716, 6.12824291]], "pbc": [true, true, true], "a": 5.7413212, "b": 5.72606232850609, "c": 6.128269014530786, "alpha": 117.85168383104595, "beta": 90.0, "gamma": 90.0, "volume": 178.12978991563398}, "properties": {}, "sites": [{"species": [{"element": "Ni", "occu": 1}], "abc": [0.0, 0.11533948000000001, 0.23067897], "properties": {"magmom": 0.0}, "label": "Ni", "xyz": [0.0, 0.5871586171976043, 1.1034059394215963]}, {"species": [{"element": "Ni", "occu": 1}], "abc": [0.5, 0.38466052, 0.76932103], "properties": {"magmom": 0.0}, "label": "Ni", "xyz": [2.8706606, 1.9581910628023955, 3.679890630578404]}, {"species": [{"element": "Ni", "occu": 1}], "abc": [0.0, 0.8846605200000001, 0.76932103], "properties": {"magmom": 0.0}, "label": "Ni", "xyz": [0.0, 4.485653582802395, 2.3349442905784037]}, {"species": [{"element": "Ni", "occu": 1}], "abc": [0.5, 0.61533948, 0.23067897], "properties": {"magmom": 0.0}, "label": "Ni", "xyz": [2.8706606, 3.1146211371976045, -0.24154040057840365]}, {"species": [{"element": "Ge", "occu": 1}], "abc": [0.34267294, 0.84507012, 1.0], "properties": {"magmom": -0.0}, "label": "Ge", "xyz": [1.9673954150883277, 4.289653270143805, 3.8550949801252785]}, {"species": [{"element": "Ge", "occu": 1}], "abc": [0.84267294, 0.65492988, 0.0], "properties": {"magmom": -0.0}, "label": "Ge", "xyz": [4.838056015088328, 3.3106214498561948, -1.7616910901252782]}, {"species": [{"element": "Ge", "occu": 1}], "abc": [0.15732706, 0.34507012, 1.0], "properties": {"magmom": -0.0}, "label": "Ge", "xyz": [0.903265184911672, 1.7621907501438046, 5.200041320125279]}, {"species": [{"element": "Ge", "occu": 1}], "abc": [0.65732706, 0.15492988, 0.0], "properties": {"magmom": -0.0}, "label": "Ge", "xyz": [3.773925784911672, 0.7831589298561951, -0.41674475012527834]}, {"species": [{"element": "Ge", "occu": 1}], "abc": [0.25, 0.005117, 0.5], "properties": {"magmom": -0.0}, "label": "Ge", "xyz": [1.4353303, 0.034809631429679994, 3.05035727415644]}, {"species": [{"element": "Ge", "occu": 1}], "abc": [0.75, 0.494882999999999, 0.5], "properties": {"magmom": -0.0}, "label": "Ge", "xyz": [4.305990899999999, 2.5105400485703147, 1.7329392958435628]}, {"species": [{"element": "Ge", "occu": 1}], "abc": [0.75, 0.994883, 0.5], "properties": {"magmom": -0.0}, "label": "Ge", "xyz": [4.305990899999999, 5.03800256857032, 0.3879929558435604]}, {"species": [{"element": "Ge", "occu": 1}], "abc": [0.25, 0.505116999999999, 0.5], "properties": {"magmom": -0.0}, "label": "Ge", "xyz": [1.4353303, 2.562272151429675, 1.7054109341564427]}]}, "task_ids": null, "uncorrected_energy_per_atom": null, "energy_per_atom": -13.333652613333333, "formation_energy_per_atom": -0.09176183999999901, "energy_above_hull": 0.085406513333332, "is_stable": false, "equilibrium_reaction_energy_per_atom": null, "decomposes_to": null, "xas": null, "grain_boundaries": null, "band_gap": 0.0, "cbm": null, "vbm": null, "efermi": 7.67715159, "is_gap_direct": null, "is_metal": null, "es_source_calc_id": null, "bandstructure": null, "dos": null, "dos_energy_up": null, "dos_energy_down": null, "is_magnetic": null, "ordering": null, "total_magnetization": 2e-07, "total_magnetization_normalized_vol": null, "total_magnetization_normalized_formula_units": null, "num_magnetic_sites": null, "num_unique_magnetic_sites": null, "types_of_magnetic_species": null, "bulk_modulus": null, "shear_modulus": null, "universal_anisotropy": null, "homogeneous_poisson": null, "e_total": null, "e_ionic": null, "e_electronic": null, "n": null, "e_ij_max": null, "weighted_surface_energy_EV_PER_ANG2": null, "weighted_surface_energy": null, "weighted_work_function": null, "surface_anisotropy": null, "shape_factor": null, "has_reconstructed": null, "possible_species": null, "has_props": null, "theoretical": null, "database_IDs": null, "fields_not_requested": ["builder_meta", "nsites", "elements", "nelements", "composition", "composition_reduced", "chemsys", "symmetry", "property_name", "deprecated", "deprecation_reasons", "last_updated", "origins", "warnings", "task_ids", "uncorrected_energy_per_atom", "equilibrium_reaction_energy_per_atom", "decomposes_to", "xas", "grain_boundaries", "cbm", "vbm", "is_gap_direct", "is_metal", "es_source_calc_id", "bandstructure", "dos", "dos_energy_up", "dos_energy_down", "is_magnetic", "ordering", "total_magnetization_normalized_vol", "total_magnetization_normalized_formula_units", "num_magnetic_sites", "num_unique_magnetic_sites", "types_of_magnetic_species", "bulk_modulus", "shear_modulus", "universal_anisotropy", "homogeneous_poisson", "e_total", "e_ionic", "e_electronic", "n", "e_ij_max", "weighted_surface_energy_EV_PER_ANG2", "weighted_surface_energy", "weighted_work_function", "surface_anisotropy", "shape_factor", "has_reconstructed", "possible_species", "has_props", "theoretical", "database_IDs"]}