{
  "builder_meta": null,
  "nsites": null,
  "elements": null,
  "nelements": null,
  "composition": null,
  "composition_reduced": null,
  "formula_pretty": "NiH3",
  "formula_anonymous": "AB3",
  "chemsys": null,
  "volume": 52.886736926153894,
  "density": 3.875597582624382,
  "density_atomic": 6.610842115769237,
  "symmetry": null,
  "property_name": null,
  "material_id": "mp-973963",
  "deprecated": null,
  "deprecation_reasons": null,
  "last_updated": null,
  "origins": null,
  "warnings": null,
  "structure": {
    "@module": "pymatgen.core.structure",
    "@class": "Structure",
    "charge": 0,
    "lattice": {
      "matrix": [
        [2.554054, -4.423751, 0.0],
        [2.554054, 4.423751, 0.0],
        [0.0, 0.0, 2.340432]
      ],
      "pbc": [true, true, true],
      "a": 5.108107746016817,
      "b": 5.108107746016817,
      "c": 2.340432,
      "alpha": 90.0,
      "beta": 90.0,
      "gamma": 119.99999671044678,
      "volume": 52.886736926153894
    },
    "properties": {},
    "sites": [
      {
        "species": [{ "element": "Ni", "occu": 1 }],
        "abc": [0.333333, 0.666667, 0.75],
        "properties": { "magmom": 0.0 },
        "label": "Ni",
        "xyz": [2.554054, 1.4745866158340002, 1.7553239999999999]
      },
      {
        "species": [{ "element": "Ni", "occu": 1 }],
        "abc": [0.666667, 0.333333, 0.25],
        "properties": { "magmom": 0.0 },
        "label": "Ni",
        "xyz": [2.554054, -1.4745866158340002, 0.585108]
      },
      {
        "species": [{ "element": "H", "occu": 1 }],
        "abc": [0.20955000000000001, 0.41910000000000003, 0.25],
        "properties": { "magmom": 0.0 },
        "label": "H",
        "xyz": [1.6056060471000002, 0.9269970220500001, 0.585108]
      },
      {
        "species": [{ "element": "H", "occu": 1 }],
        "abc": [0.5809000000000001, 0.7904500000000001, 0.25],
        "properties": { "magmom": 0.0 },
        "label": "H",
        "xyz": [3.5025019529000003, 0.9269970220500001, 0.585108]
      },
      {
        "species": [{ "element": "H", "occu": 1 }],
        "abc": [0.20955000000000001, 0.7904500000000001, 0.25],
        "properties": { "magmom": 0.0 },
        "label": "H",
        "xyz": [2.554054, 2.5697569559000004, 0.585108]
      },
      {
        "species": [{ "element": "H", "occu": 1 }],
        "abc": [0.7904500000000001, 0.5809000000000001, 0.75],
        "properties": { "magmom": 0.0 },
        "label": "H",
        "xyz": [3.5025019529000003, -0.9269970220500001, 1.7553239999999999]
      },
      {
        "species": [{ "element": "H", "occu": 1 }],
        "abc": [0.41910000000000003, 0.20955000000000001, 0.75],
        "properties": { "magmom": 0.0 },
        "label": "H",
        "xyz": [1.6056060471000002, -0.9269970220500001, 1.7553239999999999]
      },
      {
        "species": [{ "element": "H", "occu": 1 }],
        "abc": [0.7904500000000001, 0.20955000000000001, 0.75],
        "properties": { "magmom": 0.0 },
        "label": "H",
        "xyz": [2.554054, -2.5697569559000004, 1.7553239999999999]
      }
    ]
  },
  "task_ids": null,
  "uncorrected_energy_per_atom": null,
  "energy_per_atom": -5.373012706874999,
  "formation_energy_per_atom": 0.2137508840625,
  "energy_above_hull": 0.21931459124999902,
  "is_stable": false,
  "equilibrium_reaction_energy_per_atom": null,
  "decomposes_to": null,
  "xas": null,
  "grain_boundaries": null,
  "band_gap": 0.0,
  "cbm": null,
  "vbm": null,
  "efermi": 2.814664999999999,
  "is_gap_direct": null,
  "is_metal": null,
  "es_source_calc_id": null,
  "bandstructure": null,
  "dos": null,
  "dos_energy_up": null,
  "dos_energy_down": null,
  "is_magnetic": null,
  "ordering": null,
  "total_magnetization": 0.0007396999999990001,
  "total_magnetization_normalized_vol": null,
  "total_magnetization_normalized_formula_units": null,
  "num_magnetic_sites": null,
  "num_unique_magnetic_sites": null,
  "types_of_magnetic_species": null,
  "bulk_modulus": null,
  "shear_modulus": null,
  "universal_anisotropy": null,
  "homogeneous_poisson": null,
  "e_total": null,
  "e_ionic": null,
  "e_electronic": null,
  "n": null,
  "e_ij_max": null,
  "weighted_surface_energy_EV_PER_ANG2": null,
  "weighted_surface_energy": null,
  "weighted_work_function": null,
  "surface_anisotropy": null,
  "shape_factor": null,
  "has_reconstructed": null,
  "possible_species": null,
  "has_props": null,
  "theoretical": null,
  "database_IDs": null,
  "fields_not_requested": [
    "builder_meta",
    "nsites",
    "elements",
    "nelements",
    "composition",
    "composition_reduced",
    "chemsys",
    "symmetry",
    "property_name",
    "deprecated",
    "deprecation_reasons",
    "last_updated",
    "origins",
    "warnings",
    "task_ids",
    "uncorrected_energy_per_atom",
    "equilibrium_reaction_energy_per_atom",
    "decomposes_to",
    "xas",
    "grain_boundaries",
    "cbm",
    "vbm",
    "is_gap_direct",
    "is_metal",
    "es_source_calc_id",
    "bandstructure",
    "dos",
    "dos_energy_up",
    "dos_energy_down",
    "is_magnetic",
    "ordering",
    "total_magnetization_normalized_vol",
    "total_magnetization_normalized_formula_units",
    "num_magnetic_sites",
    "num_unique_magnetic_sites",
    "types_of_magnetic_species",
    "bulk_modulus",
    "shear_modulus",
    "universal_anisotropy",
    "homogeneous_poisson",
    "e_total",
    "e_ionic",
    "e_electronic",
    "n",
    "e_ij_max",
    "weighted_surface_energy_EV_PER_ANG2",
    "weighted_surface_energy",
    "weighted_work_function",
    "surface_anisotropy",
    "shape_factor",
    "has_reconstructed",
    "possible_species",
    "has_props",
    "theoretical",
    "database_IDs"
  ]
}
