{"builder_meta": null, "nsites": null, "elements": null, "nelements": null, "composition": null, "composition_reduced": null, "formula_pretty": "NiIr3", "formula_anonymous": "AB3", "chemsys": null, "volume": 53.79676918890742, "density": 19.61110700237134, "density_atomic": 13.449192297226855, "symmetry": null, "property_name": null, "material_id": "mp-1186350", "deprecated": null, "deprecation_reasons": null, "last_updated": null, "origins": null, "warnings": null, "structure": {"@module": "pymatgen.core.structure", "@class": "Structure", "charge": 0, "lattice": {"matrix": [[-1.880950149999999, 1.880950149999999, 3.80138303], [1.880950149999999, -1.880950149999999, 3.80138303], [1.880950149999999, 1.880950149999999, -3.80138303]], "pbc": [true, true, true], "a": 4.639661612051252, "b": 4.639661612051252, "c": 4.639661612051252, "alpha": 132.16676220595724, "beta": 132.16676220595724, "gamma": 69.96577130199117, "volume": 53.796769188907355}, "properties": {}, "sites": [{"species": [{"element": "Ni", "occu": 1}], "abc": [-0.0, -0.0, -0.0], "properties": {"magmom": -0.001}, "label": "Ni", "xyz": [0.0, 0.0, 0.0]}, {"species": [{"element": "Ir", "occu": 1}], "abc": [0.75, 0.25, 0.5], "properties": {"magmom": -0.0}, "label": "Ir", "xyz": [-1.1102230246251565e-16, 1.880950149999999, 1.900691515]}, {"species": [{"element": "Ir", "occu": 1}], "abc": [0.25, 0.75, 0.5], "properties": {"magmom": -0.0}, "label": "Ir", "xyz": [1.880950149999999, -1.1102230246251565e-16, 1.900691515]}, {"species": [{"element": "Ir", "occu": 1}], "abc": [0.5, 0.5, -0.0], "properties": {"magmom": -0.0}, "label": "Ir", "xyz": [0.0, 0.0, 3.80138303]}]}, "task_ids": null, "uncorrected_energy_per_atom": null, "energy_per_atom": -42.252959265, "formation_energy_per_atom": 0.011985112499992, "energy_above_hull": 0.011985112499992, "is_stable": false, "equilibrium_reaction_energy_per_atom": null, "decomposes_to": null, "xas": null, "grain_boundaries": null, "band_gap": 0.0, "cbm": null, "vbm": null, "efermi": 9.40758561, "is_gap_direct": null, "is_metal": null, "es_source_calc_id": null, "bandstructure": null, "dos": null, "dos_energy_up": null, "dos_energy_down": null, "is_magnetic": null, "ordering": null, "total_magnetization": 0.0018294, "total_magnetization_normalized_vol": null, "total_magnetization_normalized_formula_units": null, "num_magnetic_sites": null, "num_unique_magnetic_sites": null, "types_of_magnetic_species": null, "bulk_modulus": null, "shear_modulus": null, "universal_anisotropy": null, "homogeneous_poisson": null, "e_total": null, "e_ionic": null, "e_electronic": null, "n": null, "e_ij_max": null, "weighted_surface_energy_EV_PER_ANG2": null, "weighted_surface_energy": null, "weighted_work_function": null, "surface_anisotropy": null, "shape_factor": null, "has_reconstructed": null, "possible_species": null, "has_props": null, "theoretical": null, "database_IDs": null, "fields_not_requested": ["builder_meta", "nsites", "elements", "nelements", "composition", "composition_reduced", "chemsys", "symmetry", "property_name", "deprecated", "deprecation_reasons", "last_updated", "origins", "warnings", "task_ids", "uncorrected_energy_per_atom", "equilibrium_reaction_energy_per_atom", "decomposes_to", "xas", "grain_boundaries", "cbm", "vbm", "is_gap_direct", "is_metal", "es_source_calc_id", "bandstructure", "dos", "dos_energy_up", "dos_energy_down", "is_magnetic", "ordering", "total_magnetization_normalized_vol", "total_magnetization_normalized_formula_units", "num_magnetic_sites", "num_unique_magnetic_sites", "types_of_magnetic_species", "bulk_modulus", "shear_modulus", "universal_anisotropy", "homogeneous_poisson", "e_total", "e_ionic", "e_electronic", "n", "e_ij_max", "weighted_surface_energy_EV_PER_ANG2", "weighted_surface_energy", "weighted_work_function", "surface_anisotropy", "shape_factor", "has_reconstructed", "possible_species", "has_props", "theoretical", "database_IDs"]}