{"builder_meta": null, "nsites": null, "elements": null, "nelements": null, "composition": null, "composition_reduced": null, "formula_pretty": "NiP", "formula_anonymous": "AB", "chemsys": null, "volume": 199.66363697346281, "density": 5.9658665042524746, "density_atomic": 12.478977310841426, "symmetry": null, "property_name": null, "material_id": "mp-27844", "deprecated": null, "deprecation_reasons": null, "last_updated": null, "origins": null, "warnings": null, "structure": {"@module": "pymatgen.core.structure", "@class": "Structure", "charge": 0, "lattice": {"matrix": [[4.84601146, -0.0, 0.0], [0.0, 6.00425264, 0.0], [0.0, 0.0, 6.86207694]], "pbc": [true, true, true], "a": 4.84601146, "b": 6.00425264, "c": 6.86207694, "alpha": 90.0, "beta": 90.0, "gamma": 90.0, "volume": 199.66363697346281}, "properties": {}, "sites": [{"species": [{"element": "Ni", "occu": 1}], "abc": [0.98531226, 0.3075006, 0.89792626], "properties": {"magmom": 0.0}, "label": "Ni", "xyz": [4.774834503638499, 1.846311289351584, 6.1616390825664435]}, {"species": [{"element": "Ni", "occu": 1}], "abc": [0.48531226, 0.6924994, 0.60207374], "properties": {"magmom": 0.0}, "label": "Ni", "xyz": [2.3518287736384993, 4.157941350648416, 4.131476327433556]}, {"species": [{"element": "Ni", "occu": 1}], "abc": [0.5146877400000001, 0.8075006, 0.10207374], "properties": {"magmom": 0.0}, "label": "Ni", "xyz": [2.4941826863615004, 4.848437609351584, 0.7004378574335556]}, {"species": [{"element": "Ni", "occu": 1}], "abc": [0.01468774, 0.1924994, 0.39792626000000003], "properties": {"magmom": 0.0}, "label": "Ni", "xyz": [0.0711769563615004, 1.1558150306484158, 2.7306006125664446]}, {"species": [{"element": "Ni", "occu": 1}], "abc": [0.01468774, 0.6924994, 0.10207374], "properties": {"magmom": 0.0}, "label": "Ni", "xyz": [0.0711769563615004, 4.157941350648416, 0.7004378574335556]}, {"species": [{"element": "Ni", "occu": 1}], "abc": [0.5146877400000001, 0.3075006, 0.39792626000000003], "properties": {"magmom": 0.0}, "label": "Ni", "xyz": [2.4941826863615004, 1.846311289351584, 2.7306006125664446]}, {"species": [{"element": "Ni", "occu": 1}], "abc": [0.48531226, 0.1924994, 0.89792626], "properties": {"magmom": 0.0}, "label": "Ni", "xyz": [2.3518287736384993, 1.1558150306484158, 6.1616390825664435]}, {"species": [{"element": "Ni", "occu": 1}], "abc": [0.98531226, 0.8075006, 0.60207374], "properties": {"magmom": 0.0}, "label": "Ni", "xyz": [4.774834503638499, 4.848437609351584, 4.131476327433556]}, {"species": [{"element": "P", "occu": 1}], "abc": [0.82688324, 0.44423177, 0.611631599999999], "properties": {"magmom": -0.0}, "label": "P", "xyz": [4.00708565712193, 2.667279777794373, 4.197063098135297]}, {"species": [{"element": "P", "occu": 1}], "abc": [0.32688324, 0.55576823, 0.8883684], "properties": {"magmom": -0.0}, "label": "P", "xyz": [1.5840799271219304, 3.3369728622056267, 6.096052311864695]}, {"species": [{"element": "P", "occu": 1}], "abc": [0.67311676, 0.94423177, 0.3883684], "properties": {"magmom": -0.0}, "label": "P", "xyz": [3.2619315328780694, 5.669406097794373, 2.665013841864696]}, {"species": [{"element": "P", "occu": 1}], "abc": [0.17311676, 0.05576823, 0.1116316], "properties": {"magmom": -0.0}, "label": "P", "xyz": [0.8389258028780696, 0.3348465422056272, 0.7660246281353039]}, {"species": [{"element": "P", "occu": 1}], "abc": [0.17311676, 0.55576823, 0.3883684], "properties": {"magmom": -0.0}, "label": "P", "xyz": [0.8389258028780696, 3.3369728622056267, 2.665013841864696]}, {"species": [{"element": "P", "occu": 1}], "abc": [0.67311676, 0.44423177, 0.1116316], "properties": {"magmom": -0.0}, "label": "P", "xyz": [3.2619315328780694, 2.667279777794373, 0.7660246281353039]}, {"species": [{"element": "P", "occu": 1}], "abc": [0.32688324, 0.05576823, 0.611631599999999], "properties": {"magmom": -0.0}, "label": "P", "xyz": [1.5840799271219304, 0.3348465422056272, 4.197063098135297]}, {"species": [{"element": "P", "occu": 1}], "abc": [0.82688324, 0.94423177, 0.8883684], "properties": {"magmom": -0.0}, "label": "P", "xyz": [4.00708565712193, 5.669406097794373, 6.096052311864695]}]}, "task_ids": null, "uncorrected_energy_per_atom": null, "energy_per_atom": -10.944729028125, "formation_energy_per_atom": -0.45283229211309306, "energy_above_hull": 0.016093729791666, "is_stable": false, "equilibrium_reaction_energy_per_atom": null, "decomposes_to": null, "xas": null, "grain_boundaries": null, "band_gap": 0.0, "cbm": null, "vbm": null, "efermi": 8.82718985, "is_gap_direct": null, "is_metal": null, "es_source_calc_id": null, "bandstructure": null, "dos": null, "dos_energy_up": null, "dos_energy_down": null, "is_magnetic": null, "ordering": null, "total_magnetization": 1e-07, "total_magnetization_normalized_vol": null, "total_magnetization_normalized_formula_units": null, "num_magnetic_sites": null, "num_unique_magnetic_sites": null, "types_of_magnetic_species": null, "bulk_modulus": null, "shear_modulus": null, "universal_anisotropy": null, "homogeneous_poisson": null, "e_total": null, "e_ionic": null, "e_electronic": null, "n": null, "e_ij_max": null, "weighted_surface_energy_EV_PER_ANG2": null, "weighted_surface_energy": null, "weighted_work_function": null, "surface_anisotropy": null, "shape_factor": null, "has_reconstructed": null, "possible_species": null, "has_props": null, "theoretical": null, "database_IDs": null, "fields_not_requested": ["builder_meta", "nsites", "elements", "nelements", "composition", "composition_reduced", "chemsys", "symmetry", "property_name", "deprecated", "deprecation_reasons", "last_updated", "origins", "warnings", "task_ids", "uncorrected_energy_per_atom", "equilibrium_reaction_energy_per_atom", "decomposes_to", "xas", "grain_boundaries", "cbm", "vbm", "is_gap_direct", "is_metal", "es_source_calc_id", "bandstructure", "dos", "dos_energy_up", "dos_energy_down", "is_magnetic", "ordering", "total_magnetization_normalized_vol", "total_magnetization_normalized_formula_units", "num_magnetic_sites", "num_unique_magnetic_sites", "types_of_magnetic_species", "bulk_modulus", "shear_modulus", "universal_anisotropy", "homogeneous_poisson", "e_total", "e_ionic", "e_electronic", "n", "e_ij_max", "weighted_surface_energy_EV_PER_ANG2", "weighted_surface_energy", "weighted_work_function", "surface_anisotropy", "shape_factor", "has_reconstructed", "possible_species", "has_props", "theoretical", "database_IDs"]}