{"builder_meta": null, "nsites": null, "elements": null, "nelements": null, "composition": null, "composition_reduced": null, "formula_pretty": "NiP3", "formula_anonymous": "AB3", "chemsys": null, "volume": 236.23440347507827, "density": 4.262920310840363, "density_atomic": 14.764650217192392, "symmetry": null, "property_name": null, "material_id": "mp-2301", "deprecated": null, "deprecation_reasons": null, "last_updated": null, "origins": null, "warnings": null, "structure": {"@module": "pymatgen.core.structure", "@class": "Structure", "charge": 0, "lattice": {"matrix": [[6.35935351, -2.14e-06, -2.2483592], [-3.17967718, 5.50736133, -2.24835819], [-1.02e-06, -1.02e-06, 6.74507456]], "pbc": [true, true, true], "a": 6.745109054520805, "b": 6.74510862319742, "c": 6.7450745600001545, "alpha": 109.47112153628714, "beta": 109.47113483369064, "gamma": 109.471338780902, "volume": 236.23440347507827}, "properties": {}, "sites": [{"species": [{"element": "Ni", "occu": 1}], "abc": [0.5, 0.0, 0.0], "properties": {"magmom": -0.0}, "label": "Ni", "xyz": [3.179676755, -1.07e-06, -1.1241796]}, {"species": [{"element": "Ni", "occu": 1}], "abc": [0.0, 0.0, 0.5], "properties": {"magmom": -0.0}, "label": "Ni", "xyz": [-5.1e-07, -5.1e-07, 3.37253728]}, {"species": [{"element": "Ni", "occu": 1}], "abc": [0.0, 0.5, 0.0], "properties": {"magmom": -0.0}, "label": "Ni", "xyz": [-1.58983859, 2.753680665, -1.124179095]}, {"species": [{"element": "Ni", "occu": 1}], "abc": [0.5, 0.5, 0.5], "properties": {"magmom": -0.0}, "label": "Ni", "xyz": [1.589837655, 2.753679085, 1.1241785850000001]}, {"species": [{"element": "P", "occu": 1}], "abc": [0.5015731800000001, 0.85780077, 0.64377322], "properties": {"magmom": -0.0}, "label": "P", "xyz": [0.462150972750749, 4.724217059526934, 1.2859383082872213]}, {"species": [{"element": "P", "occu": 1}], "abc": [0.21402406000000002, 0.85780064, 0.35622756], "properties": {"magmom": -0.0}, "label": "P", "xyz": [-1.3664748261640558, 4.724217252221652, -0.007064606126720108]}, {"species": [{"element": "P", "occu": 1}], "abc": [0.78597594, 0.14219936, 0.64377244], "properties": {"magmom": -0.0}, "label": "P", "xyz": [4.546150136164056, 0.7831409177783484, 2.25542177612672]}, {"species": [{"element": "P", "occu": 1}], "abc": [0.14219936, 0.35622342, 0.49842692], "properties": {"magmom": -0.0}, "label": "P", "xyz": [-0.22837998881526045, 1.96185027544626, 2.2412936549942337]}, {"species": [{"element": "P", "occu": 1}], "abc": [0.49842682, 0.14219923, 0.35622678], "properties": {"magmom": -0.0}, "label": "P", "xyz": [2.7175243372492512, 0.7831411104730656, 0.9624188617127796]}, {"species": [{"element": "P", "occu": 1}], "abc": [0.14219923, 0.64377241, 0.78597345], "properties": {"magmom": -0.0}, "label": "P", "xyz": [-1.1426940704637254, 3.545486170155634, 3.5343036049074783]}, {"species": [{"element": "P", "occu": 1}], "abc": [0.35622342, 0.21402406000000002, 0.8577965], "properties": {"magmom": -0.0}, "label": "P", "xyz": [1.5848223618158235, 1.178706194463051, 4.503780398036524]}, {"species": [{"element": "P", "occu": 1}], "abc": [0.85780064, 0.64377658, 0.50157308], "properties": {"magmom": -0.0}, "label": "P", "xyz": [3.40805529881526, 3.5455078945537406, 0.007063515005766519]}, {"species": [{"element": "P", "occu": 1}], "abc": [0.64377658, 0.78597594, 0.142203499999999], "properties": {"magmom": -0.0}, "label": "P", "xyz": [1.5948529481841764, 4.328651975536949, -2.2554232280365314]}, {"species": [{"element": "P", "occu": 1}], "abc": [0.85780077, 0.35622759, 0.21402655], "properties": {"magmom": -0.0}, "label": "P", "xyz": [4.322369380463726, 1.9618719998443659, -1.2859464349074778]}, {"species": [{"element": "P", "occu": 1}], "abc": [0.64377341, 0.5015731800000001, 0.85779996], "properties": {"magmom": -0.0}, "label": "P", "xyz": [2.499141025026177, 2.762342483066073, 3.2107746515388014]}, {"species": [{"element": "P", "occu": 1}], "abc": [0.35622659, 0.49842682, 0.14220004], "properties": {"magmom": -0.0}, "label": "P", "xyz": [0.6805342849738225, 2.745015686933927, -0.9624174815388012]}]}, "task_ids": null, "uncorrected_energy_per_atom": null, "energy_per_atom": -10.0604225275, "formation_energy_per_atom": -0.313436003482141, "energy_above_hull": 0.0, "is_stable": true, "equilibrium_reaction_energy_per_atom": null, "decomposes_to": null, "xas": null, "grain_boundaries": null, "band_gap": 0.0, "cbm": null, "vbm": null, "efermi": 8.2089381, "is_gap_direct": null, "is_metal": null, "es_source_calc_id": null, "bandstructure": null, "dos": null, "dos_energy_up": null, "dos_energy_down": null, "is_magnetic": null, "ordering": null, "total_magnetization": 6.599999999999999e-06, "total_magnetization_normalized_vol": null, "total_magnetization_normalized_formula_units": null, "num_magnetic_sites": null, "num_unique_magnetic_sites": null, "types_of_magnetic_species": null, "bulk_modulus": null, "shear_modulus": null, "universal_anisotropy": null, "homogeneous_poisson": null, "e_total": null, "e_ionic": null, "e_electronic": null, "n": null, "e_ij_max": null, "weighted_surface_energy_EV_PER_ANG2": null, "weighted_surface_energy": null, "weighted_work_function": null, "surface_anisotropy": null, "shape_factor": null, "has_reconstructed": null, "possible_species": null, "has_props": null, "theoretical": null, "database_IDs": null, "fields_not_requested": ["builder_meta", "nsites", "elements", "nelements", "composition", "composition_reduced", "chemsys", "symmetry", "property_name", "deprecated", "deprecation_reasons", "last_updated", "origins", "warnings", "task_ids", "uncorrected_energy_per_atom", "equilibrium_reaction_energy_per_atom", "decomposes_to", "xas", "grain_boundaries", "cbm", "vbm", "is_gap_direct", "is_metal", "es_source_calc_id", "bandstructure", "dos", "dos_energy_up", "dos_energy_down", "is_magnetic", "ordering", "total_magnetization_normalized_vol", "total_magnetization_normalized_formula_units", "num_magnetic_sites", "num_unique_magnetic_sites", "types_of_magnetic_species", "bulk_modulus", "shear_modulus", "universal_anisotropy", "homogeneous_poisson", "e_total", "e_ionic", "e_electronic", "n", "e_ij_max", "weighted_surface_energy_EV_PER_ANG2", "weighted_surface_energy", "weighted_work_function", "surface_anisotropy", "shape_factor", "has_reconstructed", "possible_species", "has_props", "theoretical", "database_IDs"]}