{"builder_meta": null, "nsites": null, "elements": null, "nelements": null, "composition": null, "composition_reduced": null, "formula_pretty": "NiP4", "formula_anonymous": "AB4", "chemsys": null, "volume": 461.43134363621044, "density": 3.9424532623804573, "density_atomic": 15.381044787873682, "symmetry": null, "property_name": null, "material_id": "mp-769108", "deprecated": null, "deprecation_reasons": null, "last_updated": null, "origins": null, "warnings": null, "structure": {"@module": "pymatgen.core.structure", "@class": "Structure", "charge": 0, "lattice": {"matrix": [[14.020018, 0.0, 0.0], [0.0, 4.79181, 0.0], [0.0, 1.408697, 6.868453]], "pbc": [true, true, true], "a": 14.020018, "b": 4.79181, "c": 7.011424523662648, "alpha": 78.4095571790415, "beta": 90.0, "gamma": 90.0, "volume": 461.43134363621044}, "properties": {}, "sites": [{"species": [{"element": "Ni", "occu": 1}], "abc": [0.5, 0.0, 0.5], "properties": {"magmom": 0.0}, "label": "Ni", "xyz": [7.010009, 0.7043485, 3.4342265]}, {"species": [{"element": "Ni", "occu": 1}], "abc": [0.669943, 0.860487999999999, 0.883347999999999], "properties": {"magmom": 0.0}, "label": "Ni", "xyz": [9.392612918973999, 5.367664680835994, 6.067234220643993]}, {"species": [{"element": "Ni", "occu": 1}], "abc": [0.0, 0.0, 0.0], "properties": {"magmom": -0.0}, "label": "Ni", "xyz": [0.0, 0.0, 0.0]}, {"species": [{"element": "Ni", "occu": 1}], "abc": [0.830056999999999, 0.860487999999999, 0.383347999999999], "properties": {"magmom": -0.0}, "label": "Ni", "xyz": [11.637414081025987, 4.663316180835994, 2.633007720643993]}, {"species": [{"element": "Ni", "occu": 1}], "abc": [0.169942999999999, 0.139512, 0.616652], "properties": {"magmom": 0.0}, "label": "Ni", "xyz": [2.3826039189739863, 1.537190819164, 4.235445279356]}, {"species": [{"element": "Ni", "occu": 1}], "abc": [0.330057, 0.139512, 0.116651999999999], "properties": {"magmom": 0.0}, "label": "Ni", "xyz": [4.627405081026, 0.8328423191639985, 0.8012187793559932]}, {"species": [{"element": "P", "occu": 1}], "abc": [0.272395, 0.921663999999999, 0.871118], "properties": {"magmom": -0.0}, "label": "P", "xyz": [3.81898280311, 5.643580085085995, 5.9832330404539995]}, {"species": [{"element": "P", "occu": 1}], "abc": [0.227605, 0.921663999999999, 0.371118], "properties": {"magmom": 0.0}, "label": "P", "xyz": [3.19102619689, 4.939231585085995, 2.549006540454]}, {"species": [{"element": "P", "occu": 1}], "abc": [0.051923, 0.790922999999999, 0.753263], "properties": {"magmom": -0.0}, "label": "P", "xyz": [0.727961394614, 4.851072068940995, 5.173751512139]}, {"species": [{"element": "P", "occu": 1}], "abc": [0.384557, 0.742205, 0.702657], "properties": {"magmom": -0.0}, "label": "P", "xyz": [5.3914960620259995, 4.546336148979, 4.826166579621]}, {"species": [{"element": "P", "occu": 1}], "abc": [0.448077, 0.790922999999999, 0.253263], "properties": {"magmom": 0.0}, "label": "P", "xyz": [6.282047605386, 4.146723568940995, 1.739525012139]}, {"species": [{"element": "P", "occu": 1}], "abc": [0.6072649999999991, 0.645233, 0.640716], "properties": {"magmom": 0.0}, "label": "P", "xyz": [8.513866230769986, 3.9944086487819996, 4.400727732348]}, {"species": [{"element": "P", "occu": 1}], "abc": [0.945523, 0.624118, 0.573631], "properties": {"magmom": -0.0}, "label": "P", "xyz": [13.256249479414, 3.7987271423869995, 3.939957562843]}, {"species": [{"element": "P", "occu": 1}], "abc": [0.782246999999999, 0.500061, 0.957229], "properties": {"magmom": -0.0}, "label": "P", "xyz": [10.967117020445986, 3.744642921023, 6.574682396737]}, {"species": [{"element": "P", "occu": 1}], "abc": [0.115442999999999, 0.742205, 0.202657], "properties": {"magmom": -0.0}, "label": "P", "xyz": [1.618512937973986, 3.841987648979, 1.391940079621]}, {"species": [{"element": "P", "occu": 1}], "abc": [0.892735, 0.645233, 0.140715999999999], "properties": {"magmom": -0.0}, "label": "P", "xyz": [12.51616076923, 3.2900601487819983, 0.9665012323479931]}, {"species": [{"element": "P", "occu": 1}], "abc": [0.282246999999999, 0.499938999999999, 0.542771], "properties": {"magmom": 0.0}, "label": "P", "xyz": [3.9571080204459865, 3.1602125789769953, 3.7279971032629997]}, {"species": [{"element": "P", "occu": 1}], "abc": [0.554477, 0.624118, 0.073631], "properties": {"magmom": 0.0}, "label": "P", "xyz": [7.773777520586, 3.0943786423869994, 0.505731062843]}, {"species": [{"element": "P", "occu": 1}], "abc": [0.445523, 0.375882, 0.926369], "properties": {"magmom": 0.0}, "label": "P", "xyz": [6.246240479414, 3.1061283576129997, 6.362721937157]}, {"species": [{"element": "P", "occu": 1}], "abc": [0.717753, 0.500061, 0.457229], "properties": {"magmom": 0.0}, "label": "P", "xyz": [10.062909979554, 3.040294421023, 3.140455896737]}, {"species": [{"element": "P", "occu": 1}], "abc": [0.107265, 0.354767, 0.859283999999999], "properties": {"magmom": -0.0}, "label": "P", "xyz": [1.50385723077, 2.9104468512179986, 5.901951767651993]}, {"species": [{"element": "P", "occu": 1}], "abc": [0.884556999999999, 0.257795, 0.797342999999999], "properties": {"magmom": -0.0}, "label": "P", "xyz": [12.401505062025986, 2.3585193510209983, 5.476512920378993]}, {"species": [{"element": "P", "occu": 1}], "abc": [0.217753, 0.499938999999999, 0.042770999999999004], "properties": {"magmom": -0.0}, "label": "P", "xyz": [3.0529009795540003, 2.455864078976994, 0.29377060326299315]}, {"species": [{"element": "P", "occu": 1}], "abc": [0.054477, 0.375882, 0.426369], "properties": {"magmom": -0.0}, "label": "P", "xyz": [0.763768520586, 2.401779857613, 2.928495437157]}, {"species": [{"element": "P", "occu": 1}], "abc": [0.392735, 0.354767, 0.359284], "properties": {"magmom": 0.0}, "label": "P", "xyz": [5.50615176923, 2.206098351218, 2.467725267652]}, {"species": [{"element": "P", "occu": 1}], "abc": [0.551922999999999, 0.209076999999999, 0.746737], "properties": {"magmom": 0.0}, "label": "P", "xyz": [7.737970394613987, 2.0537834310589953, 5.128927987860999]}, {"species": [{"element": "P", "occu": 1}], "abc": [0.615443, 0.257795, 0.297342999999999], "properties": {"magmom": 0.0}, "label": "P", "xyz": [8.628521937974, 1.6541708510209985, 2.042286420378993]}, {"species": [{"element": "P", "occu": 1}], "abc": [0.948077, 0.209076999999999, 0.246736999999999], "properties": {"magmom": -0.0}, "label": "P", "xyz": [13.292056605386, 1.349434931058994, 1.6947014878609932]}, {"species": [{"element": "P", "occu": 1}], "abc": [0.772394999999999, 0.078336, 0.628881999999999], "properties": {"magmom": 0.0}, "label": "P", "xyz": [10.828991803109988, 1.2612754149139986, 4.319446459545993]}, {"species": [{"element": "P", "occu": 1}], "abc": [0.727605, 0.078336, 0.128882], "properties": {"magmom": -0.0}, "label": "P", "xyz": [10.201035196889999, 0.556926914914, 0.885219959546]}]}, "task_ids": null, "uncorrected_energy_per_atom": null, "energy_per_atom": -9.77041173390476, "formation_energy_per_atom": -0.17240725228571302, "energy_above_hull": 0.07834155050000101, "is_stable": false, "equilibrium_reaction_energy_per_atom": null, "decomposes_to": null, "xas": null, "grain_boundaries": null, "band_gap": 0.0, "cbm": null, "vbm": null, "efermi": 8.42670163, "is_gap_direct": null, "is_metal": null, "es_source_calc_id": null, "bandstructure": null, "dos": null, "dos_energy_up": null, "dos_energy_down": null, "is_magnetic": null, "ordering": null, "total_magnetization": 0.001435799999999, "total_magnetization_normalized_vol": null, "total_magnetization_normalized_formula_units": null, "num_magnetic_sites": null, "num_unique_magnetic_sites": null, "types_of_magnetic_species": null, "bulk_modulus": null, "shear_modulus": null, "universal_anisotropy": null, "homogeneous_poisson": null, "e_total": null, "e_ionic": null, "e_electronic": null, "n": null, "e_ij_max": null, "weighted_surface_energy_EV_PER_ANG2": null, "weighted_surface_energy": null, "weighted_work_function": null, "surface_anisotropy": null, "shape_factor": null, "has_reconstructed": null, "possible_species": null, "has_props": null, "theoretical": null, "database_IDs": null, "fields_not_requested": ["builder_meta", "nsites", "elements", "nelements", "composition", "composition_reduced", "chemsys", "symmetry", "property_name", "deprecated", "deprecation_reasons", "last_updated", "origins", "warnings", "task_ids", "uncorrected_energy_per_atom", "equilibrium_reaction_energy_per_atom", "decomposes_to", "xas", "grain_boundaries", "cbm", "vbm", "is_gap_direct", "is_metal", "es_source_calc_id", "bandstructure", "dos", "dos_energy_up", "dos_energy_down", "is_magnetic", "ordering", "total_magnetization_normalized_vol", "total_magnetization_normalized_formula_units", "num_magnetic_sites", "num_unique_magnetic_sites", "types_of_magnetic_species", "bulk_modulus", "shear_modulus", "universal_anisotropy", "homogeneous_poisson", "e_total", "e_ionic", "e_electronic", "n", "e_ij_max", "weighted_surface_energy_EV_PER_ANG2", "weighted_surface_energy", "weighted_work_function", "surface_anisotropy", "shape_factor", "has_reconstructed", "possible_species", "has_props", "theoretical", "database_IDs"]}