{
  "builder_meta": null,
  "nsites": null,
  "elements": null,
  "nelements": null,
  "composition": null,
  "composition_reduced": null,
  "formula_pretty": "NiS",
  "formula_anonymous": "AB",
  "chemsys": null,
  "volume": 81.52968414282847,
  "density": 5.54550911388632,
  "density_atomic": 13.588280690471413,
  "symmetry": null,
  "property_name": null,
  "material_id": "mp-1547",
  "deprecated": null,
  "deprecation_reasons": null,
  "last_updated": null,
  "origins": null,
  "warnings": null,
  "structure": {
    "@module": "pymatgen.core.structure",
    "@class": "Structure",
    "charge": 0,
    "lattice": {
      "matrix": [
        [4.99417527, -0.00022791, -2.50089966],
        [-4.04927403, 2.9232247, -2.50095735],
        [-5.754e-5, -0.00028664, 5.58539649]
      ],
      "pbc": [true, true, true],
      "a": 5.585363532377339,
      "b": 5.585396179613542,
      "c": 5.585396497651502,
      "alpha": 116.60176391963667,
      "beta": 116.60061738020937,
      "gamma": 116.600626378933,
      "volume": 81.52968414282847
    },
    "properties": {},
    "sites": [
      {
        "species": [{ "element": "Ni", "occu": 1 }],
        "abc": [0.65965952, 0.39687861, 0.39687861],
        "properties": { "magmom": -0.0 },
        "label": "Ni",
        "xyz": [1.687362176473353, 1.1599012513676936, -0.4255943507709681]
      },
      {
        "species": [{ "element": "Ni", "occu": 1 }],
        "abc": [0.39687808, 0.39685974, 0.65963116],
        "properties": { "magmom": -0.0 },
        "label": "Ni",
        "xyz": [0.37504689842958305, 1.1598306652446628, 1.6992200267530864]
      },
      {
        "species": [{ "element": "Ni", "occu": 1 }],
        "abc": [0.39687808, 0.65963116, 0.39685974],
        "properties": { "magmom": -0.0 },
        "label": "Ni",
        "xyz": [-0.6889714685351327, 1.9280458914425656, -0.42564265440616644]
      },
      {
        "species": [{ "element": "S", "occu": 1 }],
        "abc": [0.78351199, 0.11925663, 0.11925663],
        "properties": { "magmom": 0.0 },
        "label": "S",
        "xyz": [3.4300865674156786, 0.34840117251669694, -1.5916450521204255]
      },
      {
        "species": [{ "element": "S", "occu": 1 }],
        "abc": [0.11923767, 0.11924664, 0.78352921],
        "properties": { "magmom": 0.0 },
        "label": "S",
        "xyz": [0.11258641597891828, 0.34833295716988394, 3.7798890902134765]
      },
      {
        "species": [{ "element": "S", "occu": 1 }],
        "abc": [0.11923767, 0.78352921, 0.11924664],
        "properties": { "magmom": 0.0 },
        "label": "S",
        "xyz": [-2.577237520484661, 2.2903705835292274, -1.591734820551092]
      }
    ]
  },
  "task_ids": null,
  "uncorrected_energy_per_atom": null,
  "energy_per_atom": -5.5694319100000005,
  "formation_energy_per_atom": -0.610183786249998,
  "energy_above_hull": 0.014181840833332002,
  "is_stable": false,
  "equilibrium_reaction_energy_per_atom": null,
  "decomposes_to": null,
  "xas": null,
  "grain_boundaries": null,
  "band_gap": 0.0,
  "cbm": null,
  "vbm": null,
  "efermi": 7.99209344,
  "is_gap_direct": null,
  "is_metal": null,
  "es_source_calc_id": null,
  "bandstructure": null,
  "dos": null,
  "dos_energy_up": null,
  "dos_energy_down": null,
  "is_magnetic": null,
  "ordering": null,
  "total_magnetization": 0.0,
  "total_magnetization_normalized_vol": null,
  "total_magnetization_normalized_formula_units": null,
  "num_magnetic_sites": null,
  "num_unique_magnetic_sites": null,
  "types_of_magnetic_species": null,
  "bulk_modulus": null,
  "shear_modulus": null,
  "universal_anisotropy": null,
  "homogeneous_poisson": null,
  "e_total": null,
  "e_ionic": null,
  "e_electronic": null,
  "n": null,
  "e_ij_max": null,
  "weighted_surface_energy_EV_PER_ANG2": null,
  "weighted_surface_energy": null,
  "weighted_work_function": null,
  "surface_anisotropy": null,
  "shape_factor": null,
  "has_reconstructed": null,
  "possible_species": null,
  "has_props": null,
  "theoretical": null,
  "database_IDs": null,
  "fields_not_requested": [
    "builder_meta",
    "nsites",
    "elements",
    "nelements",
    "composition",
    "composition_reduced",
    "chemsys",
    "symmetry",
    "property_name",
    "deprecated",
    "deprecation_reasons",
    "last_updated",
    "origins",
    "warnings",
    "task_ids",
    "uncorrected_energy_per_atom",
    "equilibrium_reaction_energy_per_atom",
    "decomposes_to",
    "xas",
    "grain_boundaries",
    "cbm",
    "vbm",
    "is_gap_direct",
    "is_metal",
    "es_source_calc_id",
    "bandstructure",
    "dos",
    "dos_energy_up",
    "dos_energy_down",
    "is_magnetic",
    "ordering",
    "total_magnetization_normalized_vol",
    "total_magnetization_normalized_formula_units",
    "num_magnetic_sites",
    "num_unique_magnetic_sites",
    "types_of_magnetic_species",
    "bulk_modulus",
    "shear_modulus",
    "universal_anisotropy",
    "homogeneous_poisson",
    "e_total",
    "e_ionic",
    "e_electronic",
    "n",
    "e_ij_max",
    "weighted_surface_energy_EV_PER_ANG2",
    "weighted_surface_energy",
    "weighted_work_function",
    "surface_anisotropy",
    "shape_factor",
    "has_reconstructed",
    "possible_species",
    "has_props",
    "theoretical",
    "database_IDs"
  ]
}
