{"builder_meta": null, "nsites": null, "elements": null, "nelements": null, "composition": null, "composition_reduced": null, "formula_pretty": "NiS2", "formula_anonymous": "AB2", "chemsys": null, "volume": 103.50869887667355, "density": 3.940790604191446, "density_atomic": 17.251449812778926, "symmetry": null, "property_name": null, "material_id": "mp-1180046", "deprecated": null, "deprecation_reasons": null, "last_updated": null, "origins": null, "warnings": null, "structure": {"@module": "pymatgen.core.structure", "@class": "Structure", "charge": 0, "lattice": {"matrix": [[5.23270261, 0.84224013, -0.0060738], [3.06569059, 4.29641859, -0.01198676], [0.00399785, 0.01254709, 5.20145475]], "pbc": [true, true, true], "a": 5.3000548989920535, "b": 5.278050319628209, "c": 5.201471419566741, "alpha": 89.99203781118024, "beta": 90.00021900068259, "gamma": 45.34665226029898, "volume": 103.50869887667356}, "properties": {}, "sites": [{"species": [{"element": "Ni", "occu": 1}], "abc": [0.75106429, 0.49840761, 0.16639573], "properties": {"magmom": -0.0}, "label": "Ni", "xyz": [5.458724815691367, 2.776031988449353, 0.8549637535003719]}, {"species": [{"element": "Ni", "occu": 1}], "abc": [0.248944, 0.5015807, 0.66641404], "properties": {"magmom": 0.0}, "label": "Ni", "xyz": [2.8430053740292665, 2.3730328277250767, 3.458798110285958]}, {"species": [{"element": "S", "occu": 1}], "abc": [0.2674169, 0.64970349, 0.0499931], "properties": {"magmom": -0.0}, "label": "S", "xyz": [3.3913028510861034, 3.0172546649691556, 0.2506247708892126]}, {"species": [{"element": "S", "occu": 1}], "abc": [0.76670063, 0.65083432, 0.7835708], "properties": {"magmom": 0.0}, "label": "S", "xyz": [6.010305636685472, 3.4518342430892623, 4.063249878541202]}, {"species": [{"element": "S", "occu": 1}], "abc": [0.233337799999999, 0.34913996, 0.28361544], "properties": {"magmom": -0.0}, "label": "S", "xyz": [2.2924762570234334, 1.7001364221128394, 1.4696105735247704]}, {"species": [{"element": "S", "occu": 1}], "abc": [0.73253639, 0.35033492, 0.55001289], "properties": {"magmom": 0.0}, "label": "S", "xyz": [4.909362416497667, 2.1290580685894835, 2.852218499120486]}]}, "task_ids": null, "uncorrected_energy_per_atom": null, "energy_per_atom": -5.276503906666667, "formation_energy_per_atom": -0.5908853016666661, "energy_above_hull": 0.0, "is_stable": true, "equilibrium_reaction_energy_per_atom": null, "decomposes_to": null, "xas": null, "grain_boundaries": null, "band_gap": 0.24040000000000003, "cbm": null, "vbm": null, "efermi": 5.56203067, "is_gap_direct": null, "is_metal": null, "es_source_calc_id": null, "bandstructure": null, "dos": null, "dos_energy_up": null, "dos_energy_down": null, "is_magnetic": null, "ordering": null, "total_magnetization": 0.0, "total_magnetization_normalized_vol": null, "total_magnetization_normalized_formula_units": null, "num_magnetic_sites": null, "num_unique_magnetic_sites": null, "types_of_magnetic_species": null, "bulk_modulus": null, "shear_modulus": null, "universal_anisotropy": null, "homogeneous_poisson": null, "e_total": null, "e_ionic": null, "e_electronic": null, "n": null, "e_ij_max": null, "weighted_surface_energy_EV_PER_ANG2": null, "weighted_surface_energy": null, "weighted_work_function": null, "surface_anisotropy": null, "shape_factor": null, "has_reconstructed": null, "possible_species": null, "has_props": null, "theoretical": null, "database_IDs": null, "fields_not_requested": ["builder_meta", "nsites", "elements", "nelements", "composition", "composition_reduced", "chemsys", "symmetry", "property_name", "deprecated", "deprecation_reasons", "last_updated", "origins", "warnings", "task_ids", "uncorrected_energy_per_atom", "equilibrium_reaction_energy_per_atom", "decomposes_to", "xas", "grain_boundaries", "cbm", "vbm", "is_gap_direct", "is_metal", "es_source_calc_id", "bandstructure", "dos", "dos_energy_up", "dos_energy_down", "is_magnetic", "ordering", "total_magnetization_normalized_vol", "total_magnetization_normalized_formula_units", "num_magnetic_sites", "num_unique_magnetic_sites", "types_of_magnetic_species", "bulk_modulus", "shear_modulus", "universal_anisotropy", "homogeneous_poisson", "e_total", "e_ionic", "e_electronic", "n", "e_ij_max", "weighted_surface_energy_EV_PER_ANG2", "weighted_surface_energy", "weighted_work_function", "surface_anisotropy", "shape_factor", "has_reconstructed", "possible_species", "has_props", "theoretical", "database_IDs"]}