{"builder_meta": null, "nsites": null, "elements": null, "nelements": null, "composition": null, "composition_reduced": null, "formula_pretty": "NiSb3", "formula_anonymous": "AB3", "chemsys": null, "volume": 387.5009327301995, "density": 7.267331089387706, "density_atomic": 24.21880829563747, "symmetry": null, "property_name": null, "material_id": "mp-1106023", "deprecated": null, "deprecation_reasons": null, "last_updated": null, "origins": null, "warnings": null, "structure": {"@module": "pymatgen.core.structure", "@class": "Structure", "charge": 0, "lattice": {"matrix": [[-4.59273006, -4.59273006, 4.59273006], [-4.59273006, 4.59273006, -4.59273006], [4.59273006, -4.59273006, -4.59273006]], "pbc": [true, true, true], "a": 7.954841809368859, "b": 7.954841809368859, "c": 7.954841809368859, "alpha": 109.47122063449069, "beta": 109.47122063449069, "gamma": 109.47122063449069, "volume": 387.5009327301995}, "properties": {}, "sites": [{"species": [{"element": "Ni", "occu": 1}], "abc": [-0.0, -0.0, 0.5], "properties": {"magmom": 0.0}, "label": "Ni", "xyz": [2.29636503, -2.29636503, -2.29636503]}, {"species": [{"element": "Ni", "occu": 1}], "abc": [0.5, -0.0, -0.0], "properties": {"magmom": 0.0}, "label": "Ni", "xyz": [-2.29636503, -2.29636503, 2.29636503]}, {"species": [{"element": "Ni", "occu": 1}], "abc": [-0.0, 0.5, -0.0], "properties": {"magmom": 0.0}, "label": "Ni", "xyz": [-2.29636503, 2.29636503, -2.29636503]}, {"species": [{"element": "Ni", "occu": 1}], "abc": [0.5, 0.5, 0.5], "properties": {"magmom": 0.0}, "label": "Ni", "xyz": [-2.29636503, -2.29636503, -2.29636503]}, {"species": [{"element": "Sb", "occu": 1}], "abc": [0.15872907, 0.82178235, 0.66305428], "properties": {"magmom": -0.0}, "label": "Sb", "xyz": [-1.457994949639629, -4.592730059815864e-06, -6.090454053605253]}, {"species": [{"element": "Sb", "occu": 1}], "abc": [0.84127093, 0.17821765, 0.33694572], "properties": {"magmom": -0.0}, "label": "Sb", "xyz": [-3.1347351103603716, -4.59272546726994, 1.4977239936052535]}, {"species": [{"element": "Sb", "occu": 1}], "abc": [0.84127093, 0.50432721, 0.66305428], "properties": {"magmom": -0.0}, "label": "Sb", "xyz": [-3.1347397030904323, -4.5927208745398795, -1.4977377717954337]}, {"species": [{"element": "Sb", "occu": 1}], "abc": [0.15872907, 0.49567279000000003, 0.33694572], "properties": {"magmom": -0.0}, "label": "Sb", "xyz": [-1.457990356909569, -9.185460119631728e-06, -3.094992288204567]}, {"species": [{"element": "Sb", "occu": 1}], "abc": [0.82178235, 0.66305428, 0.15872907], "properties": {"magmom": -0.0}, "label": "Sb", "xyz": [-6.090454053605254, -1.4579949496396287, -4.592730059593819e-06]}, {"species": [{"element": "Sb", "occu": 1}], "abc": [0.17821765, 0.33694572, 0.84127093], "properties": {"magmom": -0.0}, "label": "Sb", "xyz": [1.4977239936052533, -3.1347351103603716, -4.59272546726994]}, {"species": [{"element": "Sb", "occu": 1}], "abc": [0.50432721, 0.66305428, 0.84127093], "properties": {"magmom": -0.0}, "label": "Sb", "xyz": [-1.4977377717954332, -3.134739703090432, -4.5927208745398795]}, {"species": [{"element": "Sb", "occu": 1}], "abc": [0.49567279000000003, 0.33694572, 0.15872907], "properties": {"magmom": -0.0}, "label": "Sb", "xyz": [-3.0949922882045673, -1.4579903569095687, -9.185460119631728e-06]}, {"species": [{"element": "Sb", "occu": 1}], "abc": [0.66305428, 0.15872907, 0.82178235], "properties": {"magmom": -0.0}, "label": "Sb", "xyz": [-4.592730059815864e-06, -6.090454053605253, -1.457994949639629]}, {"species": [{"element": "Sb", "occu": 1}], "abc": [0.33694572, 0.84127093, 0.17821765], "properties": {"magmom": -0.0}, "label": "Sb", "xyz": [-4.59272546726994, 1.4977239936052533, -3.134735110360371]}, {"species": [{"element": "Sb", "occu": 1}], "abc": [0.66305428, 0.84127093, 0.50432721], "properties": {"magmom": -0.0}, "label": "Sb", "xyz": [-4.5927208745398795, -1.4977377717954337, -3.134739703090432]}, {"species": [{"element": "Sb", "occu": 1}], "abc": [0.33694572, 0.15872907, 0.49567279000000003], "properties": {"magmom": -0.0}, "label": "Sb", "xyz": [-9.185460119631728e-06, -3.094992288204567, -1.4579903569095687]}]}, "task_ids": null, "uncorrected_energy_per_atom": null, "energy_per_atom": -22.40086557375, "formation_energy_per_atom": -0.12569948624999902, "energy_above_hull": 0.015611355, "is_stable": false, "equilibrium_reaction_energy_per_atom": null, "decomposes_to": null, "xas": null, "grain_boundaries": null, "band_gap": 0.0, "cbm": null, "vbm": null, "efermi": 7.40043538, "is_gap_direct": null, "is_metal": null, "es_source_calc_id": null, "bandstructure": null, "dos": null, "dos_energy_up": null, "dos_energy_down": null, "is_magnetic": null, "ordering": null, "total_magnetization": 1e-07, "total_magnetization_normalized_vol": null, "total_magnetization_normalized_formula_units": null, "num_magnetic_sites": null, "num_unique_magnetic_sites": null, "types_of_magnetic_species": null, "bulk_modulus": null, "shear_modulus": null, "universal_anisotropy": null, "homogeneous_poisson": null, "e_total": null, "e_ionic": null, "e_electronic": null, "n": null, "e_ij_max": null, "weighted_surface_energy_EV_PER_ANG2": null, "weighted_surface_energy": null, "weighted_work_function": null, "surface_anisotropy": null, "shape_factor": null, "has_reconstructed": null, "possible_species": null, "has_props": null, "theoretical": null, "database_IDs": null, "fields_not_requested": ["builder_meta", "nsites", "elements", "nelements", "composition", "composition_reduced", "chemsys", "symmetry", "property_name", "deprecated", "deprecation_reasons", "last_updated", "origins", "warnings", "task_ids", "uncorrected_energy_per_atom", "equilibrium_reaction_energy_per_atom", "decomposes_to", "xas", "grain_boundaries", "cbm", "vbm", "is_gap_direct", "is_metal", "es_source_calc_id", "bandstructure", "dos", "dos_energy_up", "dos_energy_down", "is_magnetic", "ordering", "total_magnetization_normalized_vol", "total_magnetization_normalized_formula_units", "num_magnetic_sites", "num_unique_magnetic_sites", "types_of_magnetic_species", "bulk_modulus", "shear_modulus", "universal_anisotropy", "homogeneous_poisson", "e_total", "e_ionic", "e_electronic", "n", "e_ij_max", "weighted_surface_energy_EV_PER_ANG2", "weighted_surface_energy", "weighted_work_function", "surface_anisotropy", "shape_factor", "has_reconstructed", "possible_species", "has_props", "theoretical", "database_IDs"]}