{"builder_meta": null, "nsites": null, "elements": null, "nelements": null, "composition": null, "composition_reduced": null, "formula_pretty": "NiSe2", "formula_anonymous": "AB2", "chemsys": null, "volume": 218.8352663524979, "density": 6.574717485794248, "density_atomic": 18.236272196041494, "symmetry": null, "property_name": null, "material_id": "mp-20901", "deprecated": null, "deprecation_reasons": null, "last_updated": null, "origins": null, "warnings": null, "structure": {"@module": "pymatgen.core.structure", "@class": "Structure", "charge": 0, "lattice": {"matrix": [[6.02597256, 1.3660000000000001e-05, 4.3650000000000004e-05], [1.2380000000000002e-05, 6.04786403, -0.00012872], [4.6980000000000014e-05, -0.00012969999999900002, 6.00465616]], "pbc": [true, true, true], "a": 6.0259725601735745, "b": 6.04786403138248, "c": 6.0046561615845375, "alpha": 90.00245703988332, "beta": 89.99913669449809, "gamma": 89.9997528429942, "volume": 218.8352663524979}, "properties": {}, "sites": [{"species": [{"element": "Ni", "occu": 1}], "abc": [0.0, -0.0, 0.0], "properties": {"magmom": -1.198}, "label": "Ni", "xyz": [0.0, 0.0, 0.0]}, {"species": [{"element": "Ni", "occu": 1}], "abc": [0.5, -0.0, 0.5], "properties": {"magmom": -1.198}, "label": "Ni", "xyz": [3.0130097699999996, -5.801999999950001e-05, 3.002349905]}, {"species": [{"element": "Ni", "occu": 1}], "abc": [0.5, 0.5, 0.0], "properties": {"magmom": 1.198}, "label": "Ni", "xyz": [3.01299247, 3.023938845, -4.2535e-05]}, {"species": [{"element": "Ni", "occu": 1}], "abc": [0.0, 0.5, 0.5], "properties": {"magmom": 1.199}, "label": "Ni", "xyz": [2.9680000000000007e-05, 3.023867165000001, 3.0022637199999997]}, {"species": [{"element": "Se", "occu": 1}], "abc": [0.38544456, 0.38477606000000003, 0.38674452], "properties": {"magmom": 0.054}, "label": "Se", "xyz": [2.322701274746446, 2.327028397287568, 2.3222351606448437]}, {"species": [{"element": "Se", "occu": 1}], "abc": [0.11456467000000001, 0.61520584, 0.88675844], "properties": {"magmom": 0.054}, "label": "Se", "xyz": [0.6904128339252655, 3.7205678231656605, 5.324605340630111]}, {"species": [{"element": "Se", "occu": 1}], "abc": [0.88543324, 0.11522982, 0.61327133], "properties": {"magmom": -0.054}, "label": "Se", "xyz": [5.335626645984149, 0.6968268372879327, 3.6825072862143884]}, {"species": [{"element": "Se", "occu": 1}], "abc": [0.61455821, 0.8847735800000001, 0.11327574], "properties": {"magmom": -0.054}, "label": "Se", "xyz": [3.703327185173903, 5.3509840121779995, 0.6800948073802072]}, {"species": [{"element": "Se", "occu": 1}], "abc": [0.6145554400000001, 0.61522394, 0.61325548], "properties": {"magmom": 0.054}, "label": "Se", "xyz": [3.7033306452535544, 3.7207195927124332, 3.6823359293551556]}, {"species": [{"element": "Se", "occu": 1}], "abc": [0.88543533, 0.38479416, 0.11324156], "properties": {"magmom": 0.054}, "label": "Se", "xyz": [5.3356190860747335, 2.327180166834341, 0.6799657493698888]}, {"species": [{"element": "Se", "occu": 1}], "abc": [0.11456676, 0.8847701800000001, 0.38672867], "properties": {"magmom": -0.054}, "label": "Se", "xyz": [0.6904052740158505, 5.350921152712069, 2.3220638037856114]}, {"species": [{"element": "Se", "occu": 1}], "abc": [0.38544179, 0.11522642, 0.88672426], "properties": {"magmom": -0.054}, "label": "Se", "xyz": [2.3227047348260967, 0.696763977822003, 5.324476282619793]}]}, "task_ids": null, "uncorrected_energy_per_atom": null, "energy_per_atom": -13.85474687, "formation_energy_per_atom": -0.319800996041666, "energy_above_hull": 0.0, "is_stable": true, "equilibrium_reaction_energy_per_atom": null, "decomposes_to": null, "xas": null, "grain_boundaries": null, "band_gap": 0.0, "cbm": null, "vbm": null, "efermi": 6.29710288, "is_gap_direct": null, "is_metal": null, "es_source_calc_id": null, "bandstructure": null, "dos": null, "dos_energy_up": null, "dos_energy_down": null, "is_magnetic": null, "ordering": null, "total_magnetization": 0.0001202, "total_magnetization_normalized_vol": null, "total_magnetization_normalized_formula_units": null, "num_magnetic_sites": null, "num_unique_magnetic_sites": null, "types_of_magnetic_species": null, "bulk_modulus": null, "shear_modulus": null, "universal_anisotropy": null, "homogeneous_poisson": null, "e_total": null, "e_ionic": null, "e_electronic": null, "n": null, "e_ij_max": null, "weighted_surface_energy_EV_PER_ANG2": null, "weighted_surface_energy": null, "weighted_work_function": null, "surface_anisotropy": null, "shape_factor": null, "has_reconstructed": null, "possible_species": null, "has_props": null, "theoretical": null, "database_IDs": null, "fields_not_requested": ["builder_meta", "nsites", "elements", "nelements", "composition", "composition_reduced", "chemsys", "symmetry", "property_name", "deprecated", "deprecation_reasons", "last_updated", "origins", "warnings", "task_ids", "uncorrected_energy_per_atom", "equilibrium_reaction_energy_per_atom", "decomposes_to", "xas", "grain_boundaries", "cbm", "vbm", "is_gap_direct", "is_metal", "es_source_calc_id", "bandstructure", "dos", "dos_energy_up", "dos_energy_down", "is_magnetic", "ordering", "total_magnetization_normalized_vol", "total_magnetization_normalized_formula_units", "num_magnetic_sites", "num_unique_magnetic_sites", "types_of_magnetic_species", "bulk_modulus", "shear_modulus", "universal_anisotropy", "homogeneous_poisson", "e_total", "e_ionic", "e_electronic", "n", "e_ij_max", "weighted_surface_energy_EV_PER_ANG2", "weighted_surface_energy", "weighted_work_function", "surface_anisotropy", "shape_factor", "has_reconstructed", "possible_species", "has_props", "theoretical", "database_IDs"]}