{"builder_meta": null, "nsites": null, "elements": null, "nelements": null, "composition": null, "composition_reduced": null, "formula_pretty": "NiSe", "formula_anonymous": "AB", "chemsys": null, "volume": 94.6900144458362, "density": 7.241909815561372, "density_atomic": 15.781669074306032, "symmetry": null, "property_name": null, "material_id": "mp-15651", "deprecated": null, "deprecation_reasons": null, "last_updated": null, "origins": null, "warnings": null, "structure": {"@module": "pymatgen.core.structure", "@class": "Structure", "charge": 0, "lattice": {"matrix": [[5.23250782, 0.0010362400000000001, -2.61073971], [-4.22056194, 3.09289381, -2.61073971], [0.00033932, 0.00103632, 5.84765918]], "pbc": [true, true, true], "a": 5.847657735668648, "b": 5.847657397854611, "c": 5.8476592816729225, "alpha": 116.51340712226458, "beta": 116.51339898887507, "gamma": 116.51344017686895, "volume": 94.69001444583618}, "properties": {}, "sites": [{"species": [{"element": "Ni", "occu": 1}], "abc": [0.00720415, 0.26254928, 0.00720415], "properties": {"magmom": -0.0}, "label": "Ni", "xyz": [-1.070407282818772, 0.8120519739650808, -0.6621285777281082]}, {"species": [{"element": "Ni", "occu": 1}], "abc": [0.00720415, 0.00720415, 0.26254928], "properties": {"magmom": -0.0}, "label": "Ni", "xyz": [0.007379298133091605, 0.022561221239557103, 1.4976823864307975]}, {"species": [{"element": "Ni", "occu": 1}], "abc": [0.26254928, 0.00720415, 0.00720415], "properties": {"magmom": -0.0}, "label": "Ni", "xyz": [1.3433880439474968, 0.0225612008119467, -0.6621285777281082]}, {"species": [{"element": "Se", "occu": 1}], "abc": [0.7245936900000001, 0.38585303, 0.7245936900000001], "properties": {"magmom": -0.0}, "label": "Se", "xyz": [2.1631714055268696, 1.1949042119548905, 1.338089595355323]}, {"species": [{"element": "Se", "occu": 1}], "abc": [0.7245936900000001, 0.7245936900000001, 0.38585303], "properties": {"magmom": -0.0}, "label": "Se", "xyz": [0.7333805269196374, 2.242242058743434, -1.5271140271865447]}, {"species": [{"element": "Se", "occu": 1}], "abc": [0.38585303, 0.7245936900000001, 0.7245936900000001], "properties": {"magmom": -0.0}, "label": "Se", "xyz": [-1.0389676840015731, 2.2422420858426872, 1.338089595355323]}]}, "task_ids": null, "uncorrected_energy_per_atom": null, "energy_per_atom": -13.475771496666667, "formation_energy_per_atom": -0.32913280119791705, "energy_above_hull": 0.0, "is_stable": true, "equilibrium_reaction_energy_per_atom": null, "decomposes_to": null, "xas": null, "grain_boundaries": null, "band_gap": 0.0, "cbm": null, "vbm": null, "efermi": 6.55734533, "is_gap_direct": null, "is_metal": null, "es_source_calc_id": null, "bandstructure": null, "dos": null, "dos_energy_up": null, "dos_energy_down": null, "is_magnetic": null, "ordering": null, "total_magnetization": 1e-07, "total_magnetization_normalized_vol": null, "total_magnetization_normalized_formula_units": null, "num_magnetic_sites": null, "num_unique_magnetic_sites": null, "types_of_magnetic_species": null, "bulk_modulus": null, "shear_modulus": null, "universal_anisotropy": null, "homogeneous_poisson": null, "e_total": null, "e_ionic": null, "e_electronic": null, "n": null, "e_ij_max": null, "weighted_surface_energy_EV_PER_ANG2": null, "weighted_surface_energy": null, "weighted_work_function": null, "surface_anisotropy": null, "shape_factor": null, "has_reconstructed": null, "possible_species": null, "has_props": null, "theoretical": null, "database_IDs": null, "fields_not_requested": ["builder_meta", "nsites", "elements", "nelements", "composition", "composition_reduced", "chemsys", "symmetry", "property_name", "deprecated", "deprecation_reasons", "last_updated", "origins", "warnings", "task_ids", "uncorrected_energy_per_atom", "equilibrium_reaction_energy_per_atom", "decomposes_to", "xas", "grain_boundaries", "cbm", "vbm", "is_gap_direct", "is_metal", "es_source_calc_id", "bandstructure", "dos", "dos_energy_up", "dos_energy_down", "is_magnetic", "ordering", "total_magnetization_normalized_vol", "total_magnetization_normalized_formula_units", "num_magnetic_sites", "num_unique_magnetic_sites", "types_of_magnetic_species", "bulk_modulus", "shear_modulus", "universal_anisotropy", "homogeneous_poisson", "e_total", "e_ionic", "e_electronic", "n", "e_ij_max", "weighted_surface_energy_EV_PER_ANG2", "weighted_surface_energy", "weighted_work_function", "surface_anisotropy", "shape_factor", "has_reconstructed", "possible_species", "has_props", "theoretical", "database_IDs"]}