{"builder_meta": null, "nsites": null, "elements": null, "nelements": null, "composition": null, "composition_reduced": null, "formula_pretty": "NiTe", "formula_anonymous": "AB", "chemsys": null, "volume": 86.28886335195475, "density": 7.170043885917813, "density_atomic": 21.572215837988686, "symmetry": null, "property_name": null, "material_id": "mp-10264", "deprecated": null, "deprecation_reasons": null, "last_updated": null, "origins": null, "warnings": null, "structure": {"@module": "pymatgen.core.structure", "@class": "Structure", "charge": 0, "lattice": {"matrix": [[3.709747, -0.0021409800000000002, 5.99246926], [1.7031412700000002, 3.2956853, 5.99246926], [-0.00351912, -0.002141, 7.04782891]], "pbc": [true, true, true], "a": 7.047830532855434, "b": 7.047830844611571, "c": 7.047830113781004, "alpha": 31.78894114170776, "beta": 31.788938892245827, "gamma": 31.788932229882505, "volume": 86.28886335195475}, "properties": {}, "sites": [{"species": [{"element": "Ni", "occu": 1}], "abc": [0.13128356, 0.13128356, 0.13128356], "properties": {"magmom": 0.0}, "label": "Ni", "xyz": [0.710161239366174, 0.4321071452454192, 2.4986894648624505]}, {"species": [{"element": "Ni", "occu": 1}], "abc": [0.86871644, 0.86871644, 0.86871644], "properties": {"magmom": 0.0}, "label": "Ni", "xyz": [4.6992079106338265, 2.859296174754581, 16.53407796513755]}, {"species": [{"element": "Te", "occu": 1}], "abc": [0.25603211, 0.25603211, 0.25603211], "properties": {"magmom": 0.0}, "label": "Te", "xyz": [1.3849721972434064, 0.8427049368806052, 4.872999604242176]}, {"species": [{"element": "Te", "occu": 1}], "abc": [0.74396789, 0.74396789, 0.74396789], "properties": {"magmom": 0.0}, "label": "Te", "xyz": [4.024396952756594, 2.448698383119395, 14.159767825757822]}]}, "task_ids": null, "uncorrected_energy_per_atom": null, "energy_per_atom": -18.8898869475, "formation_energy_per_atom": -0.19041621250000001, "energy_above_hull": 0.0, "is_stable": true, "equilibrium_reaction_energy_per_atom": null, "decomposes_to": null, "xas": null, "grain_boundaries": null, "band_gap": 0.0, "cbm": null, "vbm": null, "efermi": 7.03435205, "is_gap_direct": null, "is_metal": null, "es_source_calc_id": null, "bandstructure": null, "dos": null, "dos_energy_up": null, "dos_energy_down": null, "is_magnetic": null, "ordering": null, "total_magnetization": 0.0, "total_magnetization_normalized_vol": null, "total_magnetization_normalized_formula_units": null, "num_magnetic_sites": null, "num_unique_magnetic_sites": null, "types_of_magnetic_species": null, "bulk_modulus": null, "shear_modulus": null, "universal_anisotropy": null, "homogeneous_poisson": null, "e_total": null, "e_ionic": null, "e_electronic": null, "n": null, "e_ij_max": null, "weighted_surface_energy_EV_PER_ANG2": null, "weighted_surface_energy": null, "weighted_work_function": null, "surface_anisotropy": null, "shape_factor": null, "has_reconstructed": null, "possible_species": null, "has_props": null, "theoretical": null, "database_IDs": null, "fields_not_requested": ["builder_meta", "nsites", "elements", "nelements", "composition", "composition_reduced", "chemsys", "symmetry", "property_name", "deprecated", "deprecation_reasons", "last_updated", "origins", "warnings", "task_ids", "uncorrected_energy_per_atom", "equilibrium_reaction_energy_per_atom", "decomposes_to", "xas", "grain_boundaries", "cbm", "vbm", "is_gap_direct", "is_metal", "es_source_calc_id", "bandstructure", "dos", "dos_energy_up", "dos_energy_down", "is_magnetic", "ordering", "total_magnetization_normalized_vol", "total_magnetization_normalized_formula_units", "num_magnetic_sites", "num_unique_magnetic_sites", "types_of_magnetic_species", "bulk_modulus", "shear_modulus", "universal_anisotropy", "homogeneous_poisson", "e_total", "e_ionic", "e_electronic", "n", "e_ij_max", "weighted_surface_energy_EV_PER_ANG2", "weighted_surface_energy", "weighted_work_function", "surface_anisotropy", "shape_factor", "has_reconstructed", "possible_species", "has_props", "theoretical", "database_IDs"]}