{
  "builder_meta": null,
  "nsites": null,
  "elements": null,
  "nelements": null,
  "composition": null,
  "composition_reduced": null,
  "formula_pretty": "NO",
  "formula_anonymous": "AB",
  "chemsys": null,
  "volume": 123.8806114362392,
  "density": 1.608849059062051,
  "density_atomic": 15.4850764295299,
  "symmetry": null,
  "property_name": null,
  "material_id": "mp-1180220",
  "deprecated": null,
  "deprecation_reasons": null,
  "last_updated": null,
  "origins": null,
  "warnings": null,
  "structure": {
    "@module": "pymatgen.core.structure",
    "@class": "Structure",
    "charge": 0,
    "lattice": {
      "matrix": [
        [3.554275999999999, 0.0, 0.0],
        [0.0, 4.58893, 0.0],
        [0.0, 0.0, 7.5952269999999995]
      ],
      "pbc": [true, true, true],
      "a": 3.554275999999999,
      "b": 4.58893,
      "c": 7.5952269999999995,
      "alpha": 90.0,
      "beta": 90.0,
      "gamma": 90.0,
      "volume": 123.88061143623915
    },
    "properties": {},
    "sites": [
      {
        "species": [{ "element": "N", "occu": 1 }],
        "abc": [0.535867, 0.488471, 0.387103],
        "properties": { "magmom": 0.468 },
        "label": "N",
        "xyz": [1.9046192172919993, 2.24155922603, 2.9401351573809995]
      },
      {
        "species": [{ "element": "N", "occu": 1 }],
        "abc": [0.9641329999999991, 0.511529, 0.887103],
        "properties": { "magmom": 0.468 },
        "label": "N",
        "xyz": [3.426794782707996, 2.3473707739700003, 6.737748657380999]
      },
      {
        "species": [{ "element": "N", "occu": 1 }],
        "abc": [0.464132999999999, 0.988471, 0.112897],
        "properties": { "magmom": 0.468 },
        "label": "N",
        "xyz": [1.649656782707996, 4.53602422603, 0.8574783426189999]
      },
      {
        "species": [{ "element": "N", "occu": 1 }],
        "abc": [0.035866999999999004, 0.011529, 0.612897],
        "properties": { "magmom": 0.468 },
        "label": "N",
        "xyz": [0.1274812172919964, 0.05290577397, 4.655091842619]
      },
      {
        "species": [{ "element": "O", "occu": 1 }],
        "abc": [0.749508, 0.512782, 0.770965999999999],
        "properties": { "magmom": 0.218 },
        "label": "O",
        "xyz": [2.663958296207999, 2.35312070326, 5.855661779281992]
      },
      {
        "species": [{ "element": "O", "occu": 1 }],
        "abc": [0.750491999999999, 0.487218, 0.270966],
        "properties": { "magmom": 0.218 },
        "label": "O",
        "xyz": [2.6674557037919957, 2.2358092967400003, 2.0580482792819996]
      },
      {
        "species": [{ "element": "O", "occu": 1 }],
        "abc": [0.250492, 0.012782, 0.729034],
        "properties": { "magmom": 0.218 },
        "label": "O",
        "xyz": [0.8903177037919997, 0.058655703260000004, 5.537178720717999]
      },
      {
        "species": [{ "element": "O", "occu": 1 }],
        "abc": [0.249507999999999, 0.987217999999999, 0.229034],
        "properties": { "magmom": 0.218 },
        "label": "O",
        "xyz": [0.8868202962079962, 4.530274296739996, 1.7395652207179997]
      }
    ]
  },
  "task_ids": null,
  "uncorrected_energy_per_atom": null,
  "energy_per_atom": -6.61282162,
  "formation_energy_per_atom": 0.030297754999999003,
  "energy_above_hull": 0.5445621837499991,
  "is_stable": false,
  "equilibrium_reaction_energy_per_atom": null,
  "decomposes_to": null,
  "xas": null,
  "grain_boundaries": null,
  "band_gap": 0.0,
  "cbm": null,
  "vbm": null,
  "efermi": 0.40079196,
  "is_gap_direct": null,
  "is_metal": null,
  "es_source_calc_id": null,
  "bandstructure": null,
  "dos": null,
  "dos_energy_up": null,
  "dos_energy_down": null,
  "is_magnetic": null,
  "ordering": null,
  "total_magnetization": 3.9988776,
  "total_magnetization_normalized_vol": null,
  "total_magnetization_normalized_formula_units": null,
  "num_magnetic_sites": null,
  "num_unique_magnetic_sites": null,
  "types_of_magnetic_species": null,
  "bulk_modulus": null,
  "shear_modulus": null,
  "universal_anisotropy": null,
  "homogeneous_poisson": null,
  "e_total": null,
  "e_ionic": null,
  "e_electronic": null,
  "n": null,
  "e_ij_max": null,
  "weighted_surface_energy_EV_PER_ANG2": null,
  "weighted_surface_energy": null,
  "weighted_work_function": null,
  "surface_anisotropy": null,
  "shape_factor": null,
  "has_reconstructed": null,
  "possible_species": null,
  "has_props": null,
  "theoretical": null,
  "database_IDs": null,
  "fields_not_requested": [
    "builder_meta",
    "nsites",
    "elements",
    "nelements",
    "composition",
    "composition_reduced",
    "chemsys",
    "symmetry",
    "property_name",
    "deprecated",
    "deprecation_reasons",
    "last_updated",
    "origins",
    "warnings",
    "task_ids",
    "uncorrected_energy_per_atom",
    "equilibrium_reaction_energy_per_atom",
    "decomposes_to",
    "xas",
    "grain_boundaries",
    "cbm",
    "vbm",
    "is_gap_direct",
    "is_metal",
    "es_source_calc_id",
    "bandstructure",
    "dos",
    "dos_energy_up",
    "dos_energy_down",
    "is_magnetic",
    "ordering",
    "total_magnetization_normalized_vol",
    "total_magnetization_normalized_formula_units",
    "num_magnetic_sites",
    "num_unique_magnetic_sites",
    "types_of_magnetic_species",
    "bulk_modulus",
    "shear_modulus",
    "universal_anisotropy",
    "homogeneous_poisson",
    "e_total",
    "e_ionic",
    "e_electronic",
    "n",
    "e_ij_max",
    "weighted_surface_energy_EV_PER_ANG2",
    "weighted_surface_energy",
    "weighted_work_function",
    "surface_anisotropy",
    "shape_factor",
    "has_reconstructed",
    "possible_species",
    "has_props",
    "theoretical",
    "database_IDs"
  ]
}
