{
  "builder_meta": null,
  "nsites": null,
  "elements": null,
  "nelements": null,
  "composition": null,
  "composition_reduced": null,
  "formula_pretty": "NO2",
  "formula_anonymous": "AB2",
  "chemsys": null,
  "volume": 229.00320208951547,
  "density": 2.001559698678917,
  "density_atomic": 12.722400116084193,
  "symmetry": null,
  "property_name": null,
  "material_id": "mp-2789",
  "deprecated": null,
  "deprecation_reasons": null,
  "last_updated": null,
  "origins": null,
  "warnings": null,
  "structure": {
    "@module": "pymatgen.core.structure",
    "@class": "Structure",
    "charge": 0,
    "lattice": {
      "matrix": [
        [6.29377961, -1e-8, -2.22518688],
        [-3.14688932, 5.4505737100000005, -2.22518688],
        [-1e-8, -1e-8, 6.6755616]
      ],
      "pbc": [true, true, true],
      "a": 6.675561282032836,
      "b": 6.6755616101866195,
      "c": 6.6755616,
      "alpha": 109.47121772185686,
      "beta": 109.47121877205905,
      "gamma": 109.47121749857881,
      "volume": 229.00320208951547
    },
    "properties": {},
    "sites": [
      {
        "species": [{ "element": "N", "occu": 1 }],
        "abc": [0.38383142000000003, 0.0, 0.38383142000000003],
        "properties": { "magmom": 0.0 },
        "label": "N",
        "xyz": [2.415750361035032, -7.6766284e-9, 1.7081936483097027]
      },
      {
        "species": [{ "element": "N", "occu": 1 }],
        "abc": [-0.0, 0.61616858, 0.61616858],
        "properties": { "magmom": 0.0 },
        "label": "N",
        "xyz": [-1.9390143298832514, 3.358472256914346, 2.7421810716902977]
      },
      {
        "species": [{ "element": "N", "occu": 1 }],
        "abc": [0.38383142000000003, 0.38383142000000003, 0.0],
        "properties": { "magmom": 0.0 },
        "label": "N",
        "xyz": [1.2078753685949117, 2.0921014430856544, -1.7081932798315393]
      },
      {
        "species": [{ "element": "N", "occu": 1 }],
        "abc": [0.61616858, 0.61616858, -0.0],
        "properties": { "magmom": 0.0 },
        "label": "N",
        "xyz": [1.9390149214050878, 3.358472256914346, -2.7421804801684604]
      },
      {
        "species": [{ "element": "N", "occu": 1 }],
        "abc": [0.0, 0.38383142000000003, 0.38383142000000003],
        "properties": { "magmom": 0.0 },
        "label": "N",
        "xyz": [-1.2078750001167486, 2.0921014430856544, 1.7081936483097027]
      },
      {
        "species": [{ "element": "N", "occu": 1 }],
        "abc": [0.61616858, -0.0, 0.61616858],
        "properties": { "magmom": 0.0 },
        "label": "N",
        "xyz": [3.8780292389649675, -1.23233716e-8, 2.7421810716902977]
      },
      {
        "species": [{ "element": "O", "occu": 1 }],
        "abc": [0.46690059, 0.14312672, 0.32377488],
        "properties": { "magmom": -0.0 },
        "label": "O",
        "xyz": [2.488165463426591, 0.7801227293237767, 0.8039543893189149]
      },
      {
        "species": [{ "element": "O", "occu": 1 }],
        "abc": [0.14312672, 0.67622612, 0.81935184],
        "properties": { "magmom": -0.0 },
        "label": "O",
        "xyz": [-1.2272007311443778, 3.6858203020625204, 3.646420490334605]
      },
      {
        "species": [{ "element": "O", "occu": 1 }],
        "abc": [0.32377488, 0.18064816, 0.8568732800000001],
        "properties": { "magmom": -0.0 },
        "label": "O",
        "xyz": [1.4692879640238123, 0.984636099849392, 4.597674833456333]
      },
      {
        "species": [{ "element": "O", "occu": 1 }],
        "abc": [0.8568732800000001, 0.67622612, 0.53309941],
        "properties": { "magmom": -0.0 },
        "label": "O",
        "xyz": [3.2649628177537884, 3.6858202977875787, 0.14730527976278474]
      },
      {
        "species": [{ "element": "O", "occu": 1 }],
        "abc": [0.67622612, 0.81935184, 0.14312672],
        "properties": { "magmom": -0.0 },
        "label": "O",
        "xyz": [1.6776086097557967, 4.465937590150599, -2.3724892186432127]
      },
      {
        "species": [{ "element": "O", "occu": 1 }],
        "abc": [0.8568732800000001, 0.32377488, 0.18064816],
        "properties": { "magmom": -0.0 },
        "label": "O",
        "xyz": [4.374087864255059, 1.7647588385111903, -1.4212348755214845]
      },
      {
        "species": [{ "element": "O", "occu": 1 }],
        "abc": [0.67622612, 0.53309941, 0.8568732800000001],
        "properties": { "magmom": -0.0 },
        "label": "O",
        "xyz": [2.5784133174093786, 2.9056976136315176, 3.0291350610290015]
      },
      {
        "species": [{ "element": "O", "occu": 1 }],
        "abc": [0.32377488, 0.46690059, 0.14312672],
        "properties": { "magmom": -0.0 },
        "label": "O",
        "xyz": [0.5684832563702303, 2.5448760763684732, -0.8039494462158815]
      },
      {
        "species": [{ "element": "O", "occu": 1 }],
        "abc": [0.14312672, 0.32377488, 0.46690059],
        "properties": { "magmom": -0.0 },
        "label": "O",
        "xyz": [-0.11807568464310841, 1.7647588427861318, 2.077880335050336]
      },
      {
        "species": [{ "element": "O", "occu": 1 }],
        "abc": [0.81935184, 0.14312672, 0.67622612],
        "properties": { "magmom": -0.0 },
        "label": "O",
        "xyz": [4.706415950671091, 0.7801227222747518, 2.372494455595699]
      },
      {
        "species": [{ "element": "O", "occu": 1 }],
        "abc": [0.18064816, 0.8568732800000001, 0.32377488],
        "properties": { "magmom": -0.0 },
        "label": "O",
        "xyz": [-1.559525670671101, 4.670450967725239, -0.1472999400340993]
      },
      {
        "species": [{ "element": "O", "occu": 1 }],
        "abc": [0.53309941, 0.8568732800000001, 0.67622612],
        "properties": { "magmom": -0.0 },
        "label": "O",
        "xyz": [0.6587248165733992, 4.670450960676214, 1.4212401262426848]
      }
    ]
  },
  "task_ids": null,
  "uncorrected_energy_per_atom": null,
  "energy_per_atom": -6.76375249,
  "formation_energy_per_atom": -0.685685905,
  "energy_above_hull": 0.0,
  "is_stable": true,
  "equilibrium_reaction_energy_per_atom": null,
  "decomposes_to": null,
  "xas": null,
  "grain_boundaries": null,
  "band_gap": 2.8265000000000002,
  "cbm": null,
  "vbm": null,
  "efermi": -2.01735835,
  "is_gap_direct": null,
  "is_metal": null,
  "es_source_calc_id": null,
  "bandstructure": null,
  "dos": null,
  "dos_energy_up": null,
  "dos_energy_down": null,
  "is_magnetic": null,
  "ordering": null,
  "total_magnetization": 0.0,
  "total_magnetization_normalized_vol": null,
  "total_magnetization_normalized_formula_units": null,
  "num_magnetic_sites": null,
  "num_unique_magnetic_sites": null,
  "types_of_magnetic_species": null,
  "bulk_modulus": null,
  "shear_modulus": null,
  "universal_anisotropy": null,
  "homogeneous_poisson": null,
  "e_total": null,
  "e_ionic": null,
  "e_electronic": null,
  "n": null,
  "e_ij_max": null,
  "weighted_surface_energy_EV_PER_ANG2": null,
  "weighted_surface_energy": null,
  "weighted_work_function": null,
  "surface_anisotropy": null,
  "shape_factor": null,
  "has_reconstructed": null,
  "possible_species": null,
  "has_props": null,
  "theoretical": null,
  "database_IDs": null,
  "fields_not_requested": [
    "builder_meta",
    "nsites",
    "elements",
    "nelements",
    "composition",
    "composition_reduced",
    "chemsys",
    "symmetry",
    "property_name",
    "deprecated",
    "deprecation_reasons",
    "last_updated",
    "origins",
    "warnings",
    "task_ids",
    "uncorrected_energy_per_atom",
    "equilibrium_reaction_energy_per_atom",
    "decomposes_to",
    "xas",
    "grain_boundaries",
    "cbm",
    "vbm",
    "is_gap_direct",
    "is_metal",
    "es_source_calc_id",
    "bandstructure",
    "dos",
    "dos_energy_up",
    "dos_energy_down",
    "is_magnetic",
    "ordering",
    "total_magnetization_normalized_vol",
    "total_magnetization_normalized_formula_units",
    "num_magnetic_sites",
    "num_unique_magnetic_sites",
    "types_of_magnetic_species",
    "bulk_modulus",
    "shear_modulus",
    "universal_anisotropy",
    "homogeneous_poisson",
    "e_total",
    "e_ionic",
    "e_electronic",
    "n",
    "e_ij_max",
    "weighted_surface_energy_EV_PER_ANG2",
    "weighted_surface_energy",
    "weighted_work_function",
    "surface_anisotropy",
    "shape_factor",
    "has_reconstructed",
    "possible_species",
    "has_props",
    "theoretical",
    "database_IDs"
  ]
}
