{"builder_meta": null, "nsites": null, "elements": null, "nelements": null, "composition": null, "composition_reduced": null, "formula_pretty": "NO4", "formula_anonymous": "AB4", "chemsys": null, "volume": 247.4736366966466, "density": 2.093624019782977, "density_atomic": 12.373681834832329, "symmetry": null, "property_name": null, "material_id": "mp-1180345", "deprecated": null, "deprecation_reasons": null, "last_updated": null, "origins": null, "warnings": null, "structure": {"@module": "pymatgen.core.structure", "@class": "Structure", "charge": 0, "lattice": {"matrix": [[4.969151, 0.0, 0.0], [0.0, 6.126192, 0.0], [0.0, 0.0, 8.129356]], "pbc": [true, true, true], "a": 4.969151, "b": 6.126192, "c": 8.129356, "alpha": 90.0, "beta": 90.0, "gamma": 90.0, "volume": 247.4736366966466}, "properties": {}, "sites": [{"species": [{"element": "N", "occu": 1}], "abc": [0.47668699999999903, 0.795485999999999, 0.408093], "properties": {"magmom": -0.025}, "label": "N", "xyz": [2.368729682736995, 4.873299969311994, 3.317533278108]}, {"species": [{"element": "N", "occu": 1}], "abc": [0.976687, 0.204514, 0.591907], "properties": {"magmom": -0.025}, "label": "N", "xyz": [4.8533051827369995, 1.252892030688, 4.811822721892]}, {"species": [{"element": "N", "occu": 1}], "abc": [0.976687, 0.704514, 0.908092999999999], "properties": {"magmom": -0.025}, "label": "N", "xyz": [4.8533051827369995, 4.315988030688, 7.382211278107992]}, {"species": [{"element": "N", "occu": 1}], "abc": [0.47668699999999903, 0.295485999999999, 0.091907], "properties": {"magmom": -0.024}, "label": "N", "xyz": [2.368729682736995, 1.810203969311994, 0.747144721892]}, {"species": [{"element": "O", "occu": 1}], "abc": [0.648467999999999, 0.735337999999999, 0.513605], "properties": {"magmom": 0.29}, "label": "O", "xyz": [3.2223354106679953, 4.504821772895994, 4.175277888379999]}, {"species": [{"element": "O", "occu": 1}], "abc": [0.148468, 0.264662, 0.486394999999999], "properties": {"magmom": 0.28800000000000003}, "label": "O", "xyz": [0.737759910668, 1.621370227104, 3.954078111619992]}, {"species": [{"element": "O", "occu": 1}], "abc": [0.148468, 0.764662, 0.013604999999999002], "properties": {"magmom": 0.29}, "label": "O", "xyz": [0.737759910668, 4.684466227103999, 0.11059988837999188]}, {"species": [{"element": "O", "occu": 1}], "abc": [0.648467999999999, 0.235338, 0.986394999999999], "properties": {"magmom": 0.28700000000000003}, "label": "O", "xyz": [3.2223354106679953, 1.4417257728959998, 8.018756111619991]}, {"species": [{"element": "O", "occu": 1}], "abc": [0.228718999999999, 0.773747, 0.441754], "properties": {"magmom": 0.31}, "label": "O", "xyz": [1.136539247568995, 4.740122681423999, 3.5911755304239996]}, {"species": [{"element": "O", "occu": 1}], "abc": [0.728719, 0.226252999999999, 0.558246], "properties": {"magmom": 0.309}, "label": "O", "xyz": [3.621114747569, 1.3860693185759938, 4.538180469576]}, {"species": [{"element": "O", "occu": 1}], "abc": [0.728719, 0.726252999999999, 0.941754], "properties": {"magmom": 0.31}, "label": "O", "xyz": [3.621114747569, 4.449165318575994, 7.655853530423999]}, {"species": [{"element": "O", "occu": 1}], "abc": [0.228718999999999, 0.273746999999999, 0.058246], "properties": {"magmom": 0.308}, "label": "O", "xyz": [1.136539247568995, 1.6770266814239938, 0.47350246957599995]}, {"species": [{"element": "O", "occu": 1}], "abc": [0.548694, 0.873342, 0.27157000000000003], "properties": {"magmom": 0.261}, "label": "O", "xyz": [2.7265433387940003, 5.350260773663999, 2.20768920892]}, {"species": [{"element": "O", "occu": 1}], "abc": [0.048694, 0.126658, 0.72843], "properties": {"magmom": 0.263}, "label": "O", "xyz": [0.24196783879400002, 0.7759312263359999, 5.92166679108]}, {"species": [{"element": "O", "occu": 1}], "abc": [0.048694, 0.626657999999999, 0.7715700000000001], "properties": {"magmom": 0.261}, "label": "O", "xyz": [0.24196783879400002, 3.839027226335994, 6.27236720892]}, {"species": [{"element": "O", "occu": 1}], "abc": [0.548694, 0.373342, 0.22843000000000002], "properties": {"magmom": 0.263}, "label": "O", "xyz": [2.7265433387940003, 2.2871647736639997, 1.85698879108]}, {"species": [{"element": "O", "occu": 1}], "abc": [0.994432, 0.9362100000000001, 0.238680999999999], "properties": {"magmom": 1.714999999999999}, "label": "O", "xyz": [4.941482767232, 5.73540221232, 1.9403228194359918]}, {"species": [{"element": "O", "occu": 1}], "abc": [0.494432, 0.06379, 0.761319], "properties": {"magmom": 1.716}, "label": "O", "xyz": [2.456907267232, 0.39078978768, 6.1890331805639995]}, {"species": [{"element": "O", "occu": 1}], "abc": [0.494432, 0.56379, 0.738680999999999], "properties": {"magmom": 1.714999999999999}, "label": "O", "xyz": [2.456907267232, 3.45388578768, 6.005000819435992]}, {"species": [{"element": "O", "occu": 1}], "abc": [0.994432, 0.43621000000000004, 0.261318999999999], "properties": {"magmom": 1.716}, "label": "O", "xyz": [4.941482767232, 2.67230621232, 2.1243551805639918]}]}, "task_ids": null, "uncorrected_energy_per_atom": null, "energy_per_atom": -5.685326148, "formation_energy_per_atom": -0.059301795000000004, "energy_above_hull": 0.391565476624999, "is_stable": false, "equilibrium_reaction_energy_per_atom": null, "decomposes_to": null, "xas": null, "grain_boundaries": null, "band_gap": 0.3346, "cbm": null, "vbm": null, "efermi": -1.27542804, "is_gap_direct": null, "is_metal": null, "es_source_calc_id": null, "bandstructure": null, "dos": null, "dos_energy_up": null, "dos_energy_down": null, "is_magnetic": null, "ordering": null, "total_magnetization": 12.0082604, "total_magnetization_normalized_vol": null, "total_magnetization_normalized_formula_units": null, "num_magnetic_sites": null, "num_unique_magnetic_sites": null, "types_of_magnetic_species": null, "bulk_modulus": null, "shear_modulus": null, "universal_anisotropy": null, "homogeneous_poisson": null, "e_total": null, "e_ionic": null, "e_electronic": null, "n": null, "e_ij_max": null, "weighted_surface_energy_EV_PER_ANG2": null, "weighted_surface_energy": null, "weighted_work_function": null, "surface_anisotropy": null, "shape_factor": null, "has_reconstructed": null, "possible_species": null, "has_props": null, "theoretical": null, "database_IDs": null, "fields_not_requested": ["builder_meta", "nsites", "elements", "nelements", "composition", "composition_reduced", "chemsys", "symmetry", "property_name", "deprecated", "deprecation_reasons", "last_updated", "origins", "warnings", "task_ids", "uncorrected_energy_per_atom", "equilibrium_reaction_energy_per_atom", "decomposes_to", "xas", "grain_boundaries", "cbm", "vbm", "is_gap_direct", "is_metal", "es_source_calc_id", "bandstructure", "dos", "dos_energy_up", "dos_energy_down", "is_magnetic", "ordering", "total_magnetization_normalized_vol", "total_magnetization_normalized_formula_units", "num_magnetic_sites", "num_unique_magnetic_sites", "types_of_magnetic_species", "bulk_modulus", "shear_modulus", "universal_anisotropy", "homogeneous_poisson", "e_total", "e_ionic", "e_electronic", "n", "e_ij_max", "weighted_surface_energy_EV_PER_ANG2", "weighted_surface_energy", "weighted_work_function", "surface_anisotropy", "shape_factor", "has_reconstructed", "possible_species", "has_props", "theoretical", "database_IDs"]}