{"builder_meta": null, "nsites": null, "elements": null, "nelements": null, "composition": null, "composition_reduced": null, "formula_pretty": "Np2C3", "formula_anonymous": "A2B3", "chemsys": null, "volume": 258.5700246473343, "density": 13.101723270903808, "density_atomic": 12.928501232366717, "symmetry": null, "property_name": null, "material_id": "mp-1188564", "deprecated": null, "deprecation_reasons": null, "last_updated": null, "origins": null, "warnings": null, "structure": {"@module": "pymatgen.core.structure", "@class": "Structure", "charge": 0, "lattice": {"matrix": [[-4.013341, 4.013341, 4.013341], [4.013341, -4.013341, 4.013341], [4.013341, 4.013341, -4.013341]], "pbc": [true, true, true], "a": 6.951310520099285, "b": 6.951310520099285, "c": 6.951310520099285, "alpha": 109.47122063449069, "beta": 109.47122063449069, "gamma": 109.47122063449069, "volume": 258.5700246473343}, "properties": {}, "sites": [{"species": [{"element": "Np", "occu": 1}], "abc": [0.598626, 0.5, 0.0], "properties": {"magmom": 2.773}, "label": "Np", "xyz": [-0.3958197694659997, 0.3958197694659997, 4.409160769465999]}, {"species": [{"element": "Np", "occu": 1}], "abc": [0.5, 0.0, 0.598626], "properties": {"magmom": 2.773}, "label": "Np", "xyz": [0.3958197694659997, 4.409160769465999, -0.3958197694659997]}, {"species": [{"element": "Np", "occu": 1}], "abc": [0.0, 0.598626, 0.5], "properties": {"magmom": 2.773}, "label": "Np", "xyz": [4.409160769465999, -0.3958197694659997, 0.3958197694659997]}, {"species": [{"element": "Np", "occu": 1}], "abc": [0.901374, 0.901374, 0.901374], "properties": {"magmom": 2.773}, "label": "Np", "xyz": [3.617521230534, 3.617521230534, 3.617521230534]}, {"species": [{"element": "Np", "occu": 1}], "abc": [0.5, 0.0, 0.098625999999999], "properties": {"magmom": 2.773}, "label": "Np", "xyz": [-1.6108507305340038, 2.4024902694659955, 1.6108507305340038]}, {"species": [{"element": "Np", "occu": 1}], "abc": [0.098625999999999, 0.5, 0.0], "properties": {"magmom": 2.773}, "label": "Np", "xyz": [1.6108507305340038, -1.6108507305340038, 2.4024902694659955]}, {"species": [{"element": "Np", "occu": 1}], "abc": [0.0, 0.098625999999999, 0.5], "properties": {"magmom": 2.773}, "label": "Np", "xyz": [2.4024902694659955, 1.6108507305340038, -1.6108507305340038]}, {"species": [{"element": "Np", "occu": 1}], "abc": [0.401374, 0.401374, 0.401374], "properties": {"magmom": 2.773}, "label": "Np", "xyz": [1.6108507305339999, 1.6108507305339999, 1.6108507305339999]}, {"species": [{"element": "C", "occu": 1}], "abc": [0.786586999999999, 0.25, 0.036587], "properties": {"magmom": -0.078}, "label": "C", "xyz": [-2.006670499999996, 2.300342714333996, 4.013340999999995]}, {"species": [{"element": "C", "occu": 1}], "abc": [0.713413, 0.75, 0.463412999999999], "properties": {"magmom": -0.078}, "label": "C", "xyz": [2.006670499999996, 1.7129982856659958, 4.013341000000003]}, {"species": [{"element": "C", "occu": 1}], "abc": [0.536586999999999, 0.75, 0.286587], "properties": {"magmom": -0.078}, "label": "C", "xyz": [2.0066705000000034, 0.29367221433399626, 4.013340999999995]}, {"species": [{"element": "C", "occu": 1}], "abc": [0.963413, 0.25, 0.213413], "properties": {"magmom": -0.078}, "label": "C", "xyz": [-2.0066704999999994, 3.7196687856659993, 4.013341]}, {"species": [{"element": "C", "occu": 1}], "abc": [0.25, 0.036587, 0.786586999999999], "properties": {"magmom": -0.078}, "label": "C", "xyz": [2.3003427143339956, 4.013340999999995, -2.006670499999996]}, {"species": [{"element": "C", "occu": 1}], "abc": [0.75, 0.463412999999999, 0.713413], "properties": {"magmom": -0.078}, "label": "C", "xyz": [1.7129982856659958, 4.013341000000003, 2.006670499999996]}, {"species": [{"element": "C", "occu": 1}], "abc": [0.75, 0.286587, 0.536586999999999], "properties": {"magmom": -0.078}, "label": "C", "xyz": [0.29367221433399626, 4.013340999999995, 2.006670500000004]}, {"species": [{"element": "C", "occu": 1}], "abc": [0.25, 0.213413, 0.963413], "properties": {"magmom": -0.078}, "label": "C", "xyz": [3.7196687856659993, 4.013341, -2.0066705]}, {"species": [{"element": "C", "occu": 1}], "abc": [0.036587, 0.786586999999999, 0.25], "properties": {"magmom": -0.078}, "label": "C", "xyz": [4.013340999999995, -2.006670499999996, 2.300342714333996]}, {"species": [{"element": "C", "occu": 1}], "abc": [0.463412999999999, 0.713413, 0.75], "properties": {"magmom": -0.078}, "label": "C", "xyz": [4.013341000000003, 2.006670499999996, 1.7129982856659955]}, {"species": [{"element": "C", "occu": 1}], "abc": [0.286587, 0.536586999999999, 0.75], "properties": {"magmom": -0.078}, "label": "C", "xyz": [4.013340999999995, 2.0066705000000034, 0.29367221433399626]}, {"species": [{"element": "C", "occu": 1}], "abc": [0.213413, 0.963413, 0.25], "properties": {"magmom": -0.078}, "label": "C", "xyz": [4.013341, -2.0066704999999994, 3.7196687856659993]}]}, "task_ids": null, "uncorrected_energy_per_atom": null, "energy_per_atom": -10.674066708, "formation_energy_per_atom": 0.042244459999999005, "energy_above_hull": 0.042244459999999005, "is_stable": false, "equilibrium_reaction_energy_per_atom": null, "decomposes_to": null, "xas": null, "grain_boundaries": null, "band_gap": 0.0, "cbm": null, "vbm": null, "efermi": 12.49006862, "is_gap_direct": null, "is_metal": null, "es_source_calc_id": null, "bandstructure": null, "dos": null, "dos_energy_up": null, "dos_energy_down": null, "is_magnetic": null, "ordering": null, "total_magnetization": 22.1311254, "total_magnetization_normalized_vol": null, "total_magnetization_normalized_formula_units": null, "num_magnetic_sites": null, "num_unique_magnetic_sites": null, "types_of_magnetic_species": null, "bulk_modulus": null, "shear_modulus": null, "universal_anisotropy": null, "homogeneous_poisson": null, "e_total": null, "e_ionic": null, "e_electronic": null, "n": null, "e_ij_max": null, "weighted_surface_energy_EV_PER_ANG2": null, "weighted_surface_energy": null, "weighted_work_function": null, "surface_anisotropy": null, "shape_factor": null, "has_reconstructed": null, "possible_species": null, "has_props": null, "theoretical": null, "database_IDs": null, "fields_not_requested": ["builder_meta", "nsites", "elements", "nelements", "composition", "composition_reduced", "chemsys", "symmetry", "property_name", "deprecated", "deprecation_reasons", "last_updated", "origins", "warnings", "task_ids", "uncorrected_energy_per_atom", "equilibrium_reaction_energy_per_atom", "decomposes_to", "xas", "grain_boundaries", "cbm", "vbm", "is_gap_direct", "is_metal", "es_source_calc_id", "bandstructure", "dos", "dos_energy_up", "dos_energy_down", "is_magnetic", "ordering", "total_magnetization_normalized_vol", "total_magnetization_normalized_formula_units", "num_magnetic_sites", "num_unique_magnetic_sites", "types_of_magnetic_species", "bulk_modulus", "shear_modulus", "universal_anisotropy", "homogeneous_poisson", "e_total", "e_ionic", "e_electronic", "n", "e_ij_max", "weighted_surface_energy_EV_PER_ANG2", "weighted_surface_energy", "weighted_work_function", "surface_anisotropy", "shape_factor", "has_reconstructed", "possible_species", "has_props", "theoretical", "database_IDs"]}