{
  "builder_meta": null,
  "nsites": null,
  "elements": null,
  "nelements": null,
  "composition": null,
  "composition_reduced": null,
  "formula_pretty": "Np2O3",
  "formula_anonymous": "A2B3",
  "chemsys": null,
  "volume": 156.03196678107895,
  "density": 11.110523332837865,
  "density_atomic": 15.603196678107896,
  "symmetry": null,
  "property_name": null,
  "material_id": "mp-1186221",
  "deprecated": null,
  "deprecation_reasons": null,
  "last_updated": null,
  "origins": null,
  "warnings": null,
  "structure": {
    "@module": "pymatgen.core.structure",
    "@class": "Structure",
    "charge": 0,
    "lattice": {
      "matrix": [
        [5.313865, -2.993985, 0.0],
        [5.313865, 2.993985, 0.0],
        [3.626966, 0.0, 4.903695]
      ],
      "pbc": [true, true, true],
      "a": 6.099271056318943,
      "b": 6.099271056318943,
      "c": 6.099271023506088,
      "alpha": 58.79634586644763,
      "beta": 58.79634586644763,
      "gamma": 58.79633277432307,
      "volume": 156.03196678107895
    },
    "properties": {},
    "sites": [
      {
        "species": [{ "element": "Np", "occu": 1 }],
        "abc": [0.362535, 0.362535, 0.362535],
        "properties": { "magmom": 3.872 },
        "label": "Np",
        "xyz": [5.16782621436, 0.0, 1.777761066825]
      },
      {
        "species": [{ "element": "Np", "occu": 1 }],
        "abc": [0.137465, 0.137465, 0.137465],
        "properties": { "magmom": 3.872 },
        "label": "Np",
        "xyz": [1.9595217856399998, 0.0, 0.674086433175]
      },
      {
        "species": [{ "element": "Np", "occu": 1 }],
        "abc": [0.862534999999999, 0.862534999999999, 0.862534999999999],
        "properties": { "magmom": 3.872 },
        "label": "Np",
        "xyz": [12.295174214359985, 0.0, 4.229608566824996]
      },
      {
        "species": [{ "element": "Np", "occu": 1 }],
        "abc": [0.637465, 0.637465, 0.637465],
        "properties": { "magmom": 3.872 },
        "label": "Np",
        "xyz": [9.08686978564, 0.0, 3.125933933175]
      },
      {
        "species": [{ "element": "O", "occu": 1 }],
        "abc": [0.75, 0.031692, 0.468308],
        "properties": { "magmom": -0.095 },
        "label": "O",
        "xyz": [5.852342953108, -2.15060337738, 2.29643959806]
      },
      {
        "species": [{ "element": "O", "occu": 1 }],
        "abc": [0.468308, 0.75, 0.031692],
        "properties": { "magmom": -0.095 },
        "label": "O",
        "xyz": [6.588870046892, 0.8433816226199999, 0.15540790193999998]
      },
      {
        "species": [{ "element": "O", "occu": 1 }],
        "abc": [0.031692, 0.468308, 0.75],
        "properties": { "magmom": -0.095 },
        "label": "O",
        "xyz": [5.377157, 1.3072217547599998, 3.67777125]
      },
      {
        "species": [{ "element": "O", "occu": 1 }],
        "abc": [0.968308, 0.531691999999999, 0.25],
        "properties": { "magmom": -0.095 },
        "label": "O",
        "xyz": [8.877538999999995, -1.3072217547600025, 1.22592375]
      },
      {
        "species": [{ "element": "O", "occu": 1 }],
        "abc": [0.531691999999999, 0.25, 0.968308],
        "properties": { "magmom": -0.095 },
        "label": "O",
        "xyz": [7.665825953107994, -0.8433816226199972, 4.74828709806]
      },
      {
        "species": [{ "element": "O", "occu": 1 }],
        "abc": [0.25, 0.968308, 0.531691999999999],
        "properties": { "magmom": -0.095 },
        "label": "O",
        "xyz": [8.402353046891996, 2.1506033773799995, 2.6072554019399954]
      }
    ]
  },
  "task_ids": null,
  "uncorrected_energy_per_atom": null,
  "energy_per_atom": -11.269851577999999,
  "formation_energy_per_atom": -3.121963102499999,
  "energy_above_hull": 0.11912065912500201,
  "is_stable": false,
  "equilibrium_reaction_energy_per_atom": null,
  "decomposes_to": null,
  "xas": null,
  "grain_boundaries": null,
  "band_gap": 0.0,
  "cbm": null,
  "vbm": null,
  "efermi": 10.67515289,
  "is_gap_direct": null,
  "is_metal": null,
  "es_source_calc_id": null,
  "bandstructure": null,
  "dos": null,
  "dos_energy_up": null,
  "dos_energy_down": null,
  "is_magnetic": null,
  "ordering": null,
  "total_magnetization": 16.0000082,
  "total_magnetization_normalized_vol": null,
  "total_magnetization_normalized_formula_units": null,
  "num_magnetic_sites": null,
  "num_unique_magnetic_sites": null,
  "types_of_magnetic_species": null,
  "bulk_modulus": null,
  "shear_modulus": null,
  "universal_anisotropy": null,
  "homogeneous_poisson": null,
  "e_total": null,
  "e_ionic": null,
  "e_electronic": null,
  "n": null,
  "e_ij_max": null,
  "weighted_surface_energy_EV_PER_ANG2": null,
  "weighted_surface_energy": null,
  "weighted_work_function": null,
  "surface_anisotropy": null,
  "shape_factor": null,
  "has_reconstructed": null,
  "possible_species": null,
  "has_props": null,
  "theoretical": null,
  "database_IDs": null,
  "fields_not_requested": [
    "builder_meta",
    "nsites",
    "elements",
    "nelements",
    "composition",
    "composition_reduced",
    "chemsys",
    "symmetry",
    "property_name",
    "deprecated",
    "deprecation_reasons",
    "last_updated",
    "origins",
    "warnings",
    "task_ids",
    "uncorrected_energy_per_atom",
    "equilibrium_reaction_energy_per_atom",
    "decomposes_to",
    "xas",
    "grain_boundaries",
    "cbm",
    "vbm",
    "is_gap_direct",
    "is_metal",
    "es_source_calc_id",
    "bandstructure",
    "dos",
    "dos_energy_up",
    "dos_energy_down",
    "is_magnetic",
    "ordering",
    "total_magnetization_normalized_vol",
    "total_magnetization_normalized_formula_units",
    "num_magnetic_sites",
    "num_unique_magnetic_sites",
    "types_of_magnetic_species",
    "bulk_modulus",
    "shear_modulus",
    "universal_anisotropy",
    "homogeneous_poisson",
    "e_total",
    "e_ionic",
    "e_electronic",
    "n",
    "e_ij_max",
    "weighted_surface_energy_EV_PER_ANG2",
    "weighted_surface_energy",
    "weighted_work_function",
    "surface_anisotropy",
    "shape_factor",
    "has_reconstructed",
    "possible_species",
    "has_props",
    "theoretical",
    "database_IDs"
  ]
}
