{"builder_meta": null, "nsites": null, "elements": null, "nelements": null, "composition": null, "composition_reduced": null, "formula_pretty": "Np2O5", "formula_anonymous": "A2B5", "chemsys": null, "volume": 447.99303844556925, "density": 8.213821040355036, "density_atomic": 15.999751373056045, "symmetry": null, "property_name": null, "material_id": "mp-554714", "deprecated": null, "deprecation_reasons": null, "last_updated": null, "origins": null, "warnings": null, "structure": {"@module": "pymatgen.core.structure", "@class": "Structure", "charge": 0, "lattice": {"matrix": [[6.47611711, -0.22569992, -1.37476972], [-0.6175377200000001, 6.97021717, -4.05094723], [1.9917382, 0.70873885, 9.06413591]], "pbc": [true, true, true], "a": 6.62427543655543, "b": 8.085508870369896, "c": 9.307410574901597, "alpha": 116.01572231234465, "beta": 89.74196263684505, "gamma": 90.00353490541984, "volume": 447.9930384455693}, "properties": {}, "sites": [{"species": [{"element": "Np", "occu": 1}], "abc": [0.71018295, 0.75043925, 0.75057427], "properties": {"magmom": 2.187}, "label": "Np", "xyz": [5.630750855777877, 5.602397455350948, 2.7869793774379836]}, {"species": [{"element": "Np", "occu": 1}], "abc": [0.25000113, 6.44e-06, 0.75000633], "properties": {"magmom": 2.197}, "label": "Np", "xyz": [3.1128488762722233, 0.47517827697458576, 6.454439236890365]}, {"species": [{"element": "Np", "occu": 1}], "abc": [0.25000352, 0.5000084, 0.75000447], "properties": {"magmom": 2.2}, "label": "Np", "xyz": [2.8040905791851327, 3.960298665923169, 4.428937537041371]}, {"species": [{"element": "Np", "occu": 1}], "abc": [0.21016124, 0.75040547, 0.25056304], "properties": {"magmom": 2.187}, "label": "Np", "xyz": [1.396681097479616, 5.360639477222923, -1.0576388205602343]}, {"species": [{"element": "Np", "occu": 1}], "abc": [0.28983655, 0.24957145, 0.24942248], "properties": {"magmom": 2.187}, "label": "Np", "xyz": [2.2196799377030123, 1.8509265214230686, 0.851339970975407]}, {"species": [{"element": "Np", "occu": 1}], "abc": [0.74999927, -8.13e-06, 0.24999746], "properties": {"magmom": 2.197}, "label": "Np", "xyz": [5.3550176165011445, 0.007851469198670497, 1.2349676023776641]}, {"species": [{"element": "Np", "occu": 1}], "abc": [0.74999626, 0.49999171000000003, 0.24999602], "properties": {"magmom": 2.2}, "label": "Np", "xyz": [5.0462264940916715, 3.4929585977367386, -0.7905142787696327]}, {"species": [{"element": "Np", "occu": 1}], "abc": [0.78982052, 0.24957658, 0.7494264900000001], "properties": {"magmom": 2.187}, "label": "Np", "xyz": [6.453508599447418, 2.0924882036496566, 4.696060669359728]}, {"species": [{"element": "O", "occu": 1}], "abc": [0.64807565, 0.25059621, 0.25157636], "properties": {"magmom": -0.054}, "label": "O", "xyz": [4.543335439804282, 1.7787413233935636, 0.3742155161457712]}, {"species": [{"element": "O", "occu": 1}], "abc": [0.28361451, 0.35715126, 0.47494261], "properties": {"magmom": -0.095}, "label": "O", "xyz": [2.5621277452044406, 2.7620203517486934, 2.468238818601477]}, {"species": [{"element": "O", "occu": 1}], "abc": [0.71638782, 0.64289049, 0.5250633], "properties": {"magmom": -0.095}, "label": "O", "xyz": [5.288190923121377, 4.6915304175839445, 1.1700613801814495]}, {"species": [{"element": "O", "occu": 1}], "abc": [0.21450577, 0.8582880700000001, 0.47605669], "properties": {"magmom": -0.094}, "label": "O", "xyz": [1.8073195242782822, 6.271440178197031, 0.5432668219549068]}, {"species": [{"element": "O", "occu": 1}], "abc": [0.35193119, 0.7494046, 0.74844011], "properties": {"magmom": -0.054}, "label": "O", "xyz": [3.3070587505593507, 5.67453055162375, 3.264340045480524]}, {"species": [{"element": "O", "occu": 1}], "abc": [0.285492099999999, 0.14168945, 0.023922080000000002], "properties": {"magmom": -0.094}, "label": "O", "xyz": [1.8090282142382268, 0.9401252005360327, -0.7496293950070414]}, {"species": [{"element": "O", "occu": 1}], "abc": [0.21639063, 0.6428255700000001, 0.02503505], "properties": {"magmom": -0.095}, "label": "O", "xyz": [1.0542652899550886, 4.44953778999598, -2.67461865226675]}, {"species": [{"element": "O", "occu": 1}], "abc": [0.78360584, 0.35715901, 0.97496044], "properties": {"magmom": -0.095}, "label": "O", "xyz": [6.7960299790438725, 3.0036084295637626, 6.313064051557193]}, {"species": [{"element": "O", "occu": 1}], "abc": [0.45384623, 0.96568931, 0.26005996], "properties": {"magmom": -0.08700000000000001}, "label": "O", "xyz": [2.860783117308694, 6.812945748625597, -2.1786716677361038]}, {"species": [{"element": "O", "occu": 1}], "abc": [0.04592526, 0.46610877, 0.25976105], "properties": {"magmom": -0.088}, "label": "O", "xyz": [0.5269536211265042, 3.4226167720853944, 0.40319077378297075]}, {"species": [{"element": "O", "occu": 1}], "abc": [0.04615582, 0.03430133, 0.23994976], "properties": {"magmom": -0.08700000000000001}, "label": "O", "xyz": [0.7556452335797446, 0.3987320713984777, 1.9725307347252952]}, {"species": [{"element": "O", "occu": 1}], "abc": [0.45406408000000004, 0.53387446, 0.24024242], "properties": {"magmom": -0.088}, "label": "O", "xyz": [3.0893845459042217, 3.7890078376576217, -0.6093408668011016]}, {"species": [{"element": "O", "occu": 1}], "abc": [0.78548213, 0.14168961, 0.52395019], "properties": {"magmom": -0.094}, "label": "O", "xyz": [6.042947191305413, 1.1816679536480557, 3.095321551155939]}, {"species": [{"element": "O", "occu": 1}], "abc": [0.54593035, 0.46612141, 0.75976062], "properties": {"magmom": -0.088}, "label": "O", "xyz": [4.760905577438387, 3.6642228870601246, 4.2478117696536675]}, {"species": [{"element": "O", "occu": 1}], "abc": [0.95408001, 0.53388796, 0.74022536], "properties": {"magmom": -0.088}, "label": "O", "xyz": [7.323373049636872, 4.030605714104911, 3.235111006171029]}, {"species": [{"element": "O", "occu": 1}], "abc": [0.54615842, 0.03430417, 0.7399393400000001], "properties": {"magmom": -0.08700000000000001}, "label": "O", "xyz": [4.989567218765062, 0.6402633599366316, 5.817104302337707]}, {"species": [{"element": "O", "occu": 1}], "abc": [0.1480753, 0.25060344, 0.75155936], "properties": {"magmom": -0.054}, "label": "O", "xyz": [2.301105393816178, 2.2459991334982248, 5.593485433656229]}, {"species": [{"element": "O", "occu": 1}], "abc": [0.71451997, 0.858310999999999, 0.9760732400000001], "properties": {"magmom": -0.094}, "label": "O", "xyz": [6.041357943268535, 6.513127994965836, 4.387987518454214]}, {"species": [{"element": "O", "occu": 1}], "abc": [0.85192081, 0.74939359, 0.24842607], "properties": {"magmom": -0.054}, "label": "O", "xyz": [5.549159818549718, 5.207226816604425, -1.9551811589489558]}, {"species": [{"element": "O", "occu": 1}], "abc": [0.9538376900000001, 0.96571513, 0.76006741], "properties": {"magmom": -0.08700000000000001}, "label": "O", "xyz": [7.094654359894234, 7.054652392214676, 1.665986100152356]}]}, "task_ids": null, "uncorrected_energy_per_atom": null, "energy_per_atom": -10.682143958571428, "formation_energy_per_atom": -3.448520474642858, "energy_above_hull": 0.0, "is_stable": true, "equilibrium_reaction_energy_per_atom": null, "decomposes_to": null, "xas": null, "grain_boundaries": null, "band_gap": 0.0, "cbm": null, "vbm": null, "efermi": 5.74308579, "is_gap_direct": null, "is_metal": null, "es_source_calc_id": null, "bandstructure": null, "dos": null, "dos_energy_up": null, "dos_energy_down": null, "is_magnetic": null, "ordering": null, "total_magnetization": 16.0000002, "total_magnetization_normalized_vol": null, "total_magnetization_normalized_formula_units": null, "num_magnetic_sites": null, "num_unique_magnetic_sites": null, "types_of_magnetic_species": null, "bulk_modulus": null, "shear_modulus": null, "universal_anisotropy": null, "homogeneous_poisson": null, "e_total": null, "e_ionic": null, "e_electronic": null, "n": null, "e_ij_max": null, "weighted_surface_energy_EV_PER_ANG2": null, "weighted_surface_energy": null, "weighted_work_function": null, "surface_anisotropy": null, "shape_factor": null, "has_reconstructed": null, "possible_species": null, "has_props": null, "theoretical": null, "database_IDs": null, "fields_not_requested": ["builder_meta", "nsites", "elements", "nelements", "composition", "composition_reduced", "chemsys", "symmetry", "property_name", "deprecated", "deprecation_reasons", "last_updated", "origins", "warnings", "task_ids", "uncorrected_energy_per_atom", "equilibrium_reaction_energy_per_atom", "decomposes_to", "xas", "grain_boundaries", "cbm", "vbm", "is_gap_direct", "is_metal", "es_source_calc_id", "bandstructure", "dos", "dos_energy_up", "dos_energy_down", "is_magnetic", "ordering", "total_magnetization_normalized_vol", "total_magnetization_normalized_formula_units", "num_magnetic_sites", "num_unique_magnetic_sites", "types_of_magnetic_species", "bulk_modulus", "shear_modulus", "universal_anisotropy", "homogeneous_poisson", "e_total", "e_ionic", "e_electronic", "n", "e_ij_max", "weighted_surface_energy_EV_PER_ANG2", "weighted_surface_energy", "weighted_work_function", "surface_anisotropy", "shape_factor", "has_reconstructed", "possible_species", "has_props", "theoretical", "database_IDs"]}