{
  "builder_meta": null,
  "nsites": null,
  "elements": null,
  "nelements": null,
  "composition": null,
  "composition_reduced": null,
  "formula_pretty": "Np2Si3",
  "formula_anonymous": "A2B3",
  "chemsys": null,
  "volume": 98.96485312082469,
  "density": 9.367029790885601,
  "density_atomic": 19.792970624164937,
  "symmetry": null,
  "property_name": null,
  "material_id": "mp-1220075",
  "deprecated": null,
  "deprecation_reasons": null,
  "last_updated": null,
  "origins": null,
  "warnings": null,
  "structure": {
    "@module": "pymatgen.core.structure",
    "@class": "Structure",
    "charge": 0,
    "lattice": {
      "matrix": [
        [-2.113684, -3.657483, 0.0],
        [-2.108887, 3.654709, 0.0],
        [0.0, 0.0, -6.410422]
      ],
      "pbc": [true, true, true],
      "a": 4.224315559607852,
      "b": 4.219514457073231,
      "c": 6.410422,
      "alpha": 90.0,
      "beta": 90.0,
      "gamma": 119.98973782225968,
      "volume": 98.96485312082469
    },
    "properties": {},
    "sites": [
      {
        "species": [{ "element": "Np", "occu": 1 }],
        "abc": [0.999767, 0.9998539999999991, 0.023319],
        "properties": { "magmom": 3.329 },
        "label": "Np",
        "xyz": [-4.221770614125998, -0.0024553939750031617, -0.149484630618]
      },
      {
        "species": [{ "element": "Np", "occu": 1 }],
        "abc": [0.999767, 0.9998539999999991, 0.476680999999999],
        "properties": { "magmom": 3.329 },
        "label": "Np",
        "xyz": [-4.221770614125998, -0.0024553939750031617, -3.0557263693819934]
      },
      {
        "species": [{ "element": "Si", "occu": 1 }],
        "abc": [0.33295, 0.666293999999999, 0.75],
        "properties": { "magmom": -0.05 },
        "label": "Si",
        "xyz": [-2.108889842577998, 1.2173517135959966, -4.8078164999999995]
      },
      {
        "species": [{ "element": "Si", "occu": 1 }],
        "abc": [0.666513, 0.333279, 0.25],
        "properties": { "magmom": -0.094 },
        "label": "Si",
        "xyz": [-2.1116456143650004, -1.2197222059680002, -1.6026055]
      },
      {
        "species": [{ "element": "Si", "occu": 1 }],
        "abc": [0.667503, 0.334019, 0.75],
        "properties": { "magmom": -0.03 },
        "label": "Si",
        "xyz": [-2.115298737905, -1.220638629478, -4.8078164999999995]
      }
    ]
  },
  "task_ids": null,
  "uncorrected_energy_per_atom": null,
  "energy_per_atom": -38.68972659500001,
  "formation_energy_per_atom": -0.21578322550001303,
  "energy_above_hull": 0.219772924624997,
  "is_stable": false,
  "equilibrium_reaction_energy_per_atom": null,
  "decomposes_to": null,
  "xas": null,
  "grain_boundaries": null,
  "band_gap": 0.0,
  "cbm": null,
  "vbm": null,
  "efermi": 10.53770794,
  "is_gap_direct": null,
  "is_metal": null,
  "es_source_calc_id": null,
  "bandstructure": null,
  "dos": null,
  "dos_energy_up": null,
  "dos_energy_down": null,
  "is_magnetic": null,
  "ordering": null,
  "total_magnetization": 6.7420352999999995,
  "total_magnetization_normalized_vol": null,
  "total_magnetization_normalized_formula_units": null,
  "num_magnetic_sites": null,
  "num_unique_magnetic_sites": null,
  "types_of_magnetic_species": null,
  "bulk_modulus": null,
  "shear_modulus": null,
  "universal_anisotropy": null,
  "homogeneous_poisson": null,
  "e_total": null,
  "e_ionic": null,
  "e_electronic": null,
  "n": null,
  "e_ij_max": null,
  "weighted_surface_energy_EV_PER_ANG2": null,
  "weighted_surface_energy": null,
  "weighted_work_function": null,
  "surface_anisotropy": null,
  "shape_factor": null,
  "has_reconstructed": null,
  "possible_species": null,
  "has_props": null,
  "theoretical": null,
  "database_IDs": null,
  "fields_not_requested": [
    "builder_meta",
    "nsites",
    "elements",
    "nelements",
    "composition",
    "composition_reduced",
    "chemsys",
    "symmetry",
    "property_name",
    "deprecated",
    "deprecation_reasons",
    "last_updated",
    "origins",
    "warnings",
    "task_ids",
    "uncorrected_energy_per_atom",
    "equilibrium_reaction_energy_per_atom",
    "decomposes_to",
    "xas",
    "grain_boundaries",
    "cbm",
    "vbm",
    "is_gap_direct",
    "is_metal",
    "es_source_calc_id",
    "bandstructure",
    "dos",
    "dos_energy_up",
    "dos_energy_down",
    "is_magnetic",
    "ordering",
    "total_magnetization_normalized_vol",
    "total_magnetization_normalized_formula_units",
    "num_magnetic_sites",
    "num_unique_magnetic_sites",
    "types_of_magnetic_species",
    "bulk_modulus",
    "shear_modulus",
    "universal_anisotropy",
    "homogeneous_poisson",
    "e_total",
    "e_ionic",
    "e_electronic",
    "n",
    "e_ij_max",
    "weighted_surface_energy_EV_PER_ANG2",
    "weighted_surface_energy",
    "weighted_work_function",
    "surface_anisotropy",
    "shape_factor",
    "has_reconstructed",
    "possible_species",
    "has_props",
    "theoretical",
    "database_IDs"
  ]
}
