{
  "builder_meta": null,
  "nsites": null,
  "elements": null,
  "nelements": null,
  "composition": null,
  "composition_reduced": null,
  "formula_pretty": "Np2Se3",
  "formula_anonymous": "A2B3",
  "chemsys": null,
  "volume": 973.7452677190057,
  "density": 9.69817508375506,
  "density_atomic": 24.343631692975144,
  "symmetry": null,
  "property_name": null,
  "material_id": "mp-684922",
  "deprecated": null,
  "deprecation_reasons": null,
  "last_updated": null,
  "origins": null,
  "warnings": null,
  "structure": {
    "@module": "pymatgen.core.structure",
    "@class": "Structure",
    "charge": 0,
    "lattice": {
      "matrix": [
        [18.3636556, 0.01250478, 12.99390761],
        [6.12538712, 6.12538711, 0.0],
        [0.0, 0.0, 8.66260507]
      ],
      "pbc": [true, true, true],
      "a": 22.495902701206507,
      "b": 8.662605532818406,
      "c": 8.66260507,
      "alpha": 90.0,
      "beta": 54.71722858594695,
      "gamma": 54.71722853146524,
      "volume": 973.7452677190057
    },
    "properties": {},
    "sites": [
      {
        "species": [{ "element": "Np", "occu": 1 }],
        "abc": [0.99770757, 0.38424347000000003, 0.25189255],
        "properties": { "magmom": 3.906 },
        "label": "Np",
        "xyz": [20.675198207075, 2.3661161119068566, 15.146165667102837]
      },
      {
        "species": [{ "element": "Np", "occu": 1 }],
        "abc": [0.99770757, 0.12263383, 0.75498475],
        "properties": { "magmom": 3.902 },
        "label": "Np",
        "xyz": [19.072737887751163, 0.7636557951991159, 19.50425470950029]
      },
      {
        "species": [{ "element": "Np", "occu": 1 }],
        "abc": [0.08179347000000001, 0.62730929, 0.37730929],
        "properties": { "magmom": 3.923 },
        "label": "Np",
        "xyz": [5.344539358631277, 3.8435350482970385, 4.331298160793407]
      },
      {
        "species": [{ "element": "Np", "occu": 1 }],
        "abc": [0.166666999999999, 0.25, 0.63224376],
        "properties": { "magmom": 4.007 },
        "label": "Np",
        "xyz": [4.591962167885182, 1.53343091166826, 7.64253360048772]
      },
      {
        "species": [{ "element": "Np", "occu": 1 }],
        "abc": [0.33562543, 0.37736617, 0.24810745],
        "properties": { "magmom": 3.9 },
        "label": "Np",
        "xyz": [8.474823684363638, 2.315710795632624, 6.510342683261294]
      },
      {
        "species": [{ "element": "Np", "occu": 1 }],
        "abc": [0.25153953, 0.87269071, 0.12269071000000001],
        "properties": { "magmom": 3.92 },
        "label": "Np",
        "xyz": [9.964753733483523, 5.348713872534701, 4.331302579570723]
      },
      {
        "species": [{ "element": "Np", "occu": 1 }],
        "abc": [0.166666999999999, 0.75, 0.8677562400000001],
        "properties": { "magmom": 3.997 },
        "label": "Np",
        "xyz": [7.654655727885182, 4.59612446666826, 9.682685203783993]
      },
      {
        "species": [{ "element": "Np", "occu": 1 }],
        "abc": [0.33562543, 0.11575653, 0.74501525],
        "properties": { "magmom": 3.909 },
        "label": "Np",
        "xyz": [6.872363365039803, 0.7132504789248837, 10.81485871086384]
      },
      {
        "species": [{ "element": "Np", "occu": 1 }],
        "abc": [0.49770757, 0.25498475, 0.62263383],
        "properties": { "magmom": 3.923 },
        "label": "Np",
        "xyz": [10.701610708439313, 1.5681040245637572, 11.860797153889127]
      },
      {
        "species": [{ "element": "Np", "occu": 1 }],
        "abc": [0.666667, 0.36775624, 0.25],
        "properties": { "magmom": 3.8810000000000002 },
        "label": "Np",
        "xyz": [14.49509252368083, 2.2609858562863265, 10.82826067213587]
      },
      {
        "species": [{ "element": "Np", "occu": 1 }],
        "abc": [0.58179347, 0.87730929, 0.12730929],
        "properties": { "magmom": 3.992 },
        "label": "Np",
        "xyz": [16.057713938631277, 5.381134215797038, 8.662600698293408]
      },
      {
        "species": [{ "element": "Np", "occu": 1 }],
        "abc": [0.49770757, 0.75189255, 0.88424347],
        "properties": { "magmom": 3.923 },
        "label": "Np",
        "xyz": [13.74536334638685, 4.611856657542215, 14.127018147714]
      },
      {
        "species": [{ "element": "Np", "occu": 1 }],
        "abc": [0.666667, 0.13224376000000002, 0.75],
        "properties": { "magmom": 3.876 },
        "label": "Np",
        "xyz": [13.052487412089572, 0.8183807470501937, 15.159563207135871]
      },
      {
        "species": [{ "element": "Np", "occu": 1 }],
        "abc": [0.7515395300000001, 0.62269071, 0.37269071],
        "properties": { "magmom": 4.0 },
        "label": "Np",
        "xyz": [17.615234753483524, 3.8236194850347016, 12.993907652070725]
      },
      {
        "species": [{ "element": "Np", "occu": 1 }],
        "abc": [0.83562543, 0.24501525000000002, 0.61575653],
        "properties": { "magmom": 3.92 },
        "label": "Np",
        "xyz": [16.84595086367549, 1.511262566267983, 16.19209527265013]
      },
      {
        "species": [{ "element": "Np", "occu": 1 }],
        "abc": [0.83562543, 0.74810745, 0.8773661700000001],
        "properties": { "magmom": 3.922 },
        "label": "Np",
        "xyz": [19.927585345727955, 4.592897043289525, 18.458316266475006]
      },
      {
        "species": [{ "element": "Se", "occu": 1 }],
        "abc": [0.12049324, 0.49296686, 0.99691929],
        "properties": { "magmom": -0.111 },
        "label": "Se",
        "xyz": [5.2323092163189875, 3.021119591358862, 10.201596124124357]
      },
      {
        "species": [{ "element": "Se", "occu": 1 }],
        "abc": [0.051251599999999, 0.34672765, 0.49878887],
        "properties": { "magmom": -0.10400000000000001 },
        "label": "Se",
        "xyz": [3.06500781280681, 2.124481967973239, 4.986769549386234]
      },
      {
        "species": [{ "element": "Se", "occu": 1 }],
        "abc": [0.2820814, 0.15327235, 0.15254466],
        "properties": { "magmom": -0.10400000000000001 },
        "label": "Se",
        "xyz": [6.118898159307972, 0.9423798428585005, 4.98677379521688]
      },
      {
        "species": [{ "element": "Se", "occu": 1 }],
        "abc": [0.051251599999999, 0.99951656, 0.34745534],
        "properties": { "magmom": -0.10400000000000001 },
        "label": "Se",
        "xyz": [7.0635925941996485, 6.12306674283819, 3.6758269451472367]
      },
      {
        "species": [{ "element": "Se", "occu": 1 }],
        "abc": [0.2820814, 0.50048344, 0.00121113],
        "properties": { "magmom": -0.10400000000000001 },
        "label": "Se",
        "xyz": [8.245700497915132, 3.0691821779935506, 3.6758311909778834]
      },
      {
        "species": [{ "element": "Se", "occu": 1 }],
        "abc": [0.21283976000000002, 0.00703314, 0.85840002],
        "properties": { "magmom": -0.111 },
        "label": "Se",
        "xyz": [3.9515967557958134, 0.0457422194728782, 10.201600542514676]
      },
      {
        "species": [{ "element": "Se", "occu": 1 }],
        "abc": [0.12049324, 0.64555242, 0.64159998],
        "properties": { "magmom": -0.111 },
        "label": "Se",
        "xyz": [6.166954840240974, 3.9557652137549937, 7.123605267849455]
      },
      {
        "species": [{ "element": "Se", "occu": 1 }],
        "abc": [0.21283976000000002, 0.85444758, 0.50308071],
        "properties": { "magmom": -0.111 },
        "label": "Se",
        "xyz": [9.142338251873825, 5.236483707076746, 7.1236096862397735]
      },
      {
        "species": [{ "element": "Se", "occu": 1 }],
        "abc": [0.448665999999999, 0.49937265000000003, 0.998435499999999],
        "properties": { "magmom": -0.12 },
        "label": "Se",
        "xyz": [11.29799870181985, 3.064461263020022, 14.478976976116224]
      },
      {
        "species": [{ "element": "Se", "occu": 1 }],
        "abc": [0.384668, 0.3444325, 0.50062735],
        "properties": { "magmom": -0.122 },
        "label": "Se",
        "xyz": [9.1736930715502, 2.114592584478115, 9.335077472814145]
      },
      {
        "species": [{ "element": "Se", "occu": 1 }],
        "abc": [0.6204932400000001, 0.14159998000000001, 0.14555242000000002],
        "properties": { "magmom": -0.113 },
        "label": "Se",
        "xyz": [12.261878855172403, 0.8751138237259452, 9.323494964632328]
      },
      {
        "species": [{ "element": "Se", "occu": 1 }],
        "abc": [0.384668, 0.0015645, 0.34536966],
        "properties": { "magmom": -0.121 },
        "label": "Se",
        "xyz": [7.073493840490041, 0.014393356846635, 7.990141420263657]
      },
      {
        "species": [{ "element": "Se", "occu": 1 }],
        "abc": [0.6204932400000001, 0.49691929, 0.99296686],
        "properties": { "magmom": -0.113 },
        "label": "Se",
        "xyz": [14.438347180133691, 3.0515821451340392, 16.664311588967536]
      },
      {
        "species": [{ "element": "Se", "occu": 1 }],
        "abc": [0.5512516, 0.99878887, 0.84672765],
        "properties": { "magmom": -0.10400000000000001 },
        "label": "Se",
        "xyz": [16.240963011246315, 6.124861749892115, 14.49777959406386]
      },
      {
        "species": [{ "element": "Se", "occu": 1 }],
        "abc": [0.448665999999999, 0.65463034, 0.6555675],
        "properties": { "magmom": -0.12 },
        "label": "Se",
        "xyz": [12.249012156426804, 4.015474716074397, 11.508846900975472]
      },
      {
        "species": [{ "element": "Se", "occu": 1 }],
        "abc": [0.5512516, 0.84745534, 0.49951656],
        "properties": { "magmom": -0.10400000000000001 },
        "label": "Se",
        "xyz": [15.31398655576018, 5.197885295919316, 11.490027045469635]
      },
      {
        "species": [{ "element": "Se", "occu": 1 }],
        "abc": [0.782081399999999, 0.5012111300000001, 0.00048344],
        "properties": { "magmom": -0.10400000000000001 },
        "label": "Se",
        "xyz": [17.43198568086847, 3.079891950939627, 10.166481304894484]
      },
      {
        "species": [{ "element": "Se", "occu": 1 }],
        "abc": [0.71283976, 0.35840002, 0.50703314],
        "properties": { "magmom": -0.113 },
        "label": "Se",
        "xyz": [15.2856827169424, 2.2042527671057948, 13.654801831396593]
      },
      {
        "species": [{ "element": "Se", "occu": 1 }],
        "abc": [0.948666, 0.1555675, 0.15463034],
        "properties": { "magmom": -0.122 },
        "label": "Se",
        "xyz": [18.3738868642202, 0.964774018858405, 13.666379924008083]
      },
      {
        "species": [{ "element": "Se", "occu": 1 }],
        "abc": [0.71283976, 0.00308071, 0.35444758],
        "properties": { "magmom": -0.113 },
        "label": "Se",
        "xyz": [13.109214391981112, 0.027784445697700902, 12.333013385731805]
      },
      {
        "species": [{ "element": "Se", "occu": 1 }],
        "abc": [0.948666, 0.4984355, -0.00062735],
        "properties": { "magmom": -0.121 },
        "label": "Se",
        "xyz": [20.474086095280363, 3.064973246489885, 12.321443871457596]
      },
      {
        "species": [{ "element": "Se", "occu": 1 }],
        "abc": [0.884668, 0.00062735, 0.844432499999999],
        "properties": { "magmom": -0.12 },
        "label": "Se",
        "xyz": [16.249581233950533, 0.0149053403164985, 18.810279513296248]
      },
      {
        "species": [{ "element": "Se", "occu": 1 }],
        "abc": [0.782081399999999, 0.65254466, 0.6532723500000001],
        "properties": { "magmom": -0.10400000000000001 },
        "label": "Se",
        "xyz": [18.358962136354602, 4.006868404912424, 15.821333826300258]
      },
      {
        "species": [{ "element": "Se", "occu": 1 }],
        "abc": [0.884668, 0.84536966, 0.5015645],
        "properties": { "magmom": -0.12 },
        "label": "Se",
        "xyz": [21.42395489934358, 5.1892789972621225, 15.840149438155496]
      }
    ]
  },
  "task_ids": null,
  "uncorrected_energy_per_atom": null,
  "energy_per_atom": -8.73521161575,
  "formation_energy_per_atom": -1.45855285665625,
  "energy_above_hull": 0.0,
  "is_stable": true,
  "equilibrium_reaction_energy_per_atom": null,
  "decomposes_to": null,
  "xas": null,
  "grain_boundaries": null,
  "band_gap": 0.0,
  "cbm": null,
  "vbm": null,
  "efermi": 8.98090967,
  "is_gap_direct": null,
  "is_metal": null,
  "es_source_calc_id": null,
  "bandstructure": null,
  "dos": null,
  "dos_energy_up": null,
  "dos_energy_down": null,
  "is_magnetic": null,
  "ordering": null,
  "total_magnetization": 32.3914222,
  "total_magnetization_normalized_vol": null,
  "total_magnetization_normalized_formula_units": null,
  "num_magnetic_sites": null,
  "num_unique_magnetic_sites": null,
  "types_of_magnetic_species": null,
  "bulk_modulus": null,
  "shear_modulus": null,
  "universal_anisotropy": null,
  "homogeneous_poisson": null,
  "e_total": null,
  "e_ionic": null,
  "e_electronic": null,
  "n": null,
  "e_ij_max": null,
  "weighted_surface_energy_EV_PER_ANG2": null,
  "weighted_surface_energy": null,
  "weighted_work_function": null,
  "surface_anisotropy": null,
  "shape_factor": null,
  "has_reconstructed": null,
  "possible_species": null,
  "has_props": null,
  "theoretical": null,
  "database_IDs": null,
  "fields_not_requested": [
    "builder_meta",
    "nsites",
    "elements",
    "nelements",
    "composition",
    "composition_reduced",
    "chemsys",
    "symmetry",
    "property_name",
    "deprecated",
    "deprecation_reasons",
    "last_updated",
    "origins",
    "warnings",
    "task_ids",
    "uncorrected_energy_per_atom",
    "equilibrium_reaction_energy_per_atom",
    "decomposes_to",
    "xas",
    "grain_boundaries",
    "cbm",
    "vbm",
    "is_gap_direct",
    "is_metal",
    "es_source_calc_id",
    "bandstructure",
    "dos",
    "dos_energy_up",
    "dos_energy_down",
    "is_magnetic",
    "ordering",
    "total_magnetization_normalized_vol",
    "total_magnetization_normalized_formula_units",
    "num_magnetic_sites",
    "num_unique_magnetic_sites",
    "types_of_magnetic_species",
    "bulk_modulus",
    "shear_modulus",
    "universal_anisotropy",
    "homogeneous_poisson",
    "e_total",
    "e_ionic",
    "e_electronic",
    "n",
    "e_ij_max",
    "weighted_surface_energy_EV_PER_ANG2",
    "weighted_surface_energy",
    "weighted_work_function",
    "surface_anisotropy",
    "shape_factor",
    "has_reconstructed",
    "possible_species",
    "has_props",
    "theoretical",
    "database_IDs"
  ]
}
