{"builder_meta": null, "nsites": null, "elements": null, "nelements": null, "composition": null, "composition_reduced": null, "formula_pretty": "Np2Se5", "formula_anonymous": "A2B5", "chemsys": null, "volume": 652.8050789171167, "density": 8.839859784517692, "density_atomic": 23.31446710418274, "symmetry": null, "property_name": null, "material_id": "mp-1103625", "deprecated": null, "deprecation_reasons": null, "last_updated": null, "origins": null, "warnings": null, "structure": {"@module": "pymatgen.core.structure", "@class": "Structure", "charge": 0, "lattice": {"matrix": [[-7.78089474, 0.0, -0.0], [0.0, 0.0, -7.79515108], [0.0, -10.762903529999999, 0.0]], "pbc": [true, true, true], "a": 7.78089474, "b": 7.79515108, "c": 10.762903529999999, "alpha": 90.0, "beta": 90.0, "gamma": 90.0, "volume": 652.8050789171166}, "properties": {}, "sites": [{"species": [{"element": "Np", "occu": 1}], "abc": [0.7478051800000001, 0.49910937, 0.15082983], "properties": {"magmom": 3.55}, "label": "Np", "xyz": [-5.818593391606754, -1.6233669097362997, -3.8906329445936194]}, {"species": [{"element": "Np", "occu": 1}], "abc": [0.75219482, 0.99910937, 0.34917017], "properties": {"magmom": 3.55}, "label": "Np", "xyz": [-5.852748718393247, -3.7580848552636996, -7.7882084845936195]}, {"species": [{"element": "Np", "occu": 1}], "abc": [0.24780518, 0.50089063, 0.34917017], "properties": {"magmom": 3.55}, "label": "Np", "xyz": [-1.9281460216067532, -3.7580848552636996, -3.9045181354063807]}, {"species": [{"element": "Np", "occu": 1}], "abc": [0.25219482, 0.00089063, 0.15082983], "properties": {"magmom": 3.55}, "label": "Np", "xyz": [-1.9623013483932468, -1.6233669097362997, -0.0069425954063804]}, {"species": [{"element": "Np", "occu": 1}], "abc": [0.25219482, 0.50089063, 0.8491701700000001], "properties": {"magmom": 3.55}, "label": "Np", "xyz": [-1.9623013483932468, -9.1395366202637, -3.9045181354063807]}, {"species": [{"element": "Np", "occu": 1}], "abc": [0.24780518, 0.00089063, 0.65082983], "properties": {"magmom": 3.55}, "label": "Np", "xyz": [-1.9281460216067532, -7.0048186747363, -0.0069425954063804]}, {"species": [{"element": "Np", "occu": 1}], "abc": [0.75219482, 0.49910937, 0.65082983], "properties": {"magmom": 3.55}, "label": "Np", "xyz": [-5.852748718393247, -7.0048186747363, -3.8906329445936194]}, {"species": [{"element": "Np", "occu": 1}], "abc": [0.7478051800000001, 0.99910937, 0.8491701700000001], "properties": {"magmom": 3.55}, "label": "Np", "xyz": [-5.818593391606754, -9.1395366202637, -7.7882084845936195]}, {"species": [{"element": "Se", "occu": 1}], "abc": [0.62122877, 0.12980057, 0.60312261], "properties": {"magmom": -0.108}, "label": "Se", "xyz": [-4.83371566882967, -6.491350468191813, -1.0118150534201156]}, {"species": [{"element": "Se", "occu": 1}], "abc": [0.87877123, 0.62980057, 0.89687739], "properties": {"magmom": -0.108}, "label": "Se", "xyz": [-6.83762644117033, -9.653004826808186, -4.909390593420116]}, {"species": [{"element": "Se", "occu": 1}], "abc": [0.12122877, 0.87019943, 0.89687739], "properties": {"magmom": -0.108}, "label": "Se", "xyz": [-0.9432682988296698, -9.653004826808186, -6.783336026579884]}, {"species": [{"element": "Se", "occu": 1}], "abc": [0.37877123, 0.37019943, 0.60312261], "properties": {"magmom": -0.108}, "label": "Se", "xyz": [-2.9471790711703303, -6.491350468191813, -2.8857604865798843]}, {"species": [{"element": "Se", "occu": 1}], "abc": [0.37877123, 0.87019943, 0.39687739], "properties": {"magmom": -0.108}, "label": "Se", "xyz": [-2.9471790711703303, -4.271553061808186, -6.783336026579884]}, {"species": [{"element": "Se", "occu": 1}], "abc": [0.12122877, 0.37019943, 0.10312261], "properties": {"magmom": -0.108}, "label": "Se", "xyz": [-0.9432682988296698, -1.1098987031918133, -2.8857604865798843]}, {"species": [{"element": "Se", "occu": 1}], "abc": [0.87877123, 0.12980057, 0.10312261], "properties": {"magmom": -0.108}, "label": "Se", "xyz": [-6.83762644117033, -1.1098987031918133, -1.0118150534201156]}, {"species": [{"element": "Se", "occu": 1}], "abc": [0.62122877, 0.62980057, 0.39687739], "properties": {"magmom": -0.108}, "label": "Se", "xyz": [-4.83371566882967, -4.271553061808186, -4.909390593420116]}, {"species": [{"element": "Se", "occu": 1}], "abc": [0.12024885, 0.6281362500000001, 0.6023563200000001], "properties": {"magmom": -0.099}, "label": "Se", "xyz": [-0.935643644456049, -6.48310296284581, -4.896416967574651]}, {"species": [{"element": "Se", "occu": 1}], "abc": [0.37975115, 0.12813625, 0.89764368], "properties": {"magmom": -0.099}, "label": "Se", "xyz": [-2.9548037255439508, -9.66125233215419, -0.9988414275746501]}, {"species": [{"element": "Se", "occu": 1}], "abc": [0.62024885, 0.37186375, 0.89764368], "properties": {"magmom": -0.099}, "label": "Se", "xyz": [-4.826091014456049, -9.66125233215419, -2.89873411242535]}, {"species": [{"element": "Se", "occu": 1}], "abc": [0.87975115, 0.87186375, 0.6023563200000001], "properties": {"magmom": -0.099}, "label": "Se", "xyz": [-6.845251095543952, -6.48310296284581, -6.79630965242535]}, {"species": [{"element": "Se", "occu": 1}], "abc": [0.87975115, 0.37186375, 0.39764368], "properties": {"magmom": -0.099}, "label": "Se", "xyz": [-6.845251095543952, -4.27980056715419, -2.89873411242535]}, {"species": [{"element": "Se", "occu": 1}], "abc": [0.62024885, 0.87186375, 0.10235632], "properties": {"magmom": -0.099}, "label": "Se", "xyz": [-4.826091014456049, -1.1016511978458094, -6.79630965242535]}, {"species": [{"element": "Se", "occu": 1}], "abc": [0.37975115, 0.6281362500000001, 0.10235632], "properties": {"magmom": -0.099}, "label": "Se", "xyz": [-2.9548037255439508, -1.1016511978458094, -4.896416967574651]}, {"species": [{"element": "Se", "occu": 1}], "abc": [0.12024885, 0.12813625, 0.39764368], "properties": {"magmom": -0.099}, "label": "Se", "xyz": [-0.935643644456049, -4.27980056715419, -0.9988414275746501]}, {"species": [{"element": "Se", "occu": 1}], "abc": [-0.0, 0.25, 0.74663098], "properties": {"magmom": -0.16}, "label": "Se", "xyz": [0.0, -8.035917210249359, -1.94878777]}, {"species": [{"element": "Se", "occu": 1}], "abc": [0.5, 0.75, 0.7533690200000001], "properties": {"magmom": -0.16}, "label": "Se", "xyz": [-3.89044737, -8.10843808475064, -5.84636331]}, {"species": [{"element": "Se", "occu": 1}], "abc": [-0.0, 0.75, 0.25336902], "properties": {"magmom": -0.16}, "label": "Se", "xyz": [0.0, -2.7269863197506403, -5.84636331]}, {"species": [{"element": "Se", "occu": 1}], "abc": [0.5, 0.25, 0.24663098], "properties": {"magmom": -0.16}, "label": "Se", "xyz": [-3.89044737, -2.6544654452493592, -1.94878777]}]}, "task_ids": null, "uncorrected_energy_per_atom": null, "energy_per_atom": -7.507462862857143, "formation_energy_per_atom": -1.311017612745536, "energy_above_hull": 0.0, "is_stable": true, "equilibrium_reaction_energy_per_atom": null, "decomposes_to": null, "xas": null, "grain_boundaries": null, "band_gap": 0.0, "cbm": null, "vbm": null, "efermi": 7.45428028, "is_gap_direct": null, "is_metal": null, "es_source_calc_id": null, "bandstructure": null, "dos": null, "dos_energy_up": null, "dos_energy_down": null, "is_magnetic": null, "ordering": null, "total_magnetization": 26.0289885, "total_magnetization_normalized_vol": null, "total_magnetization_normalized_formula_units": null, "num_magnetic_sites": null, "num_unique_magnetic_sites": null, "types_of_magnetic_species": null, "bulk_modulus": null, "shear_modulus": null, "universal_anisotropy": null, "homogeneous_poisson": null, "e_total": null, "e_ionic": null, "e_electronic": null, "n": null, "e_ij_max": null, "weighted_surface_energy_EV_PER_ANG2": null, "weighted_surface_energy": null, "weighted_work_function": null, "surface_anisotropy": null, "shape_factor": null, "has_reconstructed": null, "possible_species": null, "has_props": null, "theoretical": null, "database_IDs": null, "fields_not_requested": ["builder_meta", "nsites", "elements", "nelements", "composition", "composition_reduced", "chemsys", "symmetry", "property_name", "deprecated", "deprecation_reasons", "last_updated", "origins", "warnings", "task_ids", "uncorrected_energy_per_atom", "equilibrium_reaction_energy_per_atom", "decomposes_to", "xas", "grain_boundaries", "cbm", "vbm", "is_gap_direct", "is_metal", "es_source_calc_id", "bandstructure", "dos", "dos_energy_up", "dos_energy_down", "is_magnetic", "ordering", "total_magnetization_normalized_vol", "total_magnetization_normalized_formula_units", "num_magnetic_sites", "num_unique_magnetic_sites", "types_of_magnetic_species", "bulk_modulus", "shear_modulus", "universal_anisotropy", "homogeneous_poisson", "e_total", "e_ionic", "e_electronic", "n", "e_ij_max", "weighted_surface_energy_EV_PER_ANG2", "weighted_surface_energy", "weighted_work_function", "surface_anisotropy", "shape_factor", "has_reconstructed", "possible_species", "has_props", "theoretical", "database_IDs"]}