{"builder_meta": null, "nsites": null, "elements": null, "nelements": null, "composition": null, "composition_reduced": null, "formula_pretty": "Np2S3", "formula_anonymous": "A2B3", "chemsys": null, "volume": 460.6599292979713, "density": 8.221518850340836, "density_atomic": 23.032996464898567, "symmetry": null, "property_name": null, "material_id": "mp-504783", "deprecated": null, "deprecation_reasons": null, "last_updated": null, "origins": null, "warnings": null, "structure": {"@module": "pymatgen.core.structure", "@class": "Structure", "charge": 0, "lattice": {"matrix": [[3.99202268, 0.0, 0.0], [-0.0, 10.61031491, 0.0], [0.0, 0.0, 10.87574867]], "pbc": [true, true, true], "a": 3.99202268, "b": 10.61031491, "c": 10.87574867, "alpha": 90.0, "beta": 90.0, "gamma": 90.0, "volume": 460.6599292979713}, "properties": {}, "sites": [{"species": [{"element": "Np", "occu": 1}], "abc": [0.25, 0.31323118, 0.99325386], "properties": {"magmom": 3.886}, "label": "Np", "xyz": [0.99800567, 3.3234814594308935, 10.802379346867367]}, {"species": [{"element": "Np", "occu": 1}], "abc": [0.75, 0.6867688200000001, 0.00674614], "properties": {"magmom": 3.886}, "label": "Np", "xyz": [2.99401701, 7.286833450569106, 0.0733693231326338]}, {"species": [{"element": "Np", "occu": 1}], "abc": [0.75, 0.81323118, 0.50674614], "properties": {"magmom": 3.886}, "label": "Np", "xyz": [2.99401701, 8.628638914430894, 5.511243658132633]}, {"species": [{"element": "Np", "occu": 1}], "abc": [0.25, 0.18676882, 0.49325386], "properties": {"magmom": 3.886}, "label": "Np", "xyz": [0.99800567, 1.9816759955691061, 5.364505011867366]}, {"species": [{"element": "Np", "occu": 1}], "abc": [0.25, 0.50500503, 0.30901468], "properties": {"magmom": 3.925}, "label": "Np", "xyz": [0.99800567, 5.358262399433997, 3.3607659950204756]}, {"species": [{"element": "Np", "occu": 1}], "abc": [0.75, 0.49499497000000003, 0.69098532], "properties": {"magmom": 3.925}, "label": "Np", "xyz": [2.99401701, 5.252052510566003, 7.5149826749795245]}, {"species": [{"element": "Np", "occu": 1}], "abc": [0.75, 0.00500503, 0.19098532000000001], "properties": {"magmom": 3.925}, "label": "Np", "xyz": [2.99401701, 0.0531049444339973, 2.0771083399795245]}, {"species": [{"element": "Np", "occu": 1}], "abc": [0.25, 0.99499497, 0.80901468], "properties": {"magmom": 3.925}, "label": "Np", "xyz": [0.99800567, 10.557209965566003, 8.798640330020476]}, {"species": [{"element": "S", "occu": 1}], "abc": [0.25, 0.87279313, 0.048142290000000004], "properties": {"magmom": -0.067}, "label": "S", "xyz": [0.99800567, 9.260609960584569, 0.5235834464382544]}, {"species": [{"element": "S", "occu": 1}], "abc": [0.75, 0.12720687, 0.95185771], "properties": {"magmom": -0.067}, "label": "S", "xyz": [2.99401701, 1.3497049494154316, 10.352165223561746]}, {"species": [{"element": "S", "occu": 1}], "abc": [0.75, 0.37279313000000003, 0.45185771], "properties": {"magmom": -0.067}, "label": "S", "xyz": [2.99401701, 3.9554525055845686, 4.914290888561746]}, {"species": [{"element": "S", "occu": 1}], "abc": [0.25, 0.62720687, 0.54814229], "properties": {"magmom": -0.067}, "label": "S", "xyz": [0.99800567, 6.654862404415431, 5.961457781438255]}, {"species": [{"element": "S", "occu": 1}], "abc": [0.25, 0.5541862, 0.87876096], "properties": {"magmom": -0.063}, "label": "S", "xyz": [0.99800567, 5.880090100776242, 9.557183341967924]}, {"species": [{"element": "S", "occu": 1}], "abc": [0.75, 0.4458138, 0.12123904], "properties": {"magmom": -0.063}, "label": "S", "xyz": [2.99401701, 4.730224809223758, 1.3185653280320768]}, {"species": [{"element": "S", "occu": 1}], "abc": [0.75, 0.0541862, 0.62123904], "properties": {"magmom": -0.063}, "label": "S", "xyz": [2.99401701, 0.5749326457762419, 6.756439663032077]}, {"species": [{"element": "S", "occu": 1}], "abc": [0.25, 0.945813799999999, 0.37876096000000004], "properties": {"magmom": -0.063}, "label": "S", "xyz": [0.99800567, 10.035382264223747, 4.1193090069679235]}, {"species": [{"element": "S", "occu": 1}], "abc": [0.25, 0.19960732, 0.22887139], "properties": {"magmom": -0.067}, "label": "S", "xyz": [0.99800567, 2.117896523541141, 2.4891477153935515]}, {"species": [{"element": "S", "occu": 1}], "abc": [0.75, 0.80039268, 0.77112861], "properties": {"magmom": -0.067}, "label": "S", "xyz": [2.99401701, 8.492418386458858, 8.386600954606449]}, {"species": [{"element": "S", "occu": 1}], "abc": [0.75, 0.69960732, 0.27112861], "properties": {"magmom": -0.067}, "label": "S", "xyz": [2.99401701, 7.423053978541141, 2.9487266196064486]}, {"species": [{"element": "S", "occu": 1}], "abc": [0.25, 0.30039268, 0.72887139], "properties": {"magmom": -0.067}, "label": "S", "xyz": [0.99800567, 3.187260931458859, 7.927022050393552]}]}, "task_ids": null, "uncorrected_energy_per_atom": null, "energy_per_atom": -40.193383682000004, "formation_energy_per_atom": -2.162699620187498, "energy_above_hull": 0.0, "is_stable": true, "equilibrium_reaction_energy_per_atom": null, "decomposes_to": null, "xas": null, "grain_boundaries": null, "band_gap": 0.0, "cbm": null, "vbm": null, "efermi": 9.91594119, "is_gap_direct": null, "is_metal": null, "es_source_calc_id": null, "bandstructure": null, "dos": null, "dos_energy_up": null, "dos_energy_down": null, "is_magnetic": null, "ordering": null, "total_magnetization": 31.9722649, "total_magnetization_normalized_vol": null, "total_magnetization_normalized_formula_units": null, "num_magnetic_sites": null, "num_unique_magnetic_sites": null, "types_of_magnetic_species": null, "bulk_modulus": null, "shear_modulus": null, "universal_anisotropy": null, "homogeneous_poisson": null, "e_total": null, "e_ionic": null, "e_electronic": null, "n": null, "e_ij_max": null, "weighted_surface_energy_EV_PER_ANG2": null, "weighted_surface_energy": null, "weighted_work_function": null, "surface_anisotropy": null, "shape_factor": null, "has_reconstructed": null, "possible_species": null, "has_props": null, "theoretical": null, "database_IDs": null, "fields_not_requested": ["builder_meta", "nsites", "elements", "nelements", "composition", "composition_reduced", "chemsys", "symmetry", "property_name", "deprecated", "deprecation_reasons", "last_updated", "origins", "warnings", "task_ids", "uncorrected_energy_per_atom", "equilibrium_reaction_energy_per_atom", "decomposes_to", "xas", "grain_boundaries", "cbm", "vbm", "is_gap_direct", "is_metal", "es_source_calc_id", "bandstructure", "dos", "dos_energy_up", "dos_energy_down", "is_magnetic", "ordering", "total_magnetization_normalized_vol", "total_magnetization_normalized_formula_units", "num_magnetic_sites", "num_unique_magnetic_sites", "types_of_magnetic_species", "bulk_modulus", "shear_modulus", "universal_anisotropy", "homogeneous_poisson", "e_total", "e_ionic", "e_electronic", "n", "e_ij_max", "weighted_surface_energy_EV_PER_ANG2", "weighted_surface_energy", "weighted_work_function", "surface_anisotropy", "shape_factor", "has_reconstructed", "possible_species", "has_props", "theoretical", "database_IDs"]}