{
  "builder_meta": null,
  "nsites": null,
  "elements": null,
  "nelements": null,
  "composition": null,
  "composition_reduced": null,
  "formula_pretty": "Np2Te3",
  "formula_anonymous": "A2B3",
  "chemsys": null,
  "volume": 1201.4988098220008,
  "density": 9.473167085191916,
  "density_atomic": 30.03747024555002,
  "symmetry": null,
  "property_name": null,
  "material_id": "mp-1173507",
  "deprecated": null,
  "deprecation_reasons": null,
  "last_updated": null,
  "origins": null,
  "warnings": null,
  "structure": {
    "@module": "pymatgen.core.structure",
    "@class": "Structure",
    "charge": 0,
    "lattice": {
      "matrix": [
        [-4.630426, 4.630426, 14.009462],
        [4.630426, -4.630426, 14.009462],
        [4.630426, 4.630426, -14.009462]
      ],
      "pbc": [true, true, true],
      "a": 15.46436922129047,
      "b": 15.46436922129047,
      "c": 15.46436922129047,
      "alpha": 145.15380257836833,
      "beta": 145.15380257836833,
      "gamma": 50.10538282281015,
      "volume": 1201.4988098220008
    },
    "properties": {},
    "sites": [
      {
        "species": [{ "element": "Np", "occu": 1 }],
        "abc": [0.669343999999999, 0.7941, 0.380384],
        "properties": { "magmom": -0.358 },
        "label": "Np",
        "xyz": [2.3390133896400043, 1.1836665375279953, 15.17308791371999]
      },
      {
        "species": [{ "element": "Np", "occu": 1 }],
        "abc": [0.08229, 0.5822900000000001, 0.5],
        "properties": { "magmom": 0.40700000000000003 },
        "label": "Np",
        "xyz": [4.630426, -4.440892098500626e-16, 2.305677255960001]
      },
      {
        "species": [{ "element": "Np", "occu": 1 }],
        "abc": [0.375, 0.005059, 0.130059],
        "properties": { "magmom": -0.031 },
        "label": "Np",
        "xyz": [-1.110755849732, 2.315213, 3.5023655]
      },
      {
        "species": [{ "element": "Np", "occu": 1 }],
        "abc": [0.080655999999999, 0.9610400000000001, 0.624755],
        "properties": { "magmom": -0.378 },
        "label": "Np",
        "xyz": [6.969434759214005, -1.1836711679540053, 5.841119095741988]
      },
      {
        "species": [{ "element": "Np", "occu": 1 }],
        "abc": [0.66771, 0.66771, 0.0],
        "properties": { "magmom": 0.372 },
        "label": "Np",
        "xyz": [0.0, 0.0, 18.70851574404]
      },
      {
        "species": [{ "element": "Np", "occu": 1 }],
        "abc": [0.33628399999999903, 0.4559, 0.375245],
        "properties": { "magmom": -0.356 },
        "label": "Np",
        "xyz": [2.291417240786005, 1.183671167953995, 5.841091076817988]
      },
      {
        "species": [{ "element": "Np", "occu": 1 }],
        "abc": [0.875, 0.244941, 0.869941],
        "properties": { "magmom": -0.037 },
        "label": "Np",
        "xyz": [1.1107558497319996, 6.945639, 3.5023655000000016]
      },
      {
        "species": [{ "element": "Np", "occu": 1 }],
        "abc": [0.03896, 0.663716, 0.119616],
        "properties": { "magmom": -0.41400000000000003 },
        "label": "Np",
        "xyz": [3.446759462472, -2.3390133896400003, 8.16835691372]
      },
      {
        "species": [{ "element": "Np", "occu": 1 }],
        "abc": [0.33229000000000003, 0.33229000000000003, 0.0],
        "properties": { "magmom": 0.321 },
        "label": "Np",
        "xyz": [0.0, 0.0, 9.31040825596]
      },
      {
        "species": [{ "element": "Np", "occu": 1 }],
        "abc": [0.755058999999999, 0.625, 0.630058999999999],
        "properties": { "magmom": -0.105 },
        "label": "Np",
        "xyz": [2.315213, 3.5196701502679915, 10.507096499999998]
      },
      {
        "species": [{ "element": "Np", "occu": 1 }],
        "abc": [0.994941, 0.125, 0.369940999999999],
        "properties": { "magmom": -0.10400000000000001 },
        "label": "Np",
        "xyz": [-2.3152130000000044, 5.741181849731995, 10.507096500000012]
      },
      {
        "species": [{ "element": "Np", "occu": 1 }],
        "abc": [0.5441, 0.919343999999999, 0.8803839999999991],
        "properties": { "magmom": -0.406 },
        "label": "Np",
        "xyz": [5.814092537527991, 2.3390133896399994, 8.168356913720002]
      },
      {
        "species": [{ "element": "Np", "occu": 1 }],
        "abc": [0.41771, 0.91771, 0.5],
        "properties": { "magmom": 0.28600000000000003 },
        "label": "Np",
        "xyz": [4.630426, -4.440892098500626e-16, 11.70378474404]
      },
      {
        "species": [{ "element": "Np", "occu": 1 }],
        "abc": [0.71104, 0.330656, 0.124754999999999],
        "properties": { "magmom": -0.433 },
        "label": "Np",
        "xyz": [-1.1836711679540048, 2.3390087592139954, 12.845850095742012]
      },
      {
        "species": [{ "element": "Np", "occu": 1 }],
        "abc": [0.413716, 0.28896000000000005, 0.619616],
        "properties": { "magmom": -0.339 },
        "label": "Np",
        "xyz": [2.29141261036, 3.4467594624719995, 1.1636259137200007]
      },
      {
        "species": [{ "element": "Np", "occu": 1 }],
        "abc": [0.2059, 0.586284, 0.875244999999999],
        "properties": { "magmom": -0.425 },
        "label": "Np",
        "xyz": [5.814097167953996, 2.291417240785995, -1.1636399231819858]
      },
      {
        "species": [{ "element": "Te", "occu": 1 }],
        "abc": [0.740645999999999, 0.490118999999999, 0.096885],
        "properties": { "magmom": 0.002 },
        "label": "Te",
        "xyz": [-0.711427911492, 1.608665557512, 15.885048772559973]
      },
      {
        "species": [{ "element": "Te", "occu": 1 }],
        "abc": [0.176486, 0.276773, 0.251288],
        "properties": { "magmom": 0.005 },
        "label": "Te",
        "xyz": [1.62794202095, 0.699198956426, 2.8295050496019996]
      },
      {
        "species": [{ "element": "Te", "occu": 1 }],
        "abc": [0.393234, 0.643760999999999, 0.903115],
        "properties": { "magmom": 0.002 },
        "label": "Te",
        "xyz": [5.341853911491995, 3.021760442488004, 1.875586772559986]
      },
      {
        "species": [{ "element": "Te", "occu": 1 }],
        "abc": [0.35676599999999903, 0.759880999999999, 0.7505269999999991],
        "properties": { "magmom": 0.002 },
        "label": "Te",
        "xyz": [5.341853911491995, 1.6086655575119957, 5.129144227439985]
      },
      {
        "species": [{ "element": "Te", "occu": 1 }],
        "abc": [0.009354, 0.606239, 0.249473],
        "properties": { "magmom": 0.002 },
        "label": "Te",
        "xyz": [3.918998088508, -1.608665557512, 5.1291442274399985]
      },
      {
        "species": [{ "element": "Te", "occu": 1 }],
        "abc": [0.025484999999999, 0.925198, 0.748711999999999],
        "properties": { "magmom": 0.006 },
        "label": "Te",
        "xyz": [7.63290997905, -0.6991989564260082, 2.829505049602]
      },
      {
        "species": [{ "element": "Te", "occu": 1 }],
        "abc": [0.408723, 0.156234999999999, 0.096884],
        "properties": { "magmom": 0.007 },
        "label": "Te",
        "xyz": [-0.7205128073040046, 1.6177411924720044, 6.557464916187985]
      },
      {
        "species": [{ "element": "Te", "occu": 1 }],
        "abc": [0.724515, 0.973227, 0.399713],
        "properties": { "magmom": 0.006 },
        "label": "Te",
        "xyz": [3.002483979049999, 0.6991989564260006, 18.184687950398]
      },
      {
        "species": [{ "element": "Te", "occu": 1 }],
        "abc": [0.843765, 0.940649, 0.252488],
        "properties": { "magmom": 0.006 },
        "label": "Te",
        "xyz": [1.6177411924719998, 0.7205128073039999, 21.461459083811995]
      },
      {
        "species": [{ "element": "Te", "occu": 1 }],
        "abc": [0.059350999999999, 0.311839, 0.903115999999999],
        "properties": { "magmom": 0.007 },
        "label": "Te",
        "xyz": [5.350938807303999, 3.012684807527991, -7.451997083812]
      },
      {
        "species": [{ "element": "Te", "occu": 1 }],
        "abc": [0.573514, 0.324802, 0.600287],
        "properties": { "magmom": 0.006 },
        "label": "Te",
        "xyz": [1.6279420209500004, 3.9312270435739998, 4.175225950397998]
      },
      {
        "species": [{ "element": "Te", "occu": 1 }],
        "abc": [0.026772999999999002, 0.426486, 0.751288],
        "properties": { "magmom": 0.003 },
        "label": "Te",
        "xyz": [5.329624956426004, 1.6279420209499953, -4.175225950398013]
      },
      {
        "species": [{ "element": "Te", "occu": 1 }],
        "abc": [0.675198, 0.275485, 0.248712],
        "properties": { "magmom": 0.003 },
        "label": "Te",
        "xyz": [-0.6991989564260002, 3.00248397905, 9.834236049602]
      },
      {
        "species": [{ "element": "Te", "occu": 1 }],
        "abc": [0.688161, 0.591276999999999, 0.747512],
        "properties": { "magmom": 0.006 },
        "label": "Te",
        "xyz": [3.0126848075279953, 3.909913192696004, 7.451997083811989]
      },
      {
        "species": [{ "element": "Te", "occu": 1 }],
        "abc": [0.074802, 0.823514, 0.100287],
        "properties": { "magmom": 0.003 },
        "label": "Te",
        "xyz": [3.9312270435739998, -3.0024839790499995, 11.179956950397997]
      },
      {
        "species": [{ "element": "Te", "occu": 1 }],
        "abc": [0.39376099999999903, 0.643234, 0.403115],
        "properties": { "magmom": -0.001 },
        "label": "Te",
        "xyz": [3.0217604424880045, 0.7114279114919957, 8.880317772559986]
      },
      {
        "species": [{ "element": "Te", "occu": 1 }],
        "abc": [0.509881, 0.606766, 0.250527],
        "properties": { "magmom": -0.001 },
        "label": "Te",
        "xyz": [1.608665557512, 0.7114279114920001, 12.13387522744]
      },
      {
        "species": [{ "element": "Te", "occu": 1 }],
        "abc": [0.723227, 0.974514999999999, 0.899713],
        "properties": { "magmom": 0.004 },
        "label": "Te",
        "xyz": [5.329624956425995, 3.002483979050005, 11.179956950397985]
      },
      {
        "species": [{ "element": "Te", "occu": 1 }],
        "abc": [0.240119, 0.990645999999999, 0.596885],
        "properties": { "magmom": -0.001 },
        "label": "Te",
        "xyz": [6.239091557511996, -0.7114279114919957, 8.880317772559987]
      },
      {
        "species": [{ "element": "Te", "occu": 1 }],
        "abc": [0.690649, 0.093765, 0.752487999999999],
        "properties": { "magmom": 0.007 },
        "label": "Te",
        "xyz": [0.7205128073039955, 6.248167192471995, 0.4472660838120124]
      },
      {
        "species": [{ "element": "Te", "occu": 1 }],
        "abc": [0.341277, 0.938160999999999, 0.247511999999999],
        "properties": { "magmom": 0.007 },
        "label": "Te",
        "xyz": [3.9099131926959902, -1.6177411924719995, 14.456728083812]
      },
      {
        "species": [{ "element": "Te", "occu": 1 }],
        "abc": [0.356239, 0.259354, 0.749473],
        "properties": { "magmom": -0.001 },
        "label": "Te",
        "xyz": [3.0217604424879996, 3.9189980885080002, -1.8755867725600002]
      },
      {
        "species": [{ "element": "Te", "occu": 1 }],
        "abc": [0.061839, 0.309351, 0.403116],
        "properties": { "magmom": 0.006 },
        "label": "Te",
        "xyz": [3.0126848075279997, 0.7205128073039999, -0.44726608381199995]
      },
      {
        "species": [{ "element": "Te", "occu": 1 }],
        "abc": [0.906235, 0.658723, 0.596884],
        "properties": { "magmom": 0.006 },
        "label": "Te",
        "xyz": [1.6177411924720002, 3.9099131926959996, 13.562195916188001]
      }
    ]
  },
  "task_ids": null,
  "uncorrected_energy_per_atom": null,
  "energy_per_atom": -7.6254090224999995,
  "formation_energy_per_atom": -0.560313614,
  "energy_above_hull": 0.390212192000005,
  "is_stable": false,
  "equilibrium_reaction_energy_per_atom": null,
  "decomposes_to": null,
  "xas": null,
  "grain_boundaries": null,
  "band_gap": 0.0,
  "cbm": null,
  "vbm": null,
  "efermi": 9.54155451,
  "is_gap_direct": null,
  "is_metal": null,
  "es_source_calc_id": null,
  "bandstructure": null,
  "dos": null,
  "dos_energy_up": null,
  "dos_energy_down": null,
  "is_magnetic": null,
  "ordering": null,
  "total_magnetization": 1.1941783,
  "total_magnetization_normalized_vol": null,
  "total_magnetization_normalized_formula_units": null,
  "num_magnetic_sites": null,
  "num_unique_magnetic_sites": null,
  "types_of_magnetic_species": null,
  "bulk_modulus": null,
  "shear_modulus": null,
  "universal_anisotropy": null,
  "homogeneous_poisson": null,
  "e_total": null,
  "e_ionic": null,
  "e_electronic": null,
  "n": null,
  "e_ij_max": null,
  "weighted_surface_energy_EV_PER_ANG2": null,
  "weighted_surface_energy": null,
  "weighted_work_function": null,
  "surface_anisotropy": null,
  "shape_factor": null,
  "has_reconstructed": null,
  "possible_species": null,
  "has_props": null,
  "theoretical": null,
  "database_IDs": null,
  "fields_not_requested": [
    "builder_meta",
    "nsites",
    "elements",
    "nelements",
    "composition",
    "composition_reduced",
    "chemsys",
    "symmetry",
    "property_name",
    "deprecated",
    "deprecation_reasons",
    "last_updated",
    "origins",
    "warnings",
    "task_ids",
    "uncorrected_energy_per_atom",
    "equilibrium_reaction_energy_per_atom",
    "decomposes_to",
    "xas",
    "grain_boundaries",
    "cbm",
    "vbm",
    "is_gap_direct",
    "is_metal",
    "es_source_calc_id",
    "bandstructure",
    "dos",
    "dos_energy_up",
    "dos_energy_down",
    "is_magnetic",
    "ordering",
    "total_magnetization_normalized_vol",
    "total_magnetization_normalized_formula_units",
    "num_magnetic_sites",
    "num_unique_magnetic_sites",
    "types_of_magnetic_species",
    "bulk_modulus",
    "shear_modulus",
    "universal_anisotropy",
    "homogeneous_poisson",
    "e_total",
    "e_ionic",
    "e_electronic",
    "n",
    "e_ij_max",
    "weighted_surface_energy_EV_PER_ANG2",
    "weighted_surface_energy",
    "weighted_work_function",
    "surface_anisotropy",
    "shape_factor",
    "has_reconstructed",
    "possible_species",
    "has_props",
    "theoretical",
    "database_IDs"
  ]
}
