{"builder_meta": null, "nsites": null, "elements": null, "nelements": null, "composition": null, "composition_reduced": null, "formula_pretty": "Np3Au", "formula_anonymous": "AB3", "chemsys": null, "volume": 158.13515465398237, "density": 19.068675302342648, "density_atomic": 19.766894331747796, "symmetry": null, "property_name": null, "material_id": "mp-1186212", "deprecated": null, "deprecation_reasons": null, "last_updated": null, "origins": null, "warnings": null, "structure": {"@module": "pymatgen.core.structure", "@class": "Structure", "charge": 0, "lattice": {"matrix": [[6.668029, 0.0, 0.0], [-3.334013, 5.77468, 0.0], [0.0, 0.0, 4.106795]], "pbc": [true, true, true], "a": 6.668029, "b": 6.668026078725922, "c": 4.106795, "alpha": 90.0, "beta": 90.0, "gamma": 119.99999960944477, "volume": 158.13515465398237}, "properties": {}, "sites": [{"species": [{"element": "Np", "occu": 1}], "abc": [0.150005, 0.30001, 0.25], "properties": {"magmom": 0.595}, "label": "Np", "xyz": [4.5001499993091443e-07, 1.7324617468, 1.02669875]}, {"species": [{"element": "Np", "occu": 1}], "abc": [0.699990999999999, 0.849995, 0.25], "properties": {"magmom": 0.618}, "label": "Np", "xyz": [1.8336659078039936, 4.9084491266, 1.02669875]}, {"species": [{"element": "Np", "occu": 1}], "abc": [0.150005, 0.849995, 0.25], "properties": {"magmom": 0.592}, "label": "Np", "xyz": [-1.83365668979, 4.9084491266, 1.02669875]}, {"species": [{"element": "Np", "occu": 1}], "abc": [0.849997, 0.699989, 0.749999], "properties": {"magmom": 0.624}, "label": "Np", "xyz": [3.3340322200559998, 4.04221247852, 3.080092143205]}, {"species": [{"element": "Np", "occu": 1}], "abc": [0.300012, 0.150006, 0.749999], "properties": {"magmom": 0.61}, "label": "Np", "xyz": [1.5003667622699999, 0.86623664808, 3.080092143205]}, {"species": [{"element": "Np", "occu": 1}], "abc": [0.849993999999999, 0.150006, 0.749999], "properties": {"magmom": 0.618}, "label": "Np", "xyz": [5.167662687747994, 0.86623664808, 3.080092143205]}, {"species": [{"element": "Au", "occu": 1}], "abc": [0.333333, 0.666667, 0.749999], "properties": {"magmom": 0.02}, "label": "Au", "xyz": [-2.33401399984956e-06, 3.84978859156, 3.080092143205]}, {"species": [{"element": "Au", "occu": 1}], "abc": [0.666667, 0.333333, 0.25], "properties": {"magmom": 0.02}, "label": "Au", "xyz": [3.334018334014, 1.92489140844, 1.02669875]}]}, "task_ids": null, "uncorrected_energy_per_atom": null, "energy_per_atom": -74.49546139, "formation_energy_per_atom": 0.418937295937496, "energy_above_hull": 0.566716271666678, "is_stable": false, "equilibrium_reaction_energy_per_atom": null, "decomposes_to": null, "xas": null, "grain_boundaries": null, "band_gap": 0.0, "cbm": null, "vbm": null, "efermi": 13.90261722, "is_gap_direct": null, "is_metal": null, "es_source_calc_id": null, "bandstructure": null, "dos": null, "dos_energy_up": null, "dos_energy_down": null, "is_magnetic": null, "ordering": null, "total_magnetization": 3.7772822, "total_magnetization_normalized_vol": null, "total_magnetization_normalized_formula_units": null, "num_magnetic_sites": null, "num_unique_magnetic_sites": null, "types_of_magnetic_species": null, "bulk_modulus": null, "shear_modulus": null, "universal_anisotropy": null, "homogeneous_poisson": null, "e_total": null, "e_ionic": null, "e_electronic": null, "n": null, "e_ij_max": null, "weighted_surface_energy_EV_PER_ANG2": null, "weighted_surface_energy": null, "weighted_work_function": null, "surface_anisotropy": null, "shape_factor": null, "has_reconstructed": null, "possible_species": null, "has_props": null, "theoretical": null, "database_IDs": null, "fields_not_requested": ["builder_meta", "nsites", "elements", "nelements", "composition", "composition_reduced", "chemsys", "symmetry", "property_name", "deprecated", "deprecation_reasons", "last_updated", "origins", "warnings", "task_ids", "uncorrected_energy_per_atom", "equilibrium_reaction_energy_per_atom", "decomposes_to", "xas", "grain_boundaries", "cbm", "vbm", "is_gap_direct", "is_metal", "es_source_calc_id", "bandstructure", "dos", "dos_energy_up", "dos_energy_down", "is_magnetic", "ordering", "total_magnetization_normalized_vol", "total_magnetization_normalized_formula_units", "num_magnetic_sites", "num_unique_magnetic_sites", "types_of_magnetic_species", "bulk_modulus", "shear_modulus", "universal_anisotropy", "homogeneous_poisson", "e_total", "e_ionic", "e_electronic", "n", "e_ij_max", "weighted_surface_energy_EV_PER_ANG2", "weighted_surface_energy", "weighted_work_function", "surface_anisotropy", "shape_factor", "has_reconstructed", "possible_species", "has_props", "theoretical", "database_IDs"]}