{
  "builder_meta": null,
  "nsites": null,
  "elements": null,
  "nelements": null,
  "composition": null,
  "composition_reduced": null,
  "formula_pretty": "Np3As4",
  "formula_anonymous": "A3B4",
  "chemsys": null,
  "volume": 316.68399171069024,
  "density": 10.599110123725655,
  "density_atomic": 22.62028512219216,
  "symmetry": null,
  "property_name": null,
  "material_id": "mp-568285",
  "deprecated": null,
  "deprecation_reasons": null,
  "last_updated": null,
  "origins": null,
  "warnings": null,
  "structure": {
    "@module": "pymatgen.core.structure",
    "@class": "Structure",
    "charge": 0,
    "lattice": {
      "matrix": [
        [7.01196465, -1e-8, -2.47910395],
        [-3.50598233, 6.07253937, -2.47910395],
        [1e-8, 2e-8, 7.43731289]
      ],
      "pbc": [true, true, true],
      "a": 7.437311654607143,
      "b": 7.437311536662817,
      "c": 7.43731289,
      "alpha": 109.4712213930168,
      "beta": 109.47122108964686,
      "gamma": 109.47122052877921,
      "volume": 316.68399171069024
    },
    "properties": {},
    "sites": [
      {
        "species": [{ "element": "Np", "occu": 1 }],
        "abc": [0.125, 0.75, 0.875],
        "properties": { "magmom": 3.237 },
        "label": "Np",
        "xyz": [-1.7529911575000001, 4.55440454375, 4.3384328225]
      },
      {
        "species": [{ "element": "Np", "occu": 1 }],
        "abc": [0.625, 0.375, 0.25],
        "properties": { "magmom": 3.237 },
        "label": "Np",
        "xyz": [3.0677345350000005, 2.2772022625, -0.6197757274999998]
      },
      {
        "species": [{ "element": "Np", "occu": 1 }],
        "abc": [0.375, 0.25, 0.625],
        "properties": { "magmom": 3.237 },
        "label": "Np",
        "xyz": [1.7529911675000003, 1.51813485125, 3.0988805875]
      },
      {
        "species": [{ "element": "Np", "occu": 1 }],
        "abc": [0.75, 0.875, 0.125],
        "properties": { "magmom": 3.237 },
        "label": "Np",
        "xyz": [2.1912389500000007, 5.313471943750001, -3.0988798074999995]
      },
      {
        "species": [{ "element": "Np", "occu": 1 }],
        "abc": [0.25, 0.625, 0.375],
        "properties": { "magmom": 3.237 },
        "label": "Np",
        "xyz": [-0.43824779000000025, 3.7953371112500003, 0.6197763775000005]
      },
      {
        "species": [{ "element": "Np", "occu": 1 }],
        "abc": [0.875, 0.125, 0.75],
        "properties": { "magmom": 3.237 },
        "label": "Np",
        "xyz": [5.6972212849999995, 0.7590674275000001, 3.0988807175]
      },
      {
        "species": [{ "element": "As", "occu": 1 }],
        "abc": [0.6570664900000001, 0.6570664900000001, 0.6570664900000001],
        "properties": { "magmom": -0.159 },
        "label": "As",
        "xyz": [2.303663503575122, 3.990062135803377, 1.6289368141207858]
      },
      {
        "species": [{ "element": "As", "occu": 1 }],
        "abc": [0.0, 0.84293351, 0.5],
        "properties": { "magmom": -0.159 },
        "label": "As",
        "xyz": [-2.955309986424879, 5.118746935767289, 1.6289366507716356]
      },
      {
        "species": [{ "element": "As", "occu": 1 }],
        "abc": [0.84293351, 0.5, 0.0],
        "properties": { "magmom": -0.159 },
        "label": "As",
        "xyz": [4.157628809420422, 3.036269676570665, -3.3292717692283644]
      },
      {
        "species": [{ "element": "As", "occu": 1 }],
        "abc": [0.0, 0.34293351, 0.5],
        "properties": { "magmom": -0.159 },
        "label": "As",
        "xyz": [-1.2023188214248783, 2.0824772507672886, 2.8684886257716355]
      },
      {
        "species": [{ "element": "As", "occu": 1 }],
        "abc": [0.5, -0.0, 0.84293351],
        "properties": { "magmom": -0.159 },
        "label": "As",
        "xyz": [3.505982333429335, 1.1858670200000003e-8, 5.029608284335945]
      },
      {
        "species": [{ "element": "As", "occu": 1 }],
        "abc": [0.5, -0.0, 0.34293351],
        "properties": { "magmom": -0.159 },
        "label": "As",
        "xyz": [3.505982328429335, 1.8586702000000002e-9, 1.310951839335944]
      },
      {
        "species": [{ "element": "As", "occu": 1 }],
        "abc": [0.34293351, 0.5, 0.0],
        "properties": { "magmom": -0.159 },
        "label": "As",
        "xyz": [0.6516464844204215, 3.036269681570665, -2.0897197942283645]
      },
      {
        "species": [{ "element": "As", "occu": 1 }],
        "abc": [0.15706649, 0.15706649, 0.15706649],
        "properties": { "magmom": -0.159 },
        "label": "As",
        "xyz": [0.5506723385751218, 0.9537924458033762, 0.3893843191207852]
      }
    ]
  },
  "task_ids": null,
  "uncorrected_energy_per_atom": null,
  "energy_per_atom": -45.137404090000004,
  "formation_energy_per_atom": -1.151295726607145,
  "energy_above_hull": 0.001953240000005,
  "is_stable": false,
  "equilibrium_reaction_energy_per_atom": null,
  "decomposes_to": null,
  "xas": null,
  "grain_boundaries": null,
  "band_gap": 0.0,
  "cbm": null,
  "vbm": null,
  "efermi": 9.19729744,
  "is_gap_direct": null,
  "is_metal": null,
  "es_source_calc_id": null,
  "bandstructure": null,
  "dos": null,
  "dos_energy_up": null,
  "dos_energy_down": null,
  "is_magnetic": null,
  "ordering": null,
  "total_magnetization": 17.9996582,
  "total_magnetization_normalized_vol": null,
  "total_magnetization_normalized_formula_units": null,
  "num_magnetic_sites": null,
  "num_unique_magnetic_sites": null,
  "types_of_magnetic_species": null,
  "bulk_modulus": null,
  "shear_modulus": null,
  "universal_anisotropy": null,
  "homogeneous_poisson": null,
  "e_total": null,
  "e_ionic": null,
  "e_electronic": null,
  "n": null,
  "e_ij_max": null,
  "weighted_surface_energy_EV_PER_ANG2": null,
  "weighted_surface_energy": null,
  "weighted_work_function": null,
  "surface_anisotropy": null,
  "shape_factor": null,
  "has_reconstructed": null,
  "possible_species": null,
  "has_props": null,
  "theoretical": null,
  "database_IDs": null,
  "fields_not_requested": [
    "builder_meta",
    "nsites",
    "elements",
    "nelements",
    "composition",
    "composition_reduced",
    "chemsys",
    "symmetry",
    "property_name",
    "deprecated",
    "deprecation_reasons",
    "last_updated",
    "origins",
    "warnings",
    "task_ids",
    "uncorrected_energy_per_atom",
    "equilibrium_reaction_energy_per_atom",
    "decomposes_to",
    "xas",
    "grain_boundaries",
    "cbm",
    "vbm",
    "is_gap_direct",
    "is_metal",
    "es_source_calc_id",
    "bandstructure",
    "dos",
    "dos_energy_up",
    "dos_energy_down",
    "is_magnetic",
    "ordering",
    "total_magnetization_normalized_vol",
    "total_magnetization_normalized_formula_units",
    "num_magnetic_sites",
    "num_unique_magnetic_sites",
    "types_of_magnetic_species",
    "bulk_modulus",
    "shear_modulus",
    "universal_anisotropy",
    "homogeneous_poisson",
    "e_total",
    "e_ionic",
    "e_electronic",
    "n",
    "e_ij_max",
    "weighted_surface_energy_EV_PER_ANG2",
    "weighted_surface_energy",
    "weighted_work_function",
    "surface_anisotropy",
    "shape_factor",
    "has_reconstructed",
    "possible_species",
    "has_props",
    "theoretical",
    "database_IDs"
  ]
}
