{"builder_meta": null, "nsites": null, "elements": null, "nelements": null, "composition": null, "composition_reduced": null, "formula_pretty": "Np3Be", "formula_anonymous": "AB3", "chemsys": null, "volume": 62.399236885626905, "density": 19.1606246536375, "density_atomic": 15.599809221406726, "symmetry": null, "property_name": null, "material_id": "mp-977325", "deprecated": null, "deprecation_reasons": null, "last_updated": null, "origins": null, "warnings": null, "structure": {"@module": "pymatgen.core.structure", "@class": "Structure", "charge": 0, "lattice": {"matrix": [[0.0, 3.148109, 3.148109], [3.148109, 0.0, 3.148109], [3.148109, 3.148109, 0.0]], "pbc": [true, true, true], "a": 4.452098443628802, "b": 4.452098443628802, "c": 4.452098443628802, "alpha": 59.99999999999999, "beta": 59.99999999999999, "gamma": 59.99999999999999, "volume": 62.399236885626905}, "properties": {}, "sites": [{"species": [{"element": "Np", "occu": 1}], "abc": [0.75, 0.75, 0.75], "properties": {"magmom": -0.001}, "label": "Np", "xyz": [4.7221635, 4.7221635, 4.7221635]}, {"species": [{"element": "Np", "occu": 1}], "abc": [0.25, 0.25, 0.25], "properties": {"magmom": -0.001}, "label": "Np", "xyz": [1.5740545, 1.5740545, 1.5740545]}, {"species": [{"element": "Np", "occu": 1}], "abc": [0.5, 0.5, 0.5], "properties": {"magmom": -0.002}, "label": "Np", "xyz": [3.148109, 3.148109, 3.148109]}, {"species": [{"element": "Be", "occu": 1}], "abc": [0.0, 0.0, 0.0], "properties": {"magmom": -0.0}, "label": "Be", "xyz": [0.0, 0.0, 0.0]}]}, "task_ids": null, "uncorrected_energy_per_atom": null, "energy_per_atom": -10.4045055225, "formation_energy_per_atom": 0.24118245468749802, "energy_above_hull": 0.258419146298077, "is_stable": false, "equilibrium_reaction_energy_per_atom": null, "decomposes_to": null, "xas": null, "grain_boundaries": null, "band_gap": 0.0, "cbm": null, "vbm": null, "efermi": 16.56040043, "is_gap_direct": null, "is_metal": null, "es_source_calc_id": null, "bandstructure": null, "dos": null, "dos_energy_up": null, "dos_energy_down": null, "is_magnetic": null, "ordering": null, "total_magnetization": 0.0036975, "total_magnetization_normalized_vol": null, "total_magnetization_normalized_formula_units": null, "num_magnetic_sites": null, "num_unique_magnetic_sites": null, "types_of_magnetic_species": null, "bulk_modulus": null, "shear_modulus": null, "universal_anisotropy": null, "homogeneous_poisson": null, "e_total": null, "e_ionic": null, "e_electronic": null, "n": null, "e_ij_max": null, "weighted_surface_energy_EV_PER_ANG2": null, "weighted_surface_energy": null, "weighted_work_function": null, "surface_anisotropy": null, "shape_factor": null, "has_reconstructed": null, "possible_species": null, "has_props": null, "theoretical": null, "database_IDs": null, "fields_not_requested": ["builder_meta", "nsites", "elements", "nelements", "composition", "composition_reduced", "chemsys", "symmetry", "property_name", "deprecated", "deprecation_reasons", "last_updated", "origins", "warnings", "task_ids", "uncorrected_energy_per_atom", "equilibrium_reaction_energy_per_atom", "decomposes_to", "xas", "grain_boundaries", "cbm", "vbm", "is_gap_direct", "is_metal", "es_source_calc_id", "bandstructure", "dos", "dos_energy_up", "dos_energy_down", "is_magnetic", "ordering", "total_magnetization_normalized_vol", "total_magnetization_normalized_formula_units", "num_magnetic_sites", "num_unique_magnetic_sites", "types_of_magnetic_species", "bulk_modulus", "shear_modulus", "universal_anisotropy", "homogeneous_poisson", "e_total", "e_ionic", "e_electronic", "n", "e_ij_max", "weighted_surface_energy_EV_PER_ANG2", "weighted_surface_energy", "weighted_work_function", "surface_anisotropy", "shape_factor", "has_reconstructed", "possible_species", "has_props", "theoretical", "database_IDs"]}