{
  "builder_meta": null,
  "nsites": null,
  "elements": null,
  "nelements": null,
  "composition": null,
  "composition_reduced": null,
  "formula_pretty": "Np3B",
  "formula_anonymous": "AB3",
  "chemsys": null,
  "volume": 60.96637312932261,
  "density": 19.659942074283105,
  "density_atomic": 15.241593282330653,
  "symmetry": null,
  "property_name": null,
  "material_id": "mp-1186194",
  "deprecated": null,
  "deprecation_reasons": null,
  "last_updated": null,
  "origins": null,
  "warnings": null,
  "structure": {
    "@module": "pymatgen.core.structure",
    "@class": "Structure",
    "charge": 0,
    "lattice": {
      "matrix": [
        [-0.000178, 3.123615, 3.123605],
        [3.12379, -0.000329, 3.123757],
        [3.123721, 3.123698, -0.000261]
      ],
      "pbc": [true, true, true],
      "a": 4.417451629156114,
      "b": 4.417682861794178,
      "c": 4.417592347553812,
      "alpha": 60.00595139286717,
      "beta": 60.004717828877126,
      "gamma": 60.00559671909386,
      "volume": 60.96637312932262
    },
    "properties": {},
    "sites": [
      {
        "species": [{ "element": "Np", "occu": 1 }],
        "abc": [1.4e-5, 0.9999849999999991, 4e-6],
        "properties": { "magmom": -0.11 },
        "label": "Np",
        "xyz": [3.1237556355419973, -0.0002727696629999997, 3.123753873070997]
      },
      {
        "species": [{ "element": "Np", "occu": 1 }],
        "abc": [0.499992999999999, 0.500008, 0.499990999999999],
        "properties": { "magmom": -0.097 },
        "label": "Np",
        "xyz": [3.123663378076997, 3.123442018780994, 3.123553627169997]
      },
      {
        "species": [{ "element": "Np", "occu": 1 }],
        "abc": [0.249999, 0.250001, 0.250006],
        "properties": { "magmom": -0.6950000000000001 },
        "label": "Np",
        "xyz": [1.5618551162939998, 1.5617616182440002, 1.561775248586]
      },
      {
        "species": [{ "element": "B", "occu": 1 }],
        "abc": [0.749995, 0.750007, 0.750000999999999],
        "properties": { "magmom": 0.014 },
        "label": "B",
        "xyz": [4.6855247411409975, 4.685225503319996, 4.685331998013]
      }
    ]
  },
  "task_ids": null,
  "uncorrected_energy_per_atom": null,
  "energy_per_atom": -63.8762133675,
  "formation_energy_per_atom": 0.22853383031250002,
  "energy_above_hull": 0.44637181828124906,
  "is_stable": false,
  "equilibrium_reaction_energy_per_atom": null,
  "decomposes_to": null,
  "xas": null,
  "grain_boundaries": null,
  "band_gap": 0.0,
  "cbm": null,
  "vbm": null,
  "efermi": 17.31607267,
  "is_gap_direct": null,
  "is_metal": null,
  "es_source_calc_id": null,
  "bandstructure": null,
  "dos": null,
  "dos_energy_up": null,
  "dos_energy_down": null,
  "is_magnetic": null,
  "ordering": null,
  "total_magnetization": 0.812593799999999,
  "total_magnetization_normalized_vol": null,
  "total_magnetization_normalized_formula_units": null,
  "num_magnetic_sites": null,
  "num_unique_magnetic_sites": null,
  "types_of_magnetic_species": null,
  "bulk_modulus": null,
  "shear_modulus": null,
  "universal_anisotropy": null,
  "homogeneous_poisson": null,
  "e_total": null,
  "e_ionic": null,
  "e_electronic": null,
  "n": null,
  "e_ij_max": null,
  "weighted_surface_energy_EV_PER_ANG2": null,
  "weighted_surface_energy": null,
  "weighted_work_function": null,
  "surface_anisotropy": null,
  "shape_factor": null,
  "has_reconstructed": null,
  "possible_species": null,
  "has_props": null,
  "theoretical": null,
  "database_IDs": null,
  "fields_not_requested": [
    "builder_meta",
    "nsites",
    "elements",
    "nelements",
    "composition",
    "composition_reduced",
    "chemsys",
    "symmetry",
    "property_name",
    "deprecated",
    "deprecation_reasons",
    "last_updated",
    "origins",
    "warnings",
    "task_ids",
    "uncorrected_energy_per_atom",
    "equilibrium_reaction_energy_per_atom",
    "decomposes_to",
    "xas",
    "grain_boundaries",
    "cbm",
    "vbm",
    "is_gap_direct",
    "is_metal",
    "es_source_calc_id",
    "bandstructure",
    "dos",
    "dos_energy_up",
    "dos_energy_down",
    "is_magnetic",
    "ordering",
    "total_magnetization_normalized_vol",
    "total_magnetization_normalized_formula_units",
    "num_magnetic_sites",
    "num_unique_magnetic_sites",
    "types_of_magnetic_species",
    "bulk_modulus",
    "shear_modulus",
    "universal_anisotropy",
    "homogeneous_poisson",
    "e_total",
    "e_ionic",
    "e_electronic",
    "n",
    "e_ij_max",
    "weighted_surface_energy_EV_PER_ANG2",
    "weighted_surface_energy",
    "weighted_work_function",
    "surface_anisotropy",
    "shape_factor",
    "has_reconstructed",
    "possible_species",
    "has_props",
    "theoretical",
    "database_IDs"
  ]
}
