{
  "builder_meta": null,
  "nsites": null,
  "elements": null,
  "nelements": null,
  "composition": null,
  "composition_reduced": null,
  "formula_pretty": "Np3H",
  "formula_anonymous": "AB3",
  "chemsys": null,
  "volume": 114.52914580857852,
  "density": 20.646569774919776,
  "density_atomic": 14.316143226072315,
  "symmetry": null,
  "property_name": null,
  "material_id": "mp-1206932",
  "deprecated": null,
  "deprecation_reasons": null,
  "last_updated": null,
  "origins": null,
  "warnings": null,
  "structure": {
    "@module": "pymatgen.core.structure",
    "@class": "Structure",
    "charge": 0,
    "lattice": {
      "matrix": [
        [1.872774, -3.24374, 0.0],
        [1.872774, 3.24374, 0.0],
        [0.0, 0.0, 9.426590000000001]
      ],
      "pbc": [true, true, true],
      "a": 3.7455482432717377,
      "b": 3.7455482432717377,
      "c": 9.426590000000001,
      "alpha": 90.0,
      "beta": 90.0,
      "gamma": 120.00000429702872,
      "volume": 114.52914580857853
    },
    "properties": {},
    "sites": [
      {
        "species": [{ "element": "Np", "occu": 1 }],
        "abc": [0.333333, 0.666667, 0.564701],
        "properties": { "magmom": -0.153 },
        "label": "Np",
        "xyz": [1.8727739999999997, 1.08124882916, 5.323204799590001]
      },
      {
        "species": [{ "element": "Np", "occu": 1 }],
        "abc": [0.666667, 0.333333, 0.435299],
        "properties": { "magmom": -0.153 },
        "label": "Np",
        "xyz": [1.8727739999999997, -1.08124882916, 4.10338520041]
      },
      {
        "species": [{ "element": "Np", "occu": 1 }],
        "abc": [0.666667, 0.333333, 0.064701],
        "properties": { "magmom": -0.149 },
        "label": "Np",
        "xyz": [1.8727739999999997, -1.08124882916, 0.60990979959]
      },
      {
        "species": [{ "element": "Np", "occu": 1 }],
        "abc": [0.333333, 0.666667, 0.935299],
        "properties": { "magmom": -0.149 },
        "label": "Np",
        "xyz": [1.8727739999999997, 1.08124882916, 8.816680200410001]
      },
      {
        "species": [{ "element": "Np", "occu": 1 }],
        "abc": [0.0, 0.0, 0.25],
        "properties": { "magmom": 1.064 },
        "label": "Np",
        "xyz": [0.0, 0.0, 2.3566475000000002]
      },
      {
        "species": [{ "element": "Np", "occu": 1 }],
        "abc": [0.0, 0.0, 0.75],
        "properties": { "magmom": 1.063 },
        "label": "Np",
        "xyz": [0.0, 0.0, 7.069942500000001]
      },
      {
        "species": [{ "element": "H", "occu": 1 }],
        "abc": [0.333333, 0.666667, 0.25],
        "properties": { "magmom": -0.003 },
        "label": "H",
        "xyz": [1.8727739999999997, 1.08124882916, 2.3566475000000002]
      },
      {
        "species": [{ "element": "H", "occu": 1 }],
        "abc": [0.666667, 0.333333, 0.75],
        "properties": { "magmom": -0.003 },
        "label": "H",
        "xyz": [1.8727739999999997, -1.08124882916, 7.069942500000001]
      }
    ]
  },
  "task_ids": null,
  "uncorrected_energy_per_atom": null,
  "energy_per_atom": -62.890537819531254,
  "formation_energy_per_atom": 0.24139892921875303,
  "energy_above_hull": 0.43759639124999605,
  "is_stable": false,
  "equilibrium_reaction_energy_per_atom": null,
  "decomposes_to": null,
  "xas": null,
  "grain_boundaries": null,
  "band_gap": 0.0,
  "cbm": null,
  "vbm": null,
  "efermi": 17.65920538,
  "is_gap_direct": null,
  "is_metal": null,
  "es_source_calc_id": null,
  "bandstructure": null,
  "dos": null,
  "dos_energy_up": null,
  "dos_energy_down": null,
  "is_magnetic": null,
  "ordering": null,
  "total_magnetization": 1.4992404,
  "total_magnetization_normalized_vol": null,
  "total_magnetization_normalized_formula_units": null,
  "num_magnetic_sites": null,
  "num_unique_magnetic_sites": null,
  "types_of_magnetic_species": null,
  "bulk_modulus": null,
  "shear_modulus": null,
  "universal_anisotropy": null,
  "homogeneous_poisson": null,
  "e_total": null,
  "e_ionic": null,
  "e_electronic": null,
  "n": null,
  "e_ij_max": null,
  "weighted_surface_energy_EV_PER_ANG2": null,
  "weighted_surface_energy": null,
  "weighted_work_function": null,
  "surface_anisotropy": null,
  "shape_factor": null,
  "has_reconstructed": null,
  "possible_species": null,
  "has_props": null,
  "theoretical": null,
  "database_IDs": null,
  "fields_not_requested": [
    "builder_meta",
    "nsites",
    "elements",
    "nelements",
    "composition",
    "composition_reduced",
    "chemsys",
    "symmetry",
    "property_name",
    "deprecated",
    "deprecation_reasons",
    "last_updated",
    "origins",
    "warnings",
    "task_ids",
    "uncorrected_energy_per_atom",
    "equilibrium_reaction_energy_per_atom",
    "decomposes_to",
    "xas",
    "grain_boundaries",
    "cbm",
    "vbm",
    "is_gap_direct",
    "is_metal",
    "es_source_calc_id",
    "bandstructure",
    "dos",
    "dos_energy_up",
    "dos_energy_down",
    "is_magnetic",
    "ordering",
    "total_magnetization_normalized_vol",
    "total_magnetization_normalized_formula_units",
    "num_magnetic_sites",
    "num_unique_magnetic_sites",
    "types_of_magnetic_species",
    "bulk_modulus",
    "shear_modulus",
    "universal_anisotropy",
    "homogeneous_poisson",
    "e_total",
    "e_ionic",
    "e_electronic",
    "n",
    "e_ij_max",
    "weighted_surface_energy_EV_PER_ANG2",
    "weighted_surface_energy",
    "weighted_work_function",
    "surface_anisotropy",
    "shape_factor",
    "has_reconstructed",
    "possible_species",
    "has_props",
    "theoretical",
    "database_IDs"
  ]
}
