{"builder_meta": null, "nsites": null, "elements": null, "nelements": null, "composition": null, "composition_reduced": null, "formula_pretty": "Np3Si2", "formula_anonymous": "A2B3", "chemsys": null, "volume": 190.5315680301975, "density": 13.372245129066323, "density_atomic": 19.05315680301975, "symmetry": null, "property_name": null, "material_id": "mp-1079895", "deprecated": null, "deprecation_reasons": null, "last_updated": null, "origins": null, "warnings": null, "structure": {"@module": "pymatgen.core.structure", "@class": "Structure", "charge": 0, "lattice": {"matrix": [[7.039572, 0.0, 0.0], [0.0, 7.039572, 0.0], [0.0, 0.0, 3.844806]], "pbc": [true, true, true], "a": 7.039572, "b": 7.039572, "c": 3.844806, "alpha": 90.0, "beta": 90.0, "gamma": 90.0, "volume": 190.5315680301975}, "properties": {}, "sites": [{"species": [{"element": "Np", "occu": 1}], "abc": [0.5, 0.5, 0.0], "properties": {"magmom": 2.974}, "label": "Np", "xyz": [3.519786, 3.519786, 0.0]}, {"species": [{"element": "Np", "occu": 1}], "abc": [0.0, 0.0, 0.0], "properties": {"magmom": 2.974}, "label": "Np", "xyz": [0.0, 0.0, 0.0]}, {"species": [{"element": "Np", "occu": 1}], "abc": [0.684217, 0.184217, 0.5], "properties": {"magmom": 0.041}, "label": "Np", "xyz": [4.8165948351239996, 1.296808835124, 1.922403]}, {"species": [{"element": "Np", "occu": 1}], "abc": [0.315783, 0.815782999999999, 0.5], "properties": {"magmom": 0.041}, "label": "Np", "xyz": [2.2229771648759997, 5.742763164875993, 1.922403]}, {"species": [{"element": "Np", "occu": 1}], "abc": [0.184217, 0.315783, 0.5], "properties": {"magmom": 0.041}, "label": "Np", "xyz": [1.296808835124, 2.2229771648759997, 1.922403]}, {"species": [{"element": "Np", "occu": 1}], "abc": [0.815782999999999, 0.684217, 0.5], "properties": {"magmom": 0.041}, "label": "Np", "xyz": [5.742763164875993, 4.8165948351239996, 1.922403]}, {"species": [{"element": "Si", "occu": 1}], "abc": [0.116351, 0.616351, 0.0], "properties": {"magmom": -0.021}, "label": "Si", "xyz": [0.8190612417719999, 4.338847241772, 0.0]}, {"species": [{"element": "Si", "occu": 1}], "abc": [0.883648999999999, 0.383648999999999, 0.0], "properties": {"magmom": -0.021}, "label": "Si", "xyz": [6.220510758227993, 2.700724758227993, 0.0]}, {"species": [{"element": "Si", "occu": 1}], "abc": [0.616351, 0.883648999999999, 0.0], "properties": {"magmom": -0.021}, "label": "Si", "xyz": [4.338847241772, 6.220510758227993, 0.0]}, {"species": [{"element": "Si", "occu": 1}], "abc": [0.383648999999999, 0.116351, 0.0], "properties": {"magmom": -0.021}, "label": "Si", "xyz": [2.700724758227993, 0.8190612417719999, 0.0]}]}, "task_ids": null, "uncorrected_energy_per_atom": null, "energy_per_atom": -53.248278877, "formation_energy_per_atom": 0.075753879750004, "energy_above_hull": 0.36612464649999704, "is_stable": false, "equilibrium_reaction_energy_per_atom": null, "decomposes_to": null, "xas": null, "grain_boundaries": null, "band_gap": 0.0, "cbm": null, "vbm": null, "efermi": 13.12371692, "is_gap_direct": null, "is_metal": null, "es_source_calc_id": null, "bandstructure": null, "dos": null, "dos_energy_up": null, "dos_energy_down": null, "is_magnetic": null, "ordering": null, "total_magnetization": 6.3248119, "total_magnetization_normalized_vol": null, "total_magnetization_normalized_formula_units": null, "num_magnetic_sites": null, "num_unique_magnetic_sites": null, "types_of_magnetic_species": null, "bulk_modulus": null, "shear_modulus": null, "universal_anisotropy": null, "homogeneous_poisson": null, "e_total": null, "e_ionic": null, "e_electronic": null, "n": null, "e_ij_max": null, "weighted_surface_energy_EV_PER_ANG2": null, "weighted_surface_energy": null, "weighted_work_function": null, "surface_anisotropy": null, "shape_factor": null, "has_reconstructed": null, "possible_species": null, "has_props": null, "theoretical": null, "database_IDs": null, "fields_not_requested": ["builder_meta", "nsites", "elements", "nelements", "composition", "composition_reduced", "chemsys", "symmetry", "property_name", "deprecated", "deprecation_reasons", "last_updated", "origins", "warnings", "task_ids", "uncorrected_energy_per_atom", "equilibrium_reaction_energy_per_atom", "decomposes_to", "xas", "grain_boundaries", "cbm", "vbm", "is_gap_direct", "is_metal", "es_source_calc_id", "bandstructure", "dos", "dos_energy_up", "dos_energy_down", "is_magnetic", "ordering", "total_magnetization_normalized_vol", "total_magnetization_normalized_formula_units", "num_magnetic_sites", "num_unique_magnetic_sites", "types_of_magnetic_species", "bulk_modulus", "shear_modulus", "universal_anisotropy", "homogeneous_poisson", "e_total", "e_ionic", "e_electronic", "n", "e_ij_max", "weighted_surface_energy_EV_PER_ANG2", "weighted_surface_energy", "weighted_work_function", "surface_anisotropy", "shape_factor", "has_reconstructed", "possible_species", "has_props", "theoretical", "database_IDs"]}