{
  "builder_meta": null,
  "nsites": null,
  "elements": null,
  "nelements": null,
  "composition": null,
  "composition_reduced": null,
  "formula_pretty": "Np3S5",
  "formula_anonymous": "A3B5",
  "chemsys": null,
  "volume": 715.1724978603833,
  "density": 8.092420816146676,
  "density_atomic": 22.349140558136977,
  "symmetry": null,
  "property_name": null,
  "material_id": "mp-982385",
  "deprecated": null,
  "deprecation_reasons": null,
  "last_updated": null,
  "origins": null,
  "warnings": null,
  "structure": {
    "@module": "pymatgen.core.structure",
    "@class": "Structure",
    "charge": 0,
    "lattice": {
      "matrix": [
        [7.47758653, 0.0, 0.0],
        [-0.0, 8.07702301, 0.0],
        [0.0, 0.0, 11.84126329]
      ],
      "pbc": [true, true, true],
      "a": 7.47758653,
      "b": 8.07702301,
      "c": 11.84126329,
      "alpha": 90.0,
      "beta": 90.0,
      "gamma": 90.0,
      "volume": 715.1724978603833
    },
    "properties": {},
    "sites": [
      {
        "species": [{ "element": "Np", "occu": 1 }],
        "abc": [0.021605740000000002, 0.002418, 0.67641975],
        "properties": { "magmom": 3.88 },
        "label": "Np",
        "xyz": [0.1615587903946822, 0.01953024163818, 8.009664354305977]
      },
      {
        "species": [{ "element": "Np", "occu": 1 }],
        "abc": [0.52160574, 0.997582, 0.82358025],
        "properties": { "magmom": 3.88 },
        "label": "Np",
        "xyz": [3.9003520553946824, 8.057492768361818, 9.752230580694023]
      },
      {
        "species": [{ "element": "Np", "occu": 1 }],
        "abc": [0.47839426, 0.497581999999999, 0.17641975000000001],
        "properties": { "magmom": 3.88 },
        "label": "Np",
        "xyz": [3.577234474605318, 4.018981263361812, 2.089032709305978]
      },
      {
        "species": [{ "element": "Np", "occu": 1 }],
        "abc": [0.9783942600000001, 0.502418, 0.32358025],
        "properties": { "magmom": 3.88 },
        "label": "Np",
        "xyz": [7.316027739605318, 4.05804174663818, 3.8315989356940228]
      },
      {
        "species": [{ "element": "Np", "occu": 1 }],
        "abc": [0.9783942600000001, 0.997582, 0.32358025],
        "properties": { "magmom": 3.88 },
        "label": "Np",
        "xyz": [7.316027739605318, 8.057492768361818, 3.8315989356940228]
      },
      {
        "species": [{ "element": "Np", "occu": 1 }],
        "abc": [0.47839426, 0.002418, 0.17641975000000001],
        "properties": { "magmom": 3.88 },
        "label": "Np",
        "xyz": [3.577234474605318, 0.01953024163818, 2.089032709305978]
      },
      {
        "species": [{ "element": "Np", "occu": 1 }],
        "abc": [0.52160574, 0.502418, 0.82358025],
        "properties": { "magmom": 3.88 },
        "label": "Np",
        "xyz": [3.9003520553946824, 4.05804174663818, 9.752230580694023]
      },
      {
        "species": [{ "element": "Np", "occu": 1 }],
        "abc": [0.021605740000000002, 0.497581999999999, 0.67641975],
        "properties": { "magmom": 3.88 },
        "label": "Np",
        "xyz": [0.1615587903946822, 4.018981263361812, 8.009664354305977]
      },
      {
        "species": [{ "element": "Np", "occu": 1 }],
        "abc": [0.56059129, 0.25, 0.50519843],
        "properties": { "magmom": 3.27 },
        "label": "Np",
        "xyz": [4.191869878939324, 2.0192557525, 5.982187623324634]
      },
      {
        "species": [{ "element": "Np", "occu": 1 }],
        "abc": [0.06059129, 0.75, 0.99480157],
        "properties": { "magmom": 3.27 },
        "label": "Np",
        "xyz": [0.4530766139393237, 6.0577672575, 11.779707311675367]
      },
      {
        "species": [{ "element": "Np", "occu": 1 }],
        "abc": [0.93940871, 0.25, 0.00519843],
        "properties": { "magmom": 3.27 },
        "label": "Np",
        "xyz": [7.024509916060676, 2.0192557525, 0.061555978324634705]
      },
      {
        "species": [{ "element": "Np", "occu": 1 }],
        "abc": [0.43940871000000004, 0.75, 0.49480157],
        "properties": { "magmom": 3.27 },
        "label": "Np",
        "xyz": [3.2857166510606763, 6.0577672575, 5.859075666675366]
      },
      {
        "species": [{ "element": "S", "occu": 1 }],
        "abc": [0.33375089, 0.25, 0.68810633],
        "properties": { "magmom": -0.075 },
        "label": "S",
        "xyz": [2.495651159439512, 2.0192557525, 8.148048225045626]
      },
      {
        "species": [{ "element": "S", "occu": 1 }],
        "abc": [0.83375089, 0.75, 0.81189367],
        "properties": { "magmom": -0.075 },
        "label": "S",
        "xyz": [6.234444424439512, 6.0577672575, 9.613846709954375]
      },
      {
        "species": [{ "element": "S", "occu": 1 }],
        "abc": [0.16624911, 0.25, 0.18810633000000002],
        "properties": { "magmom": -0.075 },
        "label": "S",
        "xyz": [1.2431421055604883, 2.0192557525, 2.227416580045626]
      },
      {
        "species": [{ "element": "S", "occu": 1 }],
        "abc": [0.66624911, 0.75, 0.31189367],
        "properties": { "magmom": -0.075 },
        "label": "S",
        "xyz": [4.981935370560488, 6.0577672575, 3.6932150649543747]
      },
      {
        "species": [{ "element": "S", "occu": 1 }],
        "abc": [0.95670405, 0.25, 0.50118689],
        "properties": { "magmom": -0.064 },
        "label": "S",
        "xyz": [7.153837317476446, 2.0192557525, 5.934685921986269]
      },
      {
        "species": [{ "element": "S", "occu": 1 }],
        "abc": [0.45670405000000003, 0.75, -0.0011868900000000001],
        "properties": { "magmom": -0.064 },
        "label": "S",
        "xyz": [3.4150440524764467, 6.0577672575, -0.014054276986268103]
      },
      {
        "species": [{ "element": "S", "occu": 1 }],
        "abc": [0.54329595, 0.25, 0.0011868900000000001],
        "properties": { "magmom": -0.064 },
        "label": "S",
        "xyz": [4.062542477523554, 2.0192557525, 0.014054276986268103]
      },
      {
        "species": [{ "element": "S", "occu": 1 }],
        "abc": [0.04329595, 0.75, 0.49881311],
        "properties": { "magmom": -0.064 },
        "label": "S",
        "xyz": [0.3237492125235535, 6.0577672575, 5.906577368013732]
      },
      {
        "species": [{ "element": "S", "occu": 1 }],
        "abc": [0.66630215, 0.5376375, 0.59690465],
        "properties": { "magmom": -0.076 },
        "label": "S",
        "xyz": [4.98233198175004, 4.342510458538874, 7.068105119675299]
      },
      {
        "species": [{ "element": "S", "occu": 1 }],
        "abc": [0.16630215, 0.462362499999999, 0.90309535],
        "properties": { "magmom": -0.076 },
        "label": "S",
        "xyz": [1.2435387167500396, 3.734512551461117, 10.6937898153247]
      },
      {
        "species": [{ "element": "S", "occu": 1 }],
        "abc": [0.83369785, 0.9623625, 0.09690465000000001],
        "properties": { "magmom": -0.076 },
        "label": "S",
        "xyz": [6.23404781324996, 7.773024056461125, 1.1474734746752986]
      },
      {
        "species": [{ "element": "S", "occu": 1 }],
        "abc": [0.33369785, 0.0376375, 0.40309535],
        "properties": { "magmom": -0.076 },
        "label": "S",
        "xyz": [2.4952545482499606, 0.30399895353887496, 4.773158170324702]
      },
      {
        "species": [{ "element": "S", "occu": 1 }],
        "abc": [0.33369785, 0.462362499999999, 0.40309535],
        "properties": { "magmom": -0.076 },
        "label": "S",
        "xyz": [2.4952545482499606, 3.734512551461117, 4.773158170324702]
      },
      {
        "species": [{ "element": "S", "occu": 1 }],
        "abc": [0.83369785, 0.5376375, 0.09690465000000001],
        "properties": { "magmom": -0.076 },
        "label": "S",
        "xyz": [6.23404781324996, 4.342510458538874, 1.1474734746752986]
      },
      {
        "species": [{ "element": "S", "occu": 1 }],
        "abc": [0.16630215, 0.0376375, 0.90309535],
        "properties": { "magmom": -0.076 },
        "label": "S",
        "xyz": [1.2435387167500396, 0.30399895353887496, 10.6937898153247]
      },
      {
        "species": [{ "element": "S", "occu": 1 }],
        "abc": [0.66630215, 0.9623625, 0.59690465],
        "properties": { "magmom": -0.076 },
        "label": "S",
        "xyz": [4.98233198175004, 7.773024056461125, 7.068105119675299]
      },
      {
        "species": [{ "element": "S", "occu": 1 }],
        "abc": [0.8074361600000001, 0.25, 0.78751841],
        "properties": { "magmom": -0.073 },
        "label": "S",
        "xyz": [6.0376737538509255, 2.0192557525, 9.325212838532169]
      },
      {
        "species": [{ "element": "S", "occu": 1 }],
        "abc": [0.30743616, 0.75, 0.71248159],
        "properties": { "magmom": -0.073 },
        "label": "S",
        "xyz": [2.298880488850925, 6.0577672575, 8.436682096467832]
      },
      {
        "species": [{ "element": "S", "occu": 1 }],
        "abc": [0.69256384, 0.25, 0.28751841],
        "properties": { "magmom": -0.073 },
        "label": "S",
        "xyz": [5.178706041149075, 2.0192557525, 3.4045811935321693]
      },
      {
        "species": [{ "element": "S", "occu": 1 }],
        "abc": [0.19256384000000001, 0.75, 0.21248159],
        "properties": { "magmom": -0.073 },
        "label": "S",
        "xyz": [1.4399127761490753, 6.0577672575, 2.516050451467831]
      }
    ]
  },
  "task_ids": null,
  "uncorrected_energy_per_atom": null,
  "energy_per_atom": -38.2532783625,
  "formation_energy_per_atom": -2.097324611914061,
  "energy_above_hull": 0.0,
  "is_stable": true,
  "equilibrium_reaction_energy_per_atom": null,
  "decomposes_to": null,
  "xas": null,
  "grain_boundaries": null,
  "band_gap": 0.0,
  "cbm": null,
  "vbm": null,
  "efermi": 9.72473196,
  "is_gap_direct": null,
  "is_metal": null,
  "es_source_calc_id": null,
  "bandstructure": null,
  "dos": null,
  "dos_energy_up": null,
  "dos_energy_down": null,
  "is_magnetic": null,
  "ordering": null,
  "total_magnetization": 44.0,
  "total_magnetization_normalized_vol": null,
  "total_magnetization_normalized_formula_units": null,
  "num_magnetic_sites": null,
  "num_unique_magnetic_sites": null,
  "types_of_magnetic_species": null,
  "bulk_modulus": null,
  "shear_modulus": null,
  "universal_anisotropy": null,
  "homogeneous_poisson": null,
  "e_total": null,
  "e_ionic": null,
  "e_electronic": null,
  "n": null,
  "e_ij_max": null,
  "weighted_surface_energy_EV_PER_ANG2": null,
  "weighted_surface_energy": null,
  "weighted_work_function": null,
  "surface_anisotropy": null,
  "shape_factor": null,
  "has_reconstructed": null,
  "possible_species": null,
  "has_props": null,
  "theoretical": null,
  "database_IDs": null,
  "fields_not_requested": [
    "builder_meta",
    "nsites",
    "elements",
    "nelements",
    "composition",
    "composition_reduced",
    "chemsys",
    "symmetry",
    "property_name",
    "deprecated",
    "deprecation_reasons",
    "last_updated",
    "origins",
    "warnings",
    "task_ids",
    "uncorrected_energy_per_atom",
    "equilibrium_reaction_energy_per_atom",
    "decomposes_to",
    "xas",
    "grain_boundaries",
    "cbm",
    "vbm",
    "is_gap_direct",
    "is_metal",
    "es_source_calc_id",
    "bandstructure",
    "dos",
    "dos_energy_up",
    "dos_energy_down",
    "is_magnetic",
    "ordering",
    "total_magnetization_normalized_vol",
    "total_magnetization_normalized_formula_units",
    "num_magnetic_sites",
    "num_unique_magnetic_sites",
    "types_of_magnetic_species",
    "bulk_modulus",
    "shear_modulus",
    "universal_anisotropy",
    "homogeneous_poisson",
    "e_total",
    "e_ionic",
    "e_electronic",
    "n",
    "e_ij_max",
    "weighted_surface_energy_EV_PER_ANG2",
    "weighted_surface_energy",
    "weighted_work_function",
    "surface_anisotropy",
    "shape_factor",
    "has_reconstructed",
    "possible_species",
    "has_props",
    "theoretical",
    "database_IDs"
  ]
}
