{
  "builder_meta": null,
  "nsites": null,
  "elements": null,
  "nelements": null,
  "composition": null,
  "composition_reduced": null,
  "formula_pretty": "Np3Se4",
  "formula_anonymous": "A3B4",
  "chemsys": null,
  "volume": 350.1152980864724,
  "density": 9.740265246715449,
  "density_atomic": 25.008235577605173,
  "symmetry": null,
  "property_name": null,
  "material_id": "mp-2039388",
  "deprecated": null,
  "deprecation_reasons": null,
  "last_updated": null,
  "origins": null,
  "warnings": null,
  "structure": {
    "@module": "pymatgen.core.structure",
    "@class": "Structure",
    "charge": 0,
    "lattice": {
      "matrix": [
        [-4.44167274, 4.4316936, 4.44671996],
        [4.44201528, -4.43096057, 4.44721656],
        [4.44164196, 4.43078626, -4.4473453]
      ],
      "pbc": [true, true, true],
      "a": 7.690363014591864,
      "b": 7.690425635306958,
      "c": 7.690184029011888,
      "alpha": 109.43783756534562,
      "beta": 109.63067313268847,
      "gamma": 109.34493918490446,
      "volume": 350.1152980864724
    },
    "properties": {},
    "sites": [
      {
        "species": [{ "element": "Np", "occu": 1 }],
        "abc": [0.25003752, 0.1203553, 0.87035204],
        "properties": { "magmom": 4.127 },
        "label": "Np",
        "xyz": [3.289827385903378, 4.431143948648321, -2.2236631402627447]
      },
      {
        "species": [{ "element": "Np", "occu": 1 }],
        "abc": [0.12536985, 0.87540376, 0.24999114],
        "properties": { "magmom": 4.133 },
        "label": "Np",
        "xyz": [4.442076169978798, -2.2156214732780466, 3.338797791014829]
      },
      {
        "species": [{ "element": "Np", "occu": 1 }],
        "abc": [0.750024399999999, 0.37967552, 0.629704399999999],
        "properties": { "magmom": 4.127 },
        "label": "Np",
        "xyz": [1.152083014903714, 4.431636678191129, 2.2231348262083146]
      },
      {
        "species": [{ "element": "Np", "occu": 1 }],
        "abc": [0.87923127, 0.24998155, 0.12922659],
        "properties": { "magmom": 4.138 },
        "label": "Np",
        "xyz": [-2.220857454804779, 3.361400600300042, 4.446702058948091]
      },
      {
        "species": [{ "element": "Np", "occu": 1 }],
        "abc": [0.62080463, 0.75000683, 0.37080339],
        "properties": { "magmom": 4.138 },
        "label": "Np",
        "xyz": [2.221106692961821, 1.0709157802340963, 4.446896420229953]
      },
      {
        "species": [{ "element": "Np", "occu": 1 }],
        "abc": [0.37457219, 0.62459279, 0.7499556],
        "properties": { "magmom": 4.133 },
        "label": "Np",
        "xyz": [4.441757892569706, 2.2153361204547495, 1.1080055198098346]
      },
      {
        "species": [{ "element": "Se", "occu": 1 }],
        "abc": [0.50000515, -1.8650000000000003e-5, 0.64850211],
        "properties": { "magmom": -0.06 },
        "label": "Se",
        "xyz": [0.6594720947249528, 5.089326499205679, -0.6608128709296333]
      },
      {
        "species": [{ "element": "Se", "occu": 1 }],
        "abc": [-2.9110000000000004e-5, 0.64846906, 0.49996528],
        "properties": { "magmom": -0.06 },
        "label": "Se",
        "xyz": [5.1013055364118465, -0.6582305492246072, 0.6602346600904143]
      },
      {
        "species": [{ "element": "Se", "occu": 1 }],
        "abc": [0.64852011, 0.50002737, 1.9750000000000002e-5],
        "properties": { "magmom": -0.06 },
        "label": "Se",
        "xyz": [-0.6592971535418778, 0.6585283685961302, 5.107429482845968]
      },
      {
        "species": [{ "element": "Se", "occu": 1 }],
        "abc": [0.00026014, 0.14872712, 0.5006129],
        "properties": { "magmom": -0.057 },
        "label": "Se",
        "xyz": [2.883035945201094, 1.5602576152621996, -1.5638199472188687]
      },
      {
        "species": [{ "element": "Se", "occu": 1 }],
        "abc": [0.85149432, 0.85152505, 0.85149933],
        "properties": { "magmom": -0.06 },
        "label": "Se",
        "xyz": [3.782483327033814, 3.773299539226279, 3.786361548956807]
      },
      {
        "species": [{ "element": "Se", "occu": 1 }],
        "abc": [0.35190934, 0.35127739, 0.35157162000000003],
        "properties": { "magmom": -0.057 },
        "label": "Se",
        "xyz": [1.5588686708063029, 1.560796808937653, 1.563488520429619]
      },
      {
        "species": [{ "element": "Se", "occu": 1 }],
        "abc": [0.14806175, 0.49961218, 0.9993846200000001],
        "properties": { "magmom": -0.057 },
        "label": "Se",
        "xyz": [6.000551761193071, 2.8704620827593783, -1.5643357931380555]
      },
      {
        "species": [{ "element": "Se", "occu": 1 }],
        "abc": [0.49973945000000003, 0.00036574000000000003, 0.14841324],
        "properties": { "magmom": -0.057 },
        "label": "Se",
        "xyz": [-1.5588559952955354, 2.87065888730773, 1.5637829867273045]
      }
    ]
  },
  "task_ids": null,
  "uncorrected_energy_per_atom": null,
  "energy_per_atom": -45.653466020714276,
  "formation_energy_per_atom": -1.89362666107142,
  "energy_above_hull": 0.0,
  "is_stable": true,
  "equilibrium_reaction_energy_per_atom": null,
  "decomposes_to": null,
  "xas": null,
  "grain_boundaries": null,
  "band_gap": 0.0,
  "cbm": null,
  "vbm": null,
  "efermi": 9.21996019,
  "is_gap_direct": null,
  "is_metal": null,
  "es_source_calc_id": null,
  "bandstructure": null,
  "dos": null,
  "dos_energy_up": null,
  "dos_energy_down": null,
  "is_magnetic": null,
  "ordering": null,
  "total_magnetization": 26.0009698,
  "total_magnetization_normalized_vol": null,
  "total_magnetization_normalized_formula_units": null,
  "num_magnetic_sites": null,
  "num_unique_magnetic_sites": null,
  "types_of_magnetic_species": null,
  "bulk_modulus": null,
  "shear_modulus": null,
  "universal_anisotropy": null,
  "homogeneous_poisson": null,
  "e_total": null,
  "e_ionic": null,
  "e_electronic": null,
  "n": null,
  "e_ij_max": null,
  "weighted_surface_energy_EV_PER_ANG2": null,
  "weighted_surface_energy": null,
  "weighted_work_function": null,
  "surface_anisotropy": null,
  "shape_factor": null,
  "has_reconstructed": null,
  "possible_species": null,
  "has_props": null,
  "theoretical": null,
  "database_IDs": null,
  "fields_not_requested": [
    "builder_meta",
    "nsites",
    "elements",
    "nelements",
    "composition",
    "composition_reduced",
    "chemsys",
    "symmetry",
    "property_name",
    "deprecated",
    "deprecation_reasons",
    "last_updated",
    "origins",
    "warnings",
    "task_ids",
    "uncorrected_energy_per_atom",
    "equilibrium_reaction_energy_per_atom",
    "decomposes_to",
    "xas",
    "grain_boundaries",
    "cbm",
    "vbm",
    "is_gap_direct",
    "is_metal",
    "es_source_calc_id",
    "bandstructure",
    "dos",
    "dos_energy_up",
    "dos_energy_down",
    "is_magnetic",
    "ordering",
    "total_magnetization_normalized_vol",
    "total_magnetization_normalized_formula_units",
    "num_magnetic_sites",
    "num_unique_magnetic_sites",
    "types_of_magnetic_species",
    "bulk_modulus",
    "shear_modulus",
    "universal_anisotropy",
    "homogeneous_poisson",
    "e_total",
    "e_ionic",
    "e_electronic",
    "n",
    "e_ij_max",
    "weighted_surface_energy_EV_PER_ANG2",
    "weighted_surface_energy",
    "weighted_work_function",
    "surface_anisotropy",
    "shape_factor",
    "has_reconstructed",
    "possible_species",
    "has_props",
    "theoretical",
    "database_IDs"
  ]
}
