{"builder_meta": null, "nsites": null, "elements": null, "nelements": null, "composition": null, "composition_reduced": null, "formula_pretty": "Np3Se5", "formula_anonymous": "A3B5", "chemsys": null, "volume": 816.9991962664242, "density": 8.990090116306481, "density_atomic": 25.531224883325756, "symmetry": null, "property_name": null, "material_id": "mp-1197019", "deprecated": null, "deprecation_reasons": null, "last_updated": null, "origins": null, "warnings": null, "structure": {"@module": "pymatgen.core.structure", "@class": "Structure", "charge": 0, "lattice": {"matrix": [[7.83704719, -0.0, 0.0], [-0.0, 8.38088608, 0.0], [0.0, 0.0, 12.43882134]], "pbc": [true, true, true], "a": 7.83704719, "b": 8.38088608, "c": 12.43882134, "alpha": 90.0, "beta": 90.0, "gamma": 90.0, "volume": 816.9991962664242}, "properties": {}, "sites": [{"species": [{"element": "Np", "occu": 1}], "abc": [0.98036881, 0.49947999, 0.321021699999999], "properties": {"magmom": 3.879}, "label": "Np", "xyz": [7.6831966275741435, 4.186084895429539, 3.993131572563066]}, {"species": [{"element": "Np", "occu": 1}], "abc": [0.51963119, 0.00052001, 0.8210217], "properties": {"magmom": 3.879}, "label": "Np", "xyz": [4.072374157425856, 0.0043581445704608, 10.212542242563078]}, {"species": [{"element": "Np", "occu": 1}], "abc": [0.01963119, 0.99947999, 0.678978299999999], "properties": {"magmom": 3.879}, "label": "Np", "xyz": [0.1538505624258561, 8.37652793542954, 8.44568976743691]}, {"species": [{"element": "Np", "occu": 1}], "abc": [0.48036881000000003, 0.50052001, 0.178978299999999], "properties": {"magmom": 3.879}, "label": "Np", "xyz": [3.764673032574144, 4.194801184570461, 2.2262790974369095]}, {"species": [{"element": "Np", "occu": 1}], "abc": [0.01963119, 0.50052001, 0.678978299999999], "properties": {"magmom": 3.879}, "label": "Np", "xyz": [0.1538505624258561, 4.194801184570461, 8.44568976743691]}, {"species": [{"element": "Np", "occu": 1}], "abc": [0.48036881000000003, 0.99947999, 0.178978299999999], "properties": {"magmom": 3.879}, "label": "Np", "xyz": [3.764673032574144, 8.37652793542954, 2.2262790974369095]}, {"species": [{"element": "Np", "occu": 1}], "abc": [0.98036881, 0.00052001, 0.321021699999999], "properties": {"magmom": 3.879}, "label": "Np", "xyz": [7.6831966275741435, 0.0043581445704608, 3.993131572563066]}, {"species": [{"element": "Np", "occu": 1}], "abc": [0.51963119, 0.49947999, 0.8210217], "properties": {"magmom": 3.879}, "label": "Np", "xyz": [4.072374157425856, 4.186084895429539, 10.212542242563078]}, {"species": [{"element": "Np", "occu": 1}], "abc": [0.93086768, 0.75, 0.00746791], "properties": {"magmom": 3.497}, "label": "Np", "xyz": [7.295253935805819, 6.28566456, 0.09289199827319941]}, {"species": [{"element": "Np", "occu": 1}], "abc": [0.56913232, 0.75, 0.50746791], "properties": {"magmom": 3.497}, "label": "Np", "xyz": [4.4603168491941805, 6.28566456, 6.3123026682732]}, {"species": [{"element": "Np", "occu": 1}], "abc": [0.06913232, 0.25, 0.99253209], "properties": {"magmom": 3.497}, "label": "Np", "xyz": [0.5417932541941808, 2.09522152, 12.345929341726801]}, {"species": [{"element": "Np", "occu": 1}], "abc": [0.43086768000000003, 0.25, 0.49253209000000003], "properties": {"magmom": 3.497}, "label": "Np", "xyz": [3.3767303408058194, 2.09522152, 6.126518671726801]}, {"species": [{"element": "Se", "occu": 1}], "abc": [0.83326389, 0.04360593, 0.09844767], "properties": {"magmom": -0.122}, "label": "Se", "xyz": [6.530328427652969, 0.3654563317424544, 1.2245729784692778]}, {"species": [{"element": "Se", "occu": 1}], "abc": [0.66673611, 0.45639407, 0.59844767], "properties": {"magmom": -0.122}, "label": "Se", "xyz": [5.225242357347031, 3.8249867082575455, 7.443983648469278]}, {"species": [{"element": "Se", "occu": 1}], "abc": [0.16673611, 0.54360593, 0.90155233], "properties": {"magmom": -0.122}, "label": "Se", "xyz": [1.3067187623470309, 4.555899371742455, 11.214248361530723]}, {"species": [{"element": "Se", "occu": 1}], "abc": [0.33326389, 0.95639407, 0.40155233], "properties": {"magmom": -0.122}, "label": "Se", "xyz": [2.611804832652969, 8.015429748257546, 4.994837691530723]}, {"species": [{"element": "Se", "occu": 1}], "abc": [0.16673611, 0.95639407, 0.90155233], "properties": {"magmom": -0.122}, "label": "Se", "xyz": [1.3067187623470309, 8.015429748257546, 11.214248361530723]}, {"species": [{"element": "Se", "occu": 1}], "abc": [0.33326389, 0.54360593, 0.40155233], "properties": {"magmom": -0.122}, "label": "Se", "xyz": [2.611804832652969, 4.555899371742455, 4.994837691530723]}, {"species": [{"element": "Se", "occu": 1}], "abc": [0.83326389, 0.45639407, 0.09844767], "properties": {"magmom": -0.122}, "label": "Se", "xyz": [6.530328427652969, 3.8249867082575455, 1.2245729784692778]}, {"species": [{"element": "Se", "occu": 1}], "abc": [0.66673611, 0.04360593, 0.59844767], "properties": {"magmom": -0.122}, "label": "Se", "xyz": [5.225242357347031, 0.3654563317424544, 7.443983648469278]}, {"species": [{"element": "Se", "occu": 1}], "abc": [0.54184398, 0.75, 0.00067035], "properties": {"magmom": -0.091}, "label": "Se", "xyz": [4.246456840877416, 6.28566456, 0.008338363885269]}, {"species": [{"element": "Se", "occu": 1}], "abc": [0.95815602, 0.75, 0.50067035], "properties": {"magmom": -0.091}, "label": "Se", "xyz": [7.509113944122584, 6.28566456, 6.22774903388527]}, {"species": [{"element": "Se", "occu": 1}], "abc": [0.45815602, 0.25, -0.00067035], "properties": {"magmom": -0.091}, "label": "Se", "xyz": [3.590590349122584, 2.09522152, -0.008338363885269]}, {"species": [{"element": "Se", "occu": 1}], "abc": [0.04184398, 0.25, 0.49932965], "properties": {"magmom": -0.091}, "label": "Se", "xyz": [0.32793324587741624, 2.09522152, 6.2110723061147315]}, {"species": [{"element": "Se", "occu": 1}], "abc": [0.17054736, 0.75, 0.18616391000000002], "properties": {"magmom": -0.08700000000000001}, "label": "Se", "xyz": [1.3365877084499185, 6.28566456, 2.31565961644584]}, {"species": [{"element": "Se", "occu": 1}], "abc": [0.32945264, 0.75, 0.68616391], "properties": {"magmom": -0.08700000000000001}, "label": "Se", "xyz": [2.581935886550082, 6.28566456, 8.535070286445839]}, {"species": [{"element": "Se", "occu": 1}], "abc": [0.82945264, 0.25, 0.81383609], "properties": {"magmom": -0.08700000000000001}, "label": "Se", "xyz": [6.500459481550081, 2.09522152, 10.123161723554162]}, {"species": [{"element": "Se", "occu": 1}], "abc": [0.67054736, 0.25, 0.31383609], "properties": {"magmom": -0.08700000000000001}, "label": "Se", "xyz": [5.255111303449919, 2.09522152, 3.903751053554161]}, {"species": [{"element": "Se", "occu": 1}], "abc": [0.69726155, 0.75, 0.28517963], "properties": {"magmom": -0.064}, "label": "Se", "xyz": [5.464471671122545, 6.28566456, 3.5472984673773045]}, {"species": [{"element": "Se", "occu": 1}], "abc": [0.80273845, 0.75, 0.78517963], "properties": {"magmom": -0.064}, "label": "Se", "xyz": [6.291099113877455, 6.28566456, 9.766709137377305]}, {"species": [{"element": "Se", "occu": 1}], "abc": [0.30273845, 0.25, 0.71482037], "properties": {"magmom": -0.064}, "label": "Se", "xyz": [2.3725755188774555, 2.09522152, 8.891522872622696]}, {"species": [{"element": "Se", "occu": 1}], "abc": [0.19726155, 0.25, 0.21482037], "properties": {"magmom": -0.064}, "label": "Se", "xyz": [1.5459480761225446, 2.09522152, 2.672112202622696]}]}, "task_ids": null, "uncorrected_energy_per_atom": null, "energy_per_atom": -8.514562199687532, "formation_energy_per_atom": -1.474200145683626, "energy_above_hull": 0.0, "is_stable": true, "equilibrium_reaction_energy_per_atom": null, "decomposes_to": null, "xas": null, "grain_boundaries": null, "band_gap": 0.0, "cbm": null, "vbm": null, "efermi": 8.01787884, "is_gap_direct": null, "is_metal": null, "es_source_calc_id": null, "bandstructure": null, "dos": null, "dos_energy_up": null, "dos_energy_down": null, "is_magnetic": null, "ordering": null, "total_magnetization": 44.0000003, "total_magnetization_normalized_vol": null, "total_magnetization_normalized_formula_units": null, "num_magnetic_sites": null, "num_unique_magnetic_sites": null, "types_of_magnetic_species": null, "bulk_modulus": null, "shear_modulus": null, "universal_anisotropy": null, "homogeneous_poisson": null, "e_total": null, "e_ionic": null, "e_electronic": null, "n": null, "e_ij_max": null, "weighted_surface_energy_EV_PER_ANG2": null, "weighted_surface_energy": null, "weighted_work_function": null, "surface_anisotropy": null, "shape_factor": null, "has_reconstructed": null, "possible_species": null, "has_props": null, "theoretical": null, "database_IDs": null, "fields_not_requested": ["builder_meta", "nsites", "elements", "nelements", "composition", "composition_reduced", "chemsys", "symmetry", "property_name", "deprecated", "deprecation_reasons", "last_updated", "origins", "warnings", "task_ids", "uncorrected_energy_per_atom", "equilibrium_reaction_energy_per_atom", "decomposes_to", "xas", "grain_boundaries", "cbm", "vbm", "is_gap_direct", "is_metal", "es_source_calc_id", "bandstructure", "dos", "dos_energy_up", "dos_energy_down", "is_magnetic", "ordering", "total_magnetization_normalized_vol", "total_magnetization_normalized_formula_units", "num_magnetic_sites", "num_unique_magnetic_sites", "types_of_magnetic_species", "bulk_modulus", "shear_modulus", "universal_anisotropy", "homogeneous_poisson", "e_total", "e_ionic", "e_electronic", "n", "e_ij_max", "weighted_surface_energy_EV_PER_ANG2", "weighted_surface_energy", "weighted_work_function", "surface_anisotropy", "shape_factor", "has_reconstructed", "possible_species", "has_props", "theoretical", "database_IDs"]}