{
  "builder_meta": null,
  "nsites": null,
  "elements": null,
  "nelements": null,
  "composition": null,
  "composition_reduced": null,
  "formula_pretty": "Np3Te4",
  "formula_anonymous": "A3B4",
  "chemsys": null,
  "volume": 429.29589942548427,
  "density": 9.448878587750334,
  "density_atomic": 30.66399281610602,
  "symmetry": null,
  "property_name": null,
  "material_id": "mp-568841",
  "deprecated": null,
  "deprecation_reasons": null,
  "last_updated": null,
  "origins": null,
  "warnings": null,
  "structure": {
    "@module": "pymatgen.core.structure",
    "@class": "Structure",
    "charge": 0,
    "lattice": {
      "matrix": [
        [7.74189602, -0.05172912, -2.71695272],
        [-3.82701128, 6.74192599, -2.75396244],
        [-0.02308116, 0.00979122, 8.25833706]
      ],
      "pbc": [true, true, true],
      "a": 8.204965689694456,
      "b": 8.227021971091087,
      "c": 8.258375118902356,
      "alpha": 109.41892873107561,
      "beta": 109.49826184612871,
      "gamma": 109.46571148887566,
      "volume": 429.29589942548427
    },
    "properties": {},
    "sites": [
      {
        "species": [{ "element": "Np", "occu": 1 }],
        "abc": [0.12243382, 0.75244935, 0.8738223900000001],
        "properties": { "magmom": 4.15 },
        "label": "Np",
        "xyz": [-1.9519310807024441, 5.075180222418184, 4.81145567902337]
      },
      {
        "species": [{ "element": "Np", "occu": 1 }],
        "abc": [0.62542728, 0.372826899999999, 0.25114663],
        "properties": { "magmom": 4.145 },
        "label": "Np",
        "xyz": [3.4093834624935075, 2.4836775959693194, -0.6519541067567274]
      },
      {
        "species": [{ "element": "Np", "occu": 1 }],
        "abc": [0.37341342, 0.24893462, 0.62267134],
        "properties": { "magmom": 4.148 },
        "label": "Np",
        "xyz": [1.9238802945641207, 1.665079148853618, 3.4421266026726856]
      },
      {
        "species": [{ "element": "Np", "occu": 1 }],
        "abc": [0.750088299999999, 0.87741075, 0.12678451],
        "properties": { "magmom": 4.138 },
        "label": "Np",
        "xyz": [2.4463184534144675, 5.877878306679099, -3.4072814793104627]
      },
      {
        "species": [{ "element": "Np", "occu": 1 }],
        "abc": [0.25017535, 0.62690561, 0.37641],
        "properties": { "magmom": 4.146 },
        "label": "Np",
        "xyz": [-0.4710312739337736, 4.217295387754811, 0.7023315517298601]
      },
      {
        "species": [{ "element": "Np", "occu": 1 }],
        "abc": [0.87328105, 0.12292712, 0.74978712],
        "properties": { "magmom": 4.157 },
        "label": "Np",
        "xyz": [6.273101653995848, 0.7909328156197591, 3.4807947647473387]
      },
      {
        "species": [{ "element": "Te", "occu": 1 }],
        "abc": [0.6496040200000001, 0.64796042, 0.64865117],
        "properties": { "magmom": -0.077 },
        "label": "Te",
        "xyz": [2.534443319241506, 4.341248838094981, 1.8073779278748017]
      },
      {
        "species": [{ "element": "Te", "occu": 1 }],
        "abc": [0.99825802, 0.8498718200000001, 0.49804629],
        "properties": { "magmom": -0.075 },
        "label": "Te",
        "xyz": [4.464445264170055, 5.683010383314634, -0.9397007794927479]
      },
      {
        "species": [{ "element": "Te", "occu": 1 }],
        "abc": [0.85314556, 0.50038294, 0.0008154999999990001],
        "properties": { "magmom": -0.069 },
        "label": "Te",
        "xyz": [4.689974237059129, 3.329420263827814, -3.689257298302275]
      },
      {
        "species": [{ "element": "Te", "occu": 1 }],
        "abc": [0.00268809, 0.35297483, 0.50202141],
        "properties": { "magmom": -0.07200000000000001 },
        "label": "Te",
        "xyz": [-1.3416149791813163, 2.3845065297326715, 3.1664791775939647]
      },
      {
        "species": [{ "element": "Te", "occu": 1 }],
        "abc": [0.499328999999999, -0.0013366300000000001, 0.84987269],
        "properties": { "magmom": -0.078 },
        "label": "Te",
        "xyz": [3.851252448320239, -0.02652001981671185, 5.665562876200192]
      },
      {
        "species": [{ "element": "Te", "occu": 1 }],
        "abc": [0.50033021, 0.9996476400000001, 0.35104704000000003],
        "properties": { "magmom": -0.076 },
        "label": "Te",
        "xyz": [0.039739094281618696, 6.717105942284438, -1.2133007985170106]
      },
      {
        "species": [{ "element": "Te", "occu": 1 }],
        "abc": [0.3530665, 0.49986803, -0.00019487],
        "properties": { "magmom": -0.066 },
        "label": "Te",
        "xyz": [0.8204080396496011, 3.3518075356655785, -2.3374920692355556]
      },
      {
        "species": [{ "element": "Te", "occu": 1 }],
        "abc": [0.14876138, 0.14917259, 0.1491168],
        "properties": { "magmom": -0.07 },
        "label": "Te",
        "xyz": [0.5773681624354045, 0.9994753016337247, 0.41646344974913485]
      }
    ]
  },
  "task_ids": null,
  "uncorrected_energy_per_atom": null,
  "energy_per_atom": -8.299989368571435,
  "formation_energy_per_atom": -0.9547661375595311,
  "energy_above_hull": 0.0,
  "is_stable": true,
  "equilibrium_reaction_energy_per_atom": null,
  "decomposes_to": null,
  "xas": null,
  "grain_boundaries": null,
  "band_gap": 0.0,
  "cbm": null,
  "vbm": null,
  "efermi": 9.7039992,
  "is_gap_direct": null,
  "is_metal": null,
  "es_source_calc_id": null,
  "bandstructure": null,
  "dos": null,
  "dos_energy_up": null,
  "dos_energy_down": null,
  "is_magnetic": null,
  "ordering": null,
  "total_magnetization": 26.0009753,
  "total_magnetization_normalized_vol": null,
  "total_magnetization_normalized_formula_units": null,
  "num_magnetic_sites": null,
  "num_unique_magnetic_sites": null,
  "types_of_magnetic_species": null,
  "bulk_modulus": null,
  "shear_modulus": null,
  "universal_anisotropy": null,
  "homogeneous_poisson": null,
  "e_total": null,
  "e_ionic": null,
  "e_electronic": null,
  "n": null,
  "e_ij_max": null,
  "weighted_surface_energy_EV_PER_ANG2": null,
  "weighted_surface_energy": null,
  "weighted_work_function": null,
  "surface_anisotropy": null,
  "shape_factor": null,
  "has_reconstructed": null,
  "possible_species": null,
  "has_props": null,
  "theoretical": null,
  "database_IDs": null,
  "fields_not_requested": [
    "builder_meta",
    "nsites",
    "elements",
    "nelements",
    "composition",
    "composition_reduced",
    "chemsys",
    "symmetry",
    "property_name",
    "deprecated",
    "deprecation_reasons",
    "last_updated",
    "origins",
    "warnings",
    "task_ids",
    "uncorrected_energy_per_atom",
    "equilibrium_reaction_energy_per_atom",
    "decomposes_to",
    "xas",
    "grain_boundaries",
    "cbm",
    "vbm",
    "is_gap_direct",
    "is_metal",
    "es_source_calc_id",
    "bandstructure",
    "dos",
    "dos_energy_up",
    "dos_energy_down",
    "is_magnetic",
    "ordering",
    "total_magnetization_normalized_vol",
    "total_magnetization_normalized_formula_units",
    "num_magnetic_sites",
    "num_unique_magnetic_sites",
    "types_of_magnetic_species",
    "bulk_modulus",
    "shear_modulus",
    "universal_anisotropy",
    "homogeneous_poisson",
    "e_total",
    "e_ionic",
    "e_electronic",
    "n",
    "e_ij_max",
    "weighted_surface_energy_EV_PER_ANG2",
    "weighted_surface_energy",
    "weighted_work_function",
    "surface_anisotropy",
    "shape_factor",
    "has_reconstructed",
    "possible_species",
    "has_props",
    "theoretical",
    "database_IDs"
  ]
}
