{
  "builder_meta": null,
  "nsites": null,
  "elements": null,
  "nelements": null,
  "composition": null,
  "composition_reduced": null,
  "formula_pretty": "Np4Fe",
  "formula_anonymous": "AB4",
  "chemsys": null,
  "volume": 215.9841948804308,
  "density": 15.435609445717901,
  "density_atomic": 21.59841948804308,
  "symmetry": null,
  "property_name": null,
  "material_id": "mp-1210139",
  "deprecated": null,
  "deprecation_reasons": null,
  "last_updated": null,
  "origins": null,
  "warnings": null,
  "structure": {
    "@module": "pymatgen.core.structure",
    "@class": "Structure",
    "charge": 0,
    "lattice": {
      "matrix": [
        [-4.762087, -4.762087, 0.0],
        [-4.762087, 0.0, -4.762087],
        [0.0, -4.762087, -4.762087]
      ],
      "pbc": [true, true, true],
      "a": 6.734608020600605,
      "b": 6.734608020600605,
      "c": 6.734608020600605,
      "alpha": 59.99999999999999,
      "beta": 59.99999999999999,
      "gamma": 59.99999999999999,
      "volume": 215.9841948804308
    },
    "properties": {},
    "sites": [
      {
        "species": [{ "element": "Np", "occu": 1 }],
        "abc": [0.603596, 0.603596, 0.603596],
        "properties": { "magmom": 3.144 },
        "label": "Np",
        "xyz": [-5.748753329704001, -5.748753329704001, -5.748753329704001]
      },
      {
        "species": [{ "element": "Np", "occu": 1 }],
        "abc": [0.189213, 0.603596, 0.603596],
        "properties": { "magmom": 3.137 },
        "label": "Np",
        "xyz": [-3.7754254323830003, -3.7754254323830003, -5.748753329704001]
      },
      {
        "species": [{ "element": "Np", "occu": 1 }],
        "abc": [0.603596, 0.189213, 0.603596],
        "properties": { "magmom": 3.14 },
        "label": "Np",
        "xyz": [-3.7754254323830003, -5.748753329704001, -3.7754254323830003]
      },
      {
        "species": [{ "element": "Np", "occu": 1 }],
        "abc": [0.560786999999999, 0.146404, 0.146404],
        "properties": { "magmom": 3.138 },
        "label": "Np",
        "xyz": [-3.3677050676169955, -3.3677050676169955, -1.3943771702960002]
      },
      {
        "species": [{ "element": "Np", "occu": 1 }],
        "abc": [0.146404, 0.146404, 0.146404],
        "properties": { "magmom": 3.138 },
        "label": "Np",
        "xyz": [-1.3943771702960002, -1.3943771702960002, -1.3943771702960002]
      },
      {
        "species": [{ "element": "Np", "occu": 1 }],
        "abc": [0.603596, 0.603596, 0.189213],
        "properties": { "magmom": 3.1390000000000002 },
        "label": "Np",
        "xyz": [-5.748753329704001, -3.7754254323830003, -3.7754254323830003]
      },
      {
        "species": [{ "element": "Np", "occu": 1 }],
        "abc": [0.146404, 0.560786999999999, 0.146404],
        "properties": { "magmom": 3.137 },
        "label": "Np",
        "xyz": [-3.3677050676169955, -1.3943771702960002, -3.3677050676169955]
      },
      {
        "species": [{ "element": "Np", "occu": 1 }],
        "abc": [0.146404, 0.146404, 0.560786999999999],
        "properties": { "magmom": 3.14 },
        "label": "Np",
        "xyz": [-1.3943771702960002, -3.3677050676169955, -3.3677050676169955]
      },
      {
        "species": [{ "element": "Fe", "occu": 1 }],
        "abc": [0.0, 0.0, 0.0],
        "properties": { "magmom": -0.579 },
        "label": "Fe",
        "xyz": [0.0, 0.0, 0.0]
      },
      {
        "species": [{ "element": "Fe", "occu": 1 }],
        "abc": [0.75, 0.75, 0.75],
        "properties": { "magmom": -0.579 },
        "label": "Fe",
        "xyz": [-7.1431305, -7.1431305, -7.1431305]
      }
    ]
  },
  "task_ids": null,
  "uncorrected_energy_per_atom": null,
  "energy_per_atom": -11.223373896,
  "formation_energy_per_atom": 0.8288540909999981,
  "energy_above_hull": 0.8288540909999981,
  "is_stable": false,
  "equilibrium_reaction_energy_per_atom": null,
  "decomposes_to": null,
  "xas": null,
  "grain_boundaries": null,
  "band_gap": 0.0,
  "cbm": null,
  "vbm": null,
  "efermi": 12.73582339,
  "is_gap_direct": null,
  "is_metal": null,
  "es_source_calc_id": null,
  "bandstructure": null,
  "dos": null,
  "dos_energy_up": null,
  "dos_energy_down": null,
  "is_magnetic": null,
  "ordering": null,
  "total_magnetization": 24.7970667,
  "total_magnetization_normalized_vol": null,
  "total_magnetization_normalized_formula_units": null,
  "num_magnetic_sites": null,
  "num_unique_magnetic_sites": null,
  "types_of_magnetic_species": null,
  "bulk_modulus": null,
  "shear_modulus": null,
  "universal_anisotropy": null,
  "homogeneous_poisson": null,
  "e_total": null,
  "e_ionic": null,
  "e_electronic": null,
  "n": null,
  "e_ij_max": null,
  "weighted_surface_energy_EV_PER_ANG2": null,
  "weighted_surface_energy": null,
  "weighted_work_function": null,
  "surface_anisotropy": null,
  "shape_factor": null,
  "has_reconstructed": null,
  "possible_species": null,
  "has_props": null,
  "theoretical": null,
  "database_IDs": null,
  "fields_not_requested": [
    "builder_meta",
    "nsites",
    "elements",
    "nelements",
    "composition",
    "composition_reduced",
    "chemsys",
    "symmetry",
    "property_name",
    "deprecated",
    "deprecation_reasons",
    "last_updated",
    "origins",
    "warnings",
    "task_ids",
    "uncorrected_energy_per_atom",
    "equilibrium_reaction_energy_per_atom",
    "decomposes_to",
    "xas",
    "grain_boundaries",
    "cbm",
    "vbm",
    "is_gap_direct",
    "is_metal",
    "es_source_calc_id",
    "bandstructure",
    "dos",
    "dos_energy_up",
    "dos_energy_down",
    "is_magnetic",
    "ordering",
    "total_magnetization_normalized_vol",
    "total_magnetization_normalized_formula_units",
    "num_magnetic_sites",
    "num_unique_magnetic_sites",
    "types_of_magnetic_species",
    "bulk_modulus",
    "shear_modulus",
    "universal_anisotropy",
    "homogeneous_poisson",
    "e_total",
    "e_ionic",
    "e_electronic",
    "n",
    "e_ij_max",
    "weighted_surface_energy_EV_PER_ANG2",
    "weighted_surface_energy",
    "weighted_work_function",
    "surface_anisotropy",
    "shape_factor",
    "has_reconstructed",
    "possible_species",
    "has_props",
    "theoretical",
    "database_IDs"
  ]
}
