{
  "builder_meta": null,
  "nsites": null,
  "elements": null,
  "nelements": null,
  "composition": null,
  "composition_reduced": null,
  "formula_pretty": "Np5Ge4",
  "formula_anonymous": "A4B5",
  "chemsys": null,
  "volume": 349.9912920845653,
  "density": 14.001634215060811,
  "density_atomic": 19.44396067136474,
  "symmetry": null,
  "property_name": null,
  "material_id": "mp-505692",
  "deprecated": null,
  "deprecation_reasons": null,
  "last_updated": null,
  "origins": null,
  "warnings": null,
  "structure": {
    "@module": "pymatgen.core.structure",
    "@class": "Structure",
    "charge": 0,
    "lattice": {
      "matrix": [
        [4.214791, -7.300232, 0.0],
        [4.214791, 7.300232, 0.0],
        [0.0, 0.0, 5.68741]
      ],
      "pbc": [true, true, true],
      "a": 8.429581865520081,
      "b": 8.429581865520081,
      "c": 5.68741,
      "alpha": 90.0,
      "beta": 90.0,
      "gamma": 119.99999894453603,
      "volume": 349.9912920845653
    },
    "properties": {},
    "sites": [
      {
        "species": [{ "element": "Np", "occu": 1 }],
        "abc": [0.333333, 0.666667, 0.0],
        "properties": { "magmom": 0.376 },
        "label": "Np",
        "xyz": [4.214791, 2.433415533488, 0.0]
      },
      {
        "species": [{ "element": "Np", "occu": 1 }],
        "abc": [0.666667, 0.333333, 0.5],
        "properties": { "magmom": 0.391 },
        "label": "Np",
        "xyz": [4.214791, -2.433415533488, 2.843705]
      },
      {
        "species": [{ "element": "Np", "occu": 1 }],
        "abc": [0.666667, 0.333333, 0.0],
        "properties": { "magmom": 0.376 },
        "label": "Np",
        "xyz": [4.214791, -2.433415533488, 0.0]
      },
      {
        "species": [{ "element": "Np", "occu": 1 }],
        "abc": [0.333333, 0.666667, 0.5],
        "properties": { "magmom": 0.391 },
        "label": "Np",
        "xyz": [4.214791, 2.433415533488, 2.843705]
      },
      {
        "species": [{ "element": "Np", "occu": 1 }],
        "abc": [0.299853, 0.0, 0.25],
        "properties": { "magmom": -0.387 },
        "label": "Np",
        "xyz": [1.2638177257229999, -2.188996465896, 1.4218525]
      },
      {
        "species": [{ "element": "Np", "occu": 1 }],
        "abc": [0.299853, 0.299853, 0.75],
        "properties": { "magmom": -0.387 },
        "label": "Np",
        "xyz": [2.5276354514459998, 0.0, 4.2655575]
      },
      {
        "species": [{ "element": "Np", "occu": 1 }],
        "abc": [0.0, 0.700147, 0.75],
        "properties": { "magmom": -0.399 },
        "label": "Np",
        "xyz": [2.9509732742769996, 5.111235534104, 4.2655575]
      },
      {
        "species": [{ "element": "Np", "occu": 1 }],
        "abc": [0.0, 0.299853, 0.25],
        "properties": { "magmom": -0.399 },
        "label": "Np",
        "xyz": [1.2638177257229999, 2.188996465896, 1.4218525]
      },
      {
        "species": [{ "element": "Np", "occu": 1 }],
        "abc": [0.700147, 0.700147, 0.25],
        "properties": { "magmom": -0.387 },
        "label": "Np",
        "xyz": [5.901946548553999, 0.0, 1.4218525]
      },
      {
        "species": [{ "element": "Np", "occu": 1 }],
        "abc": [0.700147, 0.0, 0.75],
        "properties": { "magmom": -0.387 },
        "label": "Np",
        "xyz": [2.9509732742769996, -5.111235534104, 4.2655575]
      },
      {
        "species": [{ "element": "Ge", "occu": 1 }],
        "abc": [0.634062, 0.0, 0.25],
        "properties": { "magmom": 0.007 },
        "label": "Ge",
        "xyz": [2.672438811042, -4.628799702384001, 1.4218525]
      },
      {
        "species": [{ "element": "Ge", "occu": 1 }],
        "abc": [0.634062, 0.634062, 0.75],
        "properties": { "magmom": 0.007 },
        "label": "Ge",
        "xyz": [5.344877622084, 0.0, 4.2655575]
      },
      {
        "species": [{ "element": "Ge", "occu": 1 }],
        "abc": [0.0, 0.365938, 0.75],
        "properties": { "magmom": 0.006 },
        "label": "Ge",
        "xyz": [1.5423521889579999, 2.671432297616, 4.2655575]
      },
      {
        "species": [{ "element": "Ge", "occu": 1 }],
        "abc": [0.0, 0.634062, 0.25],
        "properties": { "magmom": 0.006 },
        "label": "Ge",
        "xyz": [2.672438811042, 4.628799702384001, 1.4218525]
      },
      {
        "species": [{ "element": "Ge", "occu": 1 }],
        "abc": [0.365938, 0.365938, 0.25],
        "properties": { "magmom": 0.007 },
        "label": "Ge",
        "xyz": [3.0847043779159997, 0.0, 1.4218525]
      },
      {
        "species": [{ "element": "Ge", "occu": 1 }],
        "abc": [0.365938, 0.0, 0.75],
        "properties": { "magmom": 0.007 },
        "label": "Ge",
        "xyz": [1.5423521889579999, -2.671432297616, 4.2655575]
      },
      {
        "species": [{ "element": "Ge", "occu": 1 }],
        "abc": [0.0, 0.0, 0.0],
        "properties": { "magmom": 0.007 },
        "label": "Ge",
        "xyz": [0.0, 0.0, 0.0]
      },
      {
        "species": [{ "element": "Ge", "occu": 1 }],
        "abc": [0.0, 0.0, 0.5],
        "properties": { "magmom": 0.007 },
        "label": "Ge",
        "xyz": [0.0, 0.0, 2.843705]
      }
    ]
  },
  "task_ids": null,
  "uncorrected_energy_per_atom": null,
  "energy_per_atom": -52.10308680425928,
  "formation_energy_per_atom": 0.186798526435173,
  "energy_above_hull": 0.33983698847221405,
  "is_stable": false,
  "equilibrium_reaction_energy_per_atom": null,
  "decomposes_to": null,
  "xas": null,
  "grain_boundaries": null,
  "band_gap": 0.0,
  "cbm": null,
  "vbm": null,
  "efermi": 12.38498282,
  "is_gap_direct": null,
  "is_metal": null,
  "es_source_calc_id": null,
  "bandstructure": null,
  "dos": null,
  "dos_energy_up": null,
  "dos_energy_down": null,
  "is_magnetic": null,
  "ordering": null,
  "total_magnetization": 0.9541214,
  "total_magnetization_normalized_vol": null,
  "total_magnetization_normalized_formula_units": null,
  "num_magnetic_sites": null,
  "num_unique_magnetic_sites": null,
  "types_of_magnetic_species": null,
  "bulk_modulus": null,
  "shear_modulus": null,
  "universal_anisotropy": null,
  "homogeneous_poisson": null,
  "e_total": null,
  "e_ionic": null,
  "e_electronic": null,
  "n": null,
  "e_ij_max": null,
  "weighted_surface_energy_EV_PER_ANG2": null,
  "weighted_surface_energy": null,
  "weighted_work_function": null,
  "surface_anisotropy": null,
  "shape_factor": null,
  "has_reconstructed": null,
  "possible_species": null,
  "has_props": null,
  "theoretical": null,
  "database_IDs": null,
  "fields_not_requested": [
    "builder_meta",
    "nsites",
    "elements",
    "nelements",
    "composition",
    "composition_reduced",
    "chemsys",
    "symmetry",
    "property_name",
    "deprecated",
    "deprecation_reasons",
    "last_updated",
    "origins",
    "warnings",
    "task_ids",
    "uncorrected_energy_per_atom",
    "equilibrium_reaction_energy_per_atom",
    "decomposes_to",
    "xas",
    "grain_boundaries",
    "cbm",
    "vbm",
    "is_gap_direct",
    "is_metal",
    "es_source_calc_id",
    "bandstructure",
    "dos",
    "dos_energy_up",
    "dos_energy_down",
    "is_magnetic",
    "ordering",
    "total_magnetization_normalized_vol",
    "total_magnetization_normalized_formula_units",
    "num_magnetic_sites",
    "num_unique_magnetic_sites",
    "types_of_magnetic_species",
    "bulk_modulus",
    "shear_modulus",
    "universal_anisotropy",
    "homogeneous_poisson",
    "e_total",
    "e_ionic",
    "e_electronic",
    "n",
    "e_ij_max",
    "weighted_surface_energy_EV_PER_ANG2",
    "weighted_surface_energy",
    "weighted_work_function",
    "surface_anisotropy",
    "shape_factor",
    "has_reconstructed",
    "possible_species",
    "has_props",
    "theoretical",
    "database_IDs"
  ]
}
