{"builder_meta": null, "nsites": null, "elements": null, "nelements": null, "composition": null, "composition_reduced": null, "formula_pretty": "Np5Ge3", "formula_anonymous": "A3B5", "chemsys": null, "volume": 304.0058274672662, "density": 15.326044811198967, "density_atomic": 19.00036421670414, "symmetry": null, "property_name": null, "material_id": "mp-542019", "deprecated": null, "deprecation_reasons": null, "last_updated": null, "origins": null, "warnings": null, "structure": {"@module": "pymatgen.core.structure", "@class": "Structure", "charge": 0, "lattice": {"matrix": [[-5.470389, 5.470389, 2.539718], [5.470389, -5.470389, 2.539718], [5.470389, 5.470389, -2.539718]], "pbc": [true, true, true], "a": 8.142510616644353, "b": 8.142510616644353, "c": 8.142510616644353, "alpha": 95.58295889168369, "beta": 95.58295889168369, "gamma": 143.65143750838135, "volume": 304.0058274672662}, "properties": {}, "sites": [{"species": [{"element": "Np", "occu": 1}], "abc": [0.75, 0.25, 0.5], "properties": {"magmom": 1.381}, "label": "Np", "xyz": [4.440892098500626e-16, 5.470388999999999, 1.269859]}, {"species": [{"element": "Np", "occu": 1}], "abc": [0.25, 0.75, 0.5], "properties": {"magmom": 1.381}, "label": "Np", "xyz": [5.470388999999999, 4.440892098500626e-16, 1.269859]}, {"species": [{"element": "Np", "occu": 1}], "abc": [0.927882, 0.243307, 0.171188999999999], "properties": {"magmom": -2.385}, "label": "Np", "xyz": [-2.808421127154005, 4.681361972195994, 2.539718000000003]}, {"species": [{"element": "Np", "occu": 1}], "abc": [0.243307, 0.072118, 0.315425], "properties": {"magmom": -2.356}, "label": "Np", "xyz": [0.7890270278039999, 2.661967872846, 0.0]}, {"species": [{"element": "Np", "occu": 1}], "abc": [0.756693, 0.927882, 0.684574999999999], "properties": {"magmom": -2.356}, "label": "Np", "xyz": [4.681361972195996, 2.8084211271539945, 2.5397180000000033]}, {"species": [{"element": "Np", "occu": 1}], "abc": [0.072118, 0.756693, 0.828811], "properties": {"magmom": -2.384}, "label": "Np", "xyz": [8.278810127154, 0.7890270278039999, 0.0]}, {"species": [{"element": "Np", "occu": 1}], "abc": [0.743306999999999, 0.427882, 0.171188999999999], "properties": {"magmom": -2.348}, "label": "Np", "xyz": [-0.7890270278039999, 2.661967872845989, 2.539718]}, {"species": [{"element": "Np", "occu": 1}], "abc": [0.256693, 0.572118, 0.828811], "properties": {"magmom": -2.348}, "label": "Np", "xyz": [6.259416027804, 2.8084211271539994, 4.440892098500626e-16]}, {"species": [{"element": "Np", "occu": 1}], "abc": [0.572118, 0.743306999999999, 0.315425], "properties": {"magmom": -2.393}, "label": "Np", "xyz": [2.6619678728459943, 0.7890270278040055, 2.5397179999999975]}, {"species": [{"element": "Np", "occu": 1}], "abc": [0.427882, 0.256693, 0.684574999999999], "properties": {"magmom": -2.392}, "label": "Np", "xyz": [2.808421127153995, 4.681361972195995, 2.4424906541753444e-15]}, {"species": [{"element": "Ge", "occu": 1}], "abc": [0.75, 0.75, 0.0], "properties": {"magmom": 0.026000000000000002}, "label": "Ge", "xyz": [0.0, 0.0, 3.809577]}, {"species": [{"element": "Ge", "occu": 1}], "abc": [0.25, 0.25, 0.0], "properties": {"magmom": 0.026000000000000002}, "label": "Ge", "xyz": [0.0, 0.0, 1.269859]}, {"species": [{"element": "Ge", "occu": 1}], "abc": [0.826989, 0.673010999999999, 0.5], "properties": {"magmom": 0.041}, "label": "Ge", "xyz": [1.8928749425579947, 3.5775140574420052, 2.539717999999997]}, {"species": [{"element": "Ge", "occu": 1}], "abc": [0.673010999999999, 0.173011, 0.846020999999999], "properties": {"magmom": 0.041}, "label": "Ge", "xyz": [1.892869472169, 7.363258472168988, 2.5397179999053776e-06]}, {"species": [{"element": "Ge", "occu": 1}], "abc": [0.326989, 0.826989, 0.153979], "properties": {"magmom": 0.041}, "label": "Ge", "xyz": [3.577519527831, -1.892869472169, 2.5397154602820002]}, {"species": [{"element": "Ge", "occu": 1}], "abc": [0.173011, 0.326989, 0.5], "properties": {"magmom": 0.041}, "label": "Ge", "xyz": [3.5775140574419995, 1.8928749425580003, 0.0]}]}, "task_ids": null, "uncorrected_energy_per_atom": null, "energy_per_atom": -56.969619705, "formation_energy_per_atom": 0.12250409453125101, "energy_above_hull": 0.251630296874999, "is_stable": false, "equilibrium_reaction_energy_per_atom": null, "decomposes_to": null, "xas": null, "grain_boundaries": null, "band_gap": 0.0, "cbm": null, "vbm": null, "efermi": 13.71635515, "is_gap_direct": null, "is_metal": null, "es_source_calc_id": null, "bandstructure": null, "dos": null, "dos_energy_up": null, "dos_energy_down": null, "is_magnetic": null, "ordering": null, "total_magnetization": 12.9905918, "total_magnetization_normalized_vol": null, "total_magnetization_normalized_formula_units": null, "num_magnetic_sites": null, "num_unique_magnetic_sites": null, "types_of_magnetic_species": null, "bulk_modulus": null, "shear_modulus": null, "universal_anisotropy": null, "homogeneous_poisson": null, "e_total": null, "e_ionic": null, "e_electronic": null, "n": null, "e_ij_max": null, "weighted_surface_energy_EV_PER_ANG2": null, "weighted_surface_energy": null, "weighted_work_function": null, "surface_anisotropy": null, "shape_factor": null, "has_reconstructed": null, "possible_species": null, "has_props": null, "theoretical": null, "database_IDs": null, "fields_not_requested": ["builder_meta", "nsites", "elements", "nelements", "composition", "composition_reduced", "chemsys", "symmetry", "property_name", "deprecated", "deprecation_reasons", "last_updated", "origins", "warnings", "task_ids", "uncorrected_energy_per_atom", "equilibrium_reaction_energy_per_atom", "decomposes_to", "xas", "grain_boundaries", "cbm", "vbm", "is_gap_direct", "is_metal", "es_source_calc_id", "bandstructure", "dos", "dos_energy_up", "dos_energy_down", "is_magnetic", "ordering", "total_magnetization_normalized_vol", "total_magnetization_normalized_formula_units", "num_magnetic_sites", "num_unique_magnetic_sites", "types_of_magnetic_species", "bulk_modulus", "shear_modulus", "universal_anisotropy", "homogeneous_poisson", "e_total", "e_ionic", "e_electronic", "n", "e_ij_max", "weighted_surface_energy_EV_PER_ANG2", "weighted_surface_energy", "weighted_work_function", "surface_anisotropy", "shape_factor", "has_reconstructed", "possible_species", "has_props", "theoretical", "database_IDs"]}