{
  "builder_meta": null,
  "nsites": null,
  "elements": null,
  "nelements": null,
  "composition": null,
  "composition_reduced": null,
  "formula_pretty": "NpAg3",
  "formula_anonymous": "AB3",
  "chemsys": null,
  "volume": 177.57608737532496,
  "density": 10.484585542738115,
  "density_atomic": 22.19701092191562,
  "symmetry": null,
  "property_name": null,
  "material_id": "mp-1186159",
  "deprecated": null,
  "deprecation_reasons": null,
  "last_updated": null,
  "origins": null,
  "warnings": null,
  "structure": {
    "@module": "pymatgen.core.structure",
    "@class": "Structure",
    "charge": 0,
    "lattice": {
      "matrix": [
        [3.247066, -5.624083, 0.0],
        [3.247066, 5.624083, 0.0],
        [0.0, 0.0, 4.861963]
      ],
      "pbc": [true, true, true],
      "a": 6.4941317509921985,
      "b": 6.4941317509921985,
      "c": 4.861963,
      "alpha": 90.0,
      "beta": 90.0,
      "gamma": 119.99999746321382,
      "volume": 177.57608737532496
    },
    "properties": {},
    "sites": [
      {
        "species": [{ "element": "Np", "occu": 1 }],
        "abc": [0.666667, 0.333333, 0.25],
        "properties": { "magmom": 4.051 },
        "label": "Np",
        "xyz": [3.2470660000000002, -1.8746980827220001, 1.21549075]
      },
      {
        "species": [{ "element": "Np", "occu": 1 }],
        "abc": [0.333333, 0.666667, 0.75],
        "properties": { "magmom": 4.046 },
        "label": "Np",
        "xyz": [3.2470660000000002, 1.8746980827220001, 3.6464722500000004]
      },
      {
        "species": [{ "element": "Ag", "occu": 1 }],
        "abc": [0.152755, 0.847244999999999, 0.25],
        "properties": { "magmom": 0.025 },
        "label": "Ag",
        "xyz": [3.2470659999999967, 3.905869402669994, 1.21549075]
      },
      {
        "species": [{ "element": "Ag", "occu": 1 }],
        "abc": [0.694491, 0.847244999999999, 0.25],
        "properties": { "magmom": 0.025 },
        "label": "Ag",
        "xyz": [5.006118546575996, 0.8591011745819941, 1.21549075]
      },
      {
        "species": [{ "element": "Ag", "occu": 1 }],
        "abc": [0.152755, 0.305509, 0.25],
        "properties": { "magmom": 0.025 },
        "label": "Ag",
        "xyz": [1.4880134534239997, 0.8591011745819997, 1.21549075]
      },
      {
        "species": [{ "element": "Ag", "occu": 1 }],
        "abc": [0.847244999999999, 0.152755, 0.75],
        "properties": { "magmom": 0.025 },
        "label": "Ag",
        "xyz": [3.2470659999999967, -3.905869402669994, 3.6464722500000004]
      },
      {
        "species": [{ "element": "Ag", "occu": 1 }],
        "abc": [0.305509, 0.152755, 0.75],
        "properties": { "magmom": 0.025 },
        "label": "Ag",
        "xyz": [1.4880134534239997, -0.8591011745819997, 3.6464722500000004]
      },
      {
        "species": [{ "element": "Ag", "occu": 1 }],
        "abc": [0.847244999999999, 0.694491, 0.75],
        "properties": { "magmom": 0.025 },
        "label": "Ag",
        "xyz": [5.006118546575996, -0.8591011745819941, 3.6464722500000004]
      }
    ]
  },
  "task_ids": null,
  "uncorrected_energy_per_atom": null,
  "energy_per_atom": -36.44230631125,
  "formation_energy_per_atom": 0.330654430312499,
  "energy_above_hull": 0.330654430312499,
  "is_stable": false,
  "equilibrium_reaction_energy_per_atom": null,
  "decomposes_to": null,
  "xas": null,
  "grain_boundaries": null,
  "band_gap": 0.0,
  "cbm": null,
  "vbm": null,
  "efermi": 5.72988321,
  "is_gap_direct": null,
  "is_metal": null,
  "es_source_calc_id": null,
  "bandstructure": null,
  "dos": null,
  "dos_energy_up": null,
  "dos_energy_down": null,
  "is_magnetic": null,
  "ordering": null,
  "total_magnetization": 8.8921201,
  "total_magnetization_normalized_vol": null,
  "total_magnetization_normalized_formula_units": null,
  "num_magnetic_sites": null,
  "num_unique_magnetic_sites": null,
  "types_of_magnetic_species": null,
  "bulk_modulus": null,
  "shear_modulus": null,
  "universal_anisotropy": null,
  "homogeneous_poisson": null,
  "e_total": null,
  "e_ionic": null,
  "e_electronic": null,
  "n": null,
  "e_ij_max": null,
  "weighted_surface_energy_EV_PER_ANG2": null,
  "weighted_surface_energy": null,
  "weighted_work_function": null,
  "surface_anisotropy": null,
  "shape_factor": null,
  "has_reconstructed": null,
  "possible_species": null,
  "has_props": null,
  "theoretical": null,
  "database_IDs": null,
  "fields_not_requested": [
    "builder_meta",
    "nsites",
    "elements",
    "nelements",
    "composition",
    "composition_reduced",
    "chemsys",
    "symmetry",
    "property_name",
    "deprecated",
    "deprecation_reasons",
    "last_updated",
    "origins",
    "warnings",
    "task_ids",
    "uncorrected_energy_per_atom",
    "equilibrium_reaction_energy_per_atom",
    "decomposes_to",
    "xas",
    "grain_boundaries",
    "cbm",
    "vbm",
    "is_gap_direct",
    "is_metal",
    "es_source_calc_id",
    "bandstructure",
    "dos",
    "dos_energy_up",
    "dos_energy_down",
    "is_magnetic",
    "ordering",
    "total_magnetization_normalized_vol",
    "total_magnetization_normalized_formula_units",
    "num_magnetic_sites",
    "num_unique_magnetic_sites",
    "types_of_magnetic_species",
    "bulk_modulus",
    "shear_modulus",
    "universal_anisotropy",
    "homogeneous_poisson",
    "e_total",
    "e_ionic",
    "e_electronic",
    "n",
    "e_ij_max",
    "weighted_surface_energy_EV_PER_ANG2",
    "weighted_surface_energy",
    "weighted_work_function",
    "surface_anisotropy",
    "shape_factor",
    "has_reconstructed",
    "possible_species",
    "has_props",
    "theoretical",
    "database_IDs"
  ]
}
