{
  "builder_meta": null,
  "nsites": null,
  "elements": null,
  "nelements": null,
  "composition": null,
  "composition_reduced": null,
  "formula_pretty": "NpAl3",
  "formula_anonymous": "AB3",
  "chemsys": null,
  "volume": 156.96751774174902,
  "density": 6.726989929466216,
  "density_atomic": 19.620939717718628,
  "symmetry": null,
  "property_name": null,
  "material_id": "mp-2047851",
  "deprecated": null,
  "deprecation_reasons": null,
  "last_updated": null,
  "origins": null,
  "warnings": null,
  "structure": {
    "@module": "pymatgen.core.structure",
    "@class": "Structure",
    "charge": 0,
    "lattice": {
      "matrix": [
        [3.17096197, -5.51951712, 0.0],
        [3.03258719, 5.39756885, 0.0],
        [0.0, 0.0, 4.63661517]
      ],
      "pbc": [true, true, true],
      "a": 6.365537609123002,
      "b": 6.191149695770764,
      "c": 4.63661517,
      "alpha": 90.0,
      "beta": 90.0,
      "gamma": 120.79347989594152,
      "volume": 156.96751774174902
    },
    "properties": {},
    "sites": [
      {
        "species": [{ "element": "Np", "occu": 1 }],
        "abc": [0.34224599, 0.68293976, 0.75],
        "properties": { "magmom": -3.737 },
        "label": "Np",
        "xyz": [3.1563233863926747, 1.797181773946127, 3.4774613775]
      },
      {
        "species": [{ "element": "Np", "occu": 1 }],
        "abc": [0.6577569400000001, 0.31705898, 0.25],
        "properties": { "magmom": -3.737 },
        "label": "Np",
        "xyz": [3.047231243466038, -1.91915301706804, 1.1591537925]
      },
      {
        "species": [{ "element": "Al", "occu": 1 }],
        "abc": [0.15251318, 0.30638455000000003, 0.25],
        "properties": { "magmom": 0.012 },
        "label": "Al",
        "xyz": [1.4127513552476794, 0.8119325951656262, 1.1591537925]
      },
      {
        "species": [{ "element": "Al", "occu": 1 }],
        "abc": [0.70929055, 0.84751433, 0.25],
        "properties": { "magmom": 0.012 },
        "label": "Al",
        "xyz": [4.819294460229816, 0.6595756137574043, 1.1591537925]
      },
      {
        "species": [{ "element": "Al", "occu": 1 }],
        "abc": [0.13872717, 0.84644129, 0.25],
        "properties": { "magmom": 0.012 },
        "label": "Al",
        "xyz": [3.0068055934168, 3.803018150433666, 1.1591537925]
      },
      {
        "species": [{ "element": "Al", "occu": 1 }],
        "abc": [0.847505899999999, 0.6936566200000001, 0.75],
        "properties": { "magmom": 0.012 },
        "label": "Al",
        "xyz": [4.790983158321318, -0.933763959642715, 3.4774613775]
      },
      {
        "species": [{ "element": "Al", "occu": 1 }],
        "abc": [0.29067285, 0.15248024000000002, 0.75],
        "properties": { "magmom": 0.012 },
        "label": "Al",
        "xyz": [1.3841221756136401, -0.7813511782296677, 3.4774613775]
      },
      {
        "species": [{ "element": "Al", "occu": 1 }],
        "abc": [0.86128742, 0.15352422000000002, 0.75],
        "properties": { "magmom": 0.012 },
        "label": "Al",
        "xyz": [3.196685236986159, -3.9252331123380833, 3.4774613775]
      }
    ]
  },
  "task_ids": null,
  "uncorrected_energy_per_atom": null,
  "energy_per_atom": -26.16327751125,
  "formation_energy_per_atom": -0.3581508809375,
  "energy_above_hull": 0.0,
  "is_stable": true,
  "equilibrium_reaction_energy_per_atom": null,
  "decomposes_to": null,
  "xas": null,
  "grain_boundaries": null,
  "band_gap": 0.0,
  "cbm": null,
  "vbm": null,
  "efermi": 8.79998395,
  "is_gap_direct": null,
  "is_metal": null,
  "es_source_calc_id": null,
  "bandstructure": null,
  "dos": null,
  "dos_energy_up": null,
  "dos_energy_down": null,
  "is_magnetic": null,
  "ordering": null,
  "total_magnetization": 7.8488831999999995,
  "total_magnetization_normalized_vol": null,
  "total_magnetization_normalized_formula_units": null,
  "num_magnetic_sites": null,
  "num_unique_magnetic_sites": null,
  "types_of_magnetic_species": null,
  "bulk_modulus": null,
  "shear_modulus": null,
  "universal_anisotropy": null,
  "homogeneous_poisson": null,
  "e_total": null,
  "e_ionic": null,
  "e_electronic": null,
  "n": null,
  "e_ij_max": null,
  "weighted_surface_energy_EV_PER_ANG2": null,
  "weighted_surface_energy": null,
  "weighted_work_function": null,
  "surface_anisotropy": null,
  "shape_factor": null,
  "has_reconstructed": null,
  "possible_species": null,
  "has_props": null,
  "theoretical": null,
  "database_IDs": null,
  "fields_not_requested": [
    "builder_meta",
    "nsites",
    "elements",
    "nelements",
    "composition",
    "composition_reduced",
    "chemsys",
    "symmetry",
    "property_name",
    "deprecated",
    "deprecation_reasons",
    "last_updated",
    "origins",
    "warnings",
    "task_ids",
    "uncorrected_energy_per_atom",
    "equilibrium_reaction_energy_per_atom",
    "decomposes_to",
    "xas",
    "grain_boundaries",
    "cbm",
    "vbm",
    "is_gap_direct",
    "is_metal",
    "es_source_calc_id",
    "bandstructure",
    "dos",
    "dos_energy_up",
    "dos_energy_down",
    "is_magnetic",
    "ordering",
    "total_magnetization_normalized_vol",
    "total_magnetization_normalized_formula_units",
    "num_magnetic_sites",
    "num_unique_magnetic_sites",
    "types_of_magnetic_species",
    "bulk_modulus",
    "shear_modulus",
    "universal_anisotropy",
    "homogeneous_poisson",
    "e_total",
    "e_ionic",
    "e_electronic",
    "n",
    "e_ij_max",
    "weighted_surface_energy_EV_PER_ANG2",
    "weighted_surface_energy",
    "weighted_work_function",
    "surface_anisotropy",
    "shape_factor",
    "has_reconstructed",
    "possible_species",
    "has_props",
    "theoretical",
    "database_IDs"
  ]
}
