{
  "builder_meta": null,
  "nsites": null,
  "elements": null,
  "nelements": null,
  "composition": null,
  "composition_reduced": null,
  "formula_pretty": "NpAl4",
  "formula_anonymous": "AB4",
  "chemsys": null,
  "volume": 189.2093936922235,
  "density": 6.054280321884927,
  "density_atomic": 18.92093936922235,
  "symmetry": null,
  "property_name": null,
  "material_id": "mp-16520",
  "deprecated": null,
  "deprecation_reasons": null,
  "last_updated": null,
  "origins": null,
  "warnings": null,
  "structure": {
    "@module": "pymatgen.core.structure",
    "@class": "Structure",
    "charge": 0,
    "lattice": {
      "matrix": [
        [-2.21975772, 3.11046431, 6.8697859900000005],
        [2.21563359, -3.10968976, 6.86894733],
        [2.203029459999999, 3.12303065, -6.8696237]
      ],
      "pbc": [true, true, true],
      "a": 7.861060495103931,
      "b": 7.8588574252813155,
      "c": 7.861195139549011,
      "alpha": 147.34996802350295,
      "beta": 133.28371769702144,
      "gamma": 58.15342344477727,
      "volume": 189.20939369222347
    },
    "properties": {},
    "sites": [
      {
        "species": [{ "element": "Np", "occu": 1 }],
        "abc": [0.13873802, 0.88873724, 0.24990266],
        "properties": { "magmom": 3.757 },
        "label": "Np",
        "xyz": [2.2116942127877404, -1.5517037682120671, 5.341052562016867]
      },
      {
        "species": [{ "element": "Np", "occu": 1 }],
        "abc": [0.8612685800000001, 0.11127118, 0.7500980700000001],
        "properties": { "magmom": 3.757 },
        "label": "Np",
        "xyz": [-0.012783269342360182, 4.675505593501109, 1.528155220281885]
      },
      {
        "species": [{ "element": "Al", "occu": 1 }],
        "abc": [1.2100000000000001e-5, 0.49999298000000003, 0.50001681],
        "properties": { "magmom": -0.004 },
        "label": "Al",
        "xyz": [
          2.2093261451090083, 0.006782409785492272, -0.00041875897417442687
        ]
      },
      {
        "species": [{ "element": "Al", "occu": 1 }],
        "abc": [0.49997008, 0.49999235000000003, -2.312e-5],
        "properties": { "magmom": -0.004 },
        "label": "Al",
        "xyz": [
          -0.0020635334870964003, 0.0002457945658803539, 6.869267394256049
        ]
      },
      {
        "species": [{ "element": "Al", "occu": 1 }],
        "abc": [0.364035799999999, 0.11405084, 0.24987124],
        "properties": { "magmom": -0.006 },
        "label": "Al",
        "xyz": [-0.004902702407928117, 1.5580131752684023, 1.5677358593483046]
      },
      {
        "species": [{ "element": "Al", "occu": 1 }],
        "abc": [0.63594899, 0.88594147, 0.7501367800000001],
        "properties": { "magmom": -0.006 },
        "label": "Al",
        "xyz": [2.2038424249968123, 1.565793674789507, 5.30116135461974]
      },
      {
        "species": [{ "element": "Al", "occu": 1 }],
        "abc": [0.23003603, 0.69903073, 0.53186777],
        "properties": { "magmom": -0.0 },
        "label": "Al",
        "xyz": [2.2098920784940725, 0.2027895057799145, 2.7281721244525223]
      },
      {
        "species": [{ "element": "Al", "occu": 1 }],
        "abc": [0.76998649, 0.30097792, 0.46814312],
        "properties": { "magmom": -0.0 },
        "label": "Al",
        "xyz": [-0.01099358121655536, 2.9210928528637004, 4.1410768093202845]
      },
      {
        "species": [{ "element": "Al", "occu": 1 }],
        "abc": [0.33286947, 0.30197252, 0.03203712],
        "properties": { "magmom": -0.0 },
        "label": "Al",
        "xyz": [0.0007496019576935659, 0.19639066077594836, 4.140892397660353]
      },
      {
        "species": [{ "element": "Al", "occu": 1 }],
        "abc": [0.66713344, 0.69803375, 0.96795055],
        "properties": { "magmom": -0.0 },
        "label": "Al",
        "xyz": [2.1981359972167076, 2.9273655859524834, 2.72836498417686]
      }
    ]
  },
  "task_ids": null,
  "uncorrected_energy_per_atom": null,
  "energy_per_atom": -22.314061966,
  "formation_energy_per_atom": -0.323540995749999,
  "energy_above_hull": 0.0,
  "is_stable": true,
  "equilibrium_reaction_energy_per_atom": null,
  "decomposes_to": null,
  "xas": null,
  "grain_boundaries": null,
  "band_gap": 0.0,
  "cbm": null,
  "vbm": null,
  "efermi": 8.75313923,
  "is_gap_direct": null,
  "is_metal": null,
  "es_source_calc_id": null,
  "bandstructure": null,
  "dos": null,
  "dos_energy_up": null,
  "dos_energy_down": null,
  "is_magnetic": null,
  "ordering": null,
  "total_magnetization": 8.0579724,
  "total_magnetization_normalized_vol": null,
  "total_magnetization_normalized_formula_units": null,
  "num_magnetic_sites": null,
  "num_unique_magnetic_sites": null,
  "types_of_magnetic_species": null,
  "bulk_modulus": null,
  "shear_modulus": null,
  "universal_anisotropy": null,
  "homogeneous_poisson": null,
  "e_total": null,
  "e_ionic": null,
  "e_electronic": null,
  "n": null,
  "e_ij_max": null,
  "weighted_surface_energy_EV_PER_ANG2": null,
  "weighted_surface_energy": null,
  "weighted_work_function": null,
  "surface_anisotropy": null,
  "shape_factor": null,
  "has_reconstructed": null,
  "possible_species": null,
  "has_props": null,
  "theoretical": null,
  "database_IDs": null,
  "fields_not_requested": [
    "builder_meta",
    "nsites",
    "elements",
    "nelements",
    "composition",
    "composition_reduced",
    "chemsys",
    "symmetry",
    "property_name",
    "deprecated",
    "deprecation_reasons",
    "last_updated",
    "origins",
    "warnings",
    "task_ids",
    "uncorrected_energy_per_atom",
    "equilibrium_reaction_energy_per_atom",
    "decomposes_to",
    "xas",
    "grain_boundaries",
    "cbm",
    "vbm",
    "is_gap_direct",
    "is_metal",
    "es_source_calc_id",
    "bandstructure",
    "dos",
    "dos_energy_up",
    "dos_energy_down",
    "is_magnetic",
    "ordering",
    "total_magnetization_normalized_vol",
    "total_magnetization_normalized_formula_units",
    "num_magnetic_sites",
    "num_unique_magnetic_sites",
    "types_of_magnetic_species",
    "bulk_modulus",
    "shear_modulus",
    "universal_anisotropy",
    "homogeneous_poisson",
    "e_total",
    "e_ionic",
    "e_electronic",
    "n",
    "e_ij_max",
    "weighted_surface_energy_EV_PER_ANG2",
    "weighted_surface_energy",
    "weighted_work_function",
    "surface_anisotropy",
    "shape_factor",
    "has_reconstructed",
    "possible_species",
    "has_props",
    "theoretical",
    "database_IDs"
  ]
}
