{"builder_meta": null, "nsites": null, "elements": null, "nelements": null, "composition": null, "composition_reduced": null, "formula_pretty": "NpB4", "formula_anonymous": "AB4", "chemsys": null, "volume": 203.39413258088192, "density": 9.151809922445947, "density_atomic": 10.169706629044097, "symmetry": null, "property_name": null, "material_id": "mp-1188425", "deprecated": null, "deprecation_reasons": null, "last_updated": null, "origins": null, "warnings": null, "structure": {"@module": "pymatgen.core.structure", "@class": "Structure", "charge": 0, "lattice": {"matrix": [[0.0, 0.0, 4.02421787], [7.10932904, 0.00585911, 0.0], [0.00585911, 7.10932904, 0.0]], "pbc": [true, true, true], "a": 4.02421787, "b": 7.109331454374407, "c": 7.109331454374407, "alpha": 89.90556008962037, "beta": 90.0, "gamma": 90.0, "volume": 203.39413258088194}, "properties": {}, "sites": [{"species": [{"element": "Np", "occu": 1}], "abc": [0.0, 0.31393234000000003, 0.81393234], "properties": {"magmom": 3.408}, "label": "Np", "xyz": [2.2366172204697716, 5.788352185469772, 0.0]}, {"species": [{"element": "Np", "occu": 1}], "abc": [0.0, 0.68606766, 0.18606766], "properties": {"magmom": 3.408}, "label": "Np", "xyz": [4.8785709295302295, 1.326835964530229, 0.0]}, {"species": [{"element": "Np", "occu": 1}], "abc": [0.0, 0.18701048, 0.31298952], "properties": {"magmom": 3.337}, "label": "Np", "xyz": [1.3313528762748665, 2.2262411987251336, 0.0]}, {"species": [{"element": "Np", "occu": 1}], "abc": [0.0, 0.81298952, 0.68701048], "properties": {"magmom": 3.337}, "label": "Np", "xyz": [5.783835273725134, 4.888946951274867, 0.0]}, {"species": [{"element": "B", "occu": 1}], "abc": [0.79862113, 0.5, 0.5], "properties": {"magmom": -0.026000000000000002}, "label": "B", "xyz": [3.5575940750000004, 3.5575940750000004, 3.213825422705593]}, {"species": [{"element": "B", "occu": 1}], "abc": [0.79862113, 0.0, -0.0], "properties": {"magmom": -0.026000000000000002}, "label": "B", "xyz": [0.0, 0.0, 3.213825422705593]}, {"species": [{"element": "B", "occu": 1}], "abc": [0.20137887000000002, 0.5, 0.5], "properties": {"magmom": -0.026000000000000002}, "label": "B", "xyz": [3.5575940750000004, 3.5575940750000004, 0.810392447294407]}, {"species": [{"element": "B", "occu": 1}], "abc": [0.20137887000000002, 0.0, -0.0], "properties": {"magmom": -0.026000000000000002}, "label": "B", "xyz": [0.0, 0.0, 0.810392447294407]}, {"species": [{"element": "B", "occu": 1}], "abc": [0.5, 0.08732738, 0.5873273800000001], "properties": {"magmom": -0.054}, "label": "B", "xyz": [0.624280294346547, 4.176015259346548, 2.012108935]}, {"species": [{"element": "B", "occu": 1}], "abc": [0.5, 0.91267262, 0.41267262], "properties": {"magmom": -0.054}, "label": "B", "xyz": [6.490907855653454, 2.9391728906534533, 2.012108935]}, {"species": [{"element": "B", "occu": 1}], "abc": [0.5, 0.41220568, 0.08779432], "properties": {"magmom": -0.05}, "label": "B", "xyz": [2.9310202078552026, 0.6265738671447976, 2.012108935]}, {"species": [{"element": "B", "occu": 1}], "abc": [0.5, 0.58779432, 0.91220568], "properties": {"magmom": -0.05}, "label": "B", "xyz": [4.184167942144798, 6.4886142828552025, 2.012108935]}, {"species": [{"element": "B", "occu": 1}], "abc": [0.5, 0.5382126700000001, 0.67726222], "properties": {"magmom": -0.022}, "label": "B", "xyz": [3.8302991183727615, 4.818033415577793, 2.012108935]}, {"species": [{"element": "B", "occu": 1}], "abc": [0.5, 0.46178733, 0.32273778000000003], "properties": {"magmom": -0.022}, "label": "B", "xyz": [3.284889031627239, 2.297154734422208, 2.012108935]}, {"species": [{"element": "B", "occu": 1}], "abc": [0.5, 0.9616051600000001, 0.17721947], "properties": {"magmom": -0.014}, "label": "B", "xyz": [6.837405837370719, 1.2655456749334164, 2.012108935]}, {"species": [{"element": "B", "occu": 1}], "abc": [0.5, 0.03839484, 0.8227805300000001], "properties": {"magmom": -0.014}, "label": "B", "xyz": [0.27778231262928194, 5.8496424750665845, 2.012108935]}, {"species": [{"element": "B", "occu": 1}], "abc": [0.5, 0.67721947, 0.46160516], "properties": {"magmom": -0.014}, "label": "B", "xyz": [4.817280639933418, 3.2856708723707184, 2.012108935]}, {"species": [{"element": "B", "occu": 1}], "abc": [0.5, 0.32278053, 0.53839484], "properties": {"magmom": -0.014}, "label": "B", "xyz": [2.2979075100665836, 3.8295172776292823, 2.012108935]}, {"species": [{"element": "B", "occu": 1}], "abc": [0.5, 0.17726222, 0.038212670000000004], "properties": {"magmom": -0.022}, "label": "B", "xyz": [1.2604393405777927, 0.272705043372761, 2.012108935]}, {"species": [{"element": "B", "occu": 1}], "abc": [0.5, 0.82273778, 0.96178733], "properties": {"magmom": -0.022}, "label": "B", "xyz": [5.854748809422208, 6.842483106627239, 2.012108935]}]}, "task_ids": null, "uncorrected_energy_per_atom": null, "energy_per_atom": -23.055061366, "formation_energy_per_atom": -0.5731357017500011, "energy_above_hull": 0.0, "is_stable": true, "equilibrium_reaction_energy_per_atom": null, "decomposes_to": null, "xas": null, "grain_boundaries": null, "band_gap": 0.0, "cbm": null, "vbm": null, "efermi": 10.43633868, "is_gap_direct": null, "is_metal": null, "es_source_calc_id": null, "bandstructure": null, "dos": null, "dos_energy_up": null, "dos_energy_down": null, "is_magnetic": null, "ordering": null, "total_magnetization": 13.5489325, "total_magnetization_normalized_vol": null, "total_magnetization_normalized_formula_units": null, "num_magnetic_sites": null, "num_unique_magnetic_sites": null, "types_of_magnetic_species": null, "bulk_modulus": null, "shear_modulus": null, "universal_anisotropy": null, "homogeneous_poisson": null, "e_total": null, "e_ionic": null, "e_electronic": null, "n": null, "e_ij_max": null, "weighted_surface_energy_EV_PER_ANG2": null, "weighted_surface_energy": null, "weighted_work_function": null, "surface_anisotropy": null, "shape_factor": null, "has_reconstructed": null, "possible_species": null, "has_props": null, "theoretical": null, "database_IDs": null, "fields_not_requested": ["builder_meta", "nsites", "elements", "nelements", "composition", "composition_reduced", "chemsys", "symmetry", "property_name", "deprecated", "deprecation_reasons", "last_updated", "origins", "warnings", "task_ids", "uncorrected_energy_per_atom", "equilibrium_reaction_energy_per_atom", "decomposes_to", "xas", "grain_boundaries", "cbm", "vbm", "is_gap_direct", "is_metal", "es_source_calc_id", "bandstructure", "dos", "dos_energy_up", "dos_energy_down", "is_magnetic", "ordering", "total_magnetization_normalized_vol", "total_magnetization_normalized_formula_units", "num_magnetic_sites", "num_unique_magnetic_sites", "types_of_magnetic_species", "bulk_modulus", "shear_modulus", "universal_anisotropy", "homogeneous_poisson", "e_total", "e_ionic", "e_electronic", "n", "e_ij_max", "weighted_surface_energy_EV_PER_ANG2", "weighted_surface_energy", "weighted_work_function", "surface_anisotropy", "shape_factor", "has_reconstructed", "possible_species", "has_props", "theoretical", "database_IDs"]}