{"builder_meta": null, "nsites": null, "elements": null, "nelements": null, "composition": null, "composition_reduced": null, "formula_pretty": "NpBr3", "formula_anonymous": "AB3", "chemsys": null, "volume": 244.91762006237477, "density": 6.46420538722708, "density_atomic": 30.614702507796846, "symmetry": null, "property_name": null, "material_id": "mp-23166", "deprecated": null, "deprecation_reasons": null, "last_updated": null, "origins": null, "warnings": null, "structure": {"@module": "pymatgen.core.structure", "@class": "Structure", "charge": 0, "lattice": {"matrix": [[3.99890425, -6.93525146, -0.00036806], [4.00671785, 6.93102951, 0.00018075], [-6.239999999999999e-06, -2.72e-06, 4.41260259]], "pbc": [true, true, true], "a": 8.00555732910385, "b": 8.005807768780738, "c": 4.41260259000525, "alpha": 89.99877753967795, "beta": 90.00264408216105, "gamma": 120.00049035930572, "volume": 244.91762006237477}, "properties": {}, "sites": [{"species": [{"element": "Np", "occu": 1}], "abc": [0.66666234, 0.33333181, 0.74647601], "properties": {"magmom": 3.972}, "label": "Np", "xyz": [4.001480719830451, -2.3131403854950503, 3.2937168530826626]}, {"species": [{"element": "Np", "occu": 1}], "abc": [0.33332748, 0.66667681, 0.24628009], "properties": {"magmom": 3.972}, "label": "Np", "xyz": [4.004129014434087, 2.3090460815326974, 1.0867339803205518]}, {"species": [{"element": "Br", "occu": 1}], "abc": [0.61174282, 0.69827343, 0.751451], "properties": {"magmom": -0.025}, "label": "Br", "xyz": [5.244080889912471, 0.5971614198826817, 3.315755683718233]}, {"species": [{"element": "Br", "occu": 1}], "abc": [0.91341467, 0.61159345, 0.25097166], "properties": {"magmom": -0.025}, "label": "Br", "xyz": [6.103138632870271, -2.0957888562731237, 1.1072125510452466]}, {"species": [{"element": "Br", "occu": 1}], "abc": [0.38841667, 0.30183915, 0.25097344], "properties": {"magmom": -0.025}, "label": "Br", "xyz": [2.76262381649341, -0.6017119044302783, 1.1073576481520118]}, {"species": [{"element": "Br", "occu": 1}], "abc": [0.08652407000000001, 0.38823805, 0.75146172], "properties": {"magmom": -0.025}, "label": "Br", "xyz": [1.9015571071133572, 2.090821154686335, 3.315940259936188]}, {"species": [{"element": "Br", "occu": 1}], "abc": [0.30171859, 0.91345255, 0.75139078], "properties": {"magmom": -0.025}, "label": "Br", "xyz": [4.866485700389559, 4.238670244445188, 3.315642957934297]}, {"species": [{"element": "Br", "occu": 1}], "abc": [0.6981923600000001, 0.08659474, 0.25099531], "properties": {"magmom": -0.025}, "label": "Br", "xyz": [3.138963519984905, -4.241949568407312, 1.1073012303030862]}]}, "task_ids": null, "uncorrected_energy_per_atom": null, "energy_per_atom": -6.27187512375, "formation_energy_per_atom": -1.8072203021875, "energy_above_hull": 0.0, "is_stable": true, "equilibrium_reaction_energy_per_atom": null, "decomposes_to": null, "xas": null, "grain_boundaries": null, "band_gap": 0.0, "cbm": null, "vbm": null, "efermi": 4.92164744, "is_gap_direct": null, "is_metal": null, "es_source_calc_id": null, "bandstructure": null, "dos": null, "dos_energy_up": null, "dos_energy_down": null, "is_magnetic": null, "ordering": null, "total_magnetization": 8.0, "total_magnetization_normalized_vol": null, "total_magnetization_normalized_formula_units": null, "num_magnetic_sites": null, "num_unique_magnetic_sites": null, "types_of_magnetic_species": null, "bulk_modulus": null, "shear_modulus": null, "universal_anisotropy": null, "homogeneous_poisson": null, "e_total": null, "e_ionic": null, "e_electronic": null, "n": null, "e_ij_max": null, "weighted_surface_energy_EV_PER_ANG2": null, "weighted_surface_energy": null, "weighted_work_function": null, "surface_anisotropy": null, "shape_factor": null, "has_reconstructed": null, "possible_species": null, "has_props": null, "theoretical": null, "database_IDs": null, "fields_not_requested": ["builder_meta", "nsites", "elements", "nelements", "composition", "composition_reduced", "chemsys", "symmetry", "property_name", "deprecated", "deprecation_reasons", "last_updated", "origins", "warnings", "task_ids", "uncorrected_energy_per_atom", "equilibrium_reaction_energy_per_atom", "decomposes_to", "xas", "grain_boundaries", "cbm", "vbm", "is_gap_direct", "is_metal", "es_source_calc_id", "bandstructure", "dos", "dos_energy_up", "dos_energy_down", "is_magnetic", "ordering", "total_magnetization_normalized_vol", "total_magnetization_normalized_formula_units", "num_magnetic_sites", "num_unique_magnetic_sites", "types_of_magnetic_species", "bulk_modulus", "shear_modulus", "universal_anisotropy", "homogeneous_poisson", "e_total", "e_ionic", "e_electronic", "n", "e_ij_max", "weighted_surface_energy_EV_PER_ANG2", "weighted_surface_energy", "weighted_work_function", "surface_anisotropy", "shape_factor", "has_reconstructed", "possible_species", "has_props", "theoretical", "database_IDs"]}