{"builder_meta": null, "nsites": null, "elements": null, "nelements": null, "composition": null, "composition_reduced": null, "formula_pretty": "NpCl3", "formula_anonymous": "AB3", "chemsys": null, "volume": 205.6753227406904, "density": 5.544282374483518, "density_atomic": 25.7094153425863, "symmetry": null, "property_name": null, "material_id": "mp-23278", "deprecated": null, "deprecation_reasons": null, "last_updated": null, "origins": null, "warnings": null, "structure": {"@module": "pymatgen.core.structure", "@class": "Structure", "charge": 0, "lattice": {"matrix": [[7.34696089, 1.04730047, 0.0], [-4.58046691, 5.83900626, 0.0], [-0.0, 0.0, 4.31220639]], "pbc": [true, true, true], "a": 7.421231204702614, "b": 7.421231112013972, "c": 4.31220639, "alpha": 90.0, "beta": 90.0, "gamma": 119.99997752713338, "volume": 205.6753227406904}, "properties": {}, "sites": [{"species": [{"element": "Np", "occu": 1}], "abc": [0.666667, 0.333333, 0.75], "properties": {"magmom": 3.961}, "label": "Np", "xyz": [3.3711555991426, 2.64453413609807, 3.2341547925]}, {"species": [{"element": "Np", "occu": 1}], "abc": [0.333333, 0.666667, 0.25], "properties": {"magmom": 3.961}, "label": "Np", "xyz": [-0.6046616191426004, 4.24177259390193, 1.0780515975]}, {"species": [{"element": "Cl", "occu": 1}], "abc": [0.6100719, 0.696168999999999, 0.75], "properties": {"magmom": -0.023}, "label": "Cl", "xyz": [1.293395321120205, 4.703863736621727, 3.2341547925]}, {"species": [{"element": "Cl", "occu": 1}], "abc": [0.9139029, 0.6100719, 0.25], "properties": {"magmom": -0.023}, "label": "Cl", "xyz": [3.9199947128867514, 4.519344579854457, 1.0780515975]}, {"species": [{"element": "Cl", "occu": 1}], "abc": [0.3899281, 0.303830999999999, 0.25], "properties": {"magmom": -0.023}, "label": "Cl", "xyz": [1.4730986588798036, 2.182442993378261, 1.0780515975]}, {"species": [{"element": "Cl", "occu": 1}], "abc": [0.0860971, 0.3899281, 0.75], "properties": {"magmom": -0.023}, "label": "Cl", "xyz": [-1.1535007328867521, 2.3669621501455427, 3.2341547925]}, {"species": [{"element": "Cl", "occu": 1}], "abc": [0.303830999999999, 0.9139029, 0.75], "properties": {"magmom": -0.023}, "label": "Cl", "xyz": [-1.953867518233456, 5.654487103232722, 3.2341547925]}, {"species": [{"element": "Cl", "occu": 1}], "abc": [0.696168999999999, 0.0860971, 0.25], "properties": {"magmom": -0.023}, "label": "Cl", "xyz": [4.7203614982334425, 1.2318196267672747, 1.0780515975]}]}, "task_ids": null, "uncorrected_energy_per_atom": null, "energy_per_atom": -27.72482889875, "formation_energy_per_atom": -2.3544468428125, "energy_above_hull": 0.0, "is_stable": true, "equilibrium_reaction_energy_per_atom": null, "decomposes_to": null, "xas": null, "grain_boundaries": null, "band_gap": 0.047299999999999, "cbm": null, "vbm": null, "efermi": 6.37413419, "is_gap_direct": null, "is_metal": null, "es_source_calc_id": null, "bandstructure": null, "dos": null, "dos_energy_up": null, "dos_energy_down": null, "is_magnetic": null, "ordering": null, "total_magnetization": 8.0, "total_magnetization_normalized_vol": null, "total_magnetization_normalized_formula_units": null, "num_magnetic_sites": null, "num_unique_magnetic_sites": null, "types_of_magnetic_species": null, "bulk_modulus": null, "shear_modulus": null, "universal_anisotropy": null, "homogeneous_poisson": null, "e_total": null, "e_ionic": null, "e_electronic": null, "n": null, "e_ij_max": null, "weighted_surface_energy_EV_PER_ANG2": null, "weighted_surface_energy": null, "weighted_work_function": null, "surface_anisotropy": null, "shape_factor": null, "has_reconstructed": null, "possible_species": null, "has_props": null, "theoretical": null, "database_IDs": null, "fields_not_requested": ["builder_meta", "nsites", "elements", "nelements", "composition", "composition_reduced", "chemsys", "symmetry", "property_name", "deprecated", "deprecation_reasons", "last_updated", "origins", "warnings", "task_ids", "uncorrected_energy_per_atom", "equilibrium_reaction_energy_per_atom", "decomposes_to", "xas", "grain_boundaries", "cbm", "vbm", "is_gap_direct", "is_metal", "es_source_calc_id", "bandstructure", "dos", "dos_energy_up", "dos_energy_down", "is_magnetic", "ordering", "total_magnetization_normalized_vol", "total_magnetization_normalized_formula_units", "num_magnetic_sites", "num_unique_magnetic_sites", "types_of_magnetic_species", "bulk_modulus", "shear_modulus", "universal_anisotropy", "homogeneous_poisson", "e_total", "e_ionic", "e_electronic", "n", "e_ij_max", "weighted_surface_energy_EV_PER_ANG2", "weighted_surface_energy", "weighted_work_function", "surface_anisotropy", "shape_factor", "has_reconstructed", "possible_species", "has_props", "theoretical", "database_IDs"]}