{"builder_meta": null, "nsites": null, "elements": null, "nelements": null, "composition": null, "composition_reduced": null, "formula_pretty": "NpCl4", "formula_anonymous": "AB4", "chemsys": null, "volume": 262.33932071797443, "density": 4.795561131860325, "density_atomic": 26.233932071797444, "symmetry": null, "property_name": null, "material_id": "mp-2752817", "deprecated": null, "deprecation_reasons": null, "last_updated": null, "origins": null, "warnings": null, "structure": {"@module": "pymatgen.core.structure", "@class": "Structure", "charge": 0, "lattice": {"matrix": [[-3.79700647, 3.78311609, 4.46728435], [4.43186297, -4.45728972, 3.07471075], [3.8499462700000002, 4.49560889, -3.75672381]], "pbc": [true, true, true], "a": 6.977524987228184, "b": 6.997334294503905, "c": 7.010389387070797, "alpha": 107.22563203922347, "beta": 107.11247901149677, "gamma": 114.12351868190561, "volume": 262.33932071797443}, "properties": {}, "sites": [{"species": [{"element": "Np", "occu": 1}], "abc": [0.25024318, 0.7509047600000001, 0.5037266300000001], "properties": {"magmom": 3.087}, "label": "Np", "xyz": [4.317052486575533, -0.13574315081856092, 1.5343605548543424]}, {"species": [{"element": "Np", "occu": 1}], "abc": [0.998592399999999, 0.00076328, 0.99670183], "properties": {"magmom": 3.086}, "label": "Np", "xyz": [0.04896944138559167, 8.2551704233215, 0.7190095695386232]}, {"species": [{"element": "Cl", "occu": 1}], "abc": [0.93619761, 0.24098117, 0.31635417], "properties": {"magmom": -0.033}, "label": "Cl", "xyz": [-1.268806301787816, 3.8898259690965435, 3.7347530827751934]}, {"species": [{"element": "Cl", "occu": 1}], "abc": [0.87118717, 0.67712382, 0.18648218], "properties": {"magmom": -0.034}, "label": "Cl", "xyz": [0.4109630362044242, 1.116016104410015, 5.273238653150148]}, {"species": [{"element": "Cl", "occu": 1}], "abc": [0.37792362, 0.07265169, 0.31430448], "properties": {"magmom": -0.036000000000000004}, "label": "Cl", "xyz": [0.09705926473338744, 2.5188893110902457, 0.7309200817643458]}, {"species": [{"element": "Cl", "occu": 1}], "abc": [0.31078582, 0.50729648, 0.18254716], "properties": {"magmom": -0.034}, "label": "Cl", "xyz": [1.7710094729401837, -0.2647679137700897, 2.262379307961197]}, {"species": [{"element": "Cl", "occu": 1}], "abc": [0.31259544, 0.13267721, 0.80637965], "properties": {"magmom": -0.034}, "label": "Cl", "xyz": [2.5055986315108223, 4.216371597768437, -1.2249488701940952]}, {"species": [{"element": "Cl", "occu": 1}], "abc": [0.7542167200000001, 0.07298518, 0.69006071], "properties": {"magmom": -0.035}, "label": "Cl", "xyz": [0.11639120751665821, 5.630216378768387, 1.0013413676985121]}, {"species": [{"element": "Cl", "occu": 1}], "abc": [0.94160478, 0.61913571, 0.69608112], "properties": {"magmom": -0.033}, "label": "Cl", "xyz": [1.8485200962721549, 3.9318414294041655, 3.495095003629609]}, {"species": [{"element": "Cl", "occu": 1}], "abc": [0.49665328000000003, 0.67548171, 0.80736106], "properties": {"magmom": -0.034}, "label": "Cl", "xyz": [4.216143361444803, 2.497658891464077, 1.2625697829167124]}]}, "task_ids": null, "uncorrected_energy_per_atom": null, "energy_per_atom": -23.581669749, "formation_energy_per_atom": -2.054876324749997, "energy_above_hull": 0.0, "is_stable": true, "equilibrium_reaction_energy_per_atom": null, "decomposes_to": null, "xas": null, "grain_boundaries": null, "band_gap": 1.1679, "cbm": null, "vbm": null, "efermi": 2.26777905, "is_gap_direct": null, "is_metal": null, "es_source_calc_id": null, "bandstructure": null, "dos": null, "dos_energy_up": null, "dos_energy_down": null, "is_magnetic": null, "ordering": null, "total_magnetization": 6.0, "total_magnetization_normalized_vol": null, "total_magnetization_normalized_formula_units": null, "num_magnetic_sites": null, "num_unique_magnetic_sites": null, "types_of_magnetic_species": null, "bulk_modulus": null, "shear_modulus": null, "universal_anisotropy": null, "homogeneous_poisson": null, "e_total": null, "e_ionic": null, "e_electronic": null, "n": null, "e_ij_max": null, "weighted_surface_energy_EV_PER_ANG2": null, "weighted_surface_energy": null, "weighted_work_function": null, "surface_anisotropy": null, "shape_factor": null, "has_reconstructed": null, "possible_species": null, "has_props": null, "theoretical": null, "database_IDs": null, "fields_not_requested": ["builder_meta", "nsites", "elements", "nelements", "composition", "composition_reduced", "chemsys", "symmetry", "property_name", "deprecated", "deprecation_reasons", "last_updated", "origins", "warnings", "task_ids", "uncorrected_energy_per_atom", "equilibrium_reaction_energy_per_atom", "decomposes_to", "xas", "grain_boundaries", "cbm", "vbm", "is_gap_direct", "is_metal", "es_source_calc_id", "bandstructure", "dos", "dos_energy_up", "dos_energy_down", "is_magnetic", "ordering", "total_magnetization_normalized_vol", "total_magnetization_normalized_formula_units", "num_magnetic_sites", "num_unique_magnetic_sites", "types_of_magnetic_species", "bulk_modulus", "shear_modulus", "universal_anisotropy", "homogeneous_poisson", "e_total", "e_ionic", "e_electronic", "n", "e_ij_max", "weighted_surface_energy_EV_PER_ANG2", "weighted_surface_energy", "weighted_work_function", "surface_anisotropy", "shape_factor", "has_reconstructed", "possible_species", "has_props", "theoretical", "database_IDs"]}