{"builder_meta": null, "nsites": null, "elements": null, "nelements": null, "composition": null, "composition_reduced": null, "formula_pretty": "NpCo2", "formula_anonymous": "AB2", "chemsys": null, "volume": 90.13177019719194, "density": 13.075733511703962, "density_atomic": 15.02196169953199, "symmetry": null, "property_name": null, "material_id": "mp-310", "deprecated": null, "deprecation_reasons": null, "last_updated": null, "origins": null, "warnings": null, "structure": {"@module": "pymatgen.core.structure", "@class": "Structure", "charge": 0, "lattice": {"matrix": [[4.35853415, 0.00123289, 2.51649587], [1.45335147, 4.10903437, 2.5176962400000003], [-0.00036149, 0.00105926, 5.03338861]], "pbc": [true, true, true], "a": 5.0328493838442085, "b": 5.033407226333132, "c": 5.0333887344397015, "alpha": 59.97695681889631, "beta": 60.0031765359147, "gamma": 59.976152811632346, "volume": 90.13177019719194}, "properties": {}, "sites": [{"species": [{"element": "Np", "occu": 1}], "abc": [0.87536152, 0.87467091, 0.87531097], "properties": {"magmom": 4.082}, "label": "Np", "xyz": [5.0861809151681, 3.596059237991651, 8.810779577787354]}, {"species": [{"element": "Np", "occu": 1}], "abc": [0.12540222, 0.12465503, 0.12527491], "properties": {"magmom": 4.082}, "label": "Np", "xyz": [0.7276921438219911, 0.5124991085075635, 1.2599749741596937]}, {"species": [{"element": "Co", "occu": 1}], "abc": [0.49999276000000004, 0.49999625000000003, 0.49962674], "properties": {"magmom": -1.292}, "label": "Co", "xyz": [2.905725194074499, 2.0556474468156014, 5.031883936576433]}, {"species": [{"element": "Co", "occu": 1}], "abc": [0.50001283, 0.50035748, -0.00033958], "properties": {"magmom": -1.295}, "label": "Co", "xyz": [2.906518396831414, 2.0566021837210555, 2.516319129589703]}, {"species": [{"element": "Co", "occu": 1}], "abc": [-0.00039087000000000003, 0.49994877, 0.50005911], "properties": {"magmom": -1.286}, "label": "Co", "xyz": [0.7247168931933076, 2.054835889882369, 3.774727344281655]}, {"species": [{"element": "Co", "occu": 1}], "abc": [0.49962054, 0.00037157, 0.5000648400000001], "properties": {"magmom": -1.288}, "label": "Co", "xyz": [2.1779724389981374, 0.0026724697508399, 3.775249195786539]}]}, "task_ids": null, "uncorrected_energy_per_atom": null, "energy_per_atom": -36.57713613333333, "formation_energy_per_atom": -0.079578202916669, "energy_above_hull": 0.0, "is_stable": true, "equilibrium_reaction_energy_per_atom": null, "decomposes_to": null, "xas": null, "grain_boundaries": null, "band_gap": 0.0, "cbm": null, "vbm": null, "efermi": 10.78820854, "is_gap_direct": null, "is_metal": null, "es_source_calc_id": null, "bandstructure": null, "dos": null, "dos_energy_up": null, "dos_energy_down": null, "is_magnetic": null, "ordering": null, "total_magnetization": 3.816306, "total_magnetization_normalized_vol": null, "total_magnetization_normalized_formula_units": null, "num_magnetic_sites": null, "num_unique_magnetic_sites": null, "types_of_magnetic_species": null, "bulk_modulus": null, "shear_modulus": null, "universal_anisotropy": null, "homogeneous_poisson": null, "e_total": null, "e_ionic": null, "e_electronic": null, "n": null, "e_ij_max": null, "weighted_surface_energy_EV_PER_ANG2": null, "weighted_surface_energy": null, "weighted_work_function": null, "surface_anisotropy": null, "shape_factor": null, "has_reconstructed": null, "possible_species": null, "has_props": null, "theoretical": null, "database_IDs": null, "fields_not_requested": ["builder_meta", "nsites", "elements", "nelements", "composition", "composition_reduced", "chemsys", "symmetry", "property_name", "deprecated", "deprecation_reasons", "last_updated", "origins", "warnings", "task_ids", "uncorrected_energy_per_atom", "equilibrium_reaction_energy_per_atom", "decomposes_to", "xas", "grain_boundaries", "cbm", "vbm", "is_gap_direct", "is_metal", "es_source_calc_id", "bandstructure", "dos", "dos_energy_up", "dos_energy_down", "is_magnetic", "ordering", "total_magnetization_normalized_vol", "total_magnetization_normalized_formula_units", "num_magnetic_sites", "num_unique_magnetic_sites", "types_of_magnetic_species", "bulk_modulus", "shear_modulus", "universal_anisotropy", "homogeneous_poisson", "e_total", "e_ionic", "e_electronic", "n", "e_ij_max", "weighted_surface_energy_EV_PER_ANG2", "weighted_surface_energy", "weighted_work_function", "surface_anisotropy", "shape_factor", "has_reconstructed", "possible_species", "has_props", "theoretical", "database_IDs"]}