{"builder_meta": null, "nsites": null, "elements": null, "nelements": null, "composition": null, "composition_reduced": null, "formula_pretty": "NpF3", "formula_anonymous": "AB3", "chemsys": null, "volume": 107.42944927208285, "density": 9.08857923487315, "density_atomic": 13.428681159010356, "symmetry": null, "property_name": null, "material_id": "mp-14107", "deprecated": null, "deprecation_reasons": null, "last_updated": null, "origins": null, "warnings": null, "structure": {"@module": "pymatgen.core.structure", "@class": "Structure", "charge": 0, "lattice": {"matrix": [[4.12204955, 1e-08, 0.0], [-2.06102426, 3.5697987700000002, 0.0], [-0.0, -0.0, 7.30073198]], "pbc": [true, true, true], "a": 4.12204955, "b": 4.122048551218443, "c": 7.30073198, "alpha": 90.0, "beta": 90.0, "gamma": 119.99999961047148, "volume": 107.42944927208286}, "properties": {}, "sites": [{"species": [{"element": "Np", "occu": 1}], "abc": [0.666667, 0.333333, 0.75], "properties": {"magmom": -3.9530000000000003}, "label": "Np", "xyz": [2.06102700769127, 1.1899317400670801, 5.475548985]}, {"species": [{"element": "Np", "occu": 1}], "abc": [0.333333, 0.666667, 0.25], "properties": {"magmom": 3.955}, "label": "Np", "xyz": [-1.7176912701089009e-06, 2.37986703993292, 1.825182995]}, {"species": [{"element": "F", "occu": 1}], "abc": [0.666667, 0.333333, 0.41930516], "properties": {"magmom": -0.001}, "label": "F", "xyz": [2.06102700769127, 1.1899317400670801, 3.061234590991017]}, {"species": [{"element": "F", "occu": 1}], "abc": [0.666667, 0.333333, 0.08069484], "properties": {"magmom": -0.001}, "label": "F", "xyz": [2.06102700769127, 1.1899317400670801, 0.5891313990089833]}, {"species": [{"element": "F", "occu": 1}], "abc": [0.0, -0.0, 0.25], "properties": {"magmom": -0.014}, "label": "F", "xyz": [0.0, 0.0, 1.825182995]}, {"species": [{"element": "F", "occu": 1}], "abc": [0.0, -0.0, 0.75], "properties": {"magmom": 0.005}, "label": "F", "xyz": [0.0, 0.0, 5.475548985]}, {"species": [{"element": "F", "occu": 1}], "abc": [0.333333, 0.666667, 0.92042968], "properties": {"magmom": 0.0}, "label": "F", "xyz": [-1.7176912701089009e-06, 2.37986703993292, 6.719810400117167]}, {"species": [{"element": "F", "occu": 1}], "abc": [0.333333, 0.666667, 0.57957032], "properties": {"magmom": 0.0}, "label": "F", "xyz": [-1.7176912701089009e-06, 2.37986703993292, 4.231287569882833]}]}, "task_ids": null, "uncorrected_energy_per_atom": null, "energy_per_atom": -27.1084530425, "formation_energy_per_atom": -4.007879197187499, "energy_above_hull": 0.0, "is_stable": true, "equilibrium_reaction_energy_per_atom": null, "decomposes_to": null, "xas": null, "grain_boundaries": null, "band_gap": 0.0, "cbm": null, "vbm": null, "efermi": 8.1170121, "is_gap_direct": null, "is_metal": null, "es_source_calc_id": null, "bandstructure": null, "dos": null, "dos_energy_up": null, "dos_energy_down": null, "is_magnetic": null, "ordering": null, "total_magnetization": 0.0, "total_magnetization_normalized_vol": null, "total_magnetization_normalized_formula_units": null, "num_magnetic_sites": null, "num_unique_magnetic_sites": null, "types_of_magnetic_species": null, "bulk_modulus": null, "shear_modulus": null, "universal_anisotropy": null, "homogeneous_poisson": null, "e_total": null, "e_ionic": null, "e_electronic": null, "n": null, "e_ij_max": null, "weighted_surface_energy_EV_PER_ANG2": null, "weighted_surface_energy": null, "weighted_work_function": null, "surface_anisotropy": null, "shape_factor": null, "has_reconstructed": null, "possible_species": null, "has_props": null, "theoretical": null, "database_IDs": null, "fields_not_requested": ["builder_meta", "nsites", "elements", "nelements", "composition", "composition_reduced", "chemsys", "symmetry", "property_name", "deprecated", "deprecation_reasons", "last_updated", "origins", "warnings", "task_ids", "uncorrected_energy_per_atom", "equilibrium_reaction_energy_per_atom", "decomposes_to", "xas", "grain_boundaries", "cbm", "vbm", "is_gap_direct", "is_metal", "es_source_calc_id", "bandstructure", "dos", "dos_energy_up", "dos_energy_down", "is_magnetic", "ordering", "total_magnetization_normalized_vol", "total_magnetization_normalized_formula_units", "num_magnetic_sites", "num_unique_magnetic_sites", "types_of_magnetic_species", "bulk_modulus", "shear_modulus", "universal_anisotropy", "homogeneous_poisson", "e_total", "e_ionic", "e_electronic", "n", "e_ij_max", "weighted_surface_energy_EV_PER_ANG2", "weighted_surface_energy", "weighted_work_function", "surface_anisotropy", "shape_factor", "has_reconstructed", "possible_species", "has_props", "theoretical", "database_IDs"]}