{"builder_meta": null, "nsites": null, "elements": null, "nelements": null, "composition": null, "composition_reduced": null, "formula_pretty": "NpF4", "formula_anonymous": "AB4", "chemsys": null, "volume": 455.08142944351823, "density": 6.852463159653237, "density_atomic": 15.169380981450608, "symmetry": null, "property_name": null, "material_id": "mp-504787", "deprecated": null, "deprecation_reasons": null, "last_updated": null, "origins": null, "warnings": null, "structure": {"@module": "pymatgen.core.structure", "@class": "Structure", "charge": 0, "lattice": {"matrix": [[7.18463882, 0.27543634, 4.19837773], [-1.29563617, 7.00128986, 4.30874952], [-0.41704854, -0.67200014, 8.2682747]], "pbc": [true, true, true], "a": 8.32593992982195, "b": 8.322382784686807, "c": 8.306014699453417, "alpha": 62.92655270795092, "beta": 62.87345085744478, "gamma": 81.10891312691268, "volume": 455.0814294435182}, "properties": {}, "sites": [{"species": [{"element": "Np", "occu": 1}], "abc": [0.21497728, 0.7842748900000001, 0.75097099], "properties": {"magmom": -2.983}, "label": "Np", "xyz": [0.21520784163738343, 5.045495779580032, 10.49103431769448]}, {"species": [{"element": "Np", "occu": 1}], "abc": [0.7850227200000001, 0.21572511, 0.24902901], "properties": {"magmom": -2.983}, "label": "Np", "xyz": [5.256746268362616, 1.559230280419968, 6.28436763230552]}, {"species": [{"element": "Np", "occu": 1}], "abc": [0.6336117, 0.7786833, 0.16743241], "properties": {"magmom": 2.977}, "label": "Np", "xyz": [3.473553526032051, 5.513792577109978, 7.399669705417484]}, {"species": [{"element": "Np", "occu": 1}], "abc": [0.22157203, 0.36543727, 0.33291894], "properties": {"magmom": -2.985}, "label": "Np", "xyz": [0.979597905420801, 2.3958396676180005, 5.25748598679832]}, {"species": [{"element": "Np", "occu": 1}], "abc": [0.3663883, 0.221316699999999, 0.83256759], "properties": {"magmom": 2.977}, "label": "Np", "xyz": [1.9984005839679495, 1.0909334828900143, 9.375732244582512]}, {"species": [{"element": "Np", "occu": 1}], "abc": [0.77842797, 0.63456273, 0.66708106], "properties": {"magmom": -2.985}, "label": "Np", "xyz": [4.492356204579199, 4.2088863923819995, 11.517915963201679]}, {"species": [{"element": "F", "occu": 1}], "abc": [0.5, -0.0, 0.0], "properties": {"magmom": -0.007}, "label": "F", "xyz": [3.59231941, 0.13771817, 2.099188865]}, {"species": [{"element": "F", "occu": 1}], "abc": [-0.0, 0.5, 0.5], "properties": {"magmom": 0.007}, "label": "F", "xyz": [-0.856342355, 3.16464486, 6.288512109999999]}, {"species": [{"element": "F", "occu": 1}], "abc": [0.60415546, 0.39665604, 0.75044303], "properties": {"magmom": 0.0}, "label": "F", "xyz": [3.5137456887433136, 2.4392124582311467, 10.450433469417348]}, {"species": [{"element": "F", "occu": 1}], "abc": [0.39584454, 0.60334396, 0.24955697000000002], "properties": {"magmom": 0.0}, "label": "F", "xyz": [1.958208421256686, 4.165513601768853, 6.324968480582653]}, {"species": [{"element": "F", "occu": 1}], "abc": [0.186361299999999, 0.59739253, 0.071667799999999], "properties": {"magmom": 0.006}, "label": "F", "xyz": [0.5350463096148372, 4.185688165484897, 3.948998966087583]}, {"species": [{"element": "F", "occu": 1}], "abc": [0.40008755, 0.81105541, 0.42818473], "properties": {"magmom": -0.002}, "label": "F", "xyz": [1.645078001561717, 5.500892469876848, 8.714702238486495]}, {"species": [{"element": "F", "occu": 1}], "abc": [0.813638699999999, 0.40260747, 0.928332199999999], "properties": {"magmom": 0.006}, "label": "F", "xyz": [4.93690780038515, 2.4190378945151045, 12.826402983912391]}, {"species": [{"element": "F", "occu": 1}], "abc": [0.59991245, 0.18894459, 0.57181527], "properties": {"magmom": -0.002}, "label": "F", "xyz": [3.8268761084382836, 1.1038335901231529, 8.060699711513504]}, {"species": [{"element": "F", "occu": 1}], "abc": [0.93607898, 0.82834076, 0.952775399999999], "properties": {"magmom": -0.0}, "label": "F", "xyz": [5.2548075390347995, 5.417018729626272, 15.376934729801922]}, {"species": [{"element": "F", "occu": 1}], "abc": [0.17597055, 0.06304624, 0.5437271], "properties": {"magmom": 0.007}, "label": "F", "xyz": [0.9558392625668162, 0.12448899774111943, 5.506126319228026]}, {"species": [{"element": "F", "occu": 1}], "abc": [0.06392102, 0.17165924, 0.0472246], "properties": {"magmom": -0.0}, "label": "F", "xyz": [0.21714657096520154, 1.187707330373729, 1.3984672201980692]}, {"species": [{"element": "F", "occu": 1}], "abc": [0.82402945, 0.93695376, 0.4562729], "properties": {"magmom": 0.007}, "label": "F", "xyz": [4.516114847433184, 6.4802370622588805, 11.269275630771974]}, {"species": [{"element": "F", "occu": 1}], "abc": [0.31833663, 0.25789671000000003, 0.10659829], "properties": {"magmom": 0.002}, "label": "F", "xyz": [1.908536742914979, 1.8216570311017344, 3.329093687727592]}, {"species": [{"element": "F", "occu": 1}], "abc": [0.74264954, 0.68404229, 0.39224937], "properties": {"magmom": -0.002}, "label": "F", "xyz": [4.285811754931094, 4.730139388433551, 9.308515720689885]}, {"species": [{"element": "F", "occu": 1}], "abc": [0.68166337, 0.74210329, 0.89340071], "properties": {"magmom": 0.002}, "label": "F", "xyz": [3.5634177841335606, 4.783069700898405, 13.446299993997707]}, {"species": [{"element": "F", "occu": 1}], "abc": [0.25735046, 0.31595771, 0.60775063], "properties": {"magmom": -0.002}, "label": "F", "xyz": [1.1861423550689063, 1.8745866715664488, 7.466886229310115]}, {"species": [{"element": "F", "occu": 1}], "abc": [0.74089986, 0.50044542, 0.21338016], "properties": {"magmom": 0.002}, "label": "F", "xyz": [4.585712824432757, 3.5644426928811312, 7.031157214005268]}, {"species": [{"element": "F", "occu": 1}], "abc": [0.50049298, 0.25807275, 0.28756202000000003], "properties": {"magmom": 0.003}, "label": "F", "xyz": [3.141565583253665, 1.7514543646255256, 5.590871193587809]}, {"species": [{"element": "F", "occu": 1}], "abc": [0.25910014, 0.49955458, 0.7866198400000001], "properties": {"magmom": 0.002}, "label": "F", "xyz": [0.8862412855672422, 3.0402833671188687, 9.744244735994732]}, {"species": [{"element": "F", "occu": 1}], "abc": [0.49950702, 0.74192725, 0.71243798], "properties": {"magmom": 0.003}, "label": "F", "xyz": [2.3303885267463347, 4.853271695374475, 11.18453075641219]}, {"species": [{"element": "F", "occu": 1}], "abc": [0.9703238, 0.27619096, 0.34965597], "properties": {"magmom": 0.006}, "label": "F", "xyz": [6.4677595320561085, 1.9659865429667214, 8.154875109592272]}, {"species": [{"element": "F", "occu": 1}], "abc": [0.72297391, 0.03151621, 0.14893727], "properties": {"magmom": -0.001}, "label": "F", "xyz": [5.091358807010785, 0.3197015428933022, 4.402567279252812]}, {"species": [{"element": "F", "occu": 1}], "abc": [0.0296762, 0.72380904, 0.65034403], "properties": {"magmom": 0.006}, "label": "F", "xyz": [-0.995805422056109, 4.638739517033279, 8.620526840407727]}, {"species": [{"element": "F", "occu": 1}], "abc": [0.27702609, 0.9684837900000001, 0.85106273], "properties": {"magmom": -0.001}, "label": "F", "xyz": [0.3805953029892152, 6.285024517106698, 12.372834670747189]}]}, "task_ids": null, "uncorrected_energy_per_atom": null, "energy_per_atom": -23.11662463633333, "formation_energy_per_atom": -4.010959970083332, "energy_above_hull": 0.0, "is_stable": true, "equilibrium_reaction_energy_per_atom": null, "decomposes_to": null, "xas": null, "grain_boundaries": null, "band_gap": 0.0, "cbm": null, "vbm": null, "efermi": 3.118457809999999, "is_gap_direct": null, "is_metal": null, "es_source_calc_id": null, "bandstructure": null, "dos": null, "dos_energy_up": null, "dos_energy_down": null, "is_magnetic": null, "ordering": null, "total_magnetization": 6.0000001, "total_magnetization_normalized_vol": null, "total_magnetization_normalized_formula_units": null, "num_magnetic_sites": null, "num_unique_magnetic_sites": null, "types_of_magnetic_species": null, "bulk_modulus": null, "shear_modulus": null, "universal_anisotropy": null, "homogeneous_poisson": null, "e_total": null, "e_ionic": null, "e_electronic": null, "n": null, "e_ij_max": null, "weighted_surface_energy_EV_PER_ANG2": null, "weighted_surface_energy": null, "weighted_work_function": null, "surface_anisotropy": null, "shape_factor": null, "has_reconstructed": null, "possible_species": null, "has_props": null, "theoretical": null, "database_IDs": null, "fields_not_requested": ["builder_meta", "nsites", "elements", "nelements", "composition", "composition_reduced", "chemsys", "symmetry", "property_name", "deprecated", "deprecation_reasons", "last_updated", "origins", "warnings", "task_ids", "uncorrected_energy_per_atom", "equilibrium_reaction_energy_per_atom", "decomposes_to", "xas", "grain_boundaries", "cbm", "vbm", "is_gap_direct", "is_metal", "es_source_calc_id", "bandstructure", "dos", "dos_energy_up", "dos_energy_down", "is_magnetic", "ordering", "total_magnetization_normalized_vol", "total_magnetization_normalized_formula_units", "num_magnetic_sites", "num_unique_magnetic_sites", "types_of_magnetic_species", "bulk_modulus", "shear_modulus", "universal_anisotropy", "homogeneous_poisson", "e_total", "e_ionic", "e_electronic", "n", "e_ij_max", "weighted_surface_energy_EV_PER_ANG2", "weighted_surface_energy", "weighted_work_function", "surface_anisotropy", "shape_factor", "has_reconstructed", "possible_species", "has_props", "theoretical", "database_IDs"]}