{
  "builder_meta": null,
  "nsites": null,
  "elements": null,
  "nelements": null,
  "composition": null,
  "composition_reduced": null,
  "formula_pretty": "NpF5",
  "formula_anonymous": "AB5",
  "chemsys": null,
  "volume": 91.36295988378112,
  "density": 6.034017648602442,
  "density_atomic": 15.227159980630185,
  "symmetry": null,
  "property_name": null,
  "material_id": "mp-1024969",
  "deprecated": null,
  "deprecation_reasons": null,
  "last_updated": null,
  "origins": null,
  "warnings": null,
  "structure": {
    "@module": "pymatgen.core.structure",
    "@class": "Structure",
    "charge": 0,
    "lattice": {
      "matrix": [
        [-2e-8, -1e-8, 4.4399763],
        [-3.37763597, 3.02802383, 2.21998766],
        [-3.02802385, -3.37763597, 2.21998667]
      ],
      "pbc": [true, true, true],
      "a": 4.4399763,
      "b": 5.050316650610928,
      "c": 5.050316227424214,
      "alpha": 78.85893702597279,
      "beta": 63.92330898499352,
      "gamma": 63.923298992510674,
      "volume": 91.3629598837811
    },
    "properties": {},
    "sites": [
      {
        "species": [{ "element": "Np", "occu": 1 }],
        "abc": [0.0, -0.0, 0.0],
        "properties": { "magmom": 2.228 },
        "label": "Np",
        "xyz": [0.0, 0.0, 0.0]
      },
      {
        "species": [{ "element": "F", "occu": 1 }],
        "abc": [0.10991221, 0.18319163, 0.59698294],
        "properties": { "magmom": -0.053 },
        "label": "F",
        "xyz": [-2.426433221452294, -1.4616824316229309, 2.2199849345133185]
      },
      {
        "species": [{ "element": "F", "occu": 1 }],
        "abc": [0.89008779, 0.8168083700000001, 0.40301706],
        "properties": { "magmom": -0.053 },
        "label": "F",
        "xyz": [-3.9792266185477057, 1.112070281622931, 6.659965695486681]
      },
      {
        "species": [{ "element": "F", "occu": 1 }],
        "abc": [0.70689516, 0.40301706, 0.18319163],
        "properties": { "magmom": -0.053 },
        "label": "F",
        "xyz": [-1.915953557277927, 0.601590615616657, 4.4399736336097595]
      },
      {
        "species": [{ "element": "F", "occu": 1 }],
        "abc": [0.29310484000000003, 0.59698294, 0.8168083700000001],
        "properties": { "magmom": -0.053 },
        "label": "F",
        "xyz": [-4.489706282722073, -0.9512027656166575, 4.439976996390241]
      },
      {
        "species": [{ "element": "F", "occu": 1 }],
        "abc": [0.5, -0.0, 0.0],
        "properties": { "magmom": -0.03 },
        "label": "F",
        "xyz": [-1e-8, -5e-9, 2.21998815]
      }
    ]
  },
  "task_ids": null,
  "uncorrected_energy_per_atom": null,
  "energy_per_atom": -19.953465468333334,
  "formation_energy_per_atom": -3.511073588125001,
  "energy_above_hull": 0.085874473472209,
  "is_stable": false,
  "equilibrium_reaction_energy_per_atom": null,
  "decomposes_to": null,
  "xas": null,
  "grain_boundaries": null,
  "band_gap": 0.0,
  "cbm": null,
  "vbm": null,
  "efermi": 1.17441882,
  "is_gap_direct": null,
  "is_metal": null,
  "es_source_calc_id": null,
  "bandstructure": null,
  "dos": null,
  "dos_energy_up": null,
  "dos_energy_down": null,
  "is_magnetic": null,
  "ordering": null,
  "total_magnetization": 2.0000001,
  "total_magnetization_normalized_vol": null,
  "total_magnetization_normalized_formula_units": null,
  "num_magnetic_sites": null,
  "num_unique_magnetic_sites": null,
  "types_of_magnetic_species": null,
  "bulk_modulus": null,
  "shear_modulus": null,
  "universal_anisotropy": null,
  "homogeneous_poisson": null,
  "e_total": null,
  "e_ionic": null,
  "e_electronic": null,
  "n": null,
  "e_ij_max": null,
  "weighted_surface_energy_EV_PER_ANG2": null,
  "weighted_surface_energy": null,
  "weighted_work_function": null,
  "surface_anisotropy": null,
  "shape_factor": null,
  "has_reconstructed": null,
  "possible_species": null,
  "has_props": null,
  "theoretical": null,
  "database_IDs": null,
  "fields_not_requested": [
    "builder_meta",
    "nsites",
    "elements",
    "nelements",
    "composition",
    "composition_reduced",
    "chemsys",
    "symmetry",
    "property_name",
    "deprecated",
    "deprecation_reasons",
    "last_updated",
    "origins",
    "warnings",
    "task_ids",
    "uncorrected_energy_per_atom",
    "equilibrium_reaction_energy_per_atom",
    "decomposes_to",
    "xas",
    "grain_boundaries",
    "cbm",
    "vbm",
    "is_gap_direct",
    "is_metal",
    "es_source_calc_id",
    "bandstructure",
    "dos",
    "dos_energy_up",
    "dos_energy_down",
    "is_magnetic",
    "ordering",
    "total_magnetization_normalized_vol",
    "total_magnetization_normalized_formula_units",
    "num_magnetic_sites",
    "num_unique_magnetic_sites",
    "types_of_magnetic_species",
    "bulk_modulus",
    "shear_modulus",
    "universal_anisotropy",
    "homogeneous_poisson",
    "e_total",
    "e_ionic",
    "e_electronic",
    "n",
    "e_ij_max",
    "weighted_surface_energy_EV_PER_ANG2",
    "weighted_surface_energy",
    "weighted_work_function",
    "surface_anisotropy",
    "shape_factor",
    "has_reconstructed",
    "possible_species",
    "has_props",
    "theoretical",
    "database_IDs"
  ]
}
