{
  "builder_meta": null,
  "nsites": null,
  "elements": null,
  "nelements": null,
  "composition": null,
  "composition_reduced": null,
  "formula_pretty": "NpF6",
  "formula_anonymous": "AB6",
  "chemsys": null,
  "volume": 424.60293373081817,
  "density": 5.490619652226938,
  "density_atomic": 15.164390490386364,
  "symmetry": null,
  "property_name": null,
  "material_id": "mp-1209816",
  "deprecated": null,
  "deprecation_reasons": null,
  "last_updated": null,
  "origins": null,
  "warnings": null,
  "structure": {
    "@module": "pymatgen.core.structure",
    "@class": "Structure",
    "charge": 0,
    "lattice": {
      "matrix": [
        [0.0, 0.0, -5.06756493],
        [0.0, -8.71831562, 0.0],
        [-9.61061282, 0.0, 0.0]
      ],
      "pbc": [true, true, true],
      "a": 5.06756493,
      "b": 8.71831562,
      "c": 9.61061282,
      "alpha": 90.0,
      "beta": 90.0,
      "gamma": 90.0,
      "volume": 424.60293373081817
    },
    "properties": {},
    "sites": [
      {
        "species": [{ "element": "Np", "occu": 1 }],
        "abc": [0.579141799999999, 0.75, 0.87093599],
        "properties": { "magmom": 1.251 },
        "label": "Np",
        "xyz": [-8.370228590893392, -6.538736715000001, -2.934838675177069]
      },
      {
        "species": [{ "element": "Np", "occu": 1 }],
        "abc": [0.420858199999999, 0.25, 0.12906401],
        "properties": { "magmom": 1.251 },
        "label": "Np",
        "xyz": [-1.2403842291066083, -2.179578905, -2.132726254822921]
      },
      {
        "species": [{ "element": "Np", "occu": 1 }],
        "abc": [0.0791418, 0.25, 0.62906401],
        "properties": { "magmom": 1.251 },
        "label": "Np",
        "xyz": [-6.045690639106608, -2.179578905, -0.40105621017707394]
      },
      {
        "species": [{ "element": "Np", "occu": 1 }],
        "abc": [0.9208582, 0.75, 0.37093599],
        "properties": { "magmom": 1.251 },
        "label": "Np",
        "xyz": [-3.564922180893392, -6.538736715000001, -4.666508719822925]
      },
      {
        "species": [{ "element": "F", "occu": 1 }],
        "abc": [0.25785613, 0.75, 0.9905175700000001],
        "properties": { "magmom": -0.04 },
        "label": "F",
        "xyz": [-9.519480856677248, -6.538736715000001, -1.306702681373521]
      },
      {
        "species": [{ "element": "F", "occu": 1 }],
        "abc": [0.74214387, 0.25, 0.00948243],
        "properties": { "magmom": -0.04 },
        "label": "F",
        "xyz": [-0.0911319633227526, -2.179578905, -3.760862248626479]
      },
      {
        "species": [{ "element": "F", "occu": 1 }],
        "abc": [0.75785613, 0.25, 0.50948243],
        "properties": { "magmom": -0.04 },
        "label": "F",
        "xyz": [-4.896438373322753, -2.179578905, -3.8404851463735206]
      },
      {
        "species": [{ "element": "F", "occu": 1 }],
        "abc": [0.24214387, 0.75, 0.49051757],
        "properties": { "magmom": -0.04 },
        "label": "F",
        "xyz": [-4.714174446677248, -6.538736715000001, -1.227079783626479]
      },
      {
        "species": [{ "element": "F", "occu": 1 }],
        "abc": [0.90061504, 0.75, 0.75029554],
        "properties": { "magmom": -0.039 },
        "label": "F",
        "xyz": [-7.2107999355128225, -6.538736715000001, -4.563925192134547]
      },
      {
        "species": [{ "element": "F", "occu": 1 }],
        "abc": [0.09938496000000001, 0.25, 0.24970446000000002],
        "properties": { "magmom": -0.039 },
        "label": "F",
        "xyz": [-2.3998128844871776, -2.179578905, -0.5036397378654528]
      },
      {
        "species": [{ "element": "F", "occu": 1 }],
        "abc": [0.40061504000000003, 0.25, 0.74970446],
        "properties": { "magmom": -0.039 },
        "label": "F",
        "xyz": [-7.205119294487178, -2.179578905, -2.0301427271345474]
      },
      {
        "species": [{ "element": "F", "occu": 1 }],
        "abc": [0.59938496, 0.75, 0.25029554],
        "properties": { "magmom": -0.039 },
        "label": "F",
        "xyz": [-2.4054935255128225, -6.538736715000001, -3.0374222028654523]
      },
      {
        "species": [{ "element": "F", "occu": 1 }],
        "abc": [0.73979709, 0.91089814, 0.99132054],
        "properties": { "magmom": -0.04 },
        "label": "F",
        "xyz": [-9.527197890453323, -7.941497482190948, -3.7489697886000535]
      },
      {
        "species": [{ "element": "F", "occu": 1 }],
        "abc": [0.26020291, 0.08910186, 0.00867946],
        "properties": { "magmom": -0.04 },
        "label": "F",
        "xyz": [-0.0834149295466772, -0.7768181378090533, -1.3185951413999462]
      },
      {
        "species": [{ "element": "F", "occu": 1 }],
        "abc": [0.23979709000000002, 0.08910186, 0.50867946],
        "properties": { "magmom": -0.04 },
        "label": "F",
        "xyz": [-4.888721339546677, -0.7768181378090533, -1.2151873236000537]
      },
      {
        "species": [{ "element": "F", "occu": 1 }],
        "abc": [0.26020291, 0.41089814, 0.00867946],
        "properties": { "magmom": -0.04 },
        "label": "F",
        "xyz": [-0.0834149295466772, -3.582339672190947, -1.3185951413999462]
      },
      {
        "species": [{ "element": "F", "occu": 1 }],
        "abc": [0.7602029100000001, 0.91089814, 0.49132054000000003],
        "properties": { "magmom": -0.04 },
        "label": "F",
        "xyz": [-4.721891480453323, -7.941497482190948, -3.8523776063999464]
      },
      {
        "species": [{ "element": "F", "occu": 1 }],
        "abc": [0.73979709, 0.58910186, 0.99132054],
        "properties": { "magmom": -0.04 },
        "label": "F",
        "xyz": [-9.527197890453323, -5.135975947809053, -3.7489697886000535]
      },
      {
        "species": [{ "element": "F", "occu": 1 }],
        "abc": [0.7602029100000001, 0.58910186, 0.49132054000000003],
        "properties": { "magmom": -0.04 },
        "label": "F",
        "xyz": [-4.721891480453323, -5.135975947809053, -3.8523776063999464]
      },
      {
        "species": [{ "element": "F", "occu": 1 }],
        "abc": [0.23979709000000002, 0.41089814, 0.50867946],
        "properties": { "magmom": -0.04 },
        "label": "F",
        "xyz": [-4.888721339546677, -3.582339672190947, -1.2151873236000537]
      },
      {
        "species": [{ "element": "F", "occu": 1 }],
        "abc": [0.41843751, 0.9112901800000001, 0.75143773],
        "properties": { "magmom": -0.04 },
        "label": "F",
        "xyz": [-7.221777081369699, -7.944915410646613, -2.1204592510725244]
      },
      {
        "species": [{ "element": "F", "occu": 1 }],
        "abc": [0.58156249, 0.08870982000000001, 0.24856227],
        "properties": { "magmom": -0.04 },
        "label": "F",
        "xyz": [-2.3888357386303016, -0.7734002093533885, -2.9471056789274757]
      },
      {
        "species": [{ "element": "F", "occu": 1 }],
        "abc": [0.9184375100000001, 0.08870982000000001, 0.74856227],
        "properties": { "magmom": -0.04 },
        "label": "F",
        "xyz": [-7.194142148630301, -0.7734002093533885, -4.654241716072525]
      },
      {
        "species": [{ "element": "F", "occu": 1 }],
        "abc": [0.58156249, 0.41129018, 0.24856227],
        "properties": { "magmom": -0.04 },
        "label": "F",
        "xyz": [-2.3888357386303016, -3.5857576006466116, -2.9471056789274757]
      },
      {
        "species": [{ "element": "F", "occu": 1 }],
        "abc": [0.08156249, 0.9112901800000001, 0.25143773],
        "properties": { "magmom": -0.04 },
        "label": "F",
        "xyz": [-2.416470671369699, -7.944915410646613, -0.4133232139274757]
      },
      {
        "species": [{ "element": "F", "occu": 1 }],
        "abc": [0.41843751, 0.58870982, 0.75143773],
        "properties": { "magmom": -0.04 },
        "label": "F",
        "xyz": [-7.221777081369699, -5.132558019353389, -2.1204592510725244]
      },
      {
        "species": [{ "element": "F", "occu": 1 }],
        "abc": [0.08156249, 0.58870982, 0.25143773],
        "properties": { "magmom": -0.04 },
        "label": "F",
        "xyz": [-2.416470671369699, -5.132558019353389, -0.4133232139274757]
      },
      {
        "species": [{ "element": "F", "occu": 1 }],
        "abc": [0.9184375100000001, 0.41129018, 0.74856227],
        "properties": { "magmom": -0.04 },
        "label": "F",
        "xyz": [-7.194142148630301, -3.5857576006466116, -4.654241716072525]
      }
    ]
  },
  "task_ids": null,
  "uncorrected_energy_per_atom": null,
  "energy_per_atom": -17.841279445714285,
  "formation_energy_per_atom": -3.301225269821427,
  "energy_above_hull": 0.0,
  "is_stable": true,
  "equilibrium_reaction_energy_per_atom": null,
  "decomposes_to": null,
  "xas": null,
  "grain_boundaries": null,
  "band_gap": 1.1546,
  "cbm": null,
  "vbm": null,
  "efermi": -1.66477586,
  "is_gap_direct": null,
  "is_metal": null,
  "es_source_calc_id": null,
  "bandstructure": null,
  "dos": null,
  "dos_energy_up": null,
  "dos_energy_down": null,
  "is_magnetic": null,
  "ordering": null,
  "total_magnetization": 4.0,
  "total_magnetization_normalized_vol": null,
  "total_magnetization_normalized_formula_units": null,
  "num_magnetic_sites": null,
  "num_unique_magnetic_sites": null,
  "types_of_magnetic_species": null,
  "bulk_modulus": null,
  "shear_modulus": null,
  "universal_anisotropy": null,
  "homogeneous_poisson": null,
  "e_total": null,
  "e_ionic": null,
  "e_electronic": null,
  "n": null,
  "e_ij_max": null,
  "weighted_surface_energy_EV_PER_ANG2": null,
  "weighted_surface_energy": null,
  "weighted_work_function": null,
  "surface_anisotropy": null,
  "shape_factor": null,
  "has_reconstructed": null,
  "possible_species": null,
  "has_props": null,
  "theoretical": null,
  "database_IDs": null,
  "fields_not_requested": [
    "builder_meta",
    "nsites",
    "elements",
    "nelements",
    "composition",
    "composition_reduced",
    "chemsys",
    "symmetry",
    "property_name",
    "deprecated",
    "deprecation_reasons",
    "last_updated",
    "origins",
    "warnings",
    "task_ids",
    "uncorrected_energy_per_atom",
    "equilibrium_reaction_energy_per_atom",
    "decomposes_to",
    "xas",
    "grain_boundaries",
    "cbm",
    "vbm",
    "is_gap_direct",
    "is_metal",
    "es_source_calc_id",
    "bandstructure",
    "dos",
    "dos_energy_up",
    "dos_energy_down",
    "is_magnetic",
    "ordering",
    "total_magnetization_normalized_vol",
    "total_magnetization_normalized_formula_units",
    "num_magnetic_sites",
    "num_unique_magnetic_sites",
    "types_of_magnetic_species",
    "bulk_modulus",
    "shear_modulus",
    "universal_anisotropy",
    "homogeneous_poisson",
    "e_total",
    "e_ionic",
    "e_electronic",
    "n",
    "e_ij_max",
    "weighted_surface_energy_EV_PER_ANG2",
    "weighted_surface_energy",
    "weighted_work_function",
    "surface_anisotropy",
    "shape_factor",
    "has_reconstructed",
    "possible_species",
    "has_props",
    "theoretical",
    "database_IDs"
  ]
}
