{"builder_meta": null, "nsites": null, "elements": null, "nelements": null, "composition": null, "composition_reduced": null, "formula_pretty": "NpFe3", "formula_anonymous": "AB3", "chemsys": null, "volume": 51.12781307057456, "density": 13.138566485912126, "density_atomic": 12.78195326764364, "symmetry": null, "property_name": null, "material_id": "mp-977155", "deprecated": null, "deprecation_reasons": null, "last_updated": null, "origins": null, "warnings": null, "structure": {"@module": "pymatgen.core.structure", "@class": "Structure", "charge": 0, "lattice": {"matrix": [[-1.861781, 1.861781, 3.687567999999999], [1.861781, -1.861781, 3.687567999999999], [1.861781, 1.861781, -3.687567999999999]], "pbc": [true, true, true], "a": 4.5310721400730305, "b": 4.5310721400730305, "c": 4.5310721400730305, "alpha": 131.47824580699842, "beta": 131.47824580699842, "gamma": 71.054339794999, "volume": 51.12781307057455}, "properties": {}, "sites": [{"species": [{"element": "Np", "occu": 1}], "abc": [0.0, 0.0, 0.0], "properties": {"magmom": 0.061}, "label": "Np", "xyz": [0.0, 0.0, 0.0]}, {"species": [{"element": "Fe", "occu": 1}], "abc": [0.75, 0.25, 0.5], "properties": {"magmom": -0.005}, "label": "Fe", "xyz": [-1.1102230246251565e-16, 1.8617810000000001, 1.8437839999999994]}, {"species": [{"element": "Fe", "occu": 1}], "abc": [0.25, 0.75, 0.5], "properties": {"magmom": -0.005}, "label": "Fe", "xyz": [1.8617810000000001, -1.1102230246251565e-16, 1.8437839999999994]}, {"species": [{"element": "Fe", "occu": 1}], "abc": [0.5, 0.5, 0.0], "properties": {"magmom": 0.07}, "label": "Fe", "xyz": [0.0, 0.0, 3.687567999999999]}]}, "task_ids": null, "uncorrected_energy_per_atom": null, "energy_per_atom": -9.38918727, "formation_energy_per_atom": 0.200273557812499, "energy_above_hull": 0.200273557812499, "is_stable": false, "equilibrium_reaction_energy_per_atom": null, "decomposes_to": null, "xas": null, "grain_boundaries": null, "band_gap": 0.0, "cbm": null, "vbm": null, "efermi": 10.23803004, "is_gap_direct": null, "is_metal": null, "es_source_calc_id": null, "bandstructure": null, "dos": null, "dos_energy_up": null, "dos_energy_down": null, "is_magnetic": null, "ordering": null, "total_magnetization": 0.1448667, "total_magnetization_normalized_vol": null, "total_magnetization_normalized_formula_units": null, "num_magnetic_sites": null, "num_unique_magnetic_sites": null, "types_of_magnetic_species": null, "bulk_modulus": null, "shear_modulus": null, "universal_anisotropy": null, "homogeneous_poisson": null, "e_total": null, "e_ionic": null, "e_electronic": null, "n": null, "e_ij_max": null, "weighted_surface_energy_EV_PER_ANG2": null, "weighted_surface_energy": null, "weighted_work_function": null, "surface_anisotropy": null, "shape_factor": null, "has_reconstructed": null, "possible_species": null, "has_props": null, "theoretical": null, "database_IDs": null, "fields_not_requested": ["builder_meta", "nsites", "elements", "nelements", "composition", "composition_reduced", "chemsys", "symmetry", "property_name", "deprecated", "deprecation_reasons", "last_updated", "origins", "warnings", "task_ids", "uncorrected_energy_per_atom", "equilibrium_reaction_energy_per_atom", "decomposes_to", "xas", "grain_boundaries", "cbm", "vbm", "is_gap_direct", "is_metal", "es_source_calc_id", "bandstructure", "dos", "dos_energy_up", "dos_energy_down", "is_magnetic", "ordering", "total_magnetization_normalized_vol", "total_magnetization_normalized_formula_units", "num_magnetic_sites", "num_unique_magnetic_sites", "types_of_magnetic_species", "bulk_modulus", "shear_modulus", "universal_anisotropy", "homogeneous_poisson", "e_total", "e_ionic", "e_electronic", "n", "e_ij_max", "weighted_surface_energy_EV_PER_ANG2", "weighted_surface_energy", "weighted_work_function", "surface_anisotropy", "shape_factor", "has_reconstructed", "possible_species", "has_props", "theoretical", "database_IDs"]}