{"builder_meta": null, "nsites": null, "elements": null, "nelements": null, "composition": null, "composition_reduced": null, "formula_pretty": "NpGa4", "formula_anonymous": "AB4", "chemsys": null, "volume": 184.1941468210334, "density": 9.30169427130335, "density_atomic": 18.41941468210334, "symmetry": null, "property_name": null, "material_id": "mp-1080762", "deprecated": null, "deprecation_reasons": null, "last_updated": null, "origins": null, "warnings": null, "structure": {"@module": "pymatgen.core.structure", "@class": "Structure", "charge": 0, "lattice": {"matrix": [[4.25858925, -0.0, -0.0], [-0.0, 6.26695714, -0.00147503], [-2.12929414, -3.13527771, 6.90239455]], "pbc": [true, true, true], "a": 4.25858925, "b": 6.266957313586113, "c": 7.874446671184643, "alpha": 113.47599269113209, "beta": 105.68840128728297, "gamma": 90.0, "volume": 184.1941468210334}, "properties": {}, "sites": [{"species": [{"element": "Np", "occu": 1}], "abc": [0.88766652, 0.63778558, 0.77533504], "properties": {"magmom": 3.622}, "label": "Np", "xyz": [2.129290742448245, 1.5660842256760827, 5.350727601655965]}, {"species": [{"element": "Np", "occu": 1}], "abc": [0.11233348, 0.36221442, 0.22466496], "properties": {"magmom": 3.622}, "label": "Np", "xyz": [4.367551755646293e-06, 1.5655952043239172, 1.5501919183440354]}, {"species": [{"element": "Ga", "occu": 1}], "abc": [0.5, 0.0, -0.0], "properties": {"magmom": -0.012}, "label": "Ga", "xyz": [2.129294625, 0.0, 0.0]}, {"species": [{"element": "Ga", "occu": 1}], "abc": [0.5, 0.5, -0.0], "properties": {"magmom": -0.013000000000000001}, "label": "Ga", "xyz": [2.129294625, 3.13347857, -0.000737515]}, {"species": [{"element": "Ga", "occu": 1}], "abc": [0.10760776, 0.85743609, 0.21521652], "properties": {"magmom": -0.018000000000000002}, "label": "Ga", "xyz": [-2.024914612763773e-06, 4.698751668339413, 1.4842445907621333]}, {"species": [{"element": "Ga", "occu": 1}], "abc": [0.8923922400000001, 0.14256391000000002, 0.78478348], "properties": {"magmom": -0.018000000000000002}, "label": "Ga", "xyz": [2.129297134914613, -1.5670722383394136, 5.416674929237867]}, {"species": [{"element": "Ga", "occu": 1}], "abc": [0.69683757, 0.16208555, 0.39367513], "properties": {"magmom": -0.008}, "label": "Ga", "xyz": [2.129294837225385, -0.2184976652070254, 2.717061990733725]}, {"species": [{"element": "Ga", "occu": 1}], "abc": [0.30316243, 0.83791445, 0.60632487], "properties": {"magmom": -0.008}, "label": "Ga", "xyz": [2.727746157837885e-07, 3.350177095207025, 4.183857529266275]}, {"species": [{"element": "Ga", "occu": 1}], "abc": [0.30308244, 0.26950857, 0.60616488], "properties": {"magmom": -0.008}, "label": "Ga", "xyz": [2.93989966815289e-07, -0.211496579796135, 4.183591630887397]}, {"species": [{"element": "Ga", "occu": 1}], "abc": [0.69691756, 0.73049143, 0.39383512], "properties": {"magmom": -0.008}, "label": "Ga", "xyz": [2.1292948160100336, 3.343176009796135, 2.717327889112603]}]}, "task_ids": null, "uncorrected_energy_per_atom": null, "energy_per_atom": -5.177624766, "formation_energy_per_atom": -0.16559201175000102, "energy_above_hull": 0.0, "is_stable": true, "equilibrium_reaction_energy_per_atom": null, "decomposes_to": null, "xas": null, "grain_boundaries": null, "band_gap": 0.0, "cbm": null, "vbm": null, "efermi": 6.3124175, "is_gap_direct": null, "is_metal": null, "es_source_calc_id": null, "bandstructure": null, "dos": null, "dos_energy_up": null, "dos_energy_down": null, "is_magnetic": null, "ordering": null, "total_magnetization": 7.9994937, "total_magnetization_normalized_vol": null, "total_magnetization_normalized_formula_units": null, "num_magnetic_sites": null, "num_unique_magnetic_sites": null, "types_of_magnetic_species": null, "bulk_modulus": null, "shear_modulus": null, "universal_anisotropy": null, "homogeneous_poisson": null, "e_total": null, "e_ionic": null, "e_electronic": null, "n": null, "e_ij_max": null, "weighted_surface_energy_EV_PER_ANG2": null, "weighted_surface_energy": null, "weighted_work_function": null, "surface_anisotropy": null, "shape_factor": null, "has_reconstructed": null, "possible_species": null, "has_props": null, "theoretical": null, "database_IDs": null, "fields_not_requested": ["builder_meta", "nsites", "elements", "nelements", "composition", "composition_reduced", "chemsys", "symmetry", "property_name", "deprecated", "deprecation_reasons", "last_updated", "origins", "warnings", "task_ids", "uncorrected_energy_per_atom", "equilibrium_reaction_energy_per_atom", "decomposes_to", "xas", "grain_boundaries", "cbm", "vbm", "is_gap_direct", "is_metal", "es_source_calc_id", "bandstructure", "dos", "dos_energy_up", "dos_energy_down", "is_magnetic", "ordering", "total_magnetization_normalized_vol", "total_magnetization_normalized_formula_units", "num_magnetic_sites", "num_unique_magnetic_sites", "types_of_magnetic_species", "bulk_modulus", "shear_modulus", "universal_anisotropy", "homogeneous_poisson", "e_total", "e_ionic", "e_electronic", "n", "e_ij_max", "weighted_surface_energy_EV_PER_ANG2", "weighted_surface_energy", "weighted_work_function", "surface_anisotropy", "shape_factor", "has_reconstructed", "possible_species", "has_props", "theoretical", "database_IDs"]}