{
  "builder_meta": null,
  "nsites": null,
  "elements": null,
  "nelements": null,
  "composition": null,
  "composition_reduced": null,
  "formula_pretty": "NpIr2",
  "formula_anonymous": "AB2",
  "chemsys": null,
  "volume": 108.97888021482039,
  "density": 18.937897550046046,
  "density_atomic": 18.163146702470065,
  "symmetry": null,
  "property_name": null,
  "material_id": "mp-2149",
  "deprecated": null,
  "deprecation_reasons": null,
  "last_updated": null,
  "origins": null,
  "warnings": null,
  "structure": {
    "@module": "pymatgen.core.structure",
    "@class": "Structure",
    "charge": 0,
    "lattice": {
      "matrix": [
        [4.64347421, -0.00015481, 2.68048479],
        [1.54740471, 4.377796809999999, 2.68048536],
        [1.947e-5, 1.916e-5, 5.36092991]
      ],
      "pbc": [true, true, true],
      "a": 5.361609037623184,
      "b": 5.3613960879001175,
      "c": 5.360929910069595,
      "alpha": 60.00236206175056,
      "beta": 60.0037371272157,
      "gamma": 60.00736117718636,
      "volume": 108.97888021482036
    },
    "properties": {},
    "sites": [
      {
        "species": [{ "element": "Np", "occu": 1 }],
        "abc": [0.8750071500000001, 0.87500056, 0.87498757],
        "properties": { "magmom": 3.778 },
        "label": "Np",
        "xyz": [5.417070158395227, 3.8304559652211623, 9.38161658267927]
      },
      {
        "species": [{ "element": "Np", "occu": 1 }],
        "abc": [0.1249947, 0.1249985, 0.12500968],
        "properties": { "magmom": 3.777 },
        "label": "Np",
        "xyz": [0.7738353674180914, 0.5472010793107467, 1.3402711740041018]
      },
      {
        "species": [{ "element": "Ir", "occu": 1 }],
        "abc": [0.49999937, 0.50000029, 0.50000016],
        "properties": { "magmom": -0.17300000000000001 },
        "label": "Ir",
        "xyz": [3.0954467183617287, 2.18883184966167, 5.360949976384123]
      },
      {
        "species": [{ "element": "Ir", "occu": 1 }],
        "abc": [0.50000013, 0.50000004, 5.599999999999997e-7],
        "properties": { "magmom": -0.171 },
        "label": "Ir",
        "xyz": [3.095440125558739, 2.188821175102476, 2.6804885328031864]
      },
      {
        "species": [{ "element": "Ir", "occu": 1 }],
        "abc": [1.6e-7, 0.49999841, 0.50000102],
        "properties": { "magmom": -0.183 },
        "label": "Ir",
        "xyz": [0.773710372602244, 2.188901024297845, 4.020709270054352]
      },
      {
        "species": [{ "element": "Ir", "occu": 1 }],
        "abc": [0.49999948, 1.899999999999999e-7, 0.50000101],
        "properties": { "magmom": -0.137 },
        "label": "Ir",
        "xyz": [2.32174471941997, -6.69931187533e-5, 4.020711879979337]
      }
    ]
  },
  "task_ids": null,
  "uncorrected_energy_per_atom": null,
  "energy_per_atom": -63.36579104166666,
  "formation_energy_per_atom": -0.7848182312499901,
  "energy_above_hull": 0.0,
  "is_stable": true,
  "equilibrium_reaction_energy_per_atom": null,
  "decomposes_to": null,
  "xas": null,
  "grain_boundaries": null,
  "band_gap": 0.0,
  "cbm": null,
  "vbm": null,
  "efermi": 11.74433129,
  "is_gap_direct": null,
  "is_metal": null,
  "es_source_calc_id": null,
  "bandstructure": null,
  "dos": null,
  "dos_energy_up": null,
  "dos_energy_down": null,
  "is_magnetic": null,
  "ordering": null,
  "total_magnetization": 7.3723502,
  "total_magnetization_normalized_vol": null,
  "total_magnetization_normalized_formula_units": null,
  "num_magnetic_sites": null,
  "num_unique_magnetic_sites": null,
  "types_of_magnetic_species": null,
  "bulk_modulus": null,
  "shear_modulus": null,
  "universal_anisotropy": null,
  "homogeneous_poisson": null,
  "e_total": null,
  "e_ionic": null,
  "e_electronic": null,
  "n": null,
  "e_ij_max": null,
  "weighted_surface_energy_EV_PER_ANG2": null,
  "weighted_surface_energy": null,
  "weighted_work_function": null,
  "surface_anisotropy": null,
  "shape_factor": null,
  "has_reconstructed": null,
  "possible_species": null,
  "has_props": null,
  "theoretical": null,
  "database_IDs": null,
  "fields_not_requested": [
    "builder_meta",
    "nsites",
    "elements",
    "nelements",
    "composition",
    "composition_reduced",
    "chemsys",
    "symmetry",
    "property_name",
    "deprecated",
    "deprecation_reasons",
    "last_updated",
    "origins",
    "warnings",
    "task_ids",
    "uncorrected_energy_per_atom",
    "equilibrium_reaction_energy_per_atom",
    "decomposes_to",
    "xas",
    "grain_boundaries",
    "cbm",
    "vbm",
    "is_gap_direct",
    "is_metal",
    "es_source_calc_id",
    "bandstructure",
    "dos",
    "dos_energy_up",
    "dos_energy_down",
    "is_magnetic",
    "ordering",
    "total_magnetization_normalized_vol",
    "total_magnetization_normalized_formula_units",
    "num_magnetic_sites",
    "num_unique_magnetic_sites",
    "types_of_magnetic_species",
    "bulk_modulus",
    "shear_modulus",
    "universal_anisotropy",
    "homogeneous_poisson",
    "e_total",
    "e_ionic",
    "e_electronic",
    "n",
    "e_ij_max",
    "weighted_surface_energy_EV_PER_ANG2",
    "weighted_surface_energy",
    "weighted_work_function",
    "surface_anisotropy",
    "shape_factor",
    "has_reconstructed",
    "possible_species",
    "has_props",
    "theoretical",
    "database_IDs"
  ]
}
