{
  "builder_meta": null,
  "nsites": null,
  "elements": null,
  "nelements": null,
  "composition": null,
  "composition_reduced": null,
  "formula_pretty": "NpN2",
  "formula_anonymous": "AB2",
  "chemsys": null,
  "volume": 83.80160745111708,
  "density": 10.502545649358574,
  "density_atomic": 13.96693457518618,
  "symmetry": null,
  "property_name": null,
  "material_id": "mp-864918",
  "deprecated": null,
  "deprecation_reasons": null,
  "last_updated": null,
  "origins": null,
  "warnings": null,
  "structure": {
    "@module": "pymatgen.core.structure",
    "@class": "Structure",
    "charge": 0,
    "lattice": {
      "matrix": [
        [4.907319, 0.0, 0.0],
        [0.0, 4.907319, 0.0],
        [0.0, 0.0, 3.479876]
      ],
      "pbc": [true, true, true],
      "a": 4.907319,
      "b": 4.907319,
      "c": 3.479876,
      "alpha": 90.0,
      "beta": 90.0,
      "gamma": 90.0,
      "volume": 83.80160745111708
    },
    "properties": {},
    "sites": [
      {
        "species": [{ "element": "Np", "occu": 1 }],
        "abc": [0.5, 0.5, 0.0],
        "properties": { "magmom": -1.18 },
        "label": "Np",
        "xyz": [2.4536595, 2.4536595, 0.0]
      },
      {
        "species": [{ "element": "Np", "occu": 1 }],
        "abc": [0.0, 0.0, 0.5],
        "properties": { "magmom": -1.211 },
        "label": "Np",
        "xyz": [0.0, 0.0, 1.739938]
      },
      {
        "species": [{ "element": "N", "occu": 1 }],
        "abc": [0.818021, 0.818021, 0.0],
        "properties": { "magmom": 0.088 },
        "label": "N",
        "xyz": [4.014289995699, 4.014289995699, 0.0]
      },
      {
        "species": [{ "element": "N", "occu": 1 }],
        "abc": [0.181979, 0.181979, 0.0],
        "properties": { "magmom": 0.088 },
        "label": "N",
        "xyz": [0.8930290043010001, 0.8930290043010001, 0.0]
      },
      {
        "species": [{ "element": "N", "occu": 1 }],
        "abc": [0.681979, 0.318021, 0.5],
        "properties": { "magmom": 0.09 },
        "label": "N",
        "xyz": [3.346688504301, 1.560630495699, 1.739938]
      },
      {
        "species": [{ "element": "N", "occu": 1 }],
        "abc": [0.318021, 0.681979, 0.5],
        "properties": { "magmom": 0.09 },
        "label": "N",
        "xyz": [1.560630495699, 3.346688504301, 1.739938]
      }
    ]
  },
  "task_ids": null,
  "uncorrected_energy_per_atom": null,
  "energy_per_atom": -35.003639023125004,
  "formation_energy_per_atom": -1.243068065208338,
  "energy_above_hull": 0.124246946666673,
  "is_stable": false,
  "equilibrium_reaction_energy_per_atom": null,
  "decomposes_to": null,
  "xas": null,
  "grain_boundaries": null,
  "band_gap": 0.0,
  "cbm": null,
  "vbm": null,
  "efermi": 8.68368329,
  "is_gap_direct": null,
  "is_metal": null,
  "es_source_calc_id": null,
  "bandstructure": null,
  "dos": null,
  "dos_energy_up": null,
  "dos_energy_down": null,
  "is_magnetic": null,
  "ordering": null,
  "total_magnetization": 1.9972056,
  "total_magnetization_normalized_vol": null,
  "total_magnetization_normalized_formula_units": null,
  "num_magnetic_sites": null,
  "num_unique_magnetic_sites": null,
  "types_of_magnetic_species": null,
  "bulk_modulus": null,
  "shear_modulus": null,
  "universal_anisotropy": null,
  "homogeneous_poisson": null,
  "e_total": null,
  "e_ionic": null,
  "e_electronic": null,
  "n": null,
  "e_ij_max": null,
  "weighted_surface_energy_EV_PER_ANG2": null,
  "weighted_surface_energy": null,
  "weighted_work_function": null,
  "surface_anisotropy": null,
  "shape_factor": null,
  "has_reconstructed": null,
  "possible_species": null,
  "has_props": null,
  "theoretical": null,
  "database_IDs": null,
  "fields_not_requested": [
    "builder_meta",
    "nsites",
    "elements",
    "nelements",
    "composition",
    "composition_reduced",
    "chemsys",
    "symmetry",
    "property_name",
    "deprecated",
    "deprecation_reasons",
    "last_updated",
    "origins",
    "warnings",
    "task_ids",
    "uncorrected_energy_per_atom",
    "equilibrium_reaction_energy_per_atom",
    "decomposes_to",
    "xas",
    "grain_boundaries",
    "cbm",
    "vbm",
    "is_gap_direct",
    "is_metal",
    "es_source_calc_id",
    "bandstructure",
    "dos",
    "dos_energy_up",
    "dos_energy_down",
    "is_magnetic",
    "ordering",
    "total_magnetization_normalized_vol",
    "total_magnetization_normalized_formula_units",
    "num_magnetic_sites",
    "num_unique_magnetic_sites",
    "types_of_magnetic_species",
    "bulk_modulus",
    "shear_modulus",
    "universal_anisotropy",
    "homogeneous_poisson",
    "e_total",
    "e_ionic",
    "e_electronic",
    "n",
    "e_ij_max",
    "weighted_surface_energy_EV_PER_ANG2",
    "weighted_surface_energy",
    "weighted_work_function",
    "surface_anisotropy",
    "shape_factor",
    "has_reconstructed",
    "possible_species",
    "has_props",
    "theoretical",
    "database_IDs"
  ]
}
