{"builder_meta": null, "nsites": null, "elements": null, "nelements": null, "composition": null, "composition_reduced": null, "formula_pretty": "NpP3", "formula_anonymous": "AB3", "chemsys": null, "volume": 144.60123660312547, "density": 7.5773513031502, "density_atomic": 18.075154575390684, "symmetry": null, "property_name": null, "material_id": "mp-864899", "deprecated": null, "deprecation_reasons": null, "last_updated": null, "origins": null, "warnings": null, "structure": {"@module": "pymatgen.core.structure", "@class": "Structure", "charge": 0, "lattice": {"matrix": [[5.52578349, -1.149999999999999e-06, 0.0], [-2.7628934, 4.7854706700000005, -0.0], [0.0, -0.0, 5.4683151500000005]], "pbc": [true, true, true], "a": 5.525783490000119, "b": 5.5257858692853645, "c": 5.4683151500000005, "alpha": 90.0, "beta": 90.0, "gamma": 120.00001749578617, "volume": 144.60123660312553}, "properties": {}, "sites": [{"species": [{"element": "Np", "occu": 1}], "abc": [0.666667999999999, 0.333333999999999, 0.249999], "properties": {"magmom": 3.094}, "label": "Np", "xyz": [2.7628967191157177, 1.5951593136455755, 1.36707331918485]}, {"species": [{"element": "Np", "occu": 1}], "abc": [0.333335, 0.666667999999999, 0.75], "properties": {"magmom": 3.094}, "label": "Np", "xyz": [4.422447952956432e-06, 3.1903197772923053, 4.1012363625]}, {"species": [{"element": "P", "occu": 1}], "abc": [0.8065058700000001, 0.19349413000000001, 0.749999], "properties": {"magmom": -0.065}, "label": "P", "xyz": [3.9219731663183452, 0.9259595564504167, 4.10123089418485]}, {"species": [{"element": "P", "occu": 1}], "abc": [0.19349725, 0.38699549, 0.25], "properties": {"magmom": -0.065}, "label": "P", "xyz": [-3.3757403634648853e-06, 1.851955344295441, 1.3670787875000001]}, {"species": [{"element": "P", "occu": 1}], "abc": [0.6130065100000001, 0.80650375, 0.25], "properties": {"magmom": -0.065}, "label": "P", "xyz": [1.1590573642702706, 3.8594993359125263, 1.3670787875000001]}, {"species": [{"element": "P", "occu": 1}], "abc": [0.19349725, 0.80650275, 0.25], "properties": {"magmom": -0.065}, "label": "P", "xyz": [-1.1590572156464476, 3.8594950328775055, 1.3670787875000001]}, {"species": [{"element": "P", "occu": 1}], "abc": [0.8065058700000001, 0.61301373, 0.749999], "properties": {"magmom": -0.065}, "label": "P", "xyz": [2.7628852323077053, 2.933558297740549, 4.10123089418485]}, {"species": [{"element": "P", "occu": 1}], "abc": [0.38698827, 0.19349513000000002, 0.749999], "properties": {"magmom": -0.065}, "label": "P", "xyz": [1.6038069755805204, 0.9259648243663268, 4.10123089418485]}]}, "task_ids": null, "uncorrected_energy_per_atom": null, "energy_per_atom": -28.03712757375, "formation_energy_per_atom": -0.529517456919641, "energy_above_hull": 0.18527696976190802, "is_stable": false, "equilibrium_reaction_energy_per_atom": null, "decomposes_to": null, "xas": null, "grain_boundaries": null, "band_gap": 0.0, "cbm": null, "vbm": null, "efermi": 11.75153665, "is_gap_direct": null, "is_metal": null, "es_source_calc_id": null, "bandstructure": null, "dos": null, "dos_energy_up": null, "dos_energy_down": null, "is_magnetic": null, "ordering": null, "total_magnetization": 5.8633899, "total_magnetization_normalized_vol": null, "total_magnetization_normalized_formula_units": null, "num_magnetic_sites": null, "num_unique_magnetic_sites": null, "types_of_magnetic_species": null, "bulk_modulus": null, "shear_modulus": null, "universal_anisotropy": null, "homogeneous_poisson": null, "e_total": null, "e_ionic": null, "e_electronic": null, "n": null, "e_ij_max": null, "weighted_surface_energy_EV_PER_ANG2": null, "weighted_surface_energy": null, "weighted_work_function": null, "surface_anisotropy": null, "shape_factor": null, "has_reconstructed": null, "possible_species": null, "has_props": null, "theoretical": null, "database_IDs": null, "fields_not_requested": ["builder_meta", "nsites", "elements", "nelements", "composition", "composition_reduced", "chemsys", "symmetry", "property_name", "deprecated", "deprecation_reasons", "last_updated", "origins", "warnings", "task_ids", "uncorrected_energy_per_atom", "equilibrium_reaction_energy_per_atom", "decomposes_to", "xas", "grain_boundaries", "cbm", "vbm", "is_gap_direct", "is_metal", "es_source_calc_id", "bandstructure", "dos", "dos_energy_up", "dos_energy_down", "is_magnetic", "ordering", "total_magnetization_normalized_vol", "total_magnetization_normalized_formula_units", "num_magnetic_sites", "num_unique_magnetic_sites", "types_of_magnetic_species", "bulk_modulus", "shear_modulus", "universal_anisotropy", "homogeneous_poisson", "e_total", "e_ionic", "e_electronic", "n", "e_ij_max", "weighted_surface_energy_EV_PER_ANG2", "weighted_surface_energy", "weighted_work_function", "surface_anisotropy", "shape_factor", "has_reconstructed", "possible_species", "has_props", "theoretical", "database_IDs"]}