{"builder_meta": null, "nsites": null, "elements": null, "nelements": null, "composition": null, "composition_reduced": null, "formula_pretty": "NpPa3", "formula_anonymous": "AB3", "chemsys": null, "volume": 185.68687006090732, "density": 16.63531806913997, "density_atomic": 23.210858757613416, "symmetry": null, "property_name": null, "material_id": "mp-977349", "deprecated": null, "deprecation_reasons": null, "last_updated": null, "origins": null, "warnings": null, "structure": {"@module": "pymatgen.core.structure", "@class": "Structure", "charge": 0, "lattice": {"matrix": [[3.093105, -5.357416, 0.0], [3.093105, 5.357416, 0.0], [0.0, 0.0, 5.602749]], "pbc": [true, true, true], "a": 6.1862108546412315, "b": 6.1862108546412315, "c": 5.602749, "alpha": 90.0, "beta": 90.0, "gamma": 120.00000914010351, "volume": 185.68687006090732}, "properties": {}, "sites": [{"species": [{"element": "Np", "occu": 1}], "abc": [0.333333, 0.666667, 0.75], "properties": {"magmom": -0.005}, "label": "Np", "xyz": [3.0931049999999995, 1.785808904944, 4.20206175]}, {"species": [{"element": "Np", "occu": 1}], "abc": [0.666667, 0.333333, 0.25], "properties": {"magmom": 0.004}, "label": "Np", "xyz": [3.0931049999999995, -1.785808904944, 1.40068725]}, {"species": [{"element": "Pa", "occu": 1}], "abc": [0.832259, 0.167741, 0.75], "properties": {"magmom": 0.002}, "label": "Pa", "xyz": [3.093105, -3.5600993654879995, 4.20206175]}, {"species": [{"element": "Pa", "occu": 1}], "abc": [0.335483, 0.167741, 0.75], "properties": {"magmom": 0.002}, "label": "Pa", "xyz": [1.5565246705199998, -0.8986636746719997, 4.20206175]}, {"species": [{"element": "Pa", "occu": 1}], "abc": [0.832259, 0.664517, 0.75], "properties": {"magmom": 0.001}, "label": "Pa", "xyz": [4.62968532948, -0.8986636746719996, 4.20206175]}, {"species": [{"element": "Pa", "occu": 1}], "abc": [0.167741, 0.832259, 0.25], "properties": {"magmom": 0.001}, "label": "Pa", "xyz": [3.093105, 3.5600993654879995, 1.40068725]}, {"species": [{"element": "Pa", "occu": 1}], "abc": [0.167741, 0.335483, 0.25], "properties": {"magmom": 0.002}, "label": "Pa", "xyz": [1.5565246705199998, 0.8986636746719997, 1.40068725]}, {"species": [{"element": "Pa", "occu": 1}], "abc": [0.664517, 0.832259, 0.25], "properties": {"magmom": 0.001}, "label": "Pa", "xyz": [4.62968532948, 0.8986636746719996, 1.40068725]}]}, "task_ids": null, "uncorrected_energy_per_atom": null, "energy_per_atom": -78.136472725, "formation_energy_per_atom": 0.261593792812504, "energy_above_hull": 0.261593792812504, "is_stable": false, "equilibrium_reaction_energy_per_atom": null, "decomposes_to": null, "xas": null, "grain_boundaries": null, "band_gap": 0.0, "cbm": null, "vbm": null, "efermi": 14.03423812, "is_gap_direct": null, "is_metal": null, "es_source_calc_id": null, "bandstructure": null, "dos": null, "dos_energy_up": null, "dos_energy_down": null, "is_magnetic": null, "ordering": null, "total_magnetization": 0.0131519, "total_magnetization_normalized_vol": null, "total_magnetization_normalized_formula_units": null, "num_magnetic_sites": null, "num_unique_magnetic_sites": null, "types_of_magnetic_species": null, "bulk_modulus": null, "shear_modulus": null, "universal_anisotropy": null, "homogeneous_poisson": null, "e_total": null, "e_ionic": null, "e_electronic": null, "n": null, "e_ij_max": null, "weighted_surface_energy_EV_PER_ANG2": null, "weighted_surface_energy": null, "weighted_work_function": null, "surface_anisotropy": null, "shape_factor": null, "has_reconstructed": null, "possible_species": null, "has_props": null, "theoretical": null, "database_IDs": null, "fields_not_requested": ["builder_meta", "nsites", "elements", "nelements", "composition", "composition_reduced", "chemsys", "symmetry", "property_name", "deprecated", "deprecation_reasons", "last_updated", "origins", "warnings", "task_ids", "uncorrected_energy_per_atom", "equilibrium_reaction_energy_per_atom", "decomposes_to", "xas", "grain_boundaries", "cbm", "vbm", "is_gap_direct", "is_metal", "es_source_calc_id", "bandstructure", "dos", "dos_energy_up", "dos_energy_down", "is_magnetic", "ordering", "total_magnetization_normalized_vol", "total_magnetization_normalized_formula_units", "num_magnetic_sites", "num_unique_magnetic_sites", "types_of_magnetic_species", "bulk_modulus", "shear_modulus", "universal_anisotropy", "homogeneous_poisson", "e_total", "e_ionic", "e_electronic", "n", "e_ij_max", "weighted_surface_energy_EV_PER_ANG2", "weighted_surface_energy", "weighted_work_function", "surface_anisotropy", "shape_factor", "has_reconstructed", "possible_species", "has_props", "theoretical", "database_IDs"]}