{"builder_meta": null, "nsites": null, "elements": null, "nelements": null, "composition": null, "composition_reduced": null, "formula_pretty": "NpPd3", "formula_anonymous": "AB3", "chemsys": null, "volume": 284.29637207836373, "density": 12.996176552436745, "density_atomic": 17.768523254897733, "symmetry": null, "property_name": null, "material_id": "mp-1188998", "deprecated": null, "deprecation_reasons": null, "last_updated": null, "origins": null, "warnings": null, "structure": {"@module": "pymatgen.core.structure", "@class": "Structure", "charge": 0, "lattice": {"matrix": [[-2.937229819999999, -5.06285151, -0.0007170400000000001], [-2.91589448, 5.07727543, 0.0005207300000000001], [0.00033174, 0.00170852, -9.58005302]], "pbc": [true, true, true], "a": 5.8531858796686835, "b": 5.855012099196371, "c": 9.580053178093696, "alpha": 89.99722293471022, "beta": 90.00281513691229, "gamma": 120.01081657663633, "volume": 284.2963720783637}, "properties": {}, "sites": [{"species": [{"element": "Np", "occu": 1}], "abc": [0.0002152, 0.00021261, 0.50022539], "properties": {"magmom": 3.594}, "label": "Np", "xyz": [-0.0010860954117781997, 0.0008445989675431001, -4.79218580174478]}, {"species": [{"element": "Np", "occu": 1}], "abc": [-0.00018517, -0.00014722, 0.00023841000000000002], "properties": {"magmom": 3.596}, "label": "Np", "xyz": [0.0009732439212483998, 0.00019041905355529997, -0.0022839243280720002]}, {"species": [{"element": "Np", "occu": 1}], "abc": [0.66679653, 0.3333795, 0.749780999999999], "properties": {"magmom": 3.607}, "label": "Np", "xyz": [-2.930385363234744, -1.6819512587234553, -7.183246252465446]}, {"species": [{"element": "Np", "occu": 1}], "abc": [0.33326887, 0.6666983400000001, 0.24969056], "properties": {"magmom": 3.607}, "label": "Np", "xyz": [-2.922826440126492, 1.6981469005038643, -2.3919406006774477]}, {"species": [{"element": "Pd", "occu": 1}], "abc": [0.49946647, 0.99978983, 0.49988955], "properties": {"magmom": -0.007}, "label": "Pd", "xyz": [-4.382163622871957, 2.5483378384829733, -4.788805910023414]}, {"species": [{"element": "Pd", "occu": 1}], "abc": [0.49949503, 0.49967694, 0.49986986], "properties": {"magmom": -0.006}, "label": "Pd", "xyz": [-2.923971101359729, 0.008982321179796209, -4.7888777230433215]}, {"species": [{"element": "Pd", "occu": 1}], "abc": [0.00021773000000000002, 0.50008966, 0.49996465], "properties": {"magmom": -0.007}, "label": "Pd", "xyz": [-1.4586823438747942, 2.5388448084595994, -4.78942759955821]}, {"species": [{"element": "Pd", "occu": 1}], "abc": [0.50051561, 0.00023763, 0.9998894500000001], "properties": {"magmom": -0.007}, "label": "Pd", "xyz": [-1.470490575746629, -2.531121367783526, -9.579352711110564]}, {"species": [{"element": "Pd", "occu": 1}], "abc": [0.50049042, 0.5002763100000001, 0.99989209], "properties": {"magmom": -0.006}, "label": "Pd", "xyz": [-2.9284766128501567, 0.007840273970136497, -9.579117599246462]}, {"species": [{"element": "Pd", "occu": 1}], "abc": [0.99976507, 0.4998643, 0.9999708700000001], "properties": {"magmom": -0.007}, "label": "Pd", "xyz": [-4.3937595993810366, -2.5220048953397938, -9.58023053026438]}, {"species": [{"element": "Pd", "occu": 1}], "abc": [0.17376949, 0.825962699999999, 0.75008033], "properties": {"magmom": -0.019}, "label": "Pd", "xyz": [-2.9185721738014103, 3.3151525252134384, -7.185503826777434]}, {"species": [{"element": "Pd", "occu": 1}], "abc": [0.65213309, 0.8261001, 0.74986739], "properties": {"magmom": -0.019}, "label": "Pd", "xyz": [-4.324036719066232, 0.8939659044562408, -7.183806784574798]}, {"species": [{"element": "Pd", "occu": 1}], "abc": [0.173856899999999, 0.34771146, 0.7500958], "properties": {"magmom": -0.018000000000000002}, "label": "Pd", "xyz": [-1.5242987611588037, 0.8864967375747299, -7.185901132642325]}, {"species": [{"element": "Pd", "occu": 1}], "abc": [0.82622831, 0.17398988, 0.25029713], "properties": {"magmom": -0.02}, "label": "Pd", "xyz": [-2.9340755273581594, -3.2992490664430516, -2.3983616131510224]}, {"species": [{"element": "Pd", "occu": 1}], "abc": [0.34782273, 0.17389128, 0.25002018], "properties": {"magmom": -0.018000000000000002}, "label": "Pd", "xyz": [-1.5286009764074293, -0.8776537458796383, -2.395365432874028]}, {"species": [{"element": "Pd", "occu": 1}], "abc": [0.82614571, 0.65226667, 0.25022835], "properties": {"magmom": -0.018000000000000002}, "label": "Pd", "xyz": [-4.328437586865224, -0.8704879978140613, -2.397453584803946]}]}, "task_ids": null, "uncorrected_energy_per_atom": null, "energy_per_atom": -38.71999689375, "formation_energy_per_atom": -0.7436038034375011, "energy_above_hull": 0.0, "is_stable": true, "equilibrium_reaction_energy_per_atom": null, "decomposes_to": null, "xas": null, "grain_boundaries": null, "band_gap": 0.0, "cbm": null, "vbm": null, "efermi": 7.95949192, "is_gap_direct": null, "is_metal": null, "es_source_calc_id": null, "bandstructure": null, "dos": null, "dos_energy_up": null, "dos_energy_down": null, "is_magnetic": null, "ordering": null, "total_magnetization": 14.5332439, "total_magnetization_normalized_vol": null, "total_magnetization_normalized_formula_units": null, "num_magnetic_sites": null, "num_unique_magnetic_sites": null, "types_of_magnetic_species": null, "bulk_modulus": null, "shear_modulus": null, "universal_anisotropy": null, "homogeneous_poisson": null, "e_total": null, "e_ionic": null, "e_electronic": null, "n": null, "e_ij_max": null, "weighted_surface_energy_EV_PER_ANG2": null, "weighted_surface_energy": null, "weighted_work_function": null, "surface_anisotropy": null, "shape_factor": null, "has_reconstructed": null, "possible_species": null, "has_props": null, "theoretical": null, "database_IDs": null, "fields_not_requested": ["builder_meta", "nsites", "elements", "nelements", "composition", "composition_reduced", "chemsys", "symmetry", "property_name", "deprecated", "deprecation_reasons", "last_updated", "origins", "warnings", "task_ids", "uncorrected_energy_per_atom", "equilibrium_reaction_energy_per_atom", "decomposes_to", "xas", "grain_boundaries", "cbm", "vbm", "is_gap_direct", "is_metal", "es_source_calc_id", "bandstructure", "dos", "dos_energy_up", "dos_energy_down", "is_magnetic", "ordering", "total_magnetization_normalized_vol", "total_magnetization_normalized_formula_units", "num_magnetic_sites", "num_unique_magnetic_sites", "types_of_magnetic_species", "bulk_modulus", "shear_modulus", "universal_anisotropy", "homogeneous_poisson", "e_total", "e_ionic", "e_electronic", "n", "e_ij_max", "weighted_surface_energy_EV_PER_ANG2", "weighted_surface_energy", "weighted_work_function", "surface_anisotropy", "shape_factor", "has_reconstructed", "possible_species", "has_props", "theoretical", "database_IDs"]}