{
  "builder_meta": null,
  "nsites": null,
  "elements": null,
  "nelements": null,
  "composition": null,
  "composition_reduced": null,
  "formula_pretty": "NpPt",
  "formula_anonymous": "AB",
  "chemsys": null,
  "volume": 92.76272664080732,
  "density": 15.469410786749378,
  "density_atomic": 23.19068166020183,
  "symmetry": null,
  "property_name": null,
  "material_id": "mp-1066577",
  "deprecated": null,
  "deprecation_reasons": null,
  "last_updated": null,
  "origins": null,
  "warnings": null,
  "structure": {
    "@module": "pymatgen.core.structure",
    "@class": "Structure",
    "charge": 0,
    "lattice": {
      "matrix": [
        [-3.93503938, 4e-8, 0.0],
        [-0.0, -0.0, -4.363511499999999],
        [1.96752075, -5.40241944, -0.0]
      ],
      "pbc": [true, true, true],
      "a": 3.93503938,
      "b": 4.363511499999999,
      "c": 5.74954552181044,
      "alpha": 90.0,
      "beta": 110.01124598073241,
      "gamma": 90.0,
      "volume": 92.76272664080726
    },
    "properties": {},
    "sites": [
      {
        "species": [{ "element": "Np", "occu": 1 }],
        "abc": [0.86467807, 0.75, 0.72935514],
        "properties": { "magmom": 3.838 },
        "label": "Np",
        "xyz": [-1.9675208844032415, -3.940282352412799, -3.272633624999999]
      },
      {
        "species": [{ "element": "Np", "occu": 1 }],
        "abc": [0.13532193, 0.25, 0.27064486],
        "properties": { "magmom": 3.838 },
        "label": "Np",
        "xyz": [2.2544032415305892e-6, -1.462137047587201, -1.0908778749999997]
      },
      {
        "species": [{ "element": "Pt", "occu": 1 }],
        "abc": [0.5944322200000001, 0.75, 0.18886545],
        "properties": { "magmom": -0.025 },
        "label": "Pt",
        "xyz": [-1.9675175026077363, -1.0203303548470593, -3.272633624999999]
      },
      {
        "species": [{ "element": "Pt", "occu": 1 }],
        "abc": [0.40556778, 0.25, 0.81113455],
        "properties": { "magmom": -0.025 },
        "label": "Pt",
        "xyz": [-1.12739226376668e-6, -4.382089045152941, -1.0908778749999997]
      }
    ]
  },
  "task_ids": null,
  "uncorrected_energy_per_atom": null,
  "energy_per_atom": -68.2754816525,
  "formation_energy_per_atom": -1.019517436875006,
  "energy_above_hull": 0.0,
  "is_stable": true,
  "equilibrium_reaction_energy_per_atom": null,
  "decomposes_to": null,
  "xas": null,
  "grain_boundaries": null,
  "band_gap": 0.0,
  "cbm": null,
  "vbm": null,
  "efermi": 10.14640186,
  "is_gap_direct": null,
  "is_metal": null,
  "es_source_calc_id": null,
  "bandstructure": null,
  "dos": null,
  "dos_energy_up": null,
  "dos_energy_down": null,
  "is_magnetic": null,
  "ordering": null,
  "total_magnetization": 8.0920281,
  "total_magnetization_normalized_vol": null,
  "total_magnetization_normalized_formula_units": null,
  "num_magnetic_sites": null,
  "num_unique_magnetic_sites": null,
  "types_of_magnetic_species": null,
  "bulk_modulus": null,
  "shear_modulus": null,
  "universal_anisotropy": null,
  "homogeneous_poisson": null,
  "e_total": null,
  "e_ionic": null,
  "e_electronic": null,
  "n": null,
  "e_ij_max": null,
  "weighted_surface_energy_EV_PER_ANG2": null,
  "weighted_surface_energy": null,
  "weighted_work_function": null,
  "surface_anisotropy": null,
  "shape_factor": null,
  "has_reconstructed": null,
  "possible_species": null,
  "has_props": null,
  "theoretical": null,
  "database_IDs": null,
  "fields_not_requested": [
    "builder_meta",
    "nsites",
    "elements",
    "nelements",
    "composition",
    "composition_reduced",
    "chemsys",
    "symmetry",
    "property_name",
    "deprecated",
    "deprecation_reasons",
    "last_updated",
    "origins",
    "warnings",
    "task_ids",
    "uncorrected_energy_per_atom",
    "equilibrium_reaction_energy_per_atom",
    "decomposes_to",
    "xas",
    "grain_boundaries",
    "cbm",
    "vbm",
    "is_gap_direct",
    "is_metal",
    "es_source_calc_id",
    "bandstructure",
    "dos",
    "dos_energy_up",
    "dos_energy_down",
    "is_magnetic",
    "ordering",
    "total_magnetization_normalized_vol",
    "total_magnetization_normalized_formula_units",
    "num_magnetic_sites",
    "num_unique_magnetic_sites",
    "types_of_magnetic_species",
    "bulk_modulus",
    "shear_modulus",
    "universal_anisotropy",
    "homogeneous_poisson",
    "e_total",
    "e_ionic",
    "e_electronic",
    "n",
    "e_ij_max",
    "weighted_surface_energy_EV_PER_ANG2",
    "weighted_surface_energy",
    "weighted_work_function",
    "surface_anisotropy",
    "shape_factor",
    "has_reconstructed",
    "possible_species",
    "has_props",
    "theoretical",
    "database_IDs"
  ]
}
