{
  "builder_meta": null,
  "nsites": null,
  "elements": null,
  "nelements": null,
  "composition": null,
  "composition_reduced": null,
  "formula_pretty": "NpPt3",
  "formula_anonymous": "AB3",
  "chemsys": null,
  "volume": 285.3434433400762,
  "density": 19.140184930938858,
  "density_atomic": 17.833965208754762,
  "symmetry": null,
  "property_name": null,
  "material_id": "mp-1105856",
  "deprecated": null,
  "deprecation_reasons": null,
  "last_updated": null,
  "origins": null,
  "warnings": null,
  "structure": {
    "@module": "pymatgen.core.structure",
    "@class": "Structure",
    "charge": 0,
    "lattice": {
      "matrix": [
        [2.9223247, -5.06902607, 0.00465485],
        [2.92243222, 5.06934244, 0.0034940500000000003],
        [0.00272706, -0.000438199999999, 9.63082609]
      ],
      "pbc": [true, true, true],
      "a": 5.851070724081042,
      "b": 5.851397701649127,
      "c": 9.63082648606547,
      "alpha": 89.95994257403794,
      "beta": 89.94405651277599,
      "gamma": 120.0731605366494,
      "volume": 285.3434433400762
    },
    "properties": {},
    "sites": [
      {
        "species": [{ "element": "Np", "occu": 1 }],
        "abc": [-0.0, -0.0, 0.5],
        "properties": { "magmom": 3.083 },
        "label": "Np",
        "xyz": [0.00136353, -0.0002190999999995, 4.815413045]
      },
      {
        "species": [{ "element": "Np", "occu": 1 }],
        "abc": [-0.0, -0.0, 0.0],
        "properties": { "magmom": 3.083 },
        "label": "Np",
        "xyz": [0.0, 0.0, 0.0]
      },
      {
        "species": [{ "element": "Np", "occu": 1 }],
        "abc": [0.33330892, 0.666693499999999, 0.25003866],
        "properties": { "magmom": 3.308 },
        "label": "Np",
        "xyz": [2.9230853253390308, 1.6900364822377787, 2.4119598136865763]
      },
      {
        "species": [{ "element": "Np", "occu": 1 }],
        "abc": [0.66669108, 0.3333065, 0.74996134],
        "properties": { "magmom": 3.308 },
        "label": "Np",
        "xyz": [2.9243986546609664, -1.6901583122377823, 7.227015176313423]
      },
      {
        "species": [{ "element": "Pt", "occu": 1 }],
        "abc": [0.5, 0.5, 0.5],
        "properties": { "magmom": -0.006 },
        "label": "Pt",
        "xyz": [2.92374199, -6.091499999941161e-5, 4.819487495]
      },
      {
        "species": [{ "element": "Pt", "occu": 1 }],
        "abc": [0.5, -0.0, 0.5],
        "properties": { "magmom": -0.003 },
        "label": "Pt",
        "xyz": [1.4625258799999998, -2.534732134999999, 4.8177404699999995]
      },
      {
        "species": [{ "element": "Pt", "occu": 1 }],
        "abc": [-0.0, 0.5, 0.5],
        "properties": { "magmom": -0.006 },
        "label": "Pt",
        "xyz": [1.46257964, 2.5344521200000005, 4.81716007]
      },
      {
        "species": [{ "element": "Pt", "occu": 1 }],
        "abc": [0.5, 0.5, 0.0],
        "properties": { "magmom": -0.006 },
        "label": "Pt",
        "xyz": [2.92237846, 0.0001581850000000884, 0.00407445]
      },
      {
        "species": [{ "element": "Pt", "occu": 1 }],
        "abc": [0.5, -0.0, 0.0],
        "properties": { "magmom": -0.007 },
        "label": "Pt",
        "xyz": [1.46116235, -2.534513035, 0.002327425]
      },
      {
        "species": [{ "element": "Pt", "occu": 1 }],
        "abc": [-0.0, 0.5, 0.0],
        "properties": { "magmom": -0.004 },
        "label": "Pt",
        "xyz": [1.46121611, 2.53467122, 0.0017470250000000001]
      },
      {
        "species": [{ "element": "Pt", "occu": 1 }],
        "abc": [0.8272708, 0.65458291, 0.25004772000000003],
        "properties": { "magmom": -0.043000000000000003 },
        "label": "Pt",
        "xyz": [4.331209974409423, -0.8752618968989594, 2.4143040724210807]
      },
      {
        "species": [{ "element": "Pt", "occu": 1 }],
        "abc": [0.34536985000000003, 0.17274031, 0.24997863],
        "properties": { "magmom": -0.043000000000000003 },
        "label": "Pt",
        "xyz": [1.5147863976498113, -0.8751185294958989, 2.4097119198728847]
      },
      {
        "species": [{ "element": "Pt", "occu": 1 }],
        "abc": [0.82695471, 0.17302167000000002, 0.24999843],
        "properties": { "magmom": -0.051000000000000004 },
        "label": "Pt",
        "xyz": [2.92295603869906, -3.3148584382406403, 2.4121452986009455]
      },
      {
        "species": [{ "element": "Pt", "occu": 1 }],
        "abc": [0.1727292, 0.34541709, 0.74995228],
        "properties": { "magmom": -0.043000000000000003 },
        "label": "Pt",
        "xyz": [1.5162740055905766, 0.8751400668989603, 7.224670917578919]
      },
      {
        "species": [{ "element": "Pt", "occu": 1 }],
        "abc": [0.65463015, 0.82725969, 0.75002137],
        "properties": { "magmom": -0.043000000000000003 },
        "label": "Pt",
        "xyz": [4.332697582350189, 0.8749966994958995, 7.229263070127115]
      },
      {
        "species": [{ "element": "Pt", "occu": 1 }],
        "abc": [0.17304529, 0.82697833, 0.75000157],
        "properties": { "magmom": -0.051000000000000004 },
        "label": "Pt",
        "xyz": [2.92452794130094, 3.314736608240641, 7.226829691399054]
      }
    ]
  },
  "task_ids": null,
  "uncorrected_energy_per_atom": null,
  "energy_per_atom": -60.31432222375,
  "formation_energy_per_atom": -0.942481665937492,
  "energy_above_hull": 0.0,
  "is_stable": true,
  "equilibrium_reaction_energy_per_atom": null,
  "decomposes_to": null,
  "xas": null,
  "grain_boundaries": null,
  "band_gap": 0.0,
  "cbm": null,
  "vbm": null,
  "efermi": 9.33109651,
  "is_gap_direct": null,
  "is_metal": null,
  "es_source_calc_id": null,
  "bandstructure": null,
  "dos": null,
  "dos_energy_up": null,
  "dos_energy_down": null,
  "is_magnetic": null,
  "ordering": null,
  "total_magnetization": 12.644222599999999,
  "total_magnetization_normalized_vol": null,
  "total_magnetization_normalized_formula_units": null,
  "num_magnetic_sites": null,
  "num_unique_magnetic_sites": null,
  "types_of_magnetic_species": null,
  "bulk_modulus": null,
  "shear_modulus": null,
  "universal_anisotropy": null,
  "homogeneous_poisson": null,
  "e_total": null,
  "e_ionic": null,
  "e_electronic": null,
  "n": null,
  "e_ij_max": null,
  "weighted_surface_energy_EV_PER_ANG2": null,
  "weighted_surface_energy": null,
  "weighted_work_function": null,
  "surface_anisotropy": null,
  "shape_factor": null,
  "has_reconstructed": null,
  "possible_species": null,
  "has_props": null,
  "theoretical": null,
  "database_IDs": null,
  "fields_not_requested": [
    "builder_meta",
    "nsites",
    "elements",
    "nelements",
    "composition",
    "composition_reduced",
    "chemsys",
    "symmetry",
    "property_name",
    "deprecated",
    "deprecation_reasons",
    "last_updated",
    "origins",
    "warnings",
    "task_ids",
    "uncorrected_energy_per_atom",
    "equilibrium_reaction_energy_per_atom",
    "decomposes_to",
    "xas",
    "grain_boundaries",
    "cbm",
    "vbm",
    "is_gap_direct",
    "is_metal",
    "es_source_calc_id",
    "bandstructure",
    "dos",
    "dos_energy_up",
    "dos_energy_down",
    "is_magnetic",
    "ordering",
    "total_magnetization_normalized_vol",
    "total_magnetization_normalized_formula_units",
    "num_magnetic_sites",
    "num_unique_magnetic_sites",
    "types_of_magnetic_species",
    "bulk_modulus",
    "shear_modulus",
    "universal_anisotropy",
    "homogeneous_poisson",
    "e_total",
    "e_ionic",
    "e_electronic",
    "n",
    "e_ij_max",
    "weighted_surface_energy_EV_PER_ANG2",
    "weighted_surface_energy",
    "weighted_work_function",
    "surface_anisotropy",
    "shape_factor",
    "has_reconstructed",
    "possible_species",
    "has_props",
    "theoretical",
    "database_IDs"
  ]
}
