{
  "builder_meta": null,
  "nsites": null,
  "elements": null,
  "nelements": null,
  "composition": null,
  "composition_reduced": null,
  "formula_pretty": "NpRe2",
  "formula_anonymous": "AB2",
  "chemsys": null,
  "volume": 215.80538007103934,
  "density": 18.756821621404512,
  "density_atomic": 17.983781672586613,
  "symmetry": null,
  "property_name": null,
  "material_id": "mp-1103459",
  "deprecated": null,
  "deprecation_reasons": null,
  "last_updated": null,
  "origins": null,
  "warnings": null,
  "structure": {
    "@module": "pymatgen.core.structure",
    "@class": "Structure",
    "charge": 0,
    "lattice": {
      "matrix": [
        [-2.553378, -4.495266, 0.0],
        [-2.553378, 4.495266, 0.0],
        [0.0, 0.0, -9.400734]
      ],
      "pbc": [true, true, true],
      "a": 5.1698312952784065,
      "b": 5.1698312952784065,
      "c": 9.400734,
      "alpha": 90.0,
      "beta": 90.0,
      "gamma": 120.80556030402236,
      "volume": 215.80538007103934
    },
    "properties": {},
    "sites": [
      {
        "species": [{ "element": "Np", "occu": 1 }],
        "abc": [0.6690200000000001, 0.33098000000000005, 0.552647],
        "properties": { "magmom": 0.222 },
        "label": "Np",
        "xyz": [-2.5533780000000004, -1.51957971864, -5.195287442898]
      },
      {
        "species": [{ "element": "Np", "occu": 1 }],
        "abc": [0.33098000000000005, 0.6690200000000001, 0.447353],
        "properties": { "magmom": 0.222 },
        "label": "Np",
        "xyz": [-2.5533780000000004, 1.51957971864, -4.205446557102]
      },
      {
        "species": [{ "element": "Np", "occu": 1 }],
        "abc": [0.33098000000000005, 0.6690200000000001, 0.052647],
        "properties": { "magmom": 0.222 },
        "label": "Np",
        "xyz": [-2.5533780000000004, 1.51957971864, -0.49492044289799997]
      },
      {
        "species": [{ "element": "Np", "occu": 1 }],
        "abc": [0.6690200000000001, 0.33098000000000005, 0.947353],
        "properties": { "magmom": 0.222 },
        "label": "Np",
        "xyz": [-2.5533780000000004, -1.51957971864, -8.905813557102]
      },
      {
        "species": [{ "element": "Re", "occu": 1 }],
        "abc": [0.0, 0.0, 0.5],
        "properties": { "magmom": -0.053 },
        "label": "Re",
        "xyz": [0.0, 0.0, -4.700367]
      },
      {
        "species": [{ "element": "Re", "occu": 1 }],
        "abc": [0.0, 0.0, 0.0],
        "properties": { "magmom": -0.053 },
        "label": "Re",
        "xyz": [0.0, 0.0, 0.0]
      },
      {
        "species": [{ "element": "Re", "occu": 1 }],
        "abc": [0.169851, 0.336986, 0.75],
        "properties": { "magmom": -0.032 },
        "label": "Re",
        "xyz": [-1.294146445386, 0.75131628291, -7.0505505]
      },
      {
        "species": [{ "element": "Re", "occu": 1 }],
        "abc": [0.169067, 0.830932999999999, 0.75],
        "properties": { "magmom": -0.038 },
        "label": "Re",
        "xyz": [-2.5533779999999977, 2.975263726355996, -7.0505505]
      },
      {
        "species": [{ "element": "Re", "occu": 1 }],
        "abc": [0.663014, 0.830148999999999, 0.75],
        "properties": { "magmom": -0.032 },
        "label": "Re",
        "xyz": [-3.8126095546139975, 0.751316282909996, -7.0505505]
      },
      {
        "species": [{ "element": "Re", "occu": 1 }],
        "abc": [0.830148999999999, 0.663014, 0.25],
        "properties": { "magmom": -0.032 },
        "label": "Re",
        "xyz": [-3.8126095546139975, -0.751316282909996, -2.3501835]
      },
      {
        "species": [{ "element": "Re", "occu": 1 }],
        "abc": [0.830932999999999, 0.169067, 0.25],
        "properties": { "magmom": -0.038 },
        "label": "Re",
        "xyz": [-2.5533779999999977, -2.975263726355996, -2.3501835]
      },
      {
        "species": [{ "element": "Re", "occu": 1 }],
        "abc": [0.336986, 0.169851, 0.25],
        "properties": { "magmom": -0.032 },
        "label": "Re",
        "xyz": [-1.294146445386, -0.75131628291, -2.3501835]
      }
    ]
  },
  "task_ids": null,
  "uncorrected_energy_per_atom": null,
  "energy_per_atom": -62.330321015,
  "formation_energy_per_atom": 0.284825967083331,
  "energy_above_hull": 0.284825967083335,
  "is_stable": false,
  "equilibrium_reaction_energy_per_atom": null,
  "decomposes_to": null,
  "xas": null,
  "grain_boundaries": null,
  "band_gap": 0.0,
  "cbm": null,
  "vbm": null,
  "efermi": 10.21795028,
  "is_gap_direct": null,
  "is_metal": null,
  "es_source_calc_id": null,
  "bandstructure": null,
  "dos": null,
  "dos_energy_up": null,
  "dos_energy_down": null,
  "is_magnetic": null,
  "ordering": null,
  "total_magnetization": 0.458343799999999,
  "total_magnetization_normalized_vol": null,
  "total_magnetization_normalized_formula_units": null,
  "num_magnetic_sites": null,
  "num_unique_magnetic_sites": null,
  "types_of_magnetic_species": null,
  "bulk_modulus": null,
  "shear_modulus": null,
  "universal_anisotropy": null,
  "homogeneous_poisson": null,
  "e_total": null,
  "e_ionic": null,
  "e_electronic": null,
  "n": null,
  "e_ij_max": null,
  "weighted_surface_energy_EV_PER_ANG2": null,
  "weighted_surface_energy": null,
  "weighted_work_function": null,
  "surface_anisotropy": null,
  "shape_factor": null,
  "has_reconstructed": null,
  "possible_species": null,
  "has_props": null,
  "theoretical": null,
  "database_IDs": null,
  "fields_not_requested": [
    "builder_meta",
    "nsites",
    "elements",
    "nelements",
    "composition",
    "composition_reduced",
    "chemsys",
    "symmetry",
    "property_name",
    "deprecated",
    "deprecation_reasons",
    "last_updated",
    "origins",
    "warnings",
    "task_ids",
    "uncorrected_energy_per_atom",
    "equilibrium_reaction_energy_per_atom",
    "decomposes_to",
    "xas",
    "grain_boundaries",
    "cbm",
    "vbm",
    "is_gap_direct",
    "is_metal",
    "es_source_calc_id",
    "bandstructure",
    "dos",
    "dos_energy_up",
    "dos_energy_down",
    "is_magnetic",
    "ordering",
    "total_magnetization_normalized_vol",
    "total_magnetization_normalized_formula_units",
    "num_magnetic_sites",
    "num_unique_magnetic_sites",
    "types_of_magnetic_species",
    "bulk_modulus",
    "shear_modulus",
    "universal_anisotropy",
    "homogeneous_poisson",
    "e_total",
    "e_ionic",
    "e_electronic",
    "n",
    "e_ij_max",
    "weighted_surface_energy_EV_PER_ANG2",
    "weighted_surface_energy",
    "weighted_work_function",
    "surface_anisotropy",
    "shape_factor",
    "has_reconstructed",
    "possible_species",
    "has_props",
    "theoretical",
    "database_IDs"
  ]
}
