{
  "builder_meta": null,
  "nsites": null,
  "elements": null,
  "nelements": null,
  "composition": null,
  "composition_reduced": null,
  "formula_pretty": "NpSb2",
  "formula_anonymous": "AB2",
  "chemsys": null,
  "volume": 326.4704538807061,
  "density": 9.776348490932005,
  "density_atomic": 27.205871156725507,
  "symmetry": null,
  "property_name": null,
  "material_id": "mp-1095677",
  "deprecated": null,
  "deprecation_reasons": null,
  "last_updated": null,
  "origins": null,
  "warnings": null,
  "structure": {
    "@module": "pymatgen.core.structure",
    "@class": "Structure",
    "charge": 0,
    "lattice": {
      "matrix": [
        [3.06546, -3.087307, 0.0],
        [3.06546, 3.087307, 0.0],
        [0.0, 0.0, 17.247987]
      ],
      "pbc": [true, true, true],
      "a": 4.350690695033261,
      "b": 4.350690695033261,
      "c": 17.247987,
      "alpha": 90.0,
      "beta": 90.0,
      "gamma": 90.40688543364473,
      "volume": 326.4704538807061
    },
    "properties": {},
    "sites": [
      {
        "species": [{ "element": "Np", "occu": 1 }],
        "abc": [0.360664999999999, 0.360664999999999, 0.892316999999999],
        "properties": { "magmom": 3.782 },
        "label": "Np",
        "xyz": [2.2112082617999937, 0.0, 15.390672015878982]
      },
      {
        "species": [{ "element": "Np", "occu": 1 }],
        "abc": [0.639335, 0.639335, 0.107683],
        "properties": { "magmom": 3.782 },
        "label": "Np",
        "xyz": [3.9197117381999997, 0.0, 1.857314984121]
      },
      {
        "species": [{ "element": "Np", "occu": 1 }],
        "abc": [0.139335, 0.139335, 0.392316999999999],
        "properties": { "magmom": 3.782 },
        "label": "Np",
        "xyz": [0.8542517381999999, 0.0, 6.766678515878983]
      },
      {
        "species": [{ "element": "Np", "occu": 1 }],
        "abc": [0.860665, 0.860665, 0.607683],
        "properties": { "magmom": 3.782 },
        "label": "Np",
        "xyz": [5.2766682618, 0.0, 10.481308484120998]
      },
      {
        "species": [{ "element": "Sb", "occu": 1 }],
        "abc": [0.359834, 0.359834, 0.569485],
        "properties": { "magmom": -0.074 },
        "label": "Sb",
        "xyz": [2.20611346728, 0.0, 9.822469876695]
      },
      {
        "species": [{ "element": "Sb", "occu": 1 }],
        "abc": [0.640166, 0.640166, 0.430515],
        "properties": { "magmom": -0.074 },
        "label": "Sb",
        "xyz": [3.92480653272, 0.0, 7.425517123304999]
      },
      {
        "species": [{ "element": "Sb", "occu": 1 }],
        "abc": [0.140165999999999, 0.140165999999999, 0.069484999999999],
        "properties": { "magmom": -0.074 },
        "label": "Sb",
        "xyz": [0.859346532719994, 0.0, 1.1984763766949826]
      },
      {
        "species": [{ "element": "Sb", "occu": 1 }],
        "abc": [0.859834, 0.859834, 0.930515],
        "properties": { "magmom": -0.074 },
        "label": "Sb",
        "xyz": [5.27157346728, 0.0, 16.049510623304997]
      },
      {
        "species": [{ "element": "Sb", "occu": 1 }],
        "abc": [0.372388999999999, 0.872389, 0.75],
        "properties": { "magmom": -0.025 },
        "label": "Sb",
        "xyz": [3.815817167879997, 1.5436535000000027, 12.93599025]
      },
      {
        "species": [{ "element": "Sb", "occu": 1 }],
        "abc": [0.127611, 0.627610999999999, 0.25],
        "properties": { "magmom": -0.025 },
        "label": "Sb",
        "xyz": [2.315102832119997, 1.543653499999997, 4.31199675]
      },
      {
        "species": [{ "element": "Sb", "occu": 1 }],
        "abc": [0.627610999999999, 0.127611, 0.25],
        "properties": { "magmom": -0.025 },
        "label": "Sb",
        "xyz": [2.315102832119997, -1.543653499999997, 4.31199675]
      },
      {
        "species": [{ "element": "Sb", "occu": 1 }],
        "abc": [0.872389, 0.372388999999999, 0.75],
        "properties": { "magmom": -0.025 },
        "label": "Sb",
        "xyz": [3.815817167879997, -1.5436535000000027, 12.93599025]
      }
    ]
  },
  "task_ids": null,
  "uncorrected_energy_per_atom": null,
  "energy_per_atom": -7.435540675833334,
  "formation_energy_per_atom": -0.366946622083334,
  "energy_above_hull": 0.0,
  "is_stable": true,
  "equilibrium_reaction_energy_per_atom": null,
  "decomposes_to": null,
  "xas": null,
  "grain_boundaries": null,
  "band_gap": 0.0,
  "cbm": null,
  "vbm": null,
  "efermi": 9.718482120000001,
  "is_gap_direct": null,
  "is_metal": null,
  "es_source_calc_id": null,
  "bandstructure": null,
  "dos": null,
  "dos_energy_up": null,
  "dos_energy_down": null,
  "is_magnetic": null,
  "ordering": null,
  "total_magnetization": 15.479128,
  "total_magnetization_normalized_vol": null,
  "total_magnetization_normalized_formula_units": null,
  "num_magnetic_sites": null,
  "num_unique_magnetic_sites": null,
  "types_of_magnetic_species": null,
  "bulk_modulus": null,
  "shear_modulus": null,
  "universal_anisotropy": null,
  "homogeneous_poisson": null,
  "e_total": null,
  "e_ionic": null,
  "e_electronic": null,
  "n": null,
  "e_ij_max": null,
  "weighted_surface_energy_EV_PER_ANG2": null,
  "weighted_surface_energy": null,
  "weighted_work_function": null,
  "surface_anisotropy": null,
  "shape_factor": null,
  "has_reconstructed": null,
  "possible_species": null,
  "has_props": null,
  "theoretical": null,
  "database_IDs": null,
  "fields_not_requested": [
    "builder_meta",
    "nsites",
    "elements",
    "nelements",
    "composition",
    "composition_reduced",
    "chemsys",
    "symmetry",
    "property_name",
    "deprecated",
    "deprecation_reasons",
    "last_updated",
    "origins",
    "warnings",
    "task_ids",
    "uncorrected_energy_per_atom",
    "equilibrium_reaction_energy_per_atom",
    "decomposes_to",
    "xas",
    "grain_boundaries",
    "cbm",
    "vbm",
    "is_gap_direct",
    "is_metal",
    "es_source_calc_id",
    "bandstructure",
    "dos",
    "dos_energy_up",
    "dos_energy_down",
    "is_magnetic",
    "ordering",
    "total_magnetization_normalized_vol",
    "total_magnetization_normalized_formula_units",
    "num_magnetic_sites",
    "num_unique_magnetic_sites",
    "types_of_magnetic_species",
    "bulk_modulus",
    "shear_modulus",
    "universal_anisotropy",
    "homogeneous_poisson",
    "e_total",
    "e_ionic",
    "e_electronic",
    "n",
    "e_ij_max",
    "weighted_surface_energy_EV_PER_ANG2",
    "weighted_surface_energy",
    "weighted_work_function",
    "surface_anisotropy",
    "shape_factor",
    "has_reconstructed",
    "possible_species",
    "has_props",
    "theoretical",
    "database_IDs"
  ]
}
