{"builder_meta": null, "nsites": null, "elements": null, "nelements": null, "composition": null, "composition_reduced": null, "formula_pretty": "NpSe3", "formula_anonymous": "AB3", "chemsys": null, "volume": 224.49347115165642, "density": 7.010415481961349, "density_atomic": 28.061683893957053, "symmetry": null, "property_name": null, "material_id": "mp-1095184", "deprecated": null, "deprecation_reasons": null, "last_updated": null, "origins": null, "warnings": null, "structure": {"@module": "pymatgen.core.structure", "@class": "Structure", "charge": 0, "lattice": {"matrix": [[4.11822633, 0.0, 0.0], [0.0, 5.6793374, 0.00539088], [0.0, 1.24124055, 9.59951166]], "pbc": [true, true, true], "a": 4.11822633, "b": 5.679339958536197, "c": 9.679426750249224, "alpha": 82.57800713933034, "beta": 90.0, "gamma": 90.0, "volume": 224.49347115165642}, "properties": {}, "sites": [{"species": [{"element": "Np", "occu": 1}], "abc": [0.25, 0.71788042, 0.15065416], "properties": {"magmom": 3.226}, "label": "Np", "xyz": [1.0295565825, 4.2640831704518956, 1.450076372746075]}, {"species": [{"element": "Np", "occu": 1}], "abc": [0.75, 0.28211958, 0.84934584], "properties": {"magmom": 3.226}, "label": "Np", "xyz": [3.0886697475, 2.6564947795481038, 8.154826167253924]}, {"species": [{"element": "Se", "occu": 1}], "abc": [0.25, 0.53182823, 0.67663166], "properties": {"magmom": -0.065}, "label": "Se", "xyz": [1.0295565825, 3.860294610820615, 6.498200531863698]}, {"species": [{"element": "Se", "occu": 1}], "abc": [0.75, 0.46817177, 0.32336834000000003], "properties": {"magmom": -0.065}, "label": "Se", "xyz": [3.0886697475, 3.0602833391793847, 3.106702008136302]}, {"species": [{"element": "Se", "occu": 1}], "abc": [0.25, 0.23607896, 0.06081745], "properties": {"magmom": -0.08600000000000001}, "label": "Se", "xyz": [1.0295565825, 1.4162611519687014, 0.5850904937503518]}, {"species": [{"element": "Se", "occu": 1}], "abc": [0.75, 0.76392104, 0.9391825500000001], "properties": {"magmom": -0.08600000000000001}, "label": "Se", "xyz": [3.0886697475, 5.504316798031299, 9.019812046249648]}, {"species": [{"element": "Se", "occu": 1}], "abc": [0.25, 0.12225863000000001, 0.66869262], "properties": {"magmom": -0.066}, "label": "Se", "xyz": [1.0295565825, 1.524356405261503, 6.419781684249243]}, {"species": [{"element": "Se", "occu": 1}], "abc": [0.75, 0.87774137, 0.33130738], "properties": {"magmom": -0.066}, "label": "Se", "xyz": [3.0886697475, 5.396221544738497, 3.185120855750756]}]}, "task_ids": null, "uncorrected_energy_per_atom": null, "energy_per_atom": -7.08393648625, "formation_energy_per_atom": -1.225057957695313, "energy_above_hull": 0.0, "is_stable": true, "equilibrium_reaction_energy_per_atom": null, "decomposes_to": null, "xas": null, "grain_boundaries": null, "band_gap": 0.0, "cbm": null, "vbm": null, "efermi": 5.26682155, "is_gap_direct": null, "is_metal": null, "es_source_calc_id": null, "bandstructure": null, "dos": null, "dos_energy_up": null, "dos_energy_down": null, "is_magnetic": null, "ordering": null, "total_magnetization": 6.0, "total_magnetization_normalized_vol": null, "total_magnetization_normalized_formula_units": null, "num_magnetic_sites": null, "num_unique_magnetic_sites": null, "types_of_magnetic_species": null, "bulk_modulus": null, "shear_modulus": null, "universal_anisotropy": null, "homogeneous_poisson": null, "e_total": null, "e_ionic": null, "e_electronic": null, "n": null, "e_ij_max": null, "weighted_surface_energy_EV_PER_ANG2": null, "weighted_surface_energy": null, "weighted_work_function": null, "surface_anisotropy": null, "shape_factor": null, "has_reconstructed": null, "possible_species": null, "has_props": null, "theoretical": null, "database_IDs": null, "fields_not_requested": ["builder_meta", "nsites", "elements", "nelements", "composition", "composition_reduced", "chemsys", "symmetry", "property_name", "deprecated", "deprecation_reasons", "last_updated", "origins", "warnings", "task_ids", "uncorrected_energy_per_atom", "equilibrium_reaction_energy_per_atom", "decomposes_to", "xas", "grain_boundaries", "cbm", "vbm", "is_gap_direct", "is_metal", "es_source_calc_id", "bandstructure", "dos", "dos_energy_up", "dos_energy_down", "is_magnetic", "ordering", "total_magnetization_normalized_vol", "total_magnetization_normalized_formula_units", "num_magnetic_sites", "num_unique_magnetic_sites", "types_of_magnetic_species", "bulk_modulus", "shear_modulus", "universal_anisotropy", "homogeneous_poisson", "e_total", "e_ionic", "e_electronic", "n", "e_ij_max", "weighted_surface_energy_EV_PER_ANG2", "weighted_surface_energy", "weighted_work_function", "surface_anisotropy", "shape_factor", "has_reconstructed", "possible_species", "has_props", "theoretical", "database_IDs"]}