{"builder_meta": null, "nsites": null, "elements": null, "nelements": null, "composition": null, "composition_reduced": null, "formula_pretty": "NpSi2", "formula_anonymous": "AB2", "chemsys": null, "volume": 111.53604954281727, "density": 8.729409024071698, "density_atomic": 18.589341590469544, "symmetry": null, "property_name": null, "material_id": "mp-21298", "deprecated": null, "deprecation_reasons": null, "last_updated": null, "origins": null, "warnings": null, "structure": {"@module": "pymatgen.core.structure", "@class": "Structure", "charge": 0, "lattice": {"matrix": [[3.81060909, 1e-08, -1.06060747], [-0.29519919, 3.79915915, -1.06060852], [0.07829066, 0.08460784, 7.65706297]], "pbc": [true, true, true], "a": 3.9554557060104245, "b": 3.95545739978349, "c": 7.657930610848986, "alpha": 104.96677089897413, "beta": 104.96674646068334, "gamma": 89.99999765525473, "volume": 111.53604954281727}, "properties": {}, "sites": [{"species": [{"element": "Np", "occu": 1}], "abc": [0.875, 0.625, 0.25], "properties": {"magmom": 3.618999999999999}, "label": "Np", "xyz": [3.1693561249999997, 2.3956264375, 0.3233538812500001]}, {"species": [{"element": "Np", "occu": 1}], "abc": [0.125, 0.375, 0.75], "properties": {"magmom": 3.618999999999999}, "label": "Np", "xyz": [0.42434443499999996, 1.4881405625000002, 5.21249309875]}, {"species": [{"element": "Si", "occu": 1}], "abc": [0.70716092, 0.95716092, 0.91432285], "properties": {"magmom": -0.051000000000000004}, "label": "Si", "xyz": [2.4837436409406886, 3.7137655557131706, 5.235834456352754]}, {"species": [{"element": "Si", "occu": 1}], "abc": [0.45716092, 0.20716092, 0.41432385], "properties": {"magmom": -0.051000000000000004}, "label": "Si", "xyz": [1.713345509231349, 0.8220923553210112, 2.4679188859157235]}, {"species": [{"element": "Si", "occu": 1}], "abc": [0.54283908, 0.79283908, 0.5856761500000001], "properties": {"magmom": -0.051000000000000004}, "label": "Si", "xyz": [1.880355050768651, 3.0616746446789884, 3.0679280940842766]}, {"species": [{"element": "Si", "occu": 1}], "abc": [0.29283908000000003, 0.04283908, 0.08567715000000001], "properties": {"magmom": -0.051000000000000004}, "label": "Si", "xyz": [1.1099569190593108, 0.1700014442868288, 0.3000125236472463]}]}, "task_ids": null, "uncorrected_energy_per_atom": null, "energy_per_atom": -34.00786485166667, "formation_energy_per_atom": -0.48395127791666903, "energy_above_hull": 0.0, "is_stable": true, "equilibrium_reaction_energy_per_atom": null, "decomposes_to": null, "xas": null, "grain_boundaries": null, "band_gap": 0.0, "cbm": null, "vbm": null, "efermi": 11.07868757, "is_gap_direct": null, "is_metal": null, "es_source_calc_id": null, "bandstructure": null, "dos": null, "dos_energy_up": null, "dos_energy_down": null, "is_magnetic": null, "ordering": null, "total_magnetization": 7.5145172, "total_magnetization_normalized_vol": null, "total_magnetization_normalized_formula_units": null, "num_magnetic_sites": null, "num_unique_magnetic_sites": null, "types_of_magnetic_species": null, "bulk_modulus": null, "shear_modulus": null, "universal_anisotropy": null, "homogeneous_poisson": null, "e_total": null, "e_ionic": null, "e_electronic": null, "n": null, "e_ij_max": null, "weighted_surface_energy_EV_PER_ANG2": null, "weighted_surface_energy": null, "weighted_work_function": null, "surface_anisotropy": null, "shape_factor": null, "has_reconstructed": null, "possible_species": null, "has_props": null, "theoretical": null, "database_IDs": null, "fields_not_requested": ["builder_meta", "nsites", "elements", "nelements", "composition", "composition_reduced", "chemsys", "symmetry", "property_name", "deprecated", "deprecation_reasons", "last_updated", "origins", "warnings", "task_ids", "uncorrected_energy_per_atom", "equilibrium_reaction_energy_per_atom", "decomposes_to", "xas", "grain_boundaries", "cbm", "vbm", "is_gap_direct", "is_metal", "es_source_calc_id", "bandstructure", "dos", "dos_energy_up", "dos_energy_down", "is_magnetic", "ordering", "total_magnetization_normalized_vol", "total_magnetization_normalized_formula_units", "num_magnetic_sites", "num_unique_magnetic_sites", "types_of_magnetic_species", "bulk_modulus", "shear_modulus", "universal_anisotropy", "homogeneous_poisson", "e_total", "e_ionic", "e_electronic", "n", "e_ij_max", "weighted_surface_energy_EV_PER_ANG2", "weighted_surface_energy", "weighted_work_function", "surface_anisotropy", "shape_factor", "has_reconstructed", "possible_species", "has_props", "theoretical", "database_IDs"]}