{
  "builder_meta": null,
  "nsites": null,
  "elements": null,
  "nelements": null,
  "composition": null,
  "composition_reduced": null,
  "formula_pretty": "NpSi",
  "formula_anonymous": "AB",
  "chemsys": null,
  "volume": 165.12922455688417,
  "density": 10.662796483672901,
  "density_atomic": 20.64115306961052,
  "symmetry": null,
  "property_name": null,
  "material_id": "mp-19937",
  "deprecated": null,
  "deprecation_reasons": null,
  "last_updated": null,
  "origins": null,
  "warnings": null,
  "structure": {
    "@module": "pymatgen.core.structure",
    "@class": "Structure",
    "charge": 0,
    "lattice": {
      "matrix": [
        [2.14036, -6.050027, 0.0],
        [2.14036, 6.050027, 0.0],
        [0.0, 0.0, 6.376022]
      ],
      "pbc": [true, true, true],
      "a": 6.417473617423682,
      "b": 6.417473617423682,
      "c": 6.376022,
      "alpha": 90.0,
      "beta": 90.0,
      "gamma": 141.03479043149588,
      "volume": 165.12922455688417
    },
    "properties": {},
    "sites": [
      {
        "species": [{ "element": "Np", "occu": 1 }],
        "abc": [0.272377, 0.727623, 0.25],
        "properties": { "magmom": 3.735999999999999 },
        "label": "Np",
        "xyz": [2.14036, 2.754250591642, 1.5940055]
      },
      {
        "species": [{ "element": "Np", "occu": 1 }],
        "abc": [0.727623, 0.272377, 0.75],
        "properties": { "magmom": 3.735999999999999 },
        "label": "Np",
        "xyz": [2.14036, -2.754250591642, 4.7820165]
      },
      {
        "species": [{ "element": "Np", "occu": 1 }],
        "abc": [0.443926999999999, 0.556072999999999, 0.75],
        "properties": { "magmom": 3.71 },
        "label": "Np",
        "xyz": [2.140359999999996, 0.6784863279420001, 4.7820165]
      },
      {
        "species": [{ "element": "Np", "occu": 1 }],
        "abc": [0.556072999999999, 0.443926999999999, 0.25],
        "properties": { "magmom": 3.71 },
        "label": "Np",
        "xyz": [2.140359999999996, -0.6784863279420001, 1.5940055]
      },
      {
        "species": [{ "element": "Si", "occu": 1 }],
        "abc": [0.096165, 0.9038349999999991, 0.559337],
        "properties": { "magmom": -0.055 },
        "label": "Si",
        "xyz": [2.1403599999999976, 4.886425307089994, 3.5663450174139997]
      },
      {
        "species": [{ "element": "Si", "occu": 1 }],
        "abc": [0.9038349999999991, 0.096165, 0.440662999999999],
        "properties": { "magmom": -0.055 },
        "label": "Si",
        "xyz": [2.1403599999999976, -4.886425307089994, 2.8096769825859935]
      },
      {
        "species": [{ "element": "Si", "occu": 1 }],
        "abc": [0.096165, 0.9038349999999991, 0.940662999999999],
        "properties": { "magmom": -0.055 },
        "label": "Si",
        "xyz": [2.1403599999999976, 4.886425307089994, 5.997687982585994]
      },
      {
        "species": [{ "element": "Si", "occu": 1 }],
        "abc": [0.9038349999999991, 0.096165, 0.059336999999999],
        "properties": { "magmom": -0.055 },
        "label": "Si",
        "xyz": [2.1403599999999976, -4.886425307089994, 0.37833401741399364]
      }
    ]
  },
  "task_ids": null,
  "uncorrected_energy_per_atom": null,
  "energy_per_atom": -46.2275477875,
  "formation_energy_per_atom": -0.32855972437499703,
  "energy_above_hull": 0.034403734062500003,
  "is_stable": false,
  "equilibrium_reaction_energy_per_atom": null,
  "decomposes_to": null,
  "xas": null,
  "grain_boundaries": null,
  "band_gap": 0.0,
  "cbm": null,
  "vbm": null,
  "efermi": 11.1591961,
  "is_gap_direct": null,
  "is_metal": null,
  "es_source_calc_id": null,
  "bandstructure": null,
  "dos": null,
  "dos_energy_up": null,
  "dos_energy_down": null,
  "is_magnetic": null,
  "ordering": null,
  "total_magnetization": 16.0959285,
  "total_magnetization_normalized_vol": null,
  "total_magnetization_normalized_formula_units": null,
  "num_magnetic_sites": null,
  "num_unique_magnetic_sites": null,
  "types_of_magnetic_species": null,
  "bulk_modulus": null,
  "shear_modulus": null,
  "universal_anisotropy": null,
  "homogeneous_poisson": null,
  "e_total": null,
  "e_ionic": null,
  "e_electronic": null,
  "n": null,
  "e_ij_max": null,
  "weighted_surface_energy_EV_PER_ANG2": null,
  "weighted_surface_energy": null,
  "weighted_work_function": null,
  "surface_anisotropy": null,
  "shape_factor": null,
  "has_reconstructed": null,
  "possible_species": null,
  "has_props": null,
  "theoretical": null,
  "database_IDs": null,
  "fields_not_requested": [
    "builder_meta",
    "nsites",
    "elements",
    "nelements",
    "composition",
    "composition_reduced",
    "chemsys",
    "symmetry",
    "property_name",
    "deprecated",
    "deprecation_reasons",
    "last_updated",
    "origins",
    "warnings",
    "task_ids",
    "uncorrected_energy_per_atom",
    "equilibrium_reaction_energy_per_atom",
    "decomposes_to",
    "xas",
    "grain_boundaries",
    "cbm",
    "vbm",
    "is_gap_direct",
    "is_metal",
    "es_source_calc_id",
    "bandstructure",
    "dos",
    "dos_energy_up",
    "dos_energy_down",
    "is_magnetic",
    "ordering",
    "total_magnetization_normalized_vol",
    "total_magnetization_normalized_formula_units",
    "num_magnetic_sites",
    "num_unique_magnetic_sites",
    "types_of_magnetic_species",
    "bulk_modulus",
    "shear_modulus",
    "universal_anisotropy",
    "homogeneous_poisson",
    "e_total",
    "e_ionic",
    "e_electronic",
    "n",
    "e_ij_max",
    "weighted_surface_energy_EV_PER_ANG2",
    "weighted_surface_energy",
    "weighted_work_function",
    "surface_anisotropy",
    "shape_factor",
    "has_reconstructed",
    "possible_species",
    "has_props",
    "theoretical",
    "database_IDs"
  ]
}
