{
  "builder_meta": null,
  "nsites": null,
  "elements": null,
  "nelements": null,
  "composition": null,
  "composition_reduced": null,
  "formula_pretty": "OF",
  "formula_anonymous": "AB",
  "chemsys": null,
  "volume": 56.58733316493036,
  "density": 2.05400100016712,
  "density_atomic": 14.14683329123259,
  "symmetry": null,
  "property_name": null,
  "material_id": "mp-1238792",
  "deprecated": null,
  "deprecation_reasons": null,
  "last_updated": null,
  "origins": null,
  "warnings": null,
  "structure": {
    "@module": "pymatgen.core.structure",
    "@class": "Structure",
    "charge": 0,
    "lattice": {
      "matrix": [
        [-2.917617, 0.0, 0.863124999999999],
        [-1.586479, 2.596259, 0.0],
        [-3.474217, -0.340118, -6.381115]
      ],
      "pbc": [true, true, true],
      "a": 3.04260968977521,
      "b": 3.0426101315354224,
      "c": 7.273547460506324,
      "alpha": 77.92711281654118,
      "beta": 77.92711950110498,
      "gamma": 59.99999595263725,
      "volume": 56.58733316493035
    },
    "properties": {},
    "sites": [
      {
        "species": [{ "element": "O", "occu": 1 }],
        "abc": [0.392922999999999, 0.392922999999999, 0.821230999999999],
        "properties": { "magmom": 1.788 },
        "label": "O",
        "xyz": [-4.622897613734992, 0.7408144297989977, -4.901227788189995]
      },
      {
        "species": [{ "element": "O", "occu": 1 }],
        "abc": [0.607077, 0.607077, 0.178768999999999],
        "properties": { "magmom": 1.788 },
        "label": "O",
        "xyz": [-3.3554153862649962, 1.5153265702010001, -0.6167622118099942]
      },
      {
        "species": [{ "element": "F", "occu": 1 }],
        "abc": [0.890574, 0.890574, 0.328277999999999],
        "properties": { "magmom": 0.807 },
        "label": "F",
        "xyz": [-5.151739799429996, 2.200507505862, -1.3261029862199947]
      },
      {
        "species": [{ "element": "F", "occu": 1 }],
        "abc": [0.109426, 0.109426, 0.671721999999999],
        "properties": { "magmom": 0.807 },
        "label": "F",
        "xyz": [-2.826573200569997, 0.05563349413800031, -4.1918870137799935]
      }
    ]
  },
  "task_ids": null,
  "uncorrected_energy_per_atom": null,
  "energy_per_atom": -2.8899997125,
  "formation_energy_per_atom": 0.540906977499999,
  "energy_above_hull": 0.912948766874999,
  "is_stable": false,
  "equilibrium_reaction_energy_per_atom": null,
  "decomposes_to": null,
  "xas": null,
  "grain_boundaries": null,
  "band_gap": 0.6031999999999991,
  "cbm": null,
  "vbm": null,
  "efermi": -3.37598551,
  "is_gap_direct": null,
  "is_metal": null,
  "es_source_calc_id": null,
  "bandstructure": null,
  "dos": null,
  "dos_energy_up": null,
  "dos_energy_down": null,
  "is_magnetic": null,
  "ordering": null,
  "total_magnetization": 6.0004075,
  "total_magnetization_normalized_vol": null,
  "total_magnetization_normalized_formula_units": null,
  "num_magnetic_sites": null,
  "num_unique_magnetic_sites": null,
  "types_of_magnetic_species": null,
  "bulk_modulus": null,
  "shear_modulus": null,
  "universal_anisotropy": null,
  "homogeneous_poisson": null,
  "e_total": null,
  "e_ionic": null,
  "e_electronic": null,
  "n": null,
  "e_ij_max": null,
  "weighted_surface_energy_EV_PER_ANG2": null,
  "weighted_surface_energy": null,
  "weighted_work_function": null,
  "surface_anisotropy": null,
  "shape_factor": null,
  "has_reconstructed": null,
  "possible_species": null,
  "has_props": null,
  "theoretical": null,
  "database_IDs": null,
  "fields_not_requested": [
    "builder_meta",
    "nsites",
    "elements",
    "nelements",
    "composition",
    "composition_reduced",
    "chemsys",
    "symmetry",
    "property_name",
    "deprecated",
    "deprecation_reasons",
    "last_updated",
    "origins",
    "warnings",
    "task_ids",
    "uncorrected_energy_per_atom",
    "equilibrium_reaction_energy_per_atom",
    "decomposes_to",
    "xas",
    "grain_boundaries",
    "cbm",
    "vbm",
    "is_gap_direct",
    "is_metal",
    "es_source_calc_id",
    "bandstructure",
    "dos",
    "dos_energy_up",
    "dos_energy_down",
    "is_magnetic",
    "ordering",
    "total_magnetization_normalized_vol",
    "total_magnetization_normalized_formula_units",
    "num_magnetic_sites",
    "num_unique_magnetic_sites",
    "types_of_magnetic_species",
    "bulk_modulus",
    "shear_modulus",
    "universal_anisotropy",
    "homogeneous_poisson",
    "e_total",
    "e_ionic",
    "e_electronic",
    "n",
    "e_ij_max",
    "weighted_surface_energy_EV_PER_ANG2",
    "weighted_surface_energy",
    "weighted_work_function",
    "surface_anisotropy",
    "shape_factor",
    "has_reconstructed",
    "possible_species",
    "has_props",
    "theoretical",
    "database_IDs"
  ]
}
