{
  "builder_meta": null,
  "nsites": null,
  "elements": null,
  "nelements": null,
  "composition": null,
  "composition_reduced": null,
  "formula_pretty": "OF2",
  "formula_anonymous": "AB2",
  "chemsys": null,
  "volume": 163.29880947970207,
  "density": 2.19628815325912,
  "density_atomic": 13.608234123308506,
  "symmetry": null,
  "property_name": null,
  "material_id": "mp-1095223",
  "deprecated": null,
  "deprecation_reasons": null,
  "last_updated": null,
  "origins": null,
  "warnings": null,
  "structure": {
    "@module": "pymatgen.core.structure",
    "@class": "Structure",
    "charge": 0,
    "lattice": {
      "matrix": [
        [0.0, 0.0, -3.14975327],
        [0.0, -5.41134256, 0.0],
        [-9.58079297, 0.0, 0.0]
      ],
      "pbc": [true, true, true],
      "a": 3.14975327,
      "b": 5.41134256,
      "c": 9.58079297,
      "alpha": 90.0,
      "beta": 90.0,
      "gamma": 90.0,
      "volume": 163.29880947970207
    },
    "properties": {},
    "sites": [
      {
        "species": [{ "element": "O", "occu": 1 }],
        "abc": [0.75, 0.41895507, 0.11958139],
        "properties": { "magmom": 0.0 },
        "label": "O",
        "xyz": [-1.1456845406548282, -2.267109401018779, -2.3623149525000002]
      },
      {
        "species": [{ "element": "O", "occu": 1 }],
        "abc": [0.75, 0.08104493, 0.61958139],
        "properties": { "magmom": 0.0 },
        "label": "O",
        "xyz": [-5.936081025654828, -0.4385618789812208, -2.3623149525000002]
      },
      {
        "species": [{ "element": "O", "occu": 1 }],
        "abc": [0.25, 0.58104493, 0.88041861],
        "properties": { "magmom": 0.0 },
        "label": "O",
        "xyz": [-8.43510842934517, -3.1442331589812205, -0.7874383175]
      },
      {
        "species": [{ "element": "O", "occu": 1 }],
        "abc": [0.25, 0.91895507, 0.38041861],
        "properties": { "magmom": 0.0 },
        "label": "O",
        "xyz": [-3.6447119443451714, -4.9727806810187785, -0.7874383175]
      },
      {
        "species": [{ "element": "F", "occu": 1 }],
        "abc": [0.75, 0.30909972, 0.546802999999999],
        "properties": { "magmom": -0.0 },
        "label": "F",
        "xyz": [-5.2388063383749, -1.672644470120083, -2.3623149525000002]
      },
      {
        "species": [{ "element": "F", "occu": 1 }],
        "abc": [0.75, 0.19090028, 0.046801999999999004],
        "properties": { "magmom": -0.0 },
        "label": "F",
        "xyz": [-0.44840027258193044, -1.0330268098799167, -2.3623149525000002]
      },
      {
        "species": [{ "element": "F", "occu": 1 }],
        "abc": [0.25, 0.69090028, 0.453196999999999],
        "properties": { "magmom": -0.0 },
        "label": "F",
        "xyz": [-4.341986631625081, -3.7386980898799167, -0.7874383175]
      },
      {
        "species": [{ "element": "F", "occu": 1 }],
        "abc": [0.25, 0.80909972, 0.953197],
        "properties": { "magmom": -0.0 },
        "label": "F",
        "xyz": [-9.132383116625089, -4.378315750120083, -0.7874383175]
      },
      {
        "species": [{ "element": "F", "occu": 1 }],
        "abc": [0.75, 0.34794089, 0.2617305],
        "properties": { "magmom": -0.0 },
        "label": "F",
        "xyz": [-2.5075857344345844, -1.8828273464212784, -2.3623149525000002]
      },
      {
        "species": [{ "element": "F", "occu": 1 }],
        "abc": [0.75, 0.15205911, 0.7617305],
        "properties": { "magmom": -0.0 },
        "label": "F",
        "xyz": [-7.2979822194345845, -0.8228439335787215, -2.3623149525000002]
      },
      {
        "species": [{ "element": "F", "occu": 1 }],
        "abc": [0.25, 0.65205911, 0.738269499999999],
        "properties": { "magmom": -0.0 },
        "label": "F",
        "xyz": [-7.073207235565405, -3.5285152135787214, -0.7874383175]
      },
      {
        "species": [{ "element": "F", "occu": 1 }],
        "abc": [0.25, 0.8479408900000001, 0.2382695],
        "properties": { "magmom": -0.0 },
        "label": "F",
        "xyz": [-2.2828107505654147, -4.588498626421278, -0.7874383175]
      }
    ]
  },
  "task_ids": null,
  "uncorrected_energy_per_atom": null,
  "energy_per_atom": -3.4212776375000002,
  "formation_energy_per_atom": -0.496055719166667,
  "energy_above_hull": 0.0,
  "is_stable": true,
  "equilibrium_reaction_energy_per_atom": null,
  "decomposes_to": null,
  "xas": null,
  "grain_boundaries": null,
  "band_gap": 2.1241,
  "cbm": null,
  "vbm": null,
  "efermi": -2.17179391,
  "is_gap_direct": null,
  "is_metal": null,
  "es_source_calc_id": null,
  "bandstructure": null,
  "dos": null,
  "dos_energy_up": null,
  "dos_energy_down": null,
  "is_magnetic": null,
  "ordering": null,
  "total_magnetization": 0.0,
  "total_magnetization_normalized_vol": null,
  "total_magnetization_normalized_formula_units": null,
  "num_magnetic_sites": null,
  "num_unique_magnetic_sites": null,
  "types_of_magnetic_species": null,
  "bulk_modulus": null,
  "shear_modulus": null,
  "universal_anisotropy": null,
  "homogeneous_poisson": null,
  "e_total": null,
  "e_ionic": null,
  "e_electronic": null,
  "n": null,
  "e_ij_max": null,
  "weighted_surface_energy_EV_PER_ANG2": null,
  "weighted_surface_energy": null,
  "weighted_work_function": null,
  "surface_anisotropy": null,
  "shape_factor": null,
  "has_reconstructed": null,
  "possible_species": null,
  "has_props": null,
  "theoretical": null,
  "database_IDs": null,
  "fields_not_requested": [
    "builder_meta",
    "nsites",
    "elements",
    "nelements",
    "composition",
    "composition_reduced",
    "chemsys",
    "symmetry",
    "property_name",
    "deprecated",
    "deprecation_reasons",
    "last_updated",
    "origins",
    "warnings",
    "task_ids",
    "uncorrected_energy_per_atom",
    "equilibrium_reaction_energy_per_atom",
    "decomposes_to",
    "xas",
    "grain_boundaries",
    "cbm",
    "vbm",
    "is_gap_direct",
    "is_metal",
    "es_source_calc_id",
    "bandstructure",
    "dos",
    "dos_energy_up",
    "dos_energy_down",
    "is_magnetic",
    "ordering",
    "total_magnetization_normalized_vol",
    "total_magnetization_normalized_formula_units",
    "num_magnetic_sites",
    "num_unique_magnetic_sites",
    "types_of_magnetic_species",
    "bulk_modulus",
    "shear_modulus",
    "universal_anisotropy",
    "homogeneous_poisson",
    "e_total",
    "e_ionic",
    "e_electronic",
    "n",
    "e_ij_max",
    "weighted_surface_energy_EV_PER_ANG2",
    "weighted_surface_energy",
    "weighted_work_function",
    "surface_anisotropy",
    "shape_factor",
    "has_reconstructed",
    "possible_species",
    "has_props",
    "theoretical",
    "database_IDs"
  ]
}
