{"builder_meta": null, "nsites": null, "elements": null, "nelements": null, "composition": null, "composition_reduced": null, "formula_pretty": "OF3", "formula_anonymous": "AB3", "chemsys": null, "volume": 102.65118285238667, "density": 2.361597743424292, "density_atomic": 12.831397856548334, "symmetry": null, "property_name": null, "material_id": "mp-974002", "deprecated": null, "deprecation_reasons": null, "last_updated": null, "origins": null, "warnings": null, "structure": {"@module": "pymatgen.core.structure", "@class": "Structure", "charge": 0, "lattice": {"matrix": [[2.933807, 0.0, 0.0], [0.09050000000000001, 6.307259, 0.0], [0.104202999999999, 3.096615, 5.547429]], "pbc": [true, true, true], "a": 2.933807, "b": 6.307908238321242, "c": 6.3540421176976, "alpha": 60.82158242767038, "beta": 89.06033676669544, "gamma": 89.17794524676155, "volume": 102.65118285238667}, "properties": {}, "sites": [{"species": [{"element": "O", "occu": 1}], "abc": [0.006678, 0.351747, 0.320990999999999], "properties": {"magmom": 0.28}, "label": "O", "xyz": [0.08487329181899958, 3.212544976937997, 1.7806747821389945]}, {"species": [{"element": "O", "occu": 1}], "abc": [0.940498, 0.572987, 0.744294999999999], "properties": {"magmom": 0.986}, "label": "O", "xyz": [2.8886527112709985, 5.918772474057997, 4.128923667554995]}, {"species": [{"element": "F", "occu": 1}], "abc": [0.626092, 0.204649, 0.167509], "properties": {"magmom": 0.617}, "label": "F", "xyz": [1.8728087670709999, 1.809485129126, 0.9292442843609999]}, {"species": [{"element": "F", "occu": 1}], "abc": [0.795458, 0.233002, 0.55149], "properties": {"magmom": 0.026000000000000002}, "label": "F", "xyz": [2.412273842075999, 3.177356167868, 3.05935161921]}, {"species": [{"element": "F", "occu": 1}], "abc": [0.8708500000000001, 0.600681, 0.218678999999999], "properties": {"magmom": 0.023}, "label": "F", "xyz": [2.6320544642869996, 4.465815314963997, 1.2131062262909946]}, {"species": [{"element": "F", "occu": 1}], "abc": [0.333329, 0.838228, 0.7462300000000001], "properties": {"magmom": -0.194}, "label": "F", "xyz": [1.1315419921929992, 7.597708108501999, 4.13965794267]}, {"species": [{"element": "F", "occu": 1}], "abc": [0.246427999999999, 0.83374, 0.443915], "properties": {"magmom": -0.14}, "label": "F", "xyz": [0.8446829361409965, 6.633247966385, 2.462586944535]}, {"species": [{"element": "F", "occu": 1}], "abc": [0.180671, 0.364967, 0.806891999999999], "properties": {"magmom": 0.197}, "label": "F", "xyz": [0.6471639250729991, 4.800575266032997, 4.476176080667995]}]}, "task_ids": null, "uncorrected_energy_per_atom": null, "energy_per_atom": -2.82967845125, "formation_energy_per_atom": -0.15729891875000002, "energy_above_hull": 0.21474287062499903, "is_stable": false, "equilibrium_reaction_energy_per_atom": null, "decomposes_to": null, "xas": null, "grain_boundaries": null, "band_gap": 0.0, "cbm": null, "vbm": null, "efermi": -2.740534369999999, "is_gap_direct": null, "is_metal": null, "es_source_calc_id": null, "bandstructure": null, "dos": null, "dos_energy_up": null, "dos_energy_down": null, "is_magnetic": null, "ordering": null, "total_magnetization": 1.9999512, "total_magnetization_normalized_vol": null, "total_magnetization_normalized_formula_units": null, "num_magnetic_sites": null, "num_unique_magnetic_sites": null, "types_of_magnetic_species": null, "bulk_modulus": null, "shear_modulus": null, "universal_anisotropy": null, "homogeneous_poisson": null, "e_total": null, "e_ionic": null, "e_electronic": null, "n": null, "e_ij_max": null, "weighted_surface_energy_EV_PER_ANG2": null, "weighted_surface_energy": null, "weighted_work_function": null, "surface_anisotropy": null, "shape_factor": null, "has_reconstructed": null, "possible_species": null, "has_props": null, "theoretical": null, "database_IDs": null, "fields_not_requested": ["builder_meta", "nsites", "elements", "nelements", "composition", "composition_reduced", "chemsys", "symmetry", "property_name", "deprecated", "deprecation_reasons", "last_updated", "origins", "warnings", "task_ids", "uncorrected_energy_per_atom", "equilibrium_reaction_energy_per_atom", "decomposes_to", "xas", "grain_boundaries", "cbm", "vbm", "is_gap_direct", "is_metal", "es_source_calc_id", "bandstructure", "dos", "dos_energy_up", "dos_energy_down", "is_magnetic", "ordering", "total_magnetization_normalized_vol", "total_magnetization_normalized_formula_units", "num_magnetic_sites", "num_unique_magnetic_sites", "types_of_magnetic_species", "bulk_modulus", "shear_modulus", "universal_anisotropy", "homogeneous_poisson", "e_total", "e_ionic", "e_electronic", "n", "e_ij_max", "weighted_surface_energy_EV_PER_ANG2", "weighted_surface_energy", "weighted_work_function", "surface_anisotropy", "shape_factor", "has_reconstructed", "possible_species", "has_props", "theoretical", "database_IDs"]}