{
  "builder_meta": null,
  "nsites": null,
  "elements": null,
  "nelements": null,
  "composition": null,
  "composition_reduced": null,
  "formula_pretty": "Os2C3",
  "formula_anonymous": "A2B3",
  "chemsys": null,
  "volume": 393.6208776769834,
  "density": 14.056193504000502,
  "density_atomic": 9.840521941924585,
  "symmetry": null,
  "property_name": null,
  "material_id": "mp-1197685",
  "deprecated": null,
  "deprecation_reasons": null,
  "last_updated": null,
  "origins": null,
  "warnings": null,
  "structure": {
    "@module": "pymatgen.core.structure",
    "@class": "Structure",
    "charge": 0,
    "lattice": {
      "matrix": [
        [5.121099, 0.0, 0.0],
        [0.0, 7.625445, 0.0],
        [0.0, 0.0, 10.07975]
      ],
      "pbc": [true, true, true],
      "a": 5.121099,
      "b": 7.625445,
      "c": 10.07975,
      "alpha": 90.0,
      "beta": 90.0,
      "gamma": 90.0,
      "volume": 393.6208776769834
    },
    "properties": {},
    "sites": [
      {
        "species": [{ "element": "Os", "occu": 1 }],
        "abc": [0.748788, 0.31386000000000003, 0.7665000000000001],
        "properties": { "magmom": 0.0 },
        "label": "Os",
        "xyz": [3.834617478012, 2.3933221677, 7.726128375000001]
      },
      {
        "species": [{ "element": "Os", "occu": 1 }],
        "abc": [0.248787999999999, 0.18614000000000003, 0.7335],
        "properties": { "magmom": 0.0 },
        "label": "Os",
        "xyz": [1.274067978011995, 1.4194003323000002, 7.393496625000001]
      },
      {
        "species": [{ "element": "Os", "occu": 1 }],
        "abc": [0.251212, 0.18614000000000003, 0.2665],
        "properties": { "magmom": 0.0 },
        "label": "Os",
        "xyz": [1.286481521988, 1.4194003323000002, 2.686253375]
      },
      {
        "species": [{ "element": "Os", "occu": 1 }],
        "abc": [0.751212, 0.31386000000000003, 0.2335],
        "properties": { "magmom": 0.0 },
        "label": "Os",
        "xyz": [3.847031021988, 2.3933221677, 2.353621625]
      },
      {
        "species": [{ "element": "Os", "occu": 1 }],
        "abc": [0.251212, 0.6861400000000001, 0.2335],
        "properties": { "magmom": 0.0 },
        "label": "Os",
        "xyz": [1.286481521988, 5.232122832300001, 2.353621625]
      },
      {
        "species": [{ "element": "Os", "occu": 1 }],
        "abc": [0.751212, 0.81386, 0.2665],
        "properties": { "magmom": 0.0 },
        "label": "Os",
        "xyz": [3.847031021988, 6.2060446677000005, 2.686253375]
      },
      {
        "species": [{ "element": "Os", "occu": 1 }],
        "abc": [0.748788, 0.81386, 0.7335],
        "properties": { "magmom": 0.0 },
        "label": "Os",
        "xyz": [3.834617478012, 6.2060446677000005, 7.393496625000001]
      },
      {
        "species": [{ "element": "Os", "occu": 1 }],
        "abc": [0.248787999999999, 0.6861400000000001, 0.7665000000000001],
        "properties": { "magmom": 0.0 },
        "label": "Os",
        "xyz": [1.274067978011995, 5.232122832300001, 7.726128375000001]
      },
      {
        "species": [{ "element": "Os", "occu": 1 }],
        "abc": [0.75, 0.424597, 0.5],
        "properties": { "magmom": 0.0 },
        "label": "Os",
        "xyz": [3.84082425, 3.237741070665, 5.039875]
      },
      {
        "species": [{ "element": "Os", "occu": 1 }],
        "abc": [0.25, 0.075403, 0.0],
        "properties": { "magmom": 0.0 },
        "label": "Os",
        "xyz": [1.28027475, 0.574981429335, 0.0]
      },
      {
        "species": [{ "element": "Os", "occu": 1 }],
        "abc": [0.25, 0.575403, 0.5],
        "properties": { "magmom": 0.0 },
        "label": "Os",
        "xyz": [1.28027475, 4.387703929335, 5.039875]
      },
      {
        "species": [{ "element": "Os", "occu": 1 }],
        "abc": [0.75, 0.924597, 0.0],
        "properties": { "magmom": 0.0 },
        "label": "Os",
        "xyz": [3.84082425, 7.050463570665, 0.0]
      },
      {
        "species": [{ "element": "Os", "occu": 1 }],
        "abc": [0.25, 0.01711, 0.5],
        "properties": { "magmom": 0.0 },
        "label": "Os",
        "xyz": [1.28027475, 0.13047136395, 5.039875]
      },
      {
        "species": [{ "element": "Os", "occu": 1 }],
        "abc": [0.75, 0.48289000000000004, 0.0],
        "properties": { "magmom": 0.0 },
        "label": "Os",
        "xyz": [3.84082425, 3.6822511360500005, 0.0]
      },
      {
        "species": [{ "element": "Os", "occu": 1 }],
        "abc": [0.75, 0.98289, 0.5],
        "properties": { "magmom": 0.0 },
        "label": "Os",
        "xyz": [3.84082425, 7.49497363605, 5.039875]
      },
      {
        "species": [{ "element": "Os", "occu": 1 }],
        "abc": [0.25, 0.5171100000000001, 0.0],
        "properties": { "magmom": 0.0 },
        "label": "Os",
        "xyz": [1.28027475, 3.9431938639500004, 0.0]
      },
      {
        "species": [{ "element": "C", "occu": 1 }],
        "abc": [0.5398000000000001, 0.20099000000000003, 0.575151],
        "properties": { "magmom": -0.0 },
        "label": "C",
        "xyz": [2.7643692402, 1.5326381905500002, 5.79737829225]
      },
      {
        "species": [{ "element": "C", "occu": 1 }],
        "abc": [0.0398, 0.29901, 0.924848999999999],
        "properties": { "magmom": -0.0 },
        "label": "C",
        "xyz": [0.20381974020000002, 2.28008430945, 9.32224670774999]
      },
      {
        "species": [{ "element": "C", "occu": 1 }],
        "abc": [0.4602, 0.29901, 0.075151],
        "properties": { "magmom": -0.0 },
        "label": "C",
        "xyz": [2.3567297598, 2.28008430945, 0.75750329225]
      },
      {
        "species": [{ "element": "C", "occu": 1 }],
        "abc": [0.9602, 0.20099000000000003, 0.424849],
        "properties": { "magmom": -0.0 },
        "label": "C",
        "xyz": [4.9172792598, 1.5326381905500002, 4.28237170775]
      },
      {
        "species": [{ "element": "C", "occu": 1 }],
        "abc": [0.4602, 0.7990100000000001, 0.424849],
        "properties": { "magmom": -0.0 },
        "label": "C",
        "xyz": [2.3567297598, 6.092806809450001, 4.28237170775]
      },
      {
        "species": [{ "element": "C", "occu": 1 }],
        "abc": [0.9602, 0.70099, 0.075151],
        "properties": { "magmom": -0.0 },
        "label": "C",
        "xyz": [4.9172792598, 5.34536069055, 0.75750329225]
      },
      {
        "species": [{ "element": "C", "occu": 1 }],
        "abc": [0.5398000000000001, 0.70099, 0.924848999999999],
        "properties": { "magmom": -0.0 },
        "label": "C",
        "xyz": [2.7643692402, 5.34536069055, 9.32224670774999]
      },
      {
        "species": [{ "element": "C", "occu": 1 }],
        "abc": [0.0398, 0.7990100000000001, 0.575151],
        "properties": { "magmom": -0.0 },
        "label": "C",
        "xyz": [0.20381974020000002, 6.092806809450001, 5.79737829225]
      },
      {
        "species": [{ "element": "C", "occu": 1 }],
        "abc": [0.915184999999999, 0.119005, 0.11793000000000001],
        "properties": { "magmom": -0.0 },
        "label": "C",
        "xyz": [4.686752988314995, 0.907466082225, 1.1887049175000002]
      },
      {
        "species": [{ "element": "C", "occu": 1 }],
        "abc": [0.415184999999999, 0.380995, 0.38207],
        "properties": { "magmom": -0.0 },
        "label": "C",
        "xyz": [2.126203488314995, 2.905256417775, 3.8511700825000004]
      },
      {
        "species": [{ "element": "C", "occu": 1 }],
        "abc": [0.084815, 0.380995, 0.6179300000000001],
        "properties": { "magmom": -0.0 },
        "label": "C",
        "xyz": [0.43434601168500003, 2.905256417775, 6.228579917500001]
      },
      {
        "species": [{ "element": "C", "occu": 1 }],
        "abc": [0.584815, 0.119005, 0.88207],
        "properties": { "magmom": -0.0 },
        "label": "C",
        "xyz": [2.994895511685, 0.907466082225, 8.891045082500002]
      },
      {
        "species": [{ "element": "C", "occu": 1 }],
        "abc": [0.084815, 0.880995, 0.88207],
        "properties": { "magmom": -0.0 },
        "label": "C",
        "xyz": [0.43434601168500003, 6.717978917775, 8.891045082500002]
      },
      {
        "species": [{ "element": "C", "occu": 1 }],
        "abc": [0.584815, 0.619005, 0.6179300000000001],
        "properties": { "magmom": -0.0 },
        "label": "C",
        "xyz": [2.994895511685, 4.720188582225, 6.228579917500001]
      },
      {
        "species": [{ "element": "C", "occu": 1 }],
        "abc": [0.915184999999999, 0.619005, 0.38207],
        "properties": { "magmom": -0.0 },
        "label": "C",
        "xyz": [4.686752988314995, 4.720188582225, 3.8511700825000004]
      },
      {
        "species": [{ "element": "C", "occu": 1 }],
        "abc": [0.415184999999999, 0.880995, 0.11793000000000001],
        "properties": { "magmom": -0.0 },
        "label": "C",
        "xyz": [2.126203488314995, 6.717978917775, 1.1887049175000002]
      },
      {
        "species": [{ "element": "C", "occu": 1 }],
        "abc": [0.612812999999999, 0.571299, 0.188222],
        "properties": { "magmom": 0.0 },
        "label": "C",
        "xyz": [3.138276041486995, 4.356409103055, 1.8972307045]
      },
      {
        "species": [{ "element": "C", "occu": 1 }],
        "abc": [0.112813, 0.928701, 0.311778],
        "properties": { "magmom": 0.0 },
        "label": "C",
        "xyz": [0.577726541487, 7.081758396945, 3.1426442955000002]
      },
      {
        "species": [{ "element": "C", "occu": 1 }],
        "abc": [0.387187, 0.928701, 0.688222],
        "properties": { "magmom": 0.0 },
        "label": "C",
        "xyz": [1.982822958513, 7.081758396945, 6.9371057045]
      },
      {
        "species": [{ "element": "C", "occu": 1 }],
        "abc": [0.887187, 0.571299, 0.811778],
        "properties": { "magmom": -0.0 },
        "label": "C",
        "xyz": [4.543372458513, 4.356409103055, 8.1825192955]
      },
      {
        "species": [{ "element": "C", "occu": 1 }],
        "abc": [0.387187, 0.428701, 0.811778],
        "properties": { "magmom": 0.0 },
        "label": "C",
        "xyz": [1.982822958513, 3.269035896945, 8.1825192955]
      },
      {
        "species": [{ "element": "C", "occu": 1 }],
        "abc": [0.887187, 0.071299, 0.688222],
        "properties": { "magmom": 0.0 },
        "label": "C",
        "xyz": [4.543372458513, 0.543686603055, 6.9371057045]
      },
      {
        "species": [{ "element": "C", "occu": 1 }],
        "abc": [0.612812999999999, 0.071299, 0.311778],
        "properties": { "magmom": 0.0 },
        "label": "C",
        "xyz": [3.138276041486995, 0.543686603055, 3.1426442955000002]
      },
      {
        "species": [{ "element": "C", "occu": 1 }],
        "abc": [0.112813, 0.428701, 0.188222],
        "properties": { "magmom": -0.0 },
        "label": "C",
        "xyz": [0.577726541487, 3.269035896945, 1.8972307045]
      }
    ]
  },
  "task_ids": null,
  "uncorrected_energy_per_atom": null,
  "energy_per_atom": -8.85597612225,
  "formation_energy_per_atom": 1.17217014525,
  "energy_above_hull": 1.17217014525,
  "is_stable": false,
  "equilibrium_reaction_energy_per_atom": null,
  "decomposes_to": null,
  "xas": null,
  "grain_boundaries": null,
  "band_gap": 0.0766,
  "cbm": null,
  "vbm": null,
  "efermi": 8.3362513,
  "is_gap_direct": null,
  "is_metal": null,
  "es_source_calc_id": null,
  "bandstructure": null,
  "dos": null,
  "dos_energy_up": null,
  "dos_energy_down": null,
  "is_magnetic": null,
  "ordering": null,
  "total_magnetization": 0.0001227,
  "total_magnetization_normalized_vol": null,
  "total_magnetization_normalized_formula_units": null,
  "num_magnetic_sites": null,
  "num_unique_magnetic_sites": null,
  "types_of_magnetic_species": null,
  "bulk_modulus": null,
  "shear_modulus": null,
  "universal_anisotropy": null,
  "homogeneous_poisson": null,
  "e_total": null,
  "e_ionic": null,
  "e_electronic": null,
  "n": null,
  "e_ij_max": null,
  "weighted_surface_energy_EV_PER_ANG2": null,
  "weighted_surface_energy": null,
  "weighted_work_function": null,
  "surface_anisotropy": null,
  "shape_factor": null,
  "has_reconstructed": null,
  "possible_species": null,
  "has_props": null,
  "theoretical": null,
  "database_IDs": null,
  "fields_not_requested": [
    "builder_meta",
    "nsites",
    "elements",
    "nelements",
    "composition",
    "composition_reduced",
    "chemsys",
    "symmetry",
    "property_name",
    "deprecated",
    "deprecation_reasons",
    "last_updated",
    "origins",
    "warnings",
    "task_ids",
    "uncorrected_energy_per_atom",
    "equilibrium_reaction_energy_per_atom",
    "decomposes_to",
    "xas",
    "grain_boundaries",
    "cbm",
    "vbm",
    "is_gap_direct",
    "is_metal",
    "es_source_calc_id",
    "bandstructure",
    "dos",
    "dos_energy_up",
    "dos_energy_down",
    "is_magnetic",
    "ordering",
    "total_magnetization_normalized_vol",
    "total_magnetization_normalized_formula_units",
    "num_magnetic_sites",
    "num_unique_magnetic_sites",
    "types_of_magnetic_species",
    "bulk_modulus",
    "shear_modulus",
    "universal_anisotropy",
    "homogeneous_poisson",
    "e_total",
    "e_ionic",
    "e_electronic",
    "n",
    "e_ij_max",
    "weighted_surface_energy_EV_PER_ANG2",
    "weighted_surface_energy",
    "weighted_work_function",
    "surface_anisotropy",
    "shape_factor",
    "has_reconstructed",
    "possible_species",
    "has_props",
    "theoretical",
    "database_IDs"
  ]
}
