{
  "builder_meta": null,
  "nsites": null,
  "elements": null,
  "nelements": null,
  "composition": null,
  "composition_reduced": null,
  "formula_pretty": "Os3W",
  "formula_anonymous": "AB3",
  "chemsys": null,
  "volume": 116.38961924383547,
  "density": 21.52986752704853,
  "density_atomic": 14.548702405479434,
  "symmetry": null,
  "property_name": null,
  "material_id": "mp-1186374",
  "deprecated": null,
  "deprecation_reasons": null,
  "last_updated": null,
  "origins": null,
  "warnings": null,
  "structure": {
    "@module": "pymatgen.core.structure",
    "@class": "Structure",
    "charge": 0,
    "lattice": {
      "matrix": [
        [5.52852866, -1.266e-5, -4.139999999999998e-6],
        [-2.7642739, 4.78784293, 7.17e-6],
        [-3.11e-6, 4.09e-6, 4.39709007]
      ],
      "pbc": [true, true, true],
      "a": 5.528528660016046,
      "b": 5.528530556723333,
      "c": 4.397090070003002,
      "alpha": 89.9998592761355,
      "beta": 90.00008343016508,
      "gamma": 120.00023437844926,
      "volume": 116.38961924383547
    },
    "properties": {},
    "sites": [
      {
        "species": [{ "element": "Os", "occu": 1 }],
        "abc": [0.16638002000000002, 0.33274839, 0.249982899999999],
        "properties": { "magmom": -0.0 },
        "label": "Os",
        "xyz": [2.8241830533215768e-5, 1.5931459425893906, 1.099199024252472]
      },
      {
        "species": [{ "element": "Os", "occu": 1 }],
        "abc": [0.66725161, 0.83362198, 0.249982899999999],
        "properties": { "magmom": -0.0 },
        "label": "Os",
        "xyz": [1.3845593900890014, 3.99124367826028, 1.0992005419077298]
      },
      {
        "species": [{ "element": "Os", "occu": 1 }],
        "abc": [0.16637623, 0.8336267700000001, 0.25003389],
        "properties": { "magmom": 0.0 },
        "label": "Os",
        "xyz": [-1.3845577443599493, 3.991272953318775, 1.099426823188821]
      },
      {
        "species": [{ "element": "Os", "occu": 1 }],
        "abc": [0.83361847, 0.66725361, 0.75001608],
        "properties": { "magmom": 0.0 },
        "label": "Os",
        "xyz": [2.764209531546562, 3.1946979931114146, 3.297889590736243]
      },
      {
        "species": [{ "element": "Os", "occu": 1 }],
        "abc": [0.33274739000000003, 0.16638253, 0.75001608],
        "properties": { "magmom": 0.0 },
        "label": "Os",
        "xyz": [1.379674264510222, 0.7966122749198227, 3.2978880730968707]
      },
      {
        "species": [{ "element": "Os", "occu": 1 }],
        "abc": [0.83362798, 0.16637202, 0.74996507],
        "properties": { "magmom": 0.0 },
        "label": "Os",
        "xyz": [4.148836014240262, 0.796555613333728, 3.297661703811401]
      },
      {
        "species": [{ "element": "W", "occu": 1 }],
        "abc": [0.33333343, 0.66666957, 0.7500091600000001],
        "properties": { "magmom": 0.0 },
        "label": "W",
        "xyz": [-1.6203712606929527e-5, 3.1919080349068807, 3.2978612298654584]
      },
      {
        "species": [{ "element": "W", "occu": 1 }],
        "abc": [0.66666588, 0.33332912000000003, 0.24998992],
        "properties": { "magmom": -0.0 },
        "label": "W",
        "xyz": [2.7642676602295015, 1.5959200530238538, 1.0992278248051415]
      }
    ]
  },
  "task_ids": null,
  "uncorrected_energy_per_atom": null,
  "energy_per_atom": -52.63134122875,
  "formation_energy_per_atom": -0.05047099625000501,
  "energy_above_hull": 0.0,
  "is_stable": true,
  "equilibrium_reaction_energy_per_atom": null,
  "decomposes_to": null,
  "xas": null,
  "grain_boundaries": null,
  "band_gap": 0.0,
  "cbm": null,
  "vbm": null,
  "efermi": 7.89630259,
  "is_gap_direct": null,
  "is_metal": null,
  "es_source_calc_id": null,
  "bandstructure": null,
  "dos": null,
  "dos_energy_up": null,
  "dos_energy_down": null,
  "is_magnetic": null,
  "ordering": null,
  "total_magnetization": 0.0,
  "total_magnetization_normalized_vol": null,
  "total_magnetization_normalized_formula_units": null,
  "num_magnetic_sites": null,
  "num_unique_magnetic_sites": null,
  "types_of_magnetic_species": null,
  "bulk_modulus": null,
  "shear_modulus": null,
  "universal_anisotropy": null,
  "homogeneous_poisson": null,
  "e_total": null,
  "e_ionic": null,
  "e_electronic": null,
  "n": null,
  "e_ij_max": null,
  "weighted_surface_energy_EV_PER_ANG2": null,
  "weighted_surface_energy": null,
  "weighted_work_function": null,
  "surface_anisotropy": null,
  "shape_factor": null,
  "has_reconstructed": null,
  "possible_species": null,
  "has_props": null,
  "theoretical": null,
  "database_IDs": null,
  "fields_not_requested": [
    "builder_meta",
    "nsites",
    "elements",
    "nelements",
    "composition",
    "composition_reduced",
    "chemsys",
    "symmetry",
    "property_name",
    "deprecated",
    "deprecation_reasons",
    "last_updated",
    "origins",
    "warnings",
    "task_ids",
    "uncorrected_energy_per_atom",
    "equilibrium_reaction_energy_per_atom",
    "decomposes_to",
    "xas",
    "grain_boundaries",
    "cbm",
    "vbm",
    "is_gap_direct",
    "is_metal",
    "es_source_calc_id",
    "bandstructure",
    "dos",
    "dos_energy_up",
    "dos_energy_down",
    "is_magnetic",
    "ordering",
    "total_magnetization_normalized_vol",
    "total_magnetization_normalized_formula_units",
    "num_magnetic_sites",
    "num_unique_magnetic_sites",
    "types_of_magnetic_species",
    "bulk_modulus",
    "shear_modulus",
    "universal_anisotropy",
    "homogeneous_poisson",
    "e_total",
    "e_ionic",
    "e_electronic",
    "n",
    "e_ij_max",
    "weighted_surface_energy_EV_PER_ANG2",
    "weighted_surface_energy",
    "weighted_work_function",
    "surface_anisotropy",
    "shape_factor",
    "has_reconstructed",
    "possible_species",
    "has_props",
    "theoretical",
    "database_IDs"
  ]
}
