{
  "builder_meta": null,
  "nsites": null,
  "elements": null,
  "nelements": null,
  "composition": null,
  "composition_reduced": null,
  "formula_pretty": "OsBr4",
  "formula_anonymous": "AB4",
  "chemsys": null,
  "volume": 1197.9192142869979,
  "density": 5.653931856856652,
  "density_atomic": 29.94798035717495,
  "symmetry": null,
  "property_name": null,
  "material_id": "mp-28301",
  "deprecated": null,
  "deprecation_reasons": null,
  "last_updated": null,
  "origins": null,
  "warnings": null,
  "structure": {
    "@module": "pymatgen.core.structure",
    "@class": "Structure",
    "charge": 0,
    "lattice": {
      "matrix": [
        [6.38207203, 0.0, 0.0],
        [0.0, 12.59781404, 0.0],
        [0.0, 0.0, 14.89946369]
      ],
      "pbc": [true, true, true],
      "a": 6.38207203,
      "b": 12.59781404,
      "c": 14.89946369,
      "alpha": 90.0,
      "beta": 90.0,
      "gamma": 90.0,
      "volume": 1197.9192142869979
    },
    "properties": {},
    "sites": [
      {
        "species": [{ "element": "Os", "occu": 1 }],
        "abc": [0.9026662, 0.12970241, 0.317194],
        "properties": { "magmom": 1.339 },
        "label": "Os",
        "xyz": [5.760880707446385, 1.6339668417198363, 4.72602048568586]
      },
      {
        "species": [{ "element": "Os", "occu": 1 }],
        "abc": [0.4026662, 0.37029759, 0.682806],
        "properties": { "magmom": 1.339 },
        "label": "Os",
        "xyz": [2.569844692446386, 4.664940178280164, 10.17344320431414]
      },
      {
        "species": [{ "element": "Os", "occu": 1 }],
        "abc": [0.09734704, 0.62964225, 0.18286761],
        "properties": { "magmom": 1.339 },
        "label": "Os",
        "xyz": [0.6212758211872912, 7.932115977227189, 2.724629315272081]
      },
      {
        "species": [{ "element": "Os", "occu": 1 }],
        "abc": [0.59734704, 0.87035775, 0.81713239],
        "properties": { "magmom": 1.339 },
        "label": "Os",
        "xyz": [3.812311836187291, 10.96460508277281, 12.174834374727919]
      },
      {
        "species": [{ "element": "Os", "occu": 1 }],
        "abc": [0.09734704, 0.87035775, 0.6828676100000001],
        "properties": { "magmom": 1.339 },
        "label": "Os",
        "xyz": [0.6212758211872912, 10.96460508277281, 10.174361160272081]
      },
      {
        "species": [{ "element": "Os", "occu": 1 }],
        "abc": [0.59734704, 0.62964225, 0.31713239],
        "properties": { "magmom": 1.339 },
        "label": "Os",
        "xyz": [3.812311836187291, 7.932115977227189, 4.725102529727919]
      },
      {
        "species": [{ "element": "Os", "occu": 1 }],
        "abc": [0.9026662, 0.37029759, 0.817194],
        "properties": { "magmom": 1.339 },
        "label": "Os",
        "xyz": [5.760880707446385, 4.664940178280164, 12.175752330685858]
      },
      {
        "species": [{ "element": "Os", "occu": 1 }],
        "abc": [0.4026662, 0.12970241, 0.182806],
        "properties": { "magmom": 1.339 },
        "label": "Os",
        "xyz": [2.569844692446386, 1.6339668417198363, 2.72371135931414]
      },
      {
        "species": [{ "element": "Br", "occu": 1 }],
        "abc": [0.55028518, 0.24879757, 0.07396797000000001],
        "properties": { "magmom": 0.17300000000000001 },
        "label": "Br",
        "xyz": [3.5119596558015154, 3.1343055204638826, 1.1020830832380093]
      },
      {
        "species": [{ "element": "Br", "occu": 1 }],
        "abc": [0.05028518, 0.25120243000000003, 0.92603203],
        "properties": { "magmom": 0.17300000000000001 },
        "label": "Br",
        "xyz": [0.32092364080151536, 3.1646014995361176, 13.79738060676199]
      },
      {
        "species": [{ "element": "Br", "occu": 1 }],
        "abc": [0.44960694, 0.74873652, 0.42603498],
        "properties": { "magmom": 0.17300000000000001 },
        "label": "Br",
        "xyz": [2.8694238762678883, 9.43244344391674, 6.347692715179876]
      },
      {
        "species": [{ "element": "Br", "occu": 1 }],
        "abc": [0.94960694, 0.75126348, 0.57396502],
        "properties": { "magmom": 0.17300000000000001 },
        "label": "Br",
        "xyz": [6.060459891267888, 9.464277616083258, 8.551770974820124]
      },
      {
        "species": [{ "element": "Br", "occu": 1 }],
        "abc": [0.44960694, 0.75126348, 0.9260349800000001],
        "properties": { "magmom": 0.17300000000000001 },
        "label": "Br",
        "xyz": [2.8694238762678883, 9.464277616083258, 13.797424560179877]
      },
      {
        "species": [{ "element": "Br", "occu": 1 }],
        "abc": [0.94960694, 0.74873652, 0.07396502],
        "properties": { "magmom": 0.17300000000000001 },
        "label": "Br",
        "xyz": [6.060459891267888, 9.43244344391674, 1.1020391298201238]
      },
      {
        "species": [{ "element": "Br", "occu": 1 }],
        "abc": [0.55028518, 0.25120243000000003, 0.57396797],
        "properties": { "magmom": 0.17300000000000001 },
        "label": "Br",
        "xyz": [3.5119596558015154, 3.1646014995361176, 8.55181492823801]
      },
      {
        "species": [{ "element": "Br", "occu": 1 }],
        "abc": [0.05028518, 0.24879757, 0.42603203],
        "properties": { "magmom": 0.17300000000000001 },
        "label": "Br",
        "xyz": [0.32092364080151536, 3.1343055204638826, 6.347648761761991]
      },
      {
        "species": [{ "element": "Br", "occu": 1 }],
        "abc": [0.07097464, 0.2378612, 0.1899758],
        "properties": { "magmom": 0.045 },
        "label": "Br",
        "xyz": [0.4529652647833192, 2.996531164931248, 2.830537534078702]
      },
      {
        "species": [{ "element": "Br", "occu": 1 }],
        "abc": [0.57097464, 0.2621388, 0.8100242],
        "properties": { "magmom": 0.045 },
        "label": "Br",
        "xyz": [3.644001279783319, 3.302375855068752, 12.068926155921297]
      },
      {
        "species": [{ "element": "Br", "occu": 1 }],
        "abc": [0.92909427, 0.73781521, 0.31000665],
        "properties": { "magmom": 0.045 },
        "label": "Br",
        "xyz": [5.929546553800268, 9.294858811463548, 4.618932825333538]
      },
      {
        "species": [{ "element": "Br", "occu": 1 }],
        "abc": [0.42909427, 0.7621847900000001, 0.6899933500000001],
        "properties": { "magmom": 0.045 },
        "label": "Br",
        "xyz": [2.738510538800268, 9.601862248536452, 10.280530864666462]
      },
      {
        "species": [{ "element": "Br", "occu": 1 }],
        "abc": [0.92909427, 0.7621847900000001, 0.81000665],
        "properties": { "magmom": 0.045 },
        "label": "Br",
        "xyz": [5.929546553800268, 9.601862248536452, 12.068664670333538]
      },
      {
        "species": [{ "element": "Br", "occu": 1 }],
        "abc": [0.42909427, 0.73781521, 0.18999335],
        "properties": { "magmom": 0.045 },
        "label": "Br",
        "xyz": [2.738510538800268, 9.294858811463548, 2.8307990196664616]
      },
      {
        "species": [{ "element": "Br", "occu": 1 }],
        "abc": [0.07097464, 0.2621388, 0.689975799999999],
        "properties": { "magmom": 0.045 },
        "label": "Br",
        "xyz": [0.4529652647833192, 3.302375855068752, 10.280269379078687]
      },
      {
        "species": [{ "element": "Br", "occu": 1 }],
        "abc": [0.57097464, 0.2378612, 0.31002419999999903],
        "properties": { "magmom": 0.045 },
        "label": "Br",
        "xyz": [3.644001279783319, 2.996531164931248, 4.619194310921284]
      },
      {
        "species": [{ "element": "Br", "occu": 1 }],
        "abc": [0.23271273, 0.02069428, 0.30984349],
        "properties": { "magmom": 0.045 },
        "label": "Br",
        "xyz": [1.485189405157942, 0.2607026911316912, 4.616501828837878]
      },
      {
        "species": [{ "element": "Br", "occu": 1 }],
        "abc": [0.73271273, 0.47930572, 0.69015651],
        "properties": { "magmom": 0.045 },
        "label": "Br",
        "xyz": [4.676225420157942, 6.038204328868308, 10.282961861162121]
      },
      {
        "species": [{ "element": "Br", "occu": 1 }],
        "abc": [0.76730159, 0.52065061, 0.19018176],
        "properties": { "magmom": 0.045 },
        "label": "Br",
        "xyz": [4.896974016113528, 6.559059564592564, 2.8336062276202942]
      },
      {
        "species": [{ "element": "Br", "occu": 1 }],
        "abc": [0.26730159000000003, 0.97934939, 0.80981824],
        "properties": { "magmom": 0.045 },
        "label": "Br",
        "xyz": [1.705938001113528, 12.337661495407435, 12.065857462379705]
      },
      {
        "species": [{ "element": "Br", "occu": 1 }],
        "abc": [0.76730159, 0.97934939, 0.69018176],
        "properties": { "magmom": 0.045 },
        "label": "Br",
        "xyz": [4.896974016113528, 12.337661495407435, 10.283338072620294]
      },
      {
        "species": [{ "element": "Br", "occu": 1 }],
        "abc": [0.26730159000000003, 0.52065061, 0.30981824],
        "properties": { "magmom": 0.045 },
        "label": "Br",
        "xyz": [1.705938001113528, 6.559059564592564, 4.616125617379706]
      },
      {
        "species": [{ "element": "Br", "occu": 1 }],
        "abc": [0.23271273, 0.47930572, 0.80984349],
        "properties": { "magmom": 0.045 },
        "label": "Br",
        "xyz": [1.485189405157942, 6.038204328868308, 12.066233673837878]
      },
      {
        "species": [{ "element": "Br", "occu": 1 }],
        "abc": [0.73271273, 0.02069428, 0.19015651],
        "properties": { "magmom": 0.045 },
        "label": "Br",
        "xyz": [4.676225420157942, 0.2607026911316912, 2.833230016162122]
      },
      {
        "species": [{ "element": "Br", "occu": 1 }],
        "abc": [0.25463539, 0.00955463, 0.074127199999999],
        "properties": { "magmom": 0.163 },
        "label": "Br",
        "xyz": [1.6251014003671418, 0.12036745196100519, 1.1044555248413532]
      },
      {
        "species": [{ "element": "Br", "occu": 1 }],
        "abc": [0.75463539, 0.49044537, 0.925872799999999],
        "properties": { "magmom": 0.163 },
        "label": "Br",
        "xyz": [4.816137415367142, 6.178539568038994, 13.795008165158617]
      },
      {
        "species": [{ "element": "Br", "occu": 1 }],
        "abc": [0.74537504, 0.509553599999999, 0.42587064],
        "properties": { "magmom": 0.163 },
        "label": "Br",
        "xyz": [4.7570371946441306, 6.419261496212532, 6.345244137317062]
      },
      {
        "species": [{ "element": "Br", "occu": 1 }],
        "abc": [0.24537504000000002, 0.9904464, 0.57412936],
        "properties": { "magmom": 0.163 },
        "label": "Br",
        "xyz": [1.5660011796441313, 12.477459563787455, 8.55421955268294]
      },
      {
        "species": [{ "element": "Br", "occu": 1 }],
        "abc": [0.74537504, 0.9904464, 0.92587064],
        "properties": { "magmom": 0.163 },
        "label": "Br",
        "xyz": [4.7570371946441306, 12.477459563787455, 13.79497598231706]
      },
      {
        "species": [{ "element": "Br", "occu": 1 }],
        "abc": [0.24537504000000002, 0.509553599999999, 0.07412936],
        "properties": { "magmom": 0.163 },
        "label": "Br",
        "xyz": [1.5660011796441313, 6.419261496212532, 1.1044877076829385]
      },
      {
        "species": [{ "element": "Br", "occu": 1 }],
        "abc": [0.25463539, 0.49044537, 0.5741272],
        "properties": { "magmom": 0.163 },
        "label": "Br",
        "xyz": [1.6251014003671418, 6.178539568038994, 8.554187369841367]
      },
      {
        "species": [{ "element": "Br", "occu": 1 }],
        "abc": [0.75463539, 0.00955463, 0.4258728],
        "properties": { "magmom": 0.163 },
        "label": "Br",
        "xyz": [4.816137415367142, 0.12036745196100519, 6.345276320158631]
      }
    ]
  },
  "task_ids": null,
  "uncorrected_energy_per_atom": null,
  "energy_per_atom": -4.091266505499999,
  "formation_energy_per_atom": -0.536235791499999,
  "energy_above_hull": 0.0,
  "is_stable": true,
  "equilibrium_reaction_energy_per_atom": null,
  "decomposes_to": null,
  "xas": null,
  "grain_boundaries": null,
  "band_gap": 0.0,
  "cbm": null,
  "vbm": null,
  "efermi": 0.41805414,
  "is_gap_direct": null,
  "is_metal": null,
  "es_source_calc_id": null,
  "bandstructure": null,
  "dos": null,
  "dos_energy_up": null,
  "dos_energy_down": null,
  "is_magnetic": null,
  "ordering": null,
  "total_magnetization": 15.9966082,
  "total_magnetization_normalized_vol": null,
  "total_magnetization_normalized_formula_units": null,
  "num_magnetic_sites": null,
  "num_unique_magnetic_sites": null,
  "types_of_magnetic_species": null,
  "bulk_modulus": null,
  "shear_modulus": null,
  "universal_anisotropy": null,
  "homogeneous_poisson": null,
  "e_total": null,
  "e_ionic": null,
  "e_electronic": null,
  "n": null,
  "e_ij_max": null,
  "weighted_surface_energy_EV_PER_ANG2": null,
  "weighted_surface_energy": null,
  "weighted_work_function": null,
  "surface_anisotropy": null,
  "shape_factor": null,
  "has_reconstructed": null,
  "possible_species": null,
  "has_props": null,
  "theoretical": null,
  "database_IDs": null,
  "fields_not_requested": [
    "builder_meta",
    "nsites",
    "elements",
    "nelements",
    "composition",
    "composition_reduced",
    "chemsys",
    "symmetry",
    "property_name",
    "deprecated",
    "deprecation_reasons",
    "last_updated",
    "origins",
    "warnings",
    "task_ids",
    "uncorrected_energy_per_atom",
    "equilibrium_reaction_energy_per_atom",
    "decomposes_to",
    "xas",
    "grain_boundaries",
    "cbm",
    "vbm",
    "is_gap_direct",
    "is_metal",
    "es_source_calc_id",
    "bandstructure",
    "dos",
    "dos_energy_up",
    "dos_energy_down",
    "is_magnetic",
    "ordering",
    "total_magnetization_normalized_vol",
    "total_magnetization_normalized_formula_units",
    "num_magnetic_sites",
    "num_unique_magnetic_sites",
    "types_of_magnetic_species",
    "bulk_modulus",
    "shear_modulus",
    "universal_anisotropy",
    "homogeneous_poisson",
    "e_total",
    "e_ionic",
    "e_electronic",
    "n",
    "e_ij_max",
    "weighted_surface_energy_EV_PER_ANG2",
    "weighted_surface_energy",
    "weighted_work_function",
    "surface_anisotropy",
    "shape_factor",
    "has_reconstructed",
    "possible_species",
    "has_props",
    "theoretical",
    "database_IDs"
  ]
}
