{"builder_meta": null, "nsites": null, "elements": null, "nelements": null, "composition": null, "composition_reduced": null, "formula_pretty": "OsF5", "formula_anonymous": "AB5", "chemsys": null, "volume": 653.8382171860774, "density": 5.794978485787972, "density_atomic": 13.621629524709945, "symmetry": null, "property_name": null, "material_id": "mp-540830", "deprecated": null, "deprecation_reasons": null, "last_updated": null, "origins": null, "warnings": null, "structure": {"@module": "pymatgen.core.structure", "@class": "Structure", "charge": 0, "lattice": {"matrix": [[5.34560303, 0.0, -0.88031417], [0.0, 9.87896508, 0.0], [0.026767060000000002, 0.0, 12.37677512]], "pbc": [true, true, true], "a": 5.417603233187899, "b": 9.87896508, "c": 12.376804064319353, "alpha": 90.0, "beta": 99.22762570376331, "gamma": 90.0, "volume": 653.8382171860773}, "properties": {}, "sites": [{"species": [{"element": "Os", "occu": 1}], "abc": [0.9958074, 0.25706275, 0.00185282], "properties": {"magmom": 2.174}, "label": "Os", "xyz": [5.323240649280531, 2.53951393061877, -0.8536914283330196]}, {"species": [{"element": "Os", "occu": 1}], "abc": [0.00418885, 0.75708626, 0.49814538], "properties": {"magmom": 2.174}, "label": "Os", "xyz": [0.035725816527398306, 7.479228725087801, 6.161745841315941]}, {"species": [{"element": "Os", "occu": 1}], "abc": [0.00418885, 0.74291374, 0.99814538], "properties": {"magmom": 2.174}, "label": "Os", "xyz": [0.049109346527398304, 7.339218894912199, 12.35013340131594]}, {"species": [{"element": "Os", "occu": 1}], "abc": [0.9958074, 0.24293725, 0.50185282], "properties": {"magmom": 2.174}, "label": "Os", "xyz": [5.336624179280531, 2.3999686093812302, 5.33469613166698]}, {"species": [{"element": "Os", "occu": 1}], "abc": [0.30992731, 0.00262658, 0.20325412], "properties": {"magmom": 2.172}, "label": "Os", "xyz": [1.6621888826410367, 0.0259478920998264, 2.2427971327905114]}, {"species": [{"element": "Os", "occu": 1}], "abc": [0.69008124, 0.50263811, 0.29674935], "properties": {"magmom": 2.172}, "label": "Os", "xyz": [3.6968434751465686, 4.965544336567199, 3.0653116779330016]}, {"species": [{"element": "Os", "occu": 1}], "abc": [0.69008124, 0.99736189, 0.79674935], "properties": {"magmom": 2.172}, "label": "Os", "xyz": [3.7102270051465687, 9.852903283432802, 9.253699237933002]}, {"species": [{"element": "Os", "occu": 1}], "abc": [0.30992731, 0.49737342, 0.70325412], "properties": {"magmom": 2.172}, "label": "Os", "xyz": [1.6755724126410367, 4.913534647900174, 8.431184692790511]}, {"species": [{"element": "F", "occu": 1}], "abc": [0.20257923, 0.09039198, 0.05420539], "properties": {"magmom": 0.05}, "label": "F", "xyz": [1.0843590646295203, 0.8929792139320584, 0.49255455560520767]}, {"species": [{"element": "F", "occu": 1}], "abc": [0.79743923, 0.59041113, 0.44579422], "properties": {"magmom": 0.05}, "label": "F", "xyz": [4.274726164763261, 5.832650936113341, 4.815497756852918]}, {"species": [{"element": "F", "occu": 1}], "abc": [0.79743923, 0.90958887, 0.94579422], "properties": {"magmom": 0.05}, "label": "F", "xyz": [4.288109694763261, 8.98579668388666, 11.003885316852916]}, {"species": [{"element": "F", "occu": 1}], "abc": [0.20257923, 0.40960802, 0.55420539], "properties": {"magmom": 0.05}, "label": "F", "xyz": [1.0977425946295203, 4.046503326067942, 6.680942115605207]}, {"species": [{"element": "F", "occu": 1}], "abc": [0.09459616, 0.333704699999999, 0.13785966], "properties": {"magmom": 0.157}, "label": "F", "xyz": [0.5093636173131645, 3.2966570783318665, 1.6229836698640718]}, {"species": [{"element": "F", "occu": 1}], "abc": [0.9053735700000001, 0.8337285600000001, 0.36213694], "properties": {"magmom": 0.157}, "label": "F", "xyz": [4.849461040275115, 8.236375330438685, 3.6850742862104457]}, {"species": [{"element": "F", "occu": 1}], "abc": [0.9053735700000001, 0.66627144, 0.86213694], "properties": {"magmom": 0.157}, "label": "F", "xyz": [4.862844570275114, 6.5820722895613155, 9.873461846210445]}, {"species": [{"element": "F", "occu": 1}], "abc": [0.09459616, 0.166295299999999, 0.63785966], "properties": {"magmom": 0.157}, "label": "F", "xyz": [0.5227471473131644, 1.6428254616681142, 7.811371229864072]}, {"species": [{"element": "F", "occu": 1}], "abc": [0.39277124, 0.91348448, 0.33472446], "properties": {"magmom": 0.166}, "label": "F", "xyz": [2.1085587203451452, 9.02428127904196, 3.797047280442965]}, {"species": [{"element": "F", "occu": 1}], "abc": [0.60720775, 0.41348347, 0.16527885], "properties": {"magmom": 0.166}, "label": "F", "xyz": [3.250315617134164, 4.084788761287228, 1.5110855720833944]}, {"species": [{"element": "F", "occu": 1}], "abc": [0.60720775, 0.08651653000000001, 0.66527885], "properties": {"magmom": 0.166}, "label": "F", "xyz": [3.263699147134164, 0.8546937787127725, 7.699473132083394]}, {"species": [{"element": "F", "occu": 1}], "abc": [0.39277124, 0.58651552, 0.83472446], "properties": {"magmom": 0.166}, "label": "F", "xyz": [2.1219422503451453, 5.794166340958041, 9.985434840442963]}, {"species": [{"element": "F", "occu": 1}], "abc": [0.49282563, 0.15519563, 0.24854726], "properties": {"magmom": 0.163}, "label": "F", "xyz": [2.6411030604109147, 1.5331722093386004, 2.642372158283994]}, {"species": [{"element": "F", "occu": 1}], "abc": [0.50717828, 0.65520886, 0.25144877], "properties": {"magmom": 0.163}, "label": "F", "xyz": [2.7179042946317047, 6.472785448046609, 2.6656486538903748]}, {"species": [{"element": "F", "occu": 1}], "abc": [0.50717828, 0.84479114, 0.75144877], "properties": {"magmom": 0.163}, "label": "F", "xyz": [2.7312878246317047, 8.345662171953391, 8.854036213890375]}, {"species": [{"element": "F", "occu": 1}], "abc": [0.49282563, 0.34480437, 0.74854726], "properties": {"magmom": 0.163}, "label": "F", "xyz": [2.6544865904109147, 3.4063103306614, 8.830759718283995]}, {"species": [{"element": "F", "occu": 1}], "abc": [0.80361598, 0.402947, 0.94755386], "properties": {"magmom": 0.167}, "label": "F", "xyz": [4.321175248668271, 3.98069934209076, 11.020226504875525]}, {"species": [{"element": "F", "occu": 1}], "abc": [0.19636449, 0.90297601, 0.55243984], "properties": {"magmom": 0.167}, "label": "F", "xyz": [1.0644738030720753, 8.920468470867732, 6.664561223976958]}, {"species": [{"element": "F", "occu": 1}], "abc": [0.19636449, 0.5970239900000001, 0.05243984], "properties": {"magmom": 0.167}, "label": "F", "xyz": [1.0510902730720753, 5.89797914913227, 0.4761736639769575]}, {"species": [{"element": "F", "occu": 1}], "abc": [0.80361598, 0.097053, 0.44755386], "properties": {"magmom": 0.167}, "label": "F", "xyz": [4.3077917186682715, 0.95878319790924, 4.831838944875527]}, {"species": [{"element": "F", "occu": 1}], "abc": [0.90447856, 0.15917909, 0.85615843], "properties": {"magmom": 0.062}, "label": "F", "xyz": [4.857900174971353, 1.5725246715761771, 9.800255062373067]}, {"species": [{"element": "F", "occu": 1}], "abc": [0.09554673, 0.659200999999999, 0.64384483], "properties": {"magmom": 0.062}, "label": "F", "xyz": [0.5279887225898917, 6.512223659701071, 7.884611532768465]}, {"species": [{"element": "F", "occu": 1}], "abc": [0.09554673, 0.840799, 0.14384483], "properties": {"magmom": 0.062}, "label": "F", "xyz": [0.5146051925898917, 8.30622396029892, 1.6962239727684656]}, {"species": [{"element": "F", "occu": 1}], "abc": [0.90447856, 0.34082091000000003, 0.35615843], "properties": {"magmom": 0.062}, "label": "F", "xyz": [4.844516644971353, 3.3669578684238233, 3.611867502373067]}, {"species": [{"element": "F", "occu": 1}], "abc": [0.72257593, 0.16869821000000002, 0.046631599999999], "properties": {"magmom": 0.17}, "label": "F", "xyz": [3.863852271648164, 1.666563725648507, -0.05894500339414843]}, {"species": [{"element": "F", "occu": 1}], "abc": [0.27741981, 0.66872986, 0.45336311], "properties": {"magmom": 0.17}, "label": "F", "xyz": [1.495111374485181, 6.606358934893289, 5.366956670392115]}, {"species": [{"element": "F", "occu": 1}], "abc": [0.27741981, 0.83127014, 0.9533631100000001], "properties": {"magmom": 0.17}, "label": "F", "xyz": [1.508494904485181, 8.212088685106712, 11.555344230392116]}, {"species": [{"element": "F", "occu": 1}], "abc": [0.72257593, 0.33130179, 0.5466316], "properties": {"magmom": 0.17}, "label": "F", "xyz": [3.877235801648164, 3.272918814351493, 6.129442556605864]}, {"species": [{"element": "F", "occu": 1}], "abc": [0.57654892, 0.92303316, 0.14727896000000001], "properties": {"magmom": 0.18}, "label": "F", "xyz": [3.085943878454285, 9.118612355322053, 1.3152943838532787]}, {"species": [{"element": "F", "occu": 1}], "abc": [0.423470199999999, 0.42305587, 0.35274697], "properties": {"magmom": 0.18}, "label": "F", "xyz": [2.273145583545509, 4.17935416661902, 3.993083104318653]}, {"species": [{"element": "F", "occu": 1}], "abc": [0.423470199999999, 0.07694413, 0.85274697], "properties": {"magmom": 0.18}, "label": "F", "xyz": [2.2865291135455093, 0.7601283733809804, 10.181470664318653]}, {"species": [{"element": "F", "occu": 1}], "abc": [0.57654892, 0.57696684, 0.64727896], "properties": {"magmom": 0.18}, "label": "F", "xyz": [3.0993274084542852, 5.699835264677947, 7.503681943853278]}, {"species": [{"element": "F", "occu": 1}], "abc": [0.019972320000000002, 0.07713867, 0.24411226], "properties": {"magmom": 0.171}, "label": "F", "xyz": [0.11329826181828523, 0.7620502272476437, 3.0037406297511966]}, {"species": [{"element": "F", "occu": 1}], "abc": [0.9800246100000001, 0.57715469, 0.25587965], "properties": {"magmom": 0.171}, "label": "F", "xyz": [5.2456716706348985, 5.701691028268225, 2.3042353347025846]}, {"species": [{"element": "F", "occu": 1}], "abc": [0.9800246100000001, 0.92284531, 0.75587965], "properties": {"magmom": 0.171}, "label": "F", "xyz": [5.259055200634898, 9.116756591731775, 8.492622894702585]}, {"species": [{"element": "F", "occu": 1}], "abc": [0.019972320000000002, 0.42286133000000004, 0.74411226], "properties": {"magmom": 0.171}, "label": "F", "xyz": [0.12668179181828523, 4.177432312752357, 9.192128189751196]}, {"species": [{"element": "F", "occu": 1}], "abc": [0.27686295, 0.32571175, 0.95021433], "properties": {"magmom": 0.183}, "label": "F", "xyz": [1.5054338683987083, 3.2176950043956905, 11.516862700178468]}, {"species": [{"element": "F", "occu": 1}], "abc": [0.7231396, 0.82571693, 0.54978294], "properties": {"magmom": 0.183}, "label": "F", "xyz": [3.8803333098149446, 8.157228717434805, 6.167949776424321]}, {"species": [{"element": "F", "occu": 1}], "abc": [0.7231396, 0.67428307, 0.04978294], "properties": {"magmom": 0.183}, "label": "F", "xyz": [3.8669497798149446, 6.661218902565196, -0.02043778357567927]}, {"species": [{"element": "F", "occu": 1}], "abc": [0.27686295, 0.17428825, 0.45021433], "properties": {"magmom": 0.183}, "label": "F", "xyz": [1.4920503383987083, 1.7217875356043102, 5.328475140178467]}]}, "task_ids": null, "uncorrected_energy_per_atom": null, "energy_per_atom": -13.270216797083334, "formation_energy_per_atom": -1.8343220304166672, "energy_above_hull": 0.0, "is_stable": true, "equilibrium_reaction_energy_per_atom": null, "decomposes_to": null, "xas": null, "grain_boundaries": null, "band_gap": 0.0, "cbm": null, "vbm": null, "efermi": -1.07917018, "is_gap_direct": null, "is_metal": null, "es_source_calc_id": null, "bandstructure": null, "dos": null, "dos_energy_up": null, "dos_energy_down": null, "is_magnetic": null, "ordering": null, "total_magnetization": 23.9999999, "total_magnetization_normalized_vol": null, "total_magnetization_normalized_formula_units": null, "num_magnetic_sites": null, "num_unique_magnetic_sites": null, "types_of_magnetic_species": null, "bulk_modulus": null, "shear_modulus": null, "universal_anisotropy": null, "homogeneous_poisson": null, "e_total": null, "e_ionic": null, "e_electronic": null, "n": null, "e_ij_max": null, "weighted_surface_energy_EV_PER_ANG2": null, "weighted_surface_energy": null, "weighted_work_function": null, "surface_anisotropy": null, "shape_factor": null, "has_reconstructed": null, "possible_species": null, "has_props": null, "theoretical": null, "database_IDs": null, "fields_not_requested": ["builder_meta", "nsites", "elements", "nelements", "composition", "composition_reduced", "chemsys", "symmetry", "property_name", "deprecated", "deprecation_reasons", "last_updated", "origins", "warnings", "task_ids", "uncorrected_energy_per_atom", "equilibrium_reaction_energy_per_atom", "decomposes_to", "xas", "grain_boundaries", "cbm", "vbm", "is_gap_direct", "is_metal", "es_source_calc_id", "bandstructure", "dos", "dos_energy_up", "dos_energy_down", "is_magnetic", "ordering", "total_magnetization_normalized_vol", "total_magnetization_normalized_formula_units", "num_magnetic_sites", "num_unique_magnetic_sites", "types_of_magnetic_species", "bulk_modulus", "shear_modulus", "universal_anisotropy", "homogeneous_poisson", "e_total", "e_ionic", "e_electronic", "n", "e_ij_max", "weighted_surface_energy_EV_PER_ANG2", "weighted_surface_energy", "weighted_work_function", "surface_anisotropy", "shape_factor", "has_reconstructed", "possible_species", "has_props", "theoretical", "database_IDs"]}