{"builder_meta": null, "nsites": null, "elements": null, "nelements": null, "composition": null, "composition_reduced": null, "formula_pretty": "OsN", "formula_anonymous": "AB", "chemsys": null, "volume": 44.33296177041402, "density": 15.299813305493796, "density_atomic": 11.083240442603506, "symmetry": null, "property_name": null, "material_id": "mp-999317", "deprecated": null, "deprecation_reasons": null, "last_updated": null, "origins": null, "warnings": null, "structure": {"@module": "pymatgen.core.structure", "@class": "Structure", "charge": 0, "lattice": {"matrix": [[2.788647, 0.0, 0.0], [0.0, 3.732284, 0.0], [0.0, 0.0, 4.259499]], "pbc": [true, true, true], "a": 2.788647, "b": 3.732284, "c": 4.259499, "alpha": 90.0, "beta": 90.0, "gamma": 90.0, "volume": 44.33296177041402}, "properties": {}, "sites": [{"species": [{"element": "Os", "occu": 1}], "abc": [0.5, 0.137265, 0.39482000000000006], "properties": {"magmom": 0.0}, "label": "Os", "xyz": [1.3943235, 0.51231196326, 1.6817353951800003]}, {"species": [{"element": "Os", "occu": 1}], "abc": [0.0, 0.862734999999999, 0.8948200000000001], "properties": {"magmom": -0.0}, "label": "Os", "xyz": [0.0, 3.219972036739996, 3.81148489518]}, {"species": [{"element": "N", "occu": 1}], "abc": [0.5, 0.650674, 0.19518000000000002], "properties": {"magmom": 0.0}, "label": "N", "xyz": [1.3943235, 2.428500159416, 0.83136901482]}, {"species": [{"element": "N", "occu": 1}], "abc": [0.0, 0.349325999999999, 0.69518], "properties": {"magmom": 0.0}, "label": "N", "xyz": [0.0, 1.3037838405839963, 2.96111851482]}]}, "task_ids": null, "uncorrected_energy_per_atom": null, "energy_per_atom": -30.817470228125, "formation_energy_per_atom": 0.23951953250000102, "energy_above_hull": 0.23951953250000102, "is_stable": false, "equilibrium_reaction_energy_per_atom": null, "decomposes_to": null, "xas": null, "grain_boundaries": null, "band_gap": 0.0, "cbm": null, "vbm": null, "efermi": 7.59514569, "is_gap_direct": null, "is_metal": null, "es_source_calc_id": null, "bandstructure": null, "dos": null, "dos_energy_up": null, "dos_energy_down": null, "is_magnetic": null, "ordering": null, "total_magnetization": 6.0999999999999975e-06, "total_magnetization_normalized_vol": null, "total_magnetization_normalized_formula_units": null, "num_magnetic_sites": null, "num_unique_magnetic_sites": null, "types_of_magnetic_species": null, "bulk_modulus": null, "shear_modulus": null, "universal_anisotropy": null, "homogeneous_poisson": null, "e_total": null, "e_ionic": null, "e_electronic": null, "n": null, "e_ij_max": null, "weighted_surface_energy_EV_PER_ANG2": null, "weighted_surface_energy": null, "weighted_work_function": null, "surface_anisotropy": null, "shape_factor": null, "has_reconstructed": null, "possible_species": null, "has_props": null, "theoretical": null, "database_IDs": null, "fields_not_requested": ["builder_meta", "nsites", "elements", "nelements", "composition", "composition_reduced", "chemsys", "symmetry", "property_name", "deprecated", "deprecation_reasons", "last_updated", "origins", "warnings", "task_ids", "uncorrected_energy_per_atom", "equilibrium_reaction_energy_per_atom", "decomposes_to", "xas", "grain_boundaries", "cbm", "vbm", "is_gap_direct", "is_metal", "es_source_calc_id", "bandstructure", "dos", "dos_energy_up", "dos_energy_down", "is_magnetic", "ordering", "total_magnetization_normalized_vol", "total_magnetization_normalized_formula_units", "num_magnetic_sites", "num_unique_magnetic_sites", "types_of_magnetic_species", "bulk_modulus", "shear_modulus", "universal_anisotropy", "homogeneous_poisson", "e_total", "e_ionic", "e_electronic", "n", "e_ij_max", "weighted_surface_energy_EV_PER_ANG2", "weighted_surface_energy", "weighted_work_function", "surface_anisotropy", "shape_factor", "has_reconstructed", "possible_species", "has_props", "theoretical", "database_IDs"]}