{
  "builder_meta": null,
  "nsites": null,
  "elements": null,
  "nelements": null,
  "composition": null,
  "composition_reduced": null,
  "formula_pretty": "OsO2",
  "formula_anonymous": "AB2",
  "chemsys": null,
  "volume": 64.3569258510722,
  "density": 11.467906499374536,
  "density_atomic": 10.726154308512035,
  "symmetry": null,
  "property_name": null,
  "material_id": "mp-996",
  "deprecated": null,
  "deprecation_reasons": null,
  "last_updated": null,
  "origins": null,
  "warnings": null,
  "structure": {
    "@module": "pymatgen.core.structure",
    "@class": "Structure",
    "charge": 0,
    "lattice": {
      "matrix": [
        [3.20912377, 0.0, 0.0],
        [0.0, 4.47820955, 0.0],
        [0.0, 0.0, 4.47820955]
      ],
      "pbc": [true, true, true],
      "a": 3.20912377,
      "b": 4.47820955,
      "c": 4.47820955,
      "alpha": 90.0,
      "beta": 90.0,
      "gamma": 90.0,
      "volume": 64.3569258510722
    },
    "properties": {},
    "sites": [
      {
        "species": [{ "element": "Os", "occu": 1 }],
        "abc": [-0.0, 0.0, 0.0],
        "properties": { "magmom": -0.0 },
        "label": "Os",
        "xyz": [0.0, 0.0, 0.0]
      },
      {
        "species": [{ "element": "Os", "occu": 1 }],
        "abc": [0.5, 0.5, 0.5],
        "properties": { "magmom": -0.0 },
        "label": "Os",
        "xyz": [1.604561885, 2.239104775, 2.239104775]
      },
      {
        "species": [{ "element": "O", "occu": 1 }],
        "abc": [0.0, 0.30825528, 0.30825528],
        "properties": { "magmom": 0.0 },
        "label": "O",
        "xyz": [0.0, 1.380431738733924, 1.380431738733924]
      },
      {
        "species": [{ "element": "O", "occu": 1 }],
        "abc": [0.5, 0.19174472, 0.80825528],
        "properties": { "magmom": 0.0 },
        "label": "O",
        "xyz": [1.604561885, 0.858673036266076, 3.619536513733924]
      },
      {
        "species": [{ "element": "O", "occu": 1 }],
        "abc": [0.5, 0.80825528, 0.19174472],
        "properties": { "magmom": 0.0 },
        "label": "O",
        "xyz": [1.604561885, 3.619536513733924, 0.858673036266076]
      },
      {
        "species": [{ "element": "O", "occu": 1 }],
        "abc": [0.0, 0.69174472, 0.69174472],
        "properties": { "magmom": 0.0 },
        "label": "O",
        "xyz": [0.0, 3.097777811266076, 3.097777811266076]
      }
    ]
  },
  "task_ids": null,
  "uncorrected_energy_per_atom": null,
  "energy_per_atom": -8.384497349999998,
  "formation_energy_per_atom": -1.343400869999998,
  "energy_above_hull": 0.0,
  "is_stable": true,
  "equilibrium_reaction_energy_per_atom": null,
  "decomposes_to": null,
  "xas": null,
  "grain_boundaries": null,
  "band_gap": 0.0,
  "cbm": null,
  "vbm": null,
  "efermi": 5.03302378,
  "is_gap_direct": null,
  "is_metal": null,
  "es_source_calc_id": null,
  "bandstructure": null,
  "dos": null,
  "dos_energy_up": null,
  "dos_energy_down": null,
  "is_magnetic": null,
  "ordering": null,
  "total_magnetization": 0.0,
  "total_magnetization_normalized_vol": null,
  "total_magnetization_normalized_formula_units": null,
  "num_magnetic_sites": null,
  "num_unique_magnetic_sites": null,
  "types_of_magnetic_species": null,
  "bulk_modulus": null,
  "shear_modulus": null,
  "universal_anisotropy": null,
  "homogeneous_poisson": null,
  "e_total": null,
  "e_ionic": null,
  "e_electronic": null,
  "n": null,
  "e_ij_max": null,
  "weighted_surface_energy_EV_PER_ANG2": null,
  "weighted_surface_energy": null,
  "weighted_work_function": null,
  "surface_anisotropy": null,
  "shape_factor": null,
  "has_reconstructed": null,
  "possible_species": null,
  "has_props": null,
  "theoretical": null,
  "database_IDs": null,
  "fields_not_requested": [
    "builder_meta",
    "nsites",
    "elements",
    "nelements",
    "composition",
    "composition_reduced",
    "chemsys",
    "symmetry",
    "property_name",
    "deprecated",
    "deprecation_reasons",
    "last_updated",
    "origins",
    "warnings",
    "task_ids",
    "uncorrected_energy_per_atom",
    "equilibrium_reaction_energy_per_atom",
    "decomposes_to",
    "xas",
    "grain_boundaries",
    "cbm",
    "vbm",
    "is_gap_direct",
    "is_metal",
    "es_source_calc_id",
    "bandstructure",
    "dos",
    "dos_energy_up",
    "dos_energy_down",
    "is_magnetic",
    "ordering",
    "total_magnetization_normalized_vol",
    "total_magnetization_normalized_formula_units",
    "num_magnetic_sites",
    "num_unique_magnetic_sites",
    "types_of_magnetic_species",
    "bulk_modulus",
    "shear_modulus",
    "universal_anisotropy",
    "homogeneous_poisson",
    "e_total",
    "e_ionic",
    "e_electronic",
    "n",
    "e_ij_max",
    "weighted_surface_energy_EV_PER_ANG2",
    "weighted_surface_energy",
    "weighted_work_function",
    "surface_anisotropy",
    "shape_factor",
    "has_reconstructed",
    "possible_species",
    "has_props",
    "theoretical",
    "database_IDs"
  ]
}
