{
  "builder_meta": null,
  "nsites": null,
  "elements": null,
  "nelements": null,
  "composition": null,
  "composition_reduced": null,
  "formula_pretty": "OsO4",
  "formula_anonymous": "AB4",
  "chemsys": null,
  "volume": 81.69548341351152,
  "density": 5.167419837289786,
  "density_atomic": 16.339096682702305,
  "symmetry": null,
  "property_name": null,
  "material_id": "mp-1524458",
  "deprecated": null,
  "deprecation_reasons": null,
  "last_updated": null,
  "origins": null,
  "warnings": null,
  "structure": {
    "@module": "pymatgen.core.structure",
    "@class": "Structure",
    "charge": 0,
    "lattice": {
      "matrix": [
        [2.26645609, 4.55360416, -0.06367294],
        [-2.26645609, 4.55360416, -0.06367294],
        [-0.0, 2.28918991, 3.92589623]
      ],
      "pbc": [true, true, true],
      "a": 5.086864289241029,
      "b": 5.086864289241029,
      "c": 4.544562867072479,
      "alpha": 63.8896091809465,
      "beta": 63.8896091809465,
      "gamma": 52.917159202130655,
      "volume": 81.69548341351151
    },
    "properties": {},
    "sites": [
      {
        "species": [{ "element": "Os", "occu": 1 }],
        "abc": [0.00022215, -0.00022215, 0.5],
        "properties": { "magmom": -0.0 },
        "label": "Os",
        "xyz": [0.001006986440787, 1.144594955, 1.962948115]
      },
      {
        "species": [{ "element": "O", "occu": 1 }],
        "abc": [0.65495319, 0.09299079, 0.41041797],
        "properties": { "magmom": -0.0 },
        "label": "O",
        "xyz": [1.273663103831016, 4.34536549458164, 1.5636345689853521]
      },
      {
        "species": [{ "element": "O", "occu": 1 }],
        "abc": [0.09749343, 0.66003899, 0.84226769],
        "properties": { "magmom": 0.0 },
        "label": "O",
        "xyz": [-1.2749848103644603, 5.377613476513875, 3.258421232495094]
      },
      {
        "species": [{ "element": "O", "occu": 1 }],
        "abc": [0.90700921, 0.34504681, 0.58958203],
        "properties": { "magmom": -0.0 },
        "label": "O",
        "xyz": [1.2736631038310162, 7.05103273541836, 2.234915781014648]
      },
      {
        "species": [{ "element": "O", "occu": 1 }],
        "abc": [0.33996101, 0.90250657, 0.15773231000000001],
        "properties": { "magmom": 0.0 },
        "label": "O",
        "xyz": [-1.2749848103644608, 6.018784753486125, 0.5401291175049062]
      }
    ]
  },
  "task_ids": null,
  "uncorrected_energy_per_atom": null,
  "energy_per_atom": -7.733035196999998,
  "formation_energy_per_atom": -1.529192906999997,
  "energy_above_hull": 0.0,
  "is_stable": true,
  "equilibrium_reaction_energy_per_atom": null,
  "decomposes_to": null,
  "xas": null,
  "grain_boundaries": null,
  "band_gap": 3.1633,
  "cbm": null,
  "vbm": null,
  "efermi": -1.8897875800000001,
  "is_gap_direct": null,
  "is_metal": null,
  "es_source_calc_id": null,
  "bandstructure": null,
  "dos": null,
  "dos_energy_up": null,
  "dos_energy_down": null,
  "is_magnetic": null,
  "ordering": null,
  "total_magnetization": 0.0,
  "total_magnetization_normalized_vol": null,
  "total_magnetization_normalized_formula_units": null,
  "num_magnetic_sites": null,
  "num_unique_magnetic_sites": null,
  "types_of_magnetic_species": null,
  "bulk_modulus": null,
  "shear_modulus": null,
  "universal_anisotropy": null,
  "homogeneous_poisson": null,
  "e_total": null,
  "e_ionic": null,
  "e_electronic": null,
  "n": null,
  "e_ij_max": null,
  "weighted_surface_energy_EV_PER_ANG2": null,
  "weighted_surface_energy": null,
  "weighted_work_function": null,
  "surface_anisotropy": null,
  "shape_factor": null,
  "has_reconstructed": null,
  "possible_species": null,
  "has_props": null,
  "theoretical": null,
  "database_IDs": null,
  "fields_not_requested": [
    "builder_meta",
    "nsites",
    "elements",
    "nelements",
    "composition",
    "composition_reduced",
    "chemsys",
    "symmetry",
    "property_name",
    "deprecated",
    "deprecation_reasons",
    "last_updated",
    "origins",
    "warnings",
    "task_ids",
    "uncorrected_energy_per_atom",
    "equilibrium_reaction_energy_per_atom",
    "decomposes_to",
    "xas",
    "grain_boundaries",
    "cbm",
    "vbm",
    "is_gap_direct",
    "is_metal",
    "es_source_calc_id",
    "bandstructure",
    "dos",
    "dos_energy_up",
    "dos_energy_down",
    "is_magnetic",
    "ordering",
    "total_magnetization_normalized_vol",
    "total_magnetization_normalized_formula_units",
    "num_magnetic_sites",
    "num_unique_magnetic_sites",
    "types_of_magnetic_species",
    "bulk_modulus",
    "shear_modulus",
    "universal_anisotropy",
    "homogeneous_poisson",
    "e_total",
    "e_ionic",
    "e_electronic",
    "n",
    "e_ij_max",
    "weighted_surface_energy_EV_PER_ANG2",
    "weighted_surface_energy",
    "weighted_work_function",
    "surface_anisotropy",
    "shape_factor",
    "has_reconstructed",
    "possible_species",
    "has_props",
    "theoretical",
    "database_IDs"
  ]
}
