{
  "builder_meta": null,
  "nsites": null,
  "elements": null,
  "nelements": null,
  "composition": null,
  "composition_reduced": null,
  "formula_pretty": "OsRu3",
  "formula_anonymous": "AB3",
  "chemsys": null,
  "volume": 109.58562027437253,
  "density": 14.95408603741273,
  "density_atomic": 13.698202534296566,
  "symmetry": null,
  "property_name": null,
  "material_id": "mp-974326",
  "deprecated": null,
  "deprecation_reasons": null,
  "last_updated": null,
  "origins": null,
  "warnings": null,
  "structure": {
    "@module": "pymatgen.core.structure",
    "@class": "Structure",
    "charge": 0,
    "lattice": {
      "matrix": [
        [5.43041554, -1.899999999999999e-7, 0.0],
        [-2.7152068, 4.7028788200000005, 0.0],
        [0.0, 0.0, 4.29098234]
      ],
      "pbc": [true, true, true],
      "a": 5.430415540000004,
      "b": 5.430415929039951,
      "c": 4.29098234,
      "alpha": 90.0,
      "beta": 90.0,
      "gamma": 119.99998781717314,
      "volume": 109.58562027437254
    },
    "properties": {},
    "sites": [
      {
        "species": [{ "element": "Os", "occu": 1 }],
        "abc": [0.66666472, 0.33333666, 0.25],
        "properties": { "magmom": 0.0 },
        "label": "Os",
        "xyz": [2.7151884895364606, 1.5676417915772447, 1.072745585]
      },
      {
        "species": [{ "element": "Os", "occu": 1 }],
        "abc": [0.33333489, 0.66666444, 0.749999],
        "properties": { "magmom": 0.0 },
        "label": "Os",
        "xyz": [1.5145873998756443e-5, 3.1352420115895323, 3.21823246401766]
      },
      {
        "species": [{ "element": "Ru", "occu": 1 }],
        "abc": [0.83255512, 0.16744454, 0.749999],
        "properties": { "magmom": -0.0 },
        "label": "Ru",
        "xyz": [4.066473707923692, 0.7874712225051701, 3.21823246401766]
      },
      {
        "species": [{ "element": "Ru", "occu": 1 }],
        "abc": [0.33489087, 0.16744816, 0.749999],
        "properties": { "magmom": 0.0 },
        "label": "Ru",
        "xyz": [1.3639402019726319, 0.7874883414827061, 3.21823246401766]
      },
      {
        "species": [{ "element": "Ru", "occu": 1 }],
        "abc": [0.83255126, 0.66510761, 0.749999],
        "properties": { "magmom": 0.0 },
        "label": "Ru",
        "xyz": [2.7151945947468326, 3.127920333905081, 3.21823246401766]
      },
      {
        "species": [{ "element": "Ru", "occu": 1 }],
        "abc": [0.16743956000000002, 0.8325557, 0.25],
        "properties": { "magmom": -0.0 },
        "label": "Ru",
        "xyz": [-1.3512945093839972, 3.9154085361867583, 1.072745585]
      },
      {
        "species": [{ "element": "Ru", "occu": 1 }],
        "abc": [0.66511489, 0.83254947, 0.25],
        "properties": { "magmom": -0.0 },
        "label": "Ru",
        "xyz": [1.3513062522609949, 3.915379142693397, 1.072745585]
      },
      {
        "species": [{ "element": "Ru", "occu": 1 }],
        "abc": [0.16744769, 0.33488642, 0.25],
        "properties": { "magmom": 0.0 },
        "label": "Ru",
        "xyz": [2.46531014467255e-5, 1.5749302199085635, 1.072745585]
      }
    ]
  },
  "task_ids": null,
  "uncorrected_energy_per_atom": null,
  "energy_per_atom": -32.324015135,
  "formation_energy_per_atom": -0.009306451250004,
  "energy_above_hull": 0.0,
  "is_stable": true,
  "equilibrium_reaction_energy_per_atom": null,
  "decomposes_to": null,
  "xas": null,
  "grain_boundaries": null,
  "band_gap": 0.0,
  "cbm": null,
  "vbm": null,
  "efermi": 8.61862993,
  "is_gap_direct": null,
  "is_metal": null,
  "es_source_calc_id": null,
  "bandstructure": null,
  "dos": null,
  "dos_energy_up": null,
  "dos_energy_down": null,
  "is_magnetic": null,
  "ordering": null,
  "total_magnetization": 0.0,
  "total_magnetization_normalized_vol": null,
  "total_magnetization_normalized_formula_units": null,
  "num_magnetic_sites": null,
  "num_unique_magnetic_sites": null,
  "types_of_magnetic_species": null,
  "bulk_modulus": null,
  "shear_modulus": null,
  "universal_anisotropy": null,
  "homogeneous_poisson": null,
  "e_total": null,
  "e_ionic": null,
  "e_electronic": null,
  "n": null,
  "e_ij_max": null,
  "weighted_surface_energy_EV_PER_ANG2": null,
  "weighted_surface_energy": null,
  "weighted_work_function": null,
  "surface_anisotropy": null,
  "shape_factor": null,
  "has_reconstructed": null,
  "possible_species": null,
  "has_props": null,
  "theoretical": null,
  "database_IDs": null,
  "fields_not_requested": [
    "builder_meta",
    "nsites",
    "elements",
    "nelements",
    "composition",
    "composition_reduced",
    "chemsys",
    "symmetry",
    "property_name",
    "deprecated",
    "deprecation_reasons",
    "last_updated",
    "origins",
    "warnings",
    "task_ids",
    "uncorrected_energy_per_atom",
    "equilibrium_reaction_energy_per_atom",
    "decomposes_to",
    "xas",
    "grain_boundaries",
    "cbm",
    "vbm",
    "is_gap_direct",
    "is_metal",
    "es_source_calc_id",
    "bandstructure",
    "dos",
    "dos_energy_up",
    "dos_energy_down",
    "is_magnetic",
    "ordering",
    "total_magnetization_normalized_vol",
    "total_magnetization_normalized_formula_units",
    "num_magnetic_sites",
    "num_unique_magnetic_sites",
    "types_of_magnetic_species",
    "bulk_modulus",
    "shear_modulus",
    "universal_anisotropy",
    "homogeneous_poisson",
    "e_total",
    "e_ionic",
    "e_electronic",
    "n",
    "e_ij_max",
    "weighted_surface_energy_EV_PER_ANG2",
    "weighted_surface_energy",
    "weighted_work_function",
    "surface_anisotropy",
    "shape_factor",
    "has_reconstructed",
    "possible_species",
    "has_props",
    "theoretical",
    "database_IDs"
  ]
}
