{
  "builder_meta": null,
  "nsites": null,
  "elements": null,
  "nelements": null,
  "composition": null,
  "composition_reduced": null,
  "formula_pretty": "OsSe2",
  "formula_anonymous": "AB2",
  "chemsys": null,
  "volume": 213.78135813884597,
  "density": 10.816970779300911,
  "density_atomic": 17.815113178237166,
  "symmetry": null,
  "property_name": null,
  "material_id": "mp-2480",
  "deprecated": null,
  "deprecation_reasons": null,
  "last_updated": null,
  "origins": null,
  "warnings": null,
  "structure": {
    "@module": "pymatgen.core.structure",
    "@class": "Structure",
    "charge": 0,
    "lattice": {
      "matrix": [
        [5.97938628, -0.0, 0.0],
        [-0.0, 5.97938628, -0.0],
        [-0.0, -0.0, 5.97938628]
      ],
      "pbc": [true, true, true],
      "a": 5.97938628,
      "b": 5.97938628,
      "c": 5.97938628,
      "alpha": 90.0,
      "beta": 90.0,
      "gamma": 90.0,
      "volume": 213.78135813884597
    },
    "properties": {},
    "sites": [
      {
        "species": [{ "element": "Os", "occu": 1 }],
        "abc": [-0.0, 0.5, 0.5],
        "properties": { "magmom": -0.0 },
        "label": "Os",
        "xyz": [0.0, 2.98969314, 2.98969314]
      },
      {
        "species": [{ "element": "Os", "occu": 1 }],
        "abc": [0.5, 0.5, 0.0],
        "properties": { "magmom": -0.0 },
        "label": "Os",
        "xyz": [2.98969314, 2.98969314, 0.0]
      },
      {
        "species": [{ "element": "Os", "occu": 1 }],
        "abc": [0.5, -0.0, 0.5],
        "properties": { "magmom": -0.0 },
        "label": "Os",
        "xyz": [2.98969314, 0.0, 2.98969314]
      },
      {
        "species": [{ "element": "Os", "occu": 1 }],
        "abc": [-0.0, -0.0, 0.0],
        "properties": { "magmom": -0.0 },
        "label": "Os",
        "xyz": [0.0, 0.0, 0.0]
      },
      {
        "species": [{ "element": "Se", "occu": 1 }],
        "abc": [0.37820283, 0.12179717, 0.87820283],
        "properties": { "magmom": -0.0 },
        "label": "Se",
        "xyz": [2.261420812759172, 0.7282723272408276, 5.251113952759172]
      },
      {
        "species": [{ "element": "Se", "occu": 1 }],
        "abc": [0.12179717, 0.87820283, 0.37820283],
        "properties": { "magmom": -0.0 },
        "label": "Se",
        "xyz": [0.7282723272408276, 5.251113952759172, 2.261420812759172]
      },
      {
        "species": [{ "element": "Se", "occu": 1 }],
        "abc": [0.87820283, 0.37820283, 0.12179717],
        "properties": { "magmom": -0.0 },
        "label": "Se",
        "xyz": [5.251113952759172, 2.261420812759172, 0.7282723272408276]
      },
      {
        "species": [{ "element": "Se", "occu": 1 }],
        "abc": [0.62179717, 0.62179717, 0.62179717],
        "properties": { "magmom": -0.0 },
        "label": "Se",
        "xyz": [3.7179654672408278, 3.7179654672408278, 3.7179654672408278]
      },
      {
        "species": [{ "element": "Se", "occu": 1 }],
        "abc": [0.37820283, 0.37820283, 0.37820283],
        "properties": { "magmom": -0.0 },
        "label": "Se",
        "xyz": [2.261420812759172, 2.261420812759172, 2.261420812759172]
      },
      {
        "species": [{ "element": "Se", "occu": 1 }],
        "abc": [0.12179717, 0.62179717, 0.87820283],
        "properties": { "magmom": -0.0 },
        "label": "Se",
        "xyz": [0.7282723272408276, 3.7179654672408278, 5.251113952759172]
      },
      {
        "species": [{ "element": "Se", "occu": 1 }],
        "abc": [0.87820283, 0.12179717, 0.62179717],
        "properties": { "magmom": -0.0 },
        "label": "Se",
        "xyz": [5.251113952759172, 0.7282723272408276, 3.7179654672408278]
      },
      {
        "species": [{ "element": "Se", "occu": 1 }],
        "abc": [0.62179717, 0.87820283, 0.12179717],
        "properties": { "magmom": -0.0 },
        "label": "Se",
        "xyz": [3.7179654672408278, 5.251113952759172, 0.7282723272408276]
      }
    ]
  },
  "task_ids": null,
  "uncorrected_energy_per_atom": null,
  "energy_per_atom": -27.48253870666667,
  "formation_energy_per_atom": -0.279755602708334,
  "energy_above_hull": 0.0,
  "is_stable": true,
  "equilibrium_reaction_energy_per_atom": null,
  "decomposes_to": null,
  "xas": null,
  "grain_boundaries": null,
  "band_gap": 0.0,
  "cbm": null,
  "vbm": null,
  "efermi": 6.05196427,
  "is_gap_direct": null,
  "is_metal": null,
  "es_source_calc_id": null,
  "bandstructure": null,
  "dos": null,
  "dos_energy_up": null,
  "dos_energy_down": null,
  "is_magnetic": null,
  "ordering": null,
  "total_magnetization": 0.0,
  "total_magnetization_normalized_vol": null,
  "total_magnetization_normalized_formula_units": null,
  "num_magnetic_sites": null,
  "num_unique_magnetic_sites": null,
  "types_of_magnetic_species": null,
  "bulk_modulus": null,
  "shear_modulus": null,
  "universal_anisotropy": null,
  "homogeneous_poisson": null,
  "e_total": null,
  "e_ionic": null,
  "e_electronic": null,
  "n": null,
  "e_ij_max": null,
  "weighted_surface_energy_EV_PER_ANG2": null,
  "weighted_surface_energy": null,
  "weighted_work_function": null,
  "surface_anisotropy": null,
  "shape_factor": null,
  "has_reconstructed": null,
  "possible_species": null,
  "has_props": null,
  "theoretical": null,
  "database_IDs": null,
  "fields_not_requested": [
    "builder_meta",
    "nsites",
    "elements",
    "nelements",
    "composition",
    "composition_reduced",
    "chemsys",
    "symmetry",
    "property_name",
    "deprecated",
    "deprecation_reasons",
    "last_updated",
    "origins",
    "warnings",
    "task_ids",
    "uncorrected_energy_per_atom",
    "equilibrium_reaction_energy_per_atom",
    "decomposes_to",
    "xas",
    "grain_boundaries",
    "cbm",
    "vbm",
    "is_gap_direct",
    "is_metal",
    "es_source_calc_id",
    "bandstructure",
    "dos",
    "dos_energy_up",
    "dos_energy_down",
    "is_magnetic",
    "ordering",
    "total_magnetization_normalized_vol",
    "total_magnetization_normalized_formula_units",
    "num_magnetic_sites",
    "num_unique_magnetic_sites",
    "types_of_magnetic_species",
    "bulk_modulus",
    "shear_modulus",
    "universal_anisotropy",
    "homogeneous_poisson",
    "e_total",
    "e_ionic",
    "e_electronic",
    "n",
    "e_ij_max",
    "weighted_surface_energy_EV_PER_ANG2",
    "weighted_surface_energy",
    "weighted_work_function",
    "surface_anisotropy",
    "shape_factor",
    "has_reconstructed",
    "possible_species",
    "has_props",
    "theoretical",
    "database_IDs"
  ]
}
