{"builder_meta": null, "nsites": null, "elements": null, "nelements": null, "composition": null, "composition_reduced": null, "formula_pretty": "P2Ir", "formula_anonymous": "AB2", "chemsys": null, "volume": 183.4509259235919, "density": 9.202463695856821, "density_atomic": 15.287577160299326, "symmetry": null, "property_name": null, "material_id": "mp-10155", "deprecated": null, "deprecation_reasons": null, "last_updated": null, "origins": null, "warnings": null, "structure": {"@module": "pymatgen.core.structure", "@class": "Structure", "charge": 0, "lattice": {"matrix": [[5.37446549, 0.0, -2.1059376], [0.0, 5.80673151, 0.0], [0.014993040000000001, 0.0, 5.8724405]], "pbc": [true, true, true], "a": 5.772335097540224, "b": 5.80673151, "c": 5.8724596394772, "alpha": 90.0, "beta": 111.2510151819972, "gamma": 90.0, "volume": 183.4509259235919}, "properties": {}, "sites": [{"species": [{"element": "P", "occu": 1}], "abc": [0.1580067, 0.88188186, 0.87028772], "properties": {"magmom": 0.0}, "label": "P", "xyz": [0.8622498149362519, 5.120851184559409, 4.77796060299874]}, {"species": [{"element": "P", "occu": 1}], "abc": [0.8419933, 0.38188186, 0.62971228], "properties": {"magmom": 0.0}, "label": "P", "xyz": [4.534705235063748, 2.2174854295594084, 1.92476254700126]}, {"species": [{"element": "P", "occu": 1}], "abc": [0.8419933, 0.11811814, 0.12971228], "properties": {"magmom": 0.0}, "label": "P", "xyz": [4.527208715063748, 0.6858803254405913, -1.0114577029987397]}, {"species": [{"element": "P", "occu": 1}], "abc": [0.1580067, 0.61811814, 0.37028772], "properties": {"magmom": 0.0}, "label": "P", "xyz": [0.8547532949362519, 3.5892460804405912, 1.84174035299874]}, {"species": [{"element": "P", "occu": 1}], "abc": [0.33432299, 0.37720527, 0.18854639], "properties": {"magmom": 0.0}, "label": "P", "xyz": [1.7996342558357408, 2.1903297270470574, 0.4031641015793711]}, {"species": [{"element": "P", "occu": 1}], "abc": [0.66567701, 0.87720527, 0.31145361], "properties": {"magmom": 0.0}, "label": "P", "xyz": [3.5823277541642593, 5.093695482047058, 0.4271185484206288]}, {"species": [{"element": "P", "occu": 1}], "abc": [0.66567701, 0.62279473, 0.81145361], "properties": {"magmom": 0.0}, "label": "P", "xyz": [3.5898242741642594, 3.616401782952942, 3.363338798420629]}, {"species": [{"element": "P", "occu": 1}], "abc": [0.33432299, 0.12279473, 0.6885463900000001], "properties": {"magmom": 0.0}, "label": "P", "xyz": [1.8071307758357407, 0.7130360279529423, 3.3393843515793717]}, {"species": [{"element": "Ir", "occu": 1}], "abc": [0.27186641, 0.49883041, 0.79157869], "properties": {"magmom": -0.0}, "label": "Ir", "xyz": [1.4730048093975086, 2.896574259893219, 4.075965063096929]}, {"species": [{"element": "Ir", "occu": 1}], "abc": [0.72813359, 0.9988304100000001, 0.70842131], "properties": {"magmom": -0.0}, "label": "Ir", "xyz": [3.9239502406024918, 5.799940014893219, 2.626758086903071]}, {"species": [{"element": "Ir", "occu": 1}], "abc": [0.72813359, 0.50116959, 0.20842131], "properties": {"magmom": -0.0}, "label": "Ir", "xyz": [3.9164537206024916, 2.910157250106781, -0.309462163096929]}, {"species": [{"element": "Ir", "occu": 1}], "abc": [0.27186641, 0.00116959, 0.29157869000000003], "properties": {"magmom": -0.0}, "label": "Ir", "xyz": [1.4655082893975084, 0.0067914951067809, 1.1397448130969292]}]}, "task_ids": null, "uncorrected_energy_per_atom": null, "energy_per_atom": -24.272863721666667, "formation_energy_per_atom": -0.8183616969841261, "energy_above_hull": 0.0, "is_stable": true, "equilibrium_reaction_energy_per_atom": null, "decomposes_to": null, "xas": null, "grain_boundaries": null, "band_gap": 0.6331, "cbm": null, "vbm": null, "efermi": 8.336237239999999, "is_gap_direct": null, "is_metal": null, "es_source_calc_id": null, "bandstructure": null, "dos": null, "dos_energy_up": null, "dos_energy_down": null, "is_magnetic": null, "ordering": null, "total_magnetization": 0.0, "total_magnetization_normalized_vol": null, "total_magnetization_normalized_formula_units": null, "num_magnetic_sites": null, "num_unique_magnetic_sites": null, "types_of_magnetic_species": null, "bulk_modulus": null, "shear_modulus": null, "universal_anisotropy": null, "homogeneous_poisson": null, "e_total": null, "e_ionic": null, "e_electronic": null, "n": null, "e_ij_max": null, "weighted_surface_energy_EV_PER_ANG2": null, "weighted_surface_energy": null, "weighted_work_function": null, "surface_anisotropy": null, "shape_factor": null, "has_reconstructed": null, "possible_species": null, "has_props": null, "theoretical": null, "database_IDs": null, "fields_not_requested": ["builder_meta", "nsites", "elements", "nelements", "composition", "composition_reduced", "chemsys", "symmetry", "property_name", "deprecated", "deprecation_reasons", "last_updated", "origins", "warnings", "task_ids", "uncorrected_energy_per_atom", "equilibrium_reaction_energy_per_atom", "decomposes_to", "xas", "grain_boundaries", "cbm", "vbm", "is_gap_direct", "is_metal", "es_source_calc_id", "bandstructure", "dos", "dos_energy_up", "dos_energy_down", "is_magnetic", "ordering", "total_magnetization_normalized_vol", "total_magnetization_normalized_formula_units", "num_magnetic_sites", "num_unique_magnetic_sites", "types_of_magnetic_species", "bulk_modulus", "shear_modulus", "universal_anisotropy", "homogeneous_poisson", "e_total", "e_ionic", "e_electronic", "n", "e_ij_max", "weighted_surface_energy_EV_PER_ANG2", "weighted_surface_energy", "weighted_work_function", "surface_anisotropy", "shape_factor", "has_reconstructed", "possible_species", "has_props", "theoretical", "database_IDs"]}