{
  "builder_meta": null,
  "nsites": null,
  "elements": null,
  "nelements": null,
  "composition": null,
  "composition_reduced": null,
  "formula_pretty": "P2O3",
  "formula_anonymous": "A2B3",
  "chemsys": null,
  "volume": 385.5032877573806,
  "density": 1.89434617763906,
  "density_atomic": 19.27516438786903,
  "symmetry": null,
  "property_name": null,
  "material_id": "mp-368",
  "deprecated": null,
  "deprecation_reasons": null,
  "last_updated": null,
  "origins": null,
  "warnings": null,
  "structure": {
    "@module": "pymatgen.core.structure",
    "@class": "Structure",
    "charge": 0,
    "lattice": {
      "matrix": [
        [8.487091, 0.0, 0.0],
        [0.0, 6.661166, 0.0],
        [0.0, 2.262076, 6.818973]
      ],
      "pbc": [true, true, true],
      "a": 8.487091,
      "b": 6.661166,
      "c": 7.184384497262448,
      "alpha": 71.64763181064083,
      "beta": 90.0,
      "gamma": 90.0,
      "volume": 385.5032877573806
    },
    "properties": {},
    "sites": [
      {
        "species": [{ "element": "P", "occu": 1 }],
        "abc": [0.924862, 0.748525999999999, 0.134685],
        "properties": { "magmom": -0.0 },
        "label": "P",
        "xyz": [7.8493879564419995, 5.2907236473759935, 0.9184133785049999]
      },
      {
        "species": [{ "element": "P", "occu": 1 }],
        "abc": [0.424861999999999, 0.251474, 0.865315],
        "properties": { "magmom": -0.0 },
        "label": "P",
        "xyz": [3.6058424564419913, 3.6325183526239995, 5.900559621495]
      },
      {
        "species": [{ "element": "P", "occu": 1 }],
        "abc": [0.075138, 0.251474, 0.865315],
        "properties": { "magmom": -0.0 },
        "label": "P",
        "xyz": [0.6377030435579999, 3.6325183526239995, 5.900559621495]
      },
      {
        "species": [{ "element": "P", "occu": 1 }],
        "abc": [0.575137999999999, 0.748525999999999, 0.134685],
        "properties": { "magmom": -0.0 },
        "label": "P",
        "xyz": [4.881248543557992, 5.2907236473759935, 0.9184133785049999]
      },
      {
        "species": [{ "element": "P", "occu": 1 }],
        "abc": [0.25, 0.638519, 0.640757],
        "properties": { "magmom": -0.0 },
        "label": "P",
        "xyz": [2.12177275, 5.702722084686, 4.369304682561]
      },
      {
        "species": [{ "element": "P", "occu": 1 }],
        "abc": [0.75, 0.361481, 0.359243],
        "properties": { "magmom": -0.0 },
        "label": "P",
        "xyz": [6.36531825, 3.220519915314, 2.449668317439]
      },
      {
        "species": [{ "element": "P", "occu": 1 }],
        "abc": [0.25, 0.260357, 0.504302],
        "properties": { "magmom": -0.0 },
        "label": "P",
        "xyz": [2.12177275, 2.875050647214, 3.438821721846]
      },
      {
        "species": [{ "element": "P", "occu": 1 }],
        "abc": [0.75, 0.739642999999999, 0.49569799999999903],
        "properties": { "magmom": -0.0 },
        "label": "P",
        "xyz": [6.36531825, 6.048191352785992, 3.3801512781539933]
      },
      {
        "species": [{ "element": "O", "occu": 1 }],
        "abc": [0.25, 0.181233, 0.970160999999999],
        "properties": { "magmom": -0.0 },
        "label": "O",
        "xyz": [2.12177275, 3.4018010119139976, 6.615501664652993]
      },
      {
        "species": [{ "element": "O", "occu": 1 }],
        "abc": [0.75, 0.818766999999999, 0.029838999999999002],
        "properties": { "magmom": -0.0 },
        "label": "O",
        "xyz": [6.36531825, 5.521440988085992, 0.2034713353469932]
      },
      {
        "species": [{ "element": "O", "occu": 1 }],
        "abc": [0.900763, 0.811256, 0.339761],
        "properties": { "magmom": 0.0 },
        "label": "O",
        "xyz": [7.644857550433, 6.172476088332, 2.316821085453]
      },
      {
        "species": [{ "element": "O", "occu": 1 }],
        "abc": [0.400763, 0.188744, 0.660239],
        "properties": { "magmom": 0.0 },
        "label": "O",
        "xyz": [3.4013120504329994, 2.750765911668, 4.502151914547]
      },
      {
        "species": [{ "element": "O", "occu": 1 }],
        "abc": [0.099236999999999, 0.188744, 0.660239],
        "properties": { "magmom": 0.0 },
        "label": "O",
        "xyz": [0.8422334495669915, 2.750765911668, 4.502151914547]
      },
      {
        "species": [{ "element": "O", "occu": 1 }],
        "abc": [0.599237, 0.811256, 0.339761],
        "properties": { "magmom": 0.0 },
        "label": "O",
        "xyz": [5.085778949567, 6.172476088332, 2.316821085453]
      },
      {
        "species": [{ "element": "O", "occu": 1 }],
        "abc": [0.900702, 0.486537, 0.222373],
        "properties": { "magmom": 0.0 },
        "label": "O",
        "xyz": [7.644339837882, 3.74392834849, 1.5163554829289998]
      },
      {
        "species": [{ "element": "O", "occu": 1 }],
        "abc": [0.400702, 0.513463, 0.777627],
        "properties": { "magmom": 0.0 },
        "label": "O",
        "xyz": [3.400794337882, 5.17931365151, 5.302617517071]
      },
      {
        "species": [{ "element": "O", "occu": 1 }],
        "abc": [0.75, 0.478796, 0.5326000000000001],
        "properties": { "magmom": 0.0 },
        "label": "O",
        "xyz": [6.36531825, 4.394121313736, 3.6317850198000006]
      },
      {
        "species": [{ "element": "O", "occu": 1 }],
        "abc": [0.25, 0.521204, 0.46740000000000004],
        "properties": { "magmom": 0.0 },
        "label": "O",
        "xyz": [2.12177275, 4.529120686264, 3.1871879802]
      },
      {
        "species": [{ "element": "O", "occu": 1 }],
        "abc": [0.599298, 0.486537, 0.222373],
        "properties": { "magmom": 0.0 },
        "label": "O",
        "xyz": [5.0862966621179995, 3.74392834849, 1.5163554829289998]
      },
      {
        "species": [{ "element": "O", "occu": 1 }],
        "abc": [0.099298, 0.513463, 0.777627],
        "properties": { "magmom": 0.0 },
        "label": "O",
        "xyz": [0.8427511621179999, 5.17931365151, 5.302617517071]
      }
    ]
  },
  "task_ids": null,
  "uncorrected_energy_per_atom": null,
  "energy_per_atom": -7.094603257999999,
  "formation_energy_per_atom": -1.959637244857141,
  "energy_above_hull": 0.09756114905714501,
  "is_stable": false,
  "equilibrium_reaction_energy_per_atom": null,
  "decomposes_to": null,
  "xas": null,
  "grain_boundaries": null,
  "band_gap": 3.8409,
  "cbm": null,
  "vbm": null,
  "efermi": -0.14873963,
  "is_gap_direct": null,
  "is_metal": null,
  "es_source_calc_id": null,
  "bandstructure": null,
  "dos": null,
  "dos_energy_up": null,
  "dos_energy_down": null,
  "is_magnetic": null,
  "ordering": null,
  "total_magnetization": 0.0002571,
  "total_magnetization_normalized_vol": null,
  "total_magnetization_normalized_formula_units": null,
  "num_magnetic_sites": null,
  "num_unique_magnetic_sites": null,
  "types_of_magnetic_species": null,
  "bulk_modulus": null,
  "shear_modulus": null,
  "universal_anisotropy": null,
  "homogeneous_poisson": null,
  "e_total": null,
  "e_ionic": null,
  "e_electronic": null,
  "n": null,
  "e_ij_max": null,
  "weighted_surface_energy_EV_PER_ANG2": null,
  "weighted_surface_energy": null,
  "weighted_work_function": null,
  "surface_anisotropy": null,
  "shape_factor": null,
  "has_reconstructed": null,
  "possible_species": null,
  "has_props": null,
  "theoretical": null,
  "database_IDs": null,
  "fields_not_requested": [
    "builder_meta",
    "nsites",
    "elements",
    "nelements",
    "composition",
    "composition_reduced",
    "chemsys",
    "symmetry",
    "property_name",
    "deprecated",
    "deprecation_reasons",
    "last_updated",
    "origins",
    "warnings",
    "task_ids",
    "uncorrected_energy_per_atom",
    "equilibrium_reaction_energy_per_atom",
    "decomposes_to",
    "xas",
    "grain_boundaries",
    "cbm",
    "vbm",
    "is_gap_direct",
    "is_metal",
    "es_source_calc_id",
    "bandstructure",
    "dos",
    "dos_energy_up",
    "dos_energy_down",
    "is_magnetic",
    "ordering",
    "total_magnetization_normalized_vol",
    "total_magnetization_normalized_formula_units",
    "num_magnetic_sites",
    "num_unique_magnetic_sites",
    "types_of_magnetic_species",
    "bulk_modulus",
    "shear_modulus",
    "universal_anisotropy",
    "homogeneous_poisson",
    "e_total",
    "e_ionic",
    "e_electronic",
    "n",
    "e_ij_max",
    "weighted_surface_energy_EV_PER_ANG2",
    "weighted_surface_energy",
    "weighted_work_function",
    "surface_anisotropy",
    "shape_factor",
    "has_reconstructed",
    "possible_species",
    "has_props",
    "theoretical",
    "database_IDs"
  ]
}
