{"builder_meta": null, "nsites": null, "elements": null, "nelements": null, "composition": null, "composition_reduced": null, "formula_pretty": "P2O5", "formula_anonymous": "A2B5", "chemsys": null, "volume": 323.9211413388266, "density": 2.910639625653711, "density_atomic": 11.56861219067238, "symmetry": null, "property_name": null, "material_id": "mp-2173", "deprecated": null, "deprecation_reasons": null, "last_updated": null, "origins": null, "warnings": null, "structure": {"@module": "pymatgen.core.structure", "@class": "Structure", "charge": 0, "lattice": {"matrix": [[4.88999163, 0.0, 0.0], [0.0, 7.20676454, 0.0], [0.0, 0.0, 9.19159426]], "pbc": [true, true, true], "a": 4.88999163, "b": 7.20676454, "c": 9.19159426, "alpha": 90.0, "beta": 90.0, "gamma": 90.0, "volume": 323.9211413388266}, "properties": {}, "sites": [{"species": [{"element": "P", "occu": 1}], "abc": [0.25, 0.7147218200000001, 0.24540189], "properties": {"magmom": -0.0}, "label": "P", "xyz": [1.2224979075, 5.150831868340263, 2.2556346035171515]}, {"species": [{"element": "P", "occu": 1}], "abc": [0.75, 0.28527818, 0.75459811], "properties": {"magmom": -0.0}, "label": "P", "xyz": [3.6674937224999997, 2.055932671659737, 6.935959656482849]}, {"species": [{"element": "P", "occu": 1}], "abc": [0.75, 0.21472182, 0.25459811], "properties": {"magmom": -0.0}, "label": "P", "xyz": [3.6674937224999997, 1.5474495983402627, 2.3401625264828487]}, {"species": [{"element": "P", "occu": 1}], "abc": [0.25, 0.78527818, 0.74540189], "properties": {"magmom": -0.0}, "label": "P", "xyz": [1.2224979075, 5.659314941659738, 6.851431733517152]}, {"species": [{"element": "P", "occu": 1}], "abc": [0.25, 0.35021565, 0.401603899999999], "properties": {"magmom": -0.0}, "label": "P", "xyz": [1.2224979075, 2.523921727773051, 3.6913801020336052]}, {"species": [{"element": "P", "occu": 1}], "abc": [0.75, 0.64978435, 0.5983961], "properties": {"magmom": -0.0}, "label": "P", "xyz": [3.6674937224999997, 4.682842812226949, 5.500214157966386]}, {"species": [{"element": "P", "occu": 1}], "abc": [0.75, 0.85021565, 0.0983961], "properties": {"magmom": -0.0}, "label": "P", "xyz": [3.6674937224999997, 6.127303997773051, 0.904417027966386]}, {"species": [{"element": "P", "occu": 1}], "abc": [0.25, 0.14978435, 0.9016039], "properties": {"magmom": -0.0}, "label": "P", "xyz": [1.2224979075, 1.079460542226949, 8.287177232033615]}, {"species": [{"element": "O", "occu": 1}], "abc": [0.25, 0.50075015, 0.27878196], "properties": {"magmom": 0.0}, "label": "O", "xyz": [1.2224979075, 3.608788424419681, 2.56245066332755]}, {"species": [{"element": "O", "occu": 1}], "abc": [0.75, 0.49924985, 0.72121804], "properties": {"magmom": 0.0}, "label": "O", "xyz": [3.6674937224999997, 3.597976115580319, 6.629143596672451]}, {"species": [{"element": "O", "occu": 1}], "abc": [0.75, 0.00075015, 0.22121804], "properties": {"magmom": 0.0}, "label": "O", "xyz": [3.6674937224999997, 0.005406154419681, 2.0333464666724503]}, {"species": [{"element": "O", "occu": 1}], "abc": [0.25, 0.99924985, 0.77878196], "properties": {"magmom": 0.0}, "label": "O", "xyz": [1.2224979075, 7.201358385580319, 7.15824779332755]}, {"species": [{"element": "O", "occu": 1}], "abc": [0.25, 0.84455925, 0.36449643], "properties": {"magmom": 0.0}, "label": "O", "xyz": [1.2224979075, 6.086539654828995, 3.350303293778492]}, {"species": [{"element": "O", "occu": 1}], "abc": [0.75, 0.15544075000000002, 0.63550357], "properties": {"magmom": 0.0}, "label": "O", "xyz": [3.6674937224999997, 1.120224885171005, 5.841290966221509]}, {"species": [{"element": "O", "occu": 1}], "abc": [0.75, 0.34455925, 0.13550357], "properties": {"magmom": 0.0}, "label": "O", "xyz": [3.6674937224999997, 2.4831573848289947, 1.2454938362215082]}, {"species": [{"element": "O", "occu": 1}], "abc": [0.25, 0.65544075, 0.86449643], "properties": {"magmom": 0.0}, "label": "O", "xyz": [1.2224979075, 4.723607155171005, 7.946100423778492]}, {"species": [{"element": "O", "occu": 1}], "abc": [0.25, 0.41037825, 0.55232307], "properties": {"magmom": 0.0}, "label": "O", "xyz": [1.2224979075, 2.957499420087255, 5.076729559877578]}, {"species": [{"element": "O", "occu": 1}], "abc": [0.75, 0.5896217500000001, 0.44767593], "properties": {"magmom": 0.0}, "label": "O", "xyz": [3.6674937224999997, 4.249265119912746, 4.114855508528162]}, {"species": [{"element": "O", "occu": 1}], "abc": [0.75, 0.91037825, 0.94767693], "properties": {"magmom": 0.0}, "label": "O", "xyz": [3.6674937224999997, 6.560881690087255, 8.710661830122422]}, {"species": [{"element": "O", "occu": 1}], "abc": [0.25, 0.08962175, 0.05232307], "properties": {"magmom": 0.0}, "label": "O", "xyz": [1.2224979075, 0.645882849912745, 0.4809324298775782]}, {"species": [{"element": "O", "occu": 1}], "abc": [0.99853506, 0.72362422, 0.1389772], "properties": {"magmom": 0.0}, "label": "O", "xyz": [4.882828085661548, 5.2149893689811595, 1.277422033790872]}, {"species": [{"element": "O", "occu": 1}], "abc": [0.49853506000000003, 0.27637578, 0.8610228], "properties": {"magmom": 0.0}, "label": "O", "xyz": [2.437832270661548, 1.9917751710188414, 7.9141722262091285]}, {"species": [{"element": "O", "occu": 1}], "abc": [0.00146494, 0.22362422, 0.3610228], "properties": {"magmom": 0.0}, "label": "O", "xyz": [0.0071635443384522, 1.6116070989811588, 3.318375096209128]}, {"species": [{"element": "O", "occu": 1}], "abc": [0.50146494, 0.7763757800000001, 0.6389772], "properties": {"magmom": 0.0}, "label": "O", "xyz": [2.452159359338452, 5.595157441018841, 5.873219163790872]}, {"species": [{"element": "O", "occu": 1}], "abc": [0.00146494, 0.27637578, 0.8610228], "properties": {"magmom": 0.0}, "label": "O", "xyz": [0.0071635443384522, 1.9917751710188414, 7.9141722262091285]}, {"species": [{"element": "O", "occu": 1}], "abc": [0.50146494, 0.72362422, 0.1389772], "properties": {"magmom": 0.0}, "label": "O", "xyz": [2.452159359338452, 5.2149893689811595, 1.277422033790872]}, {"species": [{"element": "O", "occu": 1}], "abc": [0.99853506, 0.7763757800000001, 0.6389772], "properties": {"magmom": 0.0}, "label": "O", "xyz": [4.882828085661548, 5.595157441018841, 5.873219163790872]}, {"species": [{"element": "O", "occu": 1}], "abc": [0.49853506000000003, 0.22362422, 0.3610228], "properties": {"magmom": 0.0}, "label": "O", "xyz": [2.437832270661548, 1.6116070989811588, 3.318375096209128]}]}, "task_ids": null, "uncorrected_energy_per_atom": null, "energy_per_atom": -7.530581717857144, "formation_energy_per_atom": -2.449045707040817, "energy_above_hull": 0.0, "is_stable": true, "equilibrium_reaction_energy_per_atom": null, "decomposes_to": null, "xas": null, "grain_boundaries": null, "band_gap": 4.8374, "cbm": null, "vbm": null, "efermi": 0.98677272, "is_gap_direct": null, "is_metal": null, "es_source_calc_id": null, "bandstructure": null, "dos": null, "dos_energy_up": null, "dos_energy_down": null, "is_magnetic": null, "ordering": null, "total_magnetization": 0.0, "total_magnetization_normalized_vol": null, "total_magnetization_normalized_formula_units": null, "num_magnetic_sites": null, "num_unique_magnetic_sites": null, "types_of_magnetic_species": null, "bulk_modulus": null, "shear_modulus": null, "universal_anisotropy": null, "homogeneous_poisson": null, "e_total": null, "e_ionic": null, "e_electronic": null, "n": null, "e_ij_max": null, "weighted_surface_energy_EV_PER_ANG2": null, "weighted_surface_energy": null, "weighted_work_function": null, "surface_anisotropy": null, "shape_factor": null, "has_reconstructed": null, "possible_species": null, "has_props": null, "theoretical": null, "database_IDs": null, "fields_not_requested": ["builder_meta", "nsites", "elements", "nelements", "composition", "composition_reduced", "chemsys", "symmetry", "property_name", "deprecated", "deprecation_reasons", "last_updated", "origins", "warnings", "task_ids", "uncorrected_energy_per_atom", "equilibrium_reaction_energy_per_atom", "decomposes_to", "xas", "grain_boundaries", "cbm", "vbm", "is_gap_direct", "is_metal", "es_source_calc_id", "bandstructure", "dos", "dos_energy_up", "dos_energy_down", "is_magnetic", "ordering", "total_magnetization_normalized_vol", "total_magnetization_normalized_formula_units", "num_magnetic_sites", "num_unique_magnetic_sites", "types_of_magnetic_species", "bulk_modulus", "shear_modulus", "universal_anisotropy", "homogeneous_poisson", "e_total", "e_ionic", "e_electronic", "n", "e_ij_max", "weighted_surface_energy_EV_PER_ANG2", "weighted_surface_energy", "weighted_work_function", "surface_anisotropy", "shape_factor", "has_reconstructed", "possible_species", "has_props", "theoretical", "database_IDs"]}