{
  "builder_meta": null,
  "nsites": null,
  "elements": null,
  "nelements": null,
  "composition": null,
  "composition_reduced": null,
  "formula_pretty": "P2Os",
  "formula_anonymous": "AB2",
  "chemsys": null,
  "volume": 88.64966921430491,
  "density": 9.447313995231188,
  "density_atomic": 14.774944869050818,
  "symmetry": null,
  "property_name": null,
  "material_id": "mp-2319",
  "deprecated": null,
  "deprecation_reasons": null,
  "last_updated": null,
  "origins": null,
  "warnings": null,
  "structure": {
    "@module": "pymatgen.core.structure",
    "@class": "Structure",
    "charge": 0,
    "lattice": {
      "matrix": [
        [2.94564109, 0.0, 0.0],
        [0.0, 5.09488199, 0.0],
        [0.0, -0.0, 5.90694818]
      ],
      "pbc": [true, true, true],
      "a": 2.94564109,
      "b": 5.09488199,
      "c": 5.90694818,
      "alpha": 90.0,
      "beta": 90.0,
      "gamma": 90.0,
      "volume": 88.64966921430491
    },
    "properties": {},
    "sites": [
      {
        "species": [{ "element": "P", "occu": 1 }],
        "abc": [0.5, 0.33695504, 0.87318119],
        "properties": { "magmom": 0.0 },
        "label": "P",
        "xyz": [1.472820545, 1.7167461647357296, 5.157836041080734]
      },
      {
        "species": [{ "element": "P", "occu": 1 }],
        "abc": [0.5, 0.66304496, 0.12681881],
        "properties": { "magmom": 0.0 },
        "label": "P",
        "xyz": [1.472820545, 3.3781358252642706, 0.7491121389192658]
      },
      {
        "species": [{ "element": "P", "occu": 1 }],
        "abc": [-0.0, 0.16304496000000002, 0.37318119],
        "properties": { "magmom": 0.0 },
        "label": "P",
        "xyz": [0.0, 0.8306948302642705, 2.204361951080734]
      },
      {
        "species": [{ "element": "P", "occu": 1 }],
        "abc": [-0.0, 0.83695504, 0.6268188100000001],
        "properties": { "magmom": 0.0 },
        "label": "P",
        "xyz": [0.0, 4.264187159735729, 3.702586228919266]
      },
      {
        "species": [{ "element": "Os", "occu": 1 }],
        "abc": [0.5, 0.5, 0.5],
        "properties": { "magmom": -0.0 },
        "label": "Os",
        "xyz": [1.472820545, 2.547440995, 2.95347409]
      },
      {
        "species": [{ "element": "Os", "occu": 1 }],
        "abc": [0.0, -0.0, -0.0],
        "properties": { "magmom": -0.0 },
        "label": "Os",
        "xyz": [0.0, 0.0, 0.0]
      }
    ]
  },
  "task_ids": null,
  "uncorrected_energy_per_atom": null,
  "energy_per_atom": -24.270498343333333,
  "formation_energy_per_atom": -0.607371185317461,
  "energy_above_hull": 0.0,
  "is_stable": true,
  "equilibrium_reaction_energy_per_atom": null,
  "decomposes_to": null,
  "xas": null,
  "grain_boundaries": null,
  "band_gap": 0.8159000000000001,
  "cbm": null,
  "vbm": null,
  "efermi": 7.95949453,
  "is_gap_direct": null,
  "is_metal": null,
  "es_source_calc_id": null,
  "bandstructure": null,
  "dos": null,
  "dos_energy_up": null,
  "dos_energy_down": null,
  "is_magnetic": null,
  "ordering": null,
  "total_magnetization": 0.0,
  "total_magnetization_normalized_vol": null,
  "total_magnetization_normalized_formula_units": null,
  "num_magnetic_sites": null,
  "num_unique_magnetic_sites": null,
  "types_of_magnetic_species": null,
  "bulk_modulus": null,
  "shear_modulus": null,
  "universal_anisotropy": null,
  "homogeneous_poisson": null,
  "e_total": null,
  "e_ionic": null,
  "e_electronic": null,
  "n": null,
  "e_ij_max": null,
  "weighted_surface_energy_EV_PER_ANG2": null,
  "weighted_surface_energy": null,
  "weighted_work_function": null,
  "surface_anisotropy": null,
  "shape_factor": null,
  "has_reconstructed": null,
  "possible_species": null,
  "has_props": null,
  "theoretical": null,
  "database_IDs": null,
  "fields_not_requested": [
    "builder_meta",
    "nsites",
    "elements",
    "nelements",
    "composition",
    "composition_reduced",
    "chemsys",
    "symmetry",
    "property_name",
    "deprecated",
    "deprecation_reasons",
    "last_updated",
    "origins",
    "warnings",
    "task_ids",
    "uncorrected_energy_per_atom",
    "equilibrium_reaction_energy_per_atom",
    "decomposes_to",
    "xas",
    "grain_boundaries",
    "cbm",
    "vbm",
    "is_gap_direct",
    "is_metal",
    "es_source_calc_id",
    "bandstructure",
    "dos",
    "dos_energy_up",
    "dos_energy_down",
    "is_magnetic",
    "ordering",
    "total_magnetization_normalized_vol",
    "total_magnetization_normalized_formula_units",
    "num_magnetic_sites",
    "num_unique_magnetic_sites",
    "types_of_magnetic_species",
    "bulk_modulus",
    "shear_modulus",
    "universal_anisotropy",
    "homogeneous_poisson",
    "e_total",
    "e_ionic",
    "e_electronic",
    "n",
    "e_ij_max",
    "weighted_surface_energy_EV_PER_ANG2",
    "weighted_surface_energy",
    "weighted_work_function",
    "surface_anisotropy",
    "shape_factor",
    "has_reconstructed",
    "possible_species",
    "has_props",
    "theoretical",
    "database_IDs"
  ]
}
