{
  "builder_meta": null,
  "nsites": null,
  "elements": null,
  "nelements": null,
  "composition": null,
  "composition_reduced": null,
  "formula_pretty": "P2Pd",
  "formula_anonymous": "AB2",
  "chemsys": null,
  "volume": 100.96585044697865,
  "density": 5.538126998604,
  "density_atomic": 16.82764174116311,
  "symmetry": null,
  "property_name": null,
  "material_id": "mp-28266",
  "deprecated": null,
  "deprecation_reasons": null,
  "last_updated": null,
  "origins": null,
  "warnings": null,
  "structure": {
    "@module": "pymatgen.core.structure",
    "@class": "Structure",
    "charge": 0,
    "lattice": {
      "matrix": [
        [4.20137025, -0.0401447, -1.671045149999999],
        [-1.25589883, 4.1483913900000005, -1.28805688],
        [-0.02161629, 0.0234463, 5.80836474]
      ],
      "pbc": [true, true, true],
      "a": 4.521671755873227,
      "b": 4.521672646481259,
      "c": 5.808452284890729,
      "alpha": 106.26746372061699,
      "beta": 111.90394944838175,
      "gamma": 99.26182709198547,
      "volume": 100.96585044697866
    },
    "properties": {},
    "sites": [
      {
        "species": [{ "element": "P", "occu": 1 }],
        "abc": [0.023589699999999002, 0.06130202, 0.33398822],
        "properties": { "magmom": 0.0 },
        "label": "P",
        "xyz": [0.014900342371680416, 0.26118855853060385, 1.8215454582295119]
      },
      {
        "species": [{ "element": "P", "occu": 1 }],
        "abc": [0.227314799999999, 0.68960348, 0.16601178],
        "properties": { "magmom": 0.0 },
        "label": "P",
        "xyz": [0.08537287562887116, 2.855512016491892, -0.3038448315725233]
      },
      {
        "species": [{ "element": "P", "occu": 1 }],
        "abc": [0.7726852, 0.31039652, 0.8339882200000001],
        "properties": { "magmom": 0.0 },
        "label": "P",
        "xyz": [2.838482254371125, 1.276180973508109, 3.1531075415725267]
      },
      {
        "species": [{ "element": "P", "occu": 1 }],
        "abc": [0.9764103, 0.93869798, 0.66601178],
        "properties": { "magmom": 0.0 },
        "label": "P",
        "xyz": [2.908954787628315, 3.870504431469397, 1.0277172517704907]
      },
      {
        "species": [{ "element": "Pd", "occu": 1 }],
        "abc": [0.5, 0.5, 0.5],
        "properties": { "magmom": -0.0 },
        "label": "Pd",
        "xyz": [1.461927565, 2.065846495, 1.4246313550000005]
      },
      {
        "species": [{ "element": "Pd", "occu": 1 }],
        "abc": [0.5, -0.0, 0.0],
        "properties": { "magmom": -0.0 },
        "label": "Pd",
        "xyz": [2.100685125, -0.02007235, -0.8355225749999995]
      }
    ]
  },
  "task_ids": null,
  "uncorrected_energy_per_atom": null,
  "energy_per_atom": -5.765189985,
  "formation_energy_per_atom": -0.42824703142857,
  "energy_above_hull": 0.0,
  "is_stable": true,
  "equilibrium_reaction_energy_per_atom": null,
  "decomposes_to": null,
  "xas": null,
  "grain_boundaries": null,
  "band_gap": 0.34189999999999904,
  "cbm": null,
  "vbm": null,
  "efermi": 6.11811231,
  "is_gap_direct": null,
  "is_metal": null,
  "es_source_calc_id": null,
  "bandstructure": null,
  "dos": null,
  "dos_energy_up": null,
  "dos_energy_down": null,
  "is_magnetic": null,
  "ordering": null,
  "total_magnetization": 0.0,
  "total_magnetization_normalized_vol": null,
  "total_magnetization_normalized_formula_units": null,
  "num_magnetic_sites": null,
  "num_unique_magnetic_sites": null,
  "types_of_magnetic_species": null,
  "bulk_modulus": null,
  "shear_modulus": null,
  "universal_anisotropy": null,
  "homogeneous_poisson": null,
  "e_total": null,
  "e_ionic": null,
  "e_electronic": null,
  "n": null,
  "e_ij_max": null,
  "weighted_surface_energy_EV_PER_ANG2": null,
  "weighted_surface_energy": null,
  "weighted_work_function": null,
  "surface_anisotropy": null,
  "shape_factor": null,
  "has_reconstructed": null,
  "possible_species": null,
  "has_props": null,
  "theoretical": null,
  "database_IDs": null,
  "fields_not_requested": [
    "builder_meta",
    "nsites",
    "elements",
    "nelements",
    "composition",
    "composition_reduced",
    "chemsys",
    "symmetry",
    "property_name",
    "deprecated",
    "deprecation_reasons",
    "last_updated",
    "origins",
    "warnings",
    "task_ids",
    "uncorrected_energy_per_atom",
    "equilibrium_reaction_energy_per_atom",
    "decomposes_to",
    "xas",
    "grain_boundaries",
    "cbm",
    "vbm",
    "is_gap_direct",
    "is_metal",
    "es_source_calc_id",
    "bandstructure",
    "dos",
    "dos_energy_up",
    "dos_energy_down",
    "is_magnetic",
    "ordering",
    "total_magnetization_normalized_vol",
    "total_magnetization_normalized_formula_units",
    "num_magnetic_sites",
    "num_unique_magnetic_sites",
    "types_of_magnetic_species",
    "bulk_modulus",
    "shear_modulus",
    "universal_anisotropy",
    "homogeneous_poisson",
    "e_total",
    "e_ionic",
    "e_electronic",
    "n",
    "e_ij_max",
    "weighted_surface_energy_EV_PER_ANG2",
    "weighted_surface_energy",
    "weighted_work_function",
    "surface_anisotropy",
    "shape_factor",
    "has_reconstructed",
    "possible_species",
    "has_props",
    "theoretical",
    "database_IDs"
  ]
}
