{"builder_meta": null, "nsites": null, "elements": null, "nelements": null, "composition": null, "composition_reduced": null, "formula_pretty": "P2Pt5", "formula_anonymous": "A2B5", "chemsys": null, "volume": 216.67501444117147, "density": 15.90021170153706, "density_atomic": 15.476786745797963, "symmetry": null, "property_name": null, "material_id": "mp-13871", "deprecated": null, "deprecation_reasons": null, "last_updated": null, "origins": null, "warnings": null, "structure": {"@module": "pymatgen.core.structure", "@class": "Structure", "charge": 0, "lattice": {"matrix": [[5.4122499600000005, -1e-08, 0.0], [-2.706126, 5.36478457, -0.88612475], [1e-08, -0.033940160000000004, 7.46800909]], "pbc": [true, true, true], "a": 5.4122499600000005, "b": 6.073651988955956, "c": 7.468086214203975, "alpha": 98.62167024536173, "beta": 89.99999992279805, "gamma": 116.4586422068001, "volume": 216.6750144411715}, "properties": {}, "sites": [{"species": [{"element": "P", "occu": 1}], "abc": [0.43571492, 0.6830852900000001, 0.2236609], "properties": {"magmom": 0.0}, "label": "P", "xyz": [0.5096831970914725, 3.6570143326970825, 1.0650028524476534]}, {"species": [{"element": "P", "occu": 1}], "abc": [0.75263063, 0.31691471, 0.2763391], "properties": {"magmom": 0.0}, "label": "P", "xyz": [3.215813963362206, 1.6908001454194626, 1.7828769425523465]}, {"species": [{"element": "P", "occu": 1}], "abc": [0.56428508, 0.31691471, 0.7763391], "properties": {"magmom": 0.0}, "label": "P", "xyz": [2.196440772908528, 1.6738300673029178, 5.516881487552347]}, {"species": [{"element": "P", "occu": 1}], "abc": [0.24736937, 0.6830852900000001, 0.723660899999999], "properties": {"magmom": 0.0}, "label": "P", "xyz": [-0.5096899933622058, 3.6400442545805385, 4.799007397447647]}, {"species": [{"element": "Pt", "occu": 1}], "abc": [0.8442674800000001, 0.237901299999999, 0.9685554200000001], "properties": {"magmom": -0.0}, "label": "Pt", "xyz": [3.9255957511810586, 1.2434162890565936, 7.022370450741594]}, {"species": [{"element": "Pt", "occu": 1}], "abc": [0.60636718, 0.7620987, 0.53144458], "properties": {"magmom": -0.0}, "label": "Pt", "xyz": [1.219475644378559, 4.070458026437055, 3.2935184342584076]}, {"species": [{"element": "Pt", "occu": 1}], "abc": [0.91982748, 0.28886828000000003, 0.59605989], "properties": {"magmom": 0.0}, "label": "Pt", "xyz": [4.196622284714221, 1.5294857140719826, 4.195407344306471]}, {"species": [{"element": "Pt", "occu": 1}], "abc": [0.630959199999999, 0.71113172, 0.9039401100000001], "properties": {"magmom": 0.0}, "label": "Pt", "xyz": [1.4904968770843081, 3.7843886004201512, 6.120481540693531]}, {"species": [{"element": "Pt", "occu": 1}], "abc": [0.08017252, 0.71113172, 0.40394011], "properties": {"magmom": 0.0}, "label": "Pt", "xyz": [-1.4904983147142197, 3.801358685928018, 2.38647699569353]}, {"species": [{"element": "Pt", "occu": 1}], "abc": [0.3690408, 0.28886828000000003, 0.09605989000000001], "properties": {"magmom": 0.0}, "label": "Pt", "xyz": [1.215627092915687, 1.5464557995798494, 0.46140279930647016]}, {"species": [{"element": "Pt", "occu": 1}], "abc": [0.39363282, 0.237901299999999, 0.46855542], "properties": {"magmom": -0.0}, "label": "Pt", "xyz": [1.4866483256214442, 1.2603863735629404, 3.2883659057415935]}, {"species": [{"element": "Pt", "occu": 1}], "abc": [0.15573252, 0.7620987, 0.03144458], "properties": {"magmom": -0.0}, "label": "Pt", "xyz": [-1.2194717811810547, 4.087428110943402, -0.44048611074159283]}, {"species": [{"element": "Pt", "occu": 1}], "abc": [0.11117073000000001, -0.0, 0.75], "properties": {"magmom": 0.0}, "label": "Pt", "xyz": [0.6016837864956709, -0.025455121111707304, 5.6010068175]}, {"species": [{"element": "Pt", "occu": 1}], "abc": [0.88882927, 0.0, 0.25], "properties": {"magmom": 0.0}, "label": "Pt", "xyz": [4.81056618350433, -0.008485048888292702, 1.8670022725]}]}, "task_ids": null, "uncorrected_energy_per_atom": null, "energy_per_atom": -39.79376518642857, "formation_energy_per_atom": -0.44480274013605803, "energy_above_hull": 0.0, "is_stable": true, "equilibrium_reaction_energy_per_atom": null, "decomposes_to": null, "xas": null, "grain_boundaries": null, "band_gap": 0.0, "cbm": null, "vbm": null, "efermi": 7.79128701, "is_gap_direct": null, "is_metal": null, "es_source_calc_id": null, "bandstructure": null, "dos": null, "dos_energy_up": null, "dos_energy_down": null, "is_magnetic": null, "ordering": null, "total_magnetization": 0.0, "total_magnetization_normalized_vol": null, "total_magnetization_normalized_formula_units": null, "num_magnetic_sites": null, "num_unique_magnetic_sites": null, "types_of_magnetic_species": null, "bulk_modulus": null, "shear_modulus": null, "universal_anisotropy": null, "homogeneous_poisson": null, "e_total": null, "e_ionic": null, "e_electronic": null, "n": null, "e_ij_max": null, "weighted_surface_energy_EV_PER_ANG2": null, "weighted_surface_energy": null, "weighted_work_function": null, "surface_anisotropy": null, "shape_factor": null, "has_reconstructed": null, "possible_species": null, "has_props": null, "theoretical": null, "database_IDs": null, "fields_not_requested": ["builder_meta", "nsites", "elements", "nelements", "composition", "composition_reduced", "chemsys", "symmetry", "property_name", "deprecated", "deprecation_reasons", "last_updated", "origins", "warnings", "task_ids", "uncorrected_energy_per_atom", "equilibrium_reaction_energy_per_atom", "decomposes_to", "xas", "grain_boundaries", "cbm", "vbm", "is_gap_direct", "is_metal", "es_source_calc_id", "bandstructure", "dos", "dos_energy_up", "dos_energy_down", "is_magnetic", "ordering", "total_magnetization_normalized_vol", "total_magnetization_normalized_formula_units", "num_magnetic_sites", "num_unique_magnetic_sites", "types_of_magnetic_species", "bulk_modulus", "shear_modulus", "universal_anisotropy", "homogeneous_poisson", "e_total", "e_ionic", "e_electronic", "n", "e_ij_max", "weighted_surface_energy_EV_PER_ANG2", "weighted_surface_energy", "weighted_work_function", "surface_anisotropy", "shape_factor", "has_reconstructed", "possible_species", "has_props", "theoretical", "database_IDs"]}