{
  "builder_meta": null,
  "nsites": null,
  "elements": null,
  "nelements": null,
  "composition": null,
  "composition_reduced": null,
  "formula_pretty": "P2Pt",
  "formula_anonymous": "AB2",
  "chemsys": null,
  "volume": 187.40592135098834,
  "density": 9.109869824238285,
  "density_atomic": 15.617160112582361,
  "symmetry": null,
  "property_name": null,
  "material_id": "mp-730",
  "deprecated": null,
  "deprecation_reasons": null,
  "last_updated": null,
  "origins": null,
  "warnings": null,
  "structure": {
    "@module": "pymatgen.core.structure",
    "@class": "Structure",
    "charge": 0,
    "lattice": {
      "matrix": [
        [5.72261378, 0.0, -0.0],
        [-0.0, 5.72261378, 0.0],
        [0.0, -0.0, 5.72261378]
      ],
      "pbc": [true, true, true],
      "a": 5.72261378,
      "b": 5.72261378,
      "c": 5.72261378,
      "alpha": 90.0,
      "beta": 90.0,
      "gamma": 90.0,
      "volume": 187.40592135098834
    },
    "properties": {},
    "sites": [
      {
        "species": [{ "element": "P", "occu": 1 }],
        "abc": [0.39023907, 0.39023907, 0.39023907],
        "properties": { "magmom": -0.0 },
        "label": "P",
        "xyz": [2.2331874794763844, 2.2331874794763844, 2.2331874794763844]
      },
      {
        "species": [{ "element": "P", "occu": 1 }],
        "abc": [0.10976093, 0.60976093, 0.89023907],
        "properties": { "magmom": -0.0 },
        "label": "P",
        "xyz": [0.6281194105236154, 3.4894263005236152, 5.094494369476385]
      },
      {
        "species": [{ "element": "P", "occu": 1 }],
        "abc": [0.89023907, 0.10976093, 0.60976093],
        "properties": { "magmom": -0.0 },
        "label": "P",
        "xyz": [5.094494369476385, 0.6281194105236154, 3.4894263005236152]
      },
      {
        "species": [{ "element": "P", "occu": 1 }],
        "abc": [0.60976093, 0.89023907, 0.10976093],
        "properties": { "magmom": -0.0 },
        "label": "P",
        "xyz": [3.4894263005236152, 5.094494369476385, 0.6281194105236154]
      },
      {
        "species": [{ "element": "P", "occu": 1 }],
        "abc": [0.60976093, 0.60976093, 0.60976093],
        "properties": { "magmom": -0.0 },
        "label": "P",
        "xyz": [3.4894263005236152, 3.4894263005236152, 3.4894263005236152]
      },
      {
        "species": [{ "element": "P", "occu": 1 }],
        "abc": [0.89023907, 0.39023907, 0.10976093],
        "properties": { "magmom": -0.0 },
        "label": "P",
        "xyz": [5.094494369476385, 2.2331874794763844, 0.6281194105236154]
      },
      {
        "species": [{ "element": "P", "occu": 1 }],
        "abc": [0.10976093, 0.89023907, 0.39023907],
        "properties": { "magmom": -0.0 },
        "label": "P",
        "xyz": [0.6281194105236154, 5.094494369476385, 2.2331874794763844]
      },
      {
        "species": [{ "element": "P", "occu": 1 }],
        "abc": [0.39023907, 0.10976093, 0.89023907],
        "properties": { "magmom": -0.0 },
        "label": "P",
        "xyz": [2.2331874794763844, 0.6281194105236154, 5.094494369476385]
      },
      {
        "species": [{ "element": "Pt", "occu": 1 }],
        "abc": [0.0, 0.0, 0.0],
        "properties": { "magmom": 0.0 },
        "label": "Pt",
        "xyz": [0.0, 0.0, 0.0]
      },
      {
        "species": [{ "element": "Pt", "occu": 1 }],
        "abc": [0.5, 0.0, 0.5],
        "properties": { "magmom": 0.0 },
        "label": "Pt",
        "xyz": [2.86130689, 0.0, 2.86130689]
      },
      {
        "species": [{ "element": "Pt", "occu": 1 }],
        "abc": [0.5, 0.5, 0.0],
        "properties": { "magmom": 0.0 },
        "label": "Pt",
        "xyz": [2.86130689, 2.86130689, 0.0]
      },
      {
        "species": [{ "element": "Pt", "occu": 1 }],
        "abc": [-0.0, 0.5, 0.5],
        "properties": { "magmom": 0.0 },
        "label": "Pt",
        "xyz": [0.0, 2.86130689, 2.86130689]
      }
    ]
  },
  "task_ids": null,
  "uncorrected_energy_per_atom": null,
  "energy_per_atom": -23.953549356666667,
  "formation_energy_per_atom": -0.789592848650793,
  "energy_above_hull": 0.0,
  "is_stable": true,
  "equilibrium_reaction_energy_per_atom": null,
  "decomposes_to": null,
  "xas": null,
  "grain_boundaries": null,
  "band_gap": 1.018599999999999,
  "cbm": null,
  "vbm": null,
  "efermi": 7.9214364,
  "is_gap_direct": null,
  "is_metal": null,
  "es_source_calc_id": null,
  "bandstructure": null,
  "dos": null,
  "dos_energy_up": null,
  "dos_energy_down": null,
  "is_magnetic": null,
  "ordering": null,
  "total_magnetization": 0.0,
  "total_magnetization_normalized_vol": null,
  "total_magnetization_normalized_formula_units": null,
  "num_magnetic_sites": null,
  "num_unique_magnetic_sites": null,
  "types_of_magnetic_species": null,
  "bulk_modulus": null,
  "shear_modulus": null,
  "universal_anisotropy": null,
  "homogeneous_poisson": null,
  "e_total": null,
  "e_ionic": null,
  "e_electronic": null,
  "n": null,
  "e_ij_max": null,
  "weighted_surface_energy_EV_PER_ANG2": null,
  "weighted_surface_energy": null,
  "weighted_work_function": null,
  "surface_anisotropy": null,
  "shape_factor": null,
  "has_reconstructed": null,
  "possible_species": null,
  "has_props": null,
  "theoretical": null,
  "database_IDs": null,
  "fields_not_requested": [
    "builder_meta",
    "nsites",
    "elements",
    "nelements",
    "composition",
    "composition_reduced",
    "chemsys",
    "symmetry",
    "property_name",
    "deprecated",
    "deprecation_reasons",
    "last_updated",
    "origins",
    "warnings",
    "task_ids",
    "uncorrected_energy_per_atom",
    "equilibrium_reaction_energy_per_atom",
    "decomposes_to",
    "xas",
    "grain_boundaries",
    "cbm",
    "vbm",
    "is_gap_direct",
    "is_metal",
    "es_source_calc_id",
    "bandstructure",
    "dos",
    "dos_energy_up",
    "dos_energy_down",
    "is_magnetic",
    "ordering",
    "total_magnetization_normalized_vol",
    "total_magnetization_normalized_formula_units",
    "num_magnetic_sites",
    "num_unique_magnetic_sites",
    "types_of_magnetic_species",
    "bulk_modulus",
    "shear_modulus",
    "universal_anisotropy",
    "homogeneous_poisson",
    "e_total",
    "e_ionic",
    "e_electronic",
    "n",
    "e_ij_max",
    "weighted_surface_energy_EV_PER_ANG2",
    "weighted_surface_energy",
    "weighted_work_function",
    "surface_anisotropy",
    "shape_factor",
    "has_reconstructed",
    "possible_species",
    "has_props",
    "theoretical",
    "database_IDs"
  ]
}
