{
  "builder_meta": null,
  "nsites": null,
  "elements": null,
  "nelements": null,
  "composition": null,
  "composition_reduced": null,
  "formula_pretty": "P2Rh",
  "formula_anonymous": "AB2",
  "chemsys": null,
  "volume": 181.00969000940165,
  "density": 6.04928689916941,
  "density_atomic": 15.084140834116804,
  "symmetry": null,
  "property_name": null,
  "material_id": "mp-15953",
  "deprecated": null,
  "deprecation_reasons": null,
  "last_updated": null,
  "origins": null,
  "warnings": null,
  "structure": {
    "@module": "pymatgen.core.structure",
    "@class": "Structure",
    "charge": 0,
    "lattice": {
      "matrix": [
        [5.31813458, 0.0, -2.21614557],
        [0.0, 5.80324068, 0.0],
        [0.02694377, 0.0, 5.85382483]
      ],
      "pbc": [true, true, true],
      "a": 5.761410990236888,
      "b": 5.80324068,
      "c": 5.853886837569235,
      "alpha": 90.0,
      "beta": 112.35849940454005,
      "gamma": 90.0,
      "volume": 181.00969000940165
    },
    "properties": {},
    "sites": [
      {
        "species": [{ "element": "P", "occu": 1 }],
        "abc": [0.16021099, 0.8803723999999991, 0.8668498800000001],
        "properties": { "magmom": 0.0 },
        "label": "P",
        "xyz": [0.8753798098062817, 5.1090129252292265, 4.719336475672706]
      },
      {
        "species": [{ "element": "P", "occu": 1 }],
        "abc": [0.8397890100000001, 0.3803724, 0.63315012],
        "properties": { "magmom": 0.0 },
        "label": "P",
        "xyz": [4.483170425193719, 2.207392585229232, 1.8452551993272936]
      },
      {
        "species": [{ "element": "P", "occu": 1 }],
        "abc": [0.8397890100000001, 0.1196276, 0.13315012],
        "properties": { "magmom": 0.0 },
        "label": "P",
        "xyz": [4.469698540193718, 0.694227754770768, -1.0816572156727062]
      },
      {
        "species": [{ "element": "P", "occu": 1 }],
        "abc": [0.16021099, 0.6196276, 0.36684988],
        "properties": { "magmom": 0.0 },
        "label": "P",
        "xyz": [0.8619079248062818, 3.595848094770768, 1.792424060672706]
      },
      {
        "species": [{ "element": "P", "occu": 1 }],
        "abc": [0.33428622, 0.37789471, 0.18728979],
        "properties": { "magmom": 0.0 },
        "label": "P",
        "xyz": [1.782825399224596, 2.193013953828803, 0.35553469754244027]
      },
      {
        "species": [{ "element": "P", "occu": 1 }],
        "abc": [0.66571378, 0.87789471, 0.31271021],
        "properties": { "magmom": 0.0 },
        "label": "P",
        "xyz": [3.548781065775404, 5.094634293828802, 0.35523214745755927]
      },
      {
        "species": [{ "element": "P", "occu": 1 }],
        "abc": [0.66571378, 0.62210529, 0.81271021],
        "properties": { "magmom": 0.0 },
        "label": "P",
        "xyz": [3.562252950775404, 3.6102267261711973, 3.2821445624575594]
      },
      {
        "species": [{ "element": "P", "occu": 1 }],
        "abc": [0.33428622, 0.12210529, 0.68728979],
        "properties": { "magmom": 0.0 },
        "label": "P",
        "xyz": [1.796297284224596, 0.7086063861711972, 3.2824471125424406]
      },
      {
        "species": [{ "element": "Rh", "occu": 1 }],
        "abc": [0.27213106, 0.4982509, 0.78975188],
        "properties": { "magmom": -0.0 },
        "label": "Rh",
        "xyz": [1.4685084934898422, 2.891469891726612, 4.019987121604776]
      },
      {
        "species": [{ "element": "Rh", "occu": 1 }],
        "abc": [0.72786894, 0.998250899999999, 0.71024812],
        "properties": { "magmom": -0.0 },
        "label": "Rh",
        "xyz": [3.890041741510158, 5.793090231726606, 2.5446045533952244]
      },
      {
        "species": [{ "element": "Rh", "occu": 1 }],
        "abc": [0.72786894, 0.5017491, 0.21024812],
        "properties": { "magmom": -0.0 },
        "label": "Rh",
        "xyz": [3.876569856510158, 2.9117707882733876, -0.38230786160477614]
      },
      {
        "species": [{ "element": "Rh", "occu": 1 }],
        "abc": [0.27213106, 0.0017491, 0.28975188],
        "properties": { "magmom": -0.0 },
        "label": "Rh",
        "xyz": [1.4550366084898423, 0.010150448273388, 1.0930747066047761]
      }
    ]
  },
  "task_ids": null,
  "uncorrected_energy_per_atom": null,
  "energy_per_atom": -14.773517265833334,
  "formation_energy_per_atom": -0.7267235144841251,
  "energy_above_hull": 0.0,
  "is_stable": true,
  "equilibrium_reaction_energy_per_atom": null,
  "decomposes_to": null,
  "xas": null,
  "grain_boundaries": null,
  "band_gap": 0.37049999999999905,
  "cbm": null,
  "vbm": null,
  "efermi": 7.70783885,
  "is_gap_direct": null,
  "is_metal": null,
  "es_source_calc_id": null,
  "bandstructure": null,
  "dos": null,
  "dos_energy_up": null,
  "dos_energy_down": null,
  "is_magnetic": null,
  "ordering": null,
  "total_magnetization": 0.0,
  "total_magnetization_normalized_vol": null,
  "total_magnetization_normalized_formula_units": null,
  "num_magnetic_sites": null,
  "num_unique_magnetic_sites": null,
  "types_of_magnetic_species": null,
  "bulk_modulus": null,
  "shear_modulus": null,
  "universal_anisotropy": null,
  "homogeneous_poisson": null,
  "e_total": null,
  "e_ionic": null,
  "e_electronic": null,
  "n": null,
  "e_ij_max": null,
  "weighted_surface_energy_EV_PER_ANG2": null,
  "weighted_surface_energy": null,
  "weighted_work_function": null,
  "surface_anisotropy": null,
  "shape_factor": null,
  "has_reconstructed": null,
  "possible_species": null,
  "has_props": null,
  "theoretical": null,
  "database_IDs": null,
  "fields_not_requested": [
    "builder_meta",
    "nsites",
    "elements",
    "nelements",
    "composition",
    "composition_reduced",
    "chemsys",
    "symmetry",
    "property_name",
    "deprecated",
    "deprecation_reasons",
    "last_updated",
    "origins",
    "warnings",
    "task_ids",
    "uncorrected_energy_per_atom",
    "equilibrium_reaction_energy_per_atom",
    "decomposes_to",
    "xas",
    "grain_boundaries",
    "cbm",
    "vbm",
    "is_gap_direct",
    "is_metal",
    "es_source_calc_id",
    "bandstructure",
    "dos",
    "dos_energy_up",
    "dos_energy_down",
    "is_magnetic",
    "ordering",
    "total_magnetization_normalized_vol",
    "total_magnetization_normalized_formula_units",
    "num_magnetic_sites",
    "num_unique_magnetic_sites",
    "types_of_magnetic_species",
    "bulk_modulus",
    "shear_modulus",
    "universal_anisotropy",
    "homogeneous_poisson",
    "e_total",
    "e_ionic",
    "e_electronic",
    "n",
    "e_ij_max",
    "weighted_surface_energy_EV_PER_ANG2",
    "weighted_surface_energy",
    "weighted_work_function",
    "surface_anisotropy",
    "shape_factor",
    "has_reconstructed",
    "possible_species",
    "has_props",
    "theoretical",
    "database_IDs"
  ]
}
