{
  "builder_meta": null,
  "nsites": null,
  "elements": null,
  "nelements": null,
  "composition": null,
  "composition_reduced": null,
  "formula_pretty": "P2Ru",
  "formula_anonymous": "AB2",
  "chemsys": null,
  "volume": 87.36287712925868,
  "density": 6.197070793396386,
  "density_atomic": 14.560479521543114,
  "symmetry": null,
  "property_name": null,
  "material_id": "mp-1413",
  "deprecated": null,
  "deprecation_reasons": null,
  "last_updated": null,
  "origins": null,
  "warnings": null,
  "structure": {
    "@module": "pymatgen.core.structure",
    "@class": "Structure",
    "charge": 0,
    "lattice": {
      "matrix": [
        [2.89752343, 0.0, 0.0],
        [0.0, 5.11012098, 0.0],
        [0.0, -0.0, 5.90022794]
      ],
      "pbc": [true, true, true],
      "a": 2.89752343,
      "b": 5.11012098,
      "c": 5.90022794,
      "alpha": 90.0,
      "beta": 90.0,
      "gamma": 90.0,
      "volume": 87.36287712925868
    },
    "properties": {},
    "sites": [
      {
        "species": [{ "element": "P", "occu": 1 }],
        "abc": [0.5, 0.33767641, 0.87380843],
        "properties": { "magmom": 0.0 },
        "label": "P",
        "xyz": [1.448761715, 1.7255673071920816, 5.155668912893534]
      },
      {
        "species": [{ "element": "P", "occu": 1 }],
        "abc": [0.5, 0.66232359, 0.12619157],
        "properties": { "magmom": 0.0 },
        "label": "P",
        "xyz": [1.448761715, 3.3845536728079177, 0.7445590271064658]
      },
      {
        "species": [{ "element": "P", "occu": 1 }],
        "abc": [0.0, 0.16232359, 0.37380843],
        "properties": { "magmom": 0.0 },
        "label": "P",
        "xyz": [0.0, 0.8294931828079181, 2.205554942893534]
      },
      {
        "species": [{ "element": "P", "occu": 1 }],
        "abc": [-0.0, 0.83767641, 0.62619157],
        "properties": { "magmom": 0.0 },
        "label": "P",
        "xyz": [0.0, 4.280627797192082, 3.694672997106466]
      },
      {
        "species": [{ "element": "Ru", "occu": 1 }],
        "abc": [0.5, 0.5, 0.5],
        "properties": { "magmom": 0.0 },
        "label": "Ru",
        "xyz": [1.448761715, 2.55506049, 2.95011397]
      },
      {
        "species": [{ "element": "Ru", "occu": 1 }],
        "abc": [0.0, 0.0, 0.0],
        "properties": { "magmom": 0.0 },
        "label": "Ru",
        "xyz": [0.0, 0.0, 0.0]
      }
    ]
  },
  "task_ids": null,
  "uncorrected_energy_per_atom": null,
  "energy_per_atom": -15.150502893333334,
  "formation_energy_per_atom": -0.6742735869841281,
  "energy_above_hull": 0.0,
  "is_stable": true,
  "equilibrium_reaction_energy_per_atom": null,
  "decomposes_to": null,
  "xas": null,
  "grain_boundaries": null,
  "band_gap": 0.479199999999999,
  "cbm": null,
  "vbm": null,
  "efermi": 8.18280746,
  "is_gap_direct": null,
  "is_metal": null,
  "es_source_calc_id": null,
  "bandstructure": null,
  "dos": null,
  "dos_energy_up": null,
  "dos_energy_down": null,
  "is_magnetic": null,
  "ordering": null,
  "total_magnetization": 0.0,
  "total_magnetization_normalized_vol": null,
  "total_magnetization_normalized_formula_units": null,
  "num_magnetic_sites": null,
  "num_unique_magnetic_sites": null,
  "types_of_magnetic_species": null,
  "bulk_modulus": null,
  "shear_modulus": null,
  "universal_anisotropy": null,
  "homogeneous_poisson": null,
  "e_total": null,
  "e_ionic": null,
  "e_electronic": null,
  "n": null,
  "e_ij_max": null,
  "weighted_surface_energy_EV_PER_ANG2": null,
  "weighted_surface_energy": null,
  "weighted_work_function": null,
  "surface_anisotropy": null,
  "shape_factor": null,
  "has_reconstructed": null,
  "possible_species": null,
  "has_props": null,
  "theoretical": null,
  "database_IDs": null,
  "fields_not_requested": [
    "builder_meta",
    "nsites",
    "elements",
    "nelements",
    "composition",
    "composition_reduced",
    "chemsys",
    "symmetry",
    "property_name",
    "deprecated",
    "deprecation_reasons",
    "last_updated",
    "origins",
    "warnings",
    "task_ids",
    "uncorrected_energy_per_atom",
    "equilibrium_reaction_energy_per_atom",
    "decomposes_to",
    "xas",
    "grain_boundaries",
    "cbm",
    "vbm",
    "is_gap_direct",
    "is_metal",
    "es_source_calc_id",
    "bandstructure",
    "dos",
    "dos_energy_up",
    "dos_energy_down",
    "is_magnetic",
    "ordering",
    "total_magnetization_normalized_vol",
    "total_magnetization_normalized_formula_units",
    "num_magnetic_sites",
    "num_unique_magnetic_sites",
    "types_of_magnetic_species",
    "bulk_modulus",
    "shear_modulus",
    "universal_anisotropy",
    "homogeneous_poisson",
    "e_total",
    "e_ionic",
    "e_electronic",
    "n",
    "e_ij_max",
    "weighted_surface_energy_EV_PER_ANG2",
    "weighted_surface_energy",
    "weighted_work_function",
    "surface_anisotropy",
    "shape_factor",
    "has_reconstructed",
    "possible_species",
    "has_props",
    "theoretical",
    "database_IDs"
  ]
}
