{"builder_meta": null, "nsites": null, "elements": null, "nelements": null, "composition": null, "composition_reduced": null, "formula_pretty": "P2S", "formula_anonymous": "AB2", "chemsys": null, "volume": 97.45293015592594, "density": 3.203833247535804, "density_atomic": 16.242155025987657, "symmetry": null, "property_name": null, "material_id": "mp-1220021", "deprecated": null, "deprecation_reasons": null, "last_updated": null, "origins": null, "warnings": null, "structure": {"@module": "pymatgen.core.structure", "@class": "Structure", "charge": 0, "lattice": {"matrix": [[-3.215175, 3.215175, 2.356816], [3.215175, -3.215175, 2.356816], [3.215175, 3.215175, -2.356816]], "pbc": [true, true, true], "a": 5.121453135498362, "b": 5.121453135498362, "c": 5.121453135498362, "alpha": 102.22611363043173, "beta": 102.22611363043173, "gamma": 125.20190604530059, "volume": 97.45293015592594}, "properties": {}, "sites": [{"species": [{"element": "P", "occu": 1}], "abc": [0.125, 0.875, 0.25], "properties": {"magmom": -0.0}, "label": "P", "xyz": [3.2151750000000003, -1.6075875000000002, 1.7676119999999997]}, {"species": [{"element": "P", "occu": 1}], "abc": [0.625, 0.875, 0.75], "properties": {"magmom": 0.001}, "label": "P", "xyz": [3.215175, 1.6075874999999997, 1.7676120000000002]}, {"species": [{"element": "P", "occu": 1}], "abc": [0.125, 0.375, 0.25], "properties": {"magmom": 0.0}, "label": "P", "xyz": [1.6075874999999997, 1.1102230246251565e-16, 0.589204]}, {"species": [{"element": "P", "occu": 1}], "abc": [0.125, 0.875, 0.75], "properties": {"magmom": -0.001}, "label": "P", "xyz": [4.8227625, -4.440892098500626e-16, 0.5892040000000001]}, {"species": [{"element": "S", "occu": 1}], "abc": [0.75, 0.25, 0.5], "properties": {"magmom": 0.0}, "label": "S", "xyz": [2.220446049250313e-16, 3.2151749999999995, 1.178408]}, {"species": [{"element": "S", "occu": 1}], "abc": [0.5, 0.5, 0.0], "properties": {"magmom": 0.0}, "label": "S", "xyz": [0.0, 0.0, 2.356816]}]}, "task_ids": null, "uncorrected_energy_per_atom": null, "energy_per_atom": -8.44110058549603, "formation_energy_per_atom": 0.23861664991567602, "energy_above_hull": 0.35838399078703803, "is_stable": false, "equilibrium_reaction_energy_per_atom": null, "decomposes_to": null, "xas": null, "grain_boundaries": null, "band_gap": 0.0, "cbm": null, "vbm": null, "efermi": 8.11885521, "is_gap_direct": null, "is_metal": null, "es_source_calc_id": null, "bandstructure": null, "dos": null, "dos_energy_up": null, "dos_energy_down": null, "is_magnetic": null, "ordering": null, "total_magnetization": 5.7400000000000006e-05, "total_magnetization_normalized_vol": null, "total_magnetization_normalized_formula_units": null, "num_magnetic_sites": null, "num_unique_magnetic_sites": null, "types_of_magnetic_species": null, "bulk_modulus": null, "shear_modulus": null, "universal_anisotropy": null, "homogeneous_poisson": null, "e_total": null, "e_ionic": null, "e_electronic": null, "n": null, "e_ij_max": null, "weighted_surface_energy_EV_PER_ANG2": null, "weighted_surface_energy": null, "weighted_work_function": null, "surface_anisotropy": null, "shape_factor": null, "has_reconstructed": null, "possible_species": null, "has_props": null, "theoretical": null, "database_IDs": null, "fields_not_requested": ["builder_meta", "nsites", "elements", "nelements", "composition", "composition_reduced", "chemsys", "symmetry", "property_name", "deprecated", "deprecation_reasons", "last_updated", "origins", "warnings", "task_ids", "uncorrected_energy_per_atom", "equilibrium_reaction_energy_per_atom", "decomposes_to", "xas", "grain_boundaries", "cbm", "vbm", "is_gap_direct", "is_metal", "es_source_calc_id", "bandstructure", "dos", "dos_energy_up", "dos_energy_down", "is_magnetic", "ordering", "total_magnetization_normalized_vol", "total_magnetization_normalized_formula_units", "num_magnetic_sites", "num_unique_magnetic_sites", "types_of_magnetic_species", "bulk_modulus", "shear_modulus", "universal_anisotropy", "homogeneous_poisson", "e_total", "e_ionic", "e_electronic", "n", "e_ij_max", "weighted_surface_energy_EV_PER_ANG2", "weighted_surface_energy", "weighted_work_function", "surface_anisotropy", "shape_factor", "has_reconstructed", "possible_species", "has_props", "theoretical", "database_IDs"]}