{
  "builder_meta": null,
  "nsites": null,
  "elements": null,
  "nelements": null,
  "composition": null,
  "composition_reduced": null,
  "formula_pretty": "P2S7",
  "formula_anonymous": "A2B7",
  "chemsys": null,
  "volume": 952.5813284124191,
  "density": 1.997026671381243,
  "density_atomic": 26.46059245590053,
  "symmetry": null,
  "property_name": null,
  "material_id": "mp-1199938",
  "deprecated": null,
  "deprecation_reasons": null,
  "last_updated": null,
  "origins": null,
  "warnings": null,
  "structure": {
    "@module": "pymatgen.core.structure",
    "@class": "Structure",
    "charge": 0,
    "lattice": {
      "matrix": [
        [6.61103693, 0.0, -0.42396235],
        [0.0, 11.18994775, 0.0],
        [-0.08976296, 0.0, 12.88245186]
      ],
      "pbc": [true, true, true],
      "a": 6.624617223964065,
      "b": 11.18994775,
      "c": 12.882764583512555,
      "alpha": 90.0,
      "beta": 94.06854561116292,
      "gamma": 90.0,
      "volume": 952.5813284124191
    },
    "properties": {},
    "sites": [
      {
        "species": [{ "element": "P", "occu": 1 }],
        "abc": [0.01466547, 0.81339309, 0.60001246],
        "properties": { "magmom": -0.0 },
        "label": "P",
        "xyz": [0.0430950693193255, 9.101826177311048, 7.723414024225121]
      },
      {
        "species": [{ "element": "P", "occu": 1 }],
        "abc": [0.98533453, 0.31339309, 0.89998754],
        "properties": { "magmom": -0.0 },
        "label": "P",
        "xyz": [6.433297420680675, 3.506852302311047, 11.176301415774878]
      },
      {
        "species": [{ "element": "P", "occu": 1 }],
        "abc": [0.98533453, 0.18660691000000001, 0.39998754000000003],
        "properties": { "magmom": -0.0 },
        "label": "P",
        "xyz": [6.478178900680675, 2.088121572688953, 4.735075485774879]
      },
      {
        "species": [{ "element": "P", "occu": 1 }],
        "abc": [0.01466547, 0.68660691, 0.10001246],
        "properties": { "magmom": -0.0 },
        "label": "P",
        "xyz": [0.0879765493193255, 7.683095447688952, 1.282188094225121]
      },
      {
        "species": [{ "element": "P", "occu": 1 }],
        "abc": [0.33766625, 0.20269061, 0.8205937600000001],
        "properties": { "magmom": 0.0 },
        "label": "P",
        "xyz": [2.1586651239094827, 2.2680973353156273, 10.428101832950707]
      },
      {
        "species": [{ "element": "P", "occu": 1 }],
        "abc": [0.66233375, 0.70269061, 0.67940624],
        "properties": { "magmom": 0.0 },
        "label": "P",
        "xyz": [4.3177273660905175, 7.863071210315628, 8.471613607049294]
      },
      {
        "species": [{ "element": "P", "occu": 1 }],
        "abc": [0.66233375, 0.79730939, 0.17940624],
        "properties": { "magmom": 0.0 },
        "label": "P",
        "xyz": [4.3626088460905175, 8.921850414684373, 2.030387677049294]
      },
      {
        "species": [{ "element": "P", "occu": 1 }],
        "abc": [0.33766625, 0.29730939, 0.32059376],
        "properties": { "magmom": 0.0 },
        "label": "P",
        "xyz": [2.203546603909483, 3.3268765396843727, 3.986875902950706]
      },
      {
        "species": [{ "element": "S", "occu": 1 }],
        "abc": [0.06939207, 0.721806699999999, 0.94394898],
        "properties": { "magmom": -0.0 },
        "label": "S",
        "xyz": [0.3740218828853643, 8.076979258599915, 12.130957668077539]
      },
      {
        "species": [{ "element": "S", "occu": 1 }],
        "abc": [0.93060793, 0.2218067, 0.5560510200000001],
        "properties": { "magmom": -0.0 },
        "label": "S",
        "xyz": [6.1023706071146355, 2.4820053835999247, 6.768757771922463]
      },
      {
        "species": [{ "element": "S", "occu": 1 }],
        "abc": [0.93060793, 0.2781933, 0.05605102],
        "properties": { "magmom": -0.0 },
        "label": "S",
        "xyz": [6.147252087114635, 3.112968491400075, 0.32753184192246165]
      },
      {
        "species": [{ "element": "S", "occu": 1 }],
        "abc": [0.06939207, 0.7781933, 0.44394898],
        "properties": { "magmom": -0.0 },
        "label": "S",
        "xyz": [0.4189033628853643, 8.707942366400074, 5.689731738077538]
      },
      {
        "species": [{ "element": "S", "occu": 1 }],
        "abc": [0.39566702000000004, 0.23555294000000002, 0.664601],
        "properties": { "magmom": -0.0 },
        "label": "S",
        "xyz": [2.5561127282240887, 2.635825090958885, 8.393942468991161]
      },
      {
        "species": [{ "element": "S", "occu": 1 }],
        "abc": [0.60433298, 0.73555294, 0.835399],
        "properties": { "magmom": -0.0 },
        "label": "S",
        "xyz": [3.9202797617759115, 8.230798965958886, 10.505772971008838]
      },
      {
        "species": [{ "element": "S", "occu": 1 }],
        "abc": [0.60433298, 0.7644470600000001, 0.335399],
        "properties": { "magmom": -0.0 },
        "label": "S",
        "xyz": [3.9651612417759114, 8.554122659041116, 4.0645470410088365]
      },
      {
        "species": [{ "element": "S", "occu": 1 }],
        "abc": [0.39566702000000004, 0.26444706, 0.164601],
        "properties": { "magmom": -0.0 },
        "label": "S",
        "xyz": [2.6009942082240887, 2.959148784041115, 1.9527165389911627]
      },
      {
        "species": [{ "element": "S", "occu": 1 }],
        "abc": [0.1559741, 0.33686911, 0.6075586900000001],
        "properties": { "magmom": 0.0 },
        "label": "S",
        "xyz": [0.9766142688353907, 3.7695477394890027, 7.7607184300745296]
      },
      {
        "species": [{ "element": "S", "occu": 1 }],
        "abc": [0.8440259, 0.83686911, 0.89244131],
        "properties": { "magmom": 0.0 },
        "label": "S",
        "xyz": [5.499778221164609, 9.364521614489002, 11.138997009925472]
      },
      {
        "species": [{ "element": "S", "occu": 1 }],
        "abc": [0.8440259, 0.66313089, 0.39244131],
        "properties": { "magmom": 0.0 },
        "label": "S",
        "xyz": [5.544659701164609, 7.420400010510998, 4.697771079925471]
      },
      {
        "species": [{ "element": "S", "occu": 1 }],
        "abc": [0.1559741, 0.16313089, 0.10755869],
        "properties": { "magmom": 0.0 },
        "label": "S",
        "xyz": [1.0214957488353906, 1.8254261355109975, 1.3194925000745283]
      },
      {
        "species": [{ "element": "S", "occu": 1 }],
        "abc": [0.03228533, 0.14820843, 0.8245528],
        "properties": { "magmom": -0.0 },
        "label": "S",
        "xyz": [0.1394252089229489, 1.6584445878095324, 10.608573987650882]
      },
      {
        "species": [{ "element": "S", "occu": 1 }],
        "abc": [0.96771467, 0.6482084300000001, 0.675447199999999],
        "properties": { "magmom": -0.0 },
        "label": "S",
        "xyz": [6.336967281077052, 7.253418462809533, 8.291141452349104]
      },
      {
        "species": [{ "element": "S", "occu": 1 }],
        "abc": [0.96771467, 0.85179157, 0.1754472],
        "properties": { "magmom": -0.0 },
        "label": "S",
        "xyz": [6.381848761077052, 9.531503162190468, 1.8499155223491175]
      },
      {
        "species": [{ "element": "S", "occu": 1 }],
        "abc": [0.03228533, 0.35179157, 0.3245528],
        "properties": { "magmom": -0.0 },
        "label": "S",
        "xyz": [0.1843066889229489, 3.9365292871904676, 4.167348057650882]
      },
      {
        "species": [{ "element": "S", "occu": 1 }],
        "abc": [0.28828597, 0.369232699999999, 0.8941955500000001],
        "properties": { "magmom": 0.0 },
        "label": "S",
        "xyz": [1.8256035546840441, 4.131694620591414, 11.397208728987993]
      },
      {
        "species": [{ "element": "S", "occu": 1 }],
        "abc": [0.71171403, 0.8692327, 0.60580445],
        "properties": { "magmom": 0.0 },
        "label": "S",
        "xyz": [4.650788935315956, 9.726668495591424, 7.502506711012007]
      },
      {
        "species": [{ "element": "S", "occu": 1 }],
        "abc": [0.71171403, 0.630767299999999, 0.10580445000000001],
        "properties": { "magmom": 0.0 },
        "label": "S",
        "xyz": [4.695670415315956, 7.058253129408564, 1.0612807810120066]
      },
      {
        "species": [{ "element": "S", "occu": 1 }],
        "abc": [0.28828597, 0.1307673, 0.39419555],
        "properties": { "magmom": 0.0 },
        "label": "S",
        "xyz": [1.870485034684044, 1.463279254408575, 4.955982798987994]
      },
      {
        "species": [{ "element": "S", "occu": 1 }],
        "abc": [0.22305366000000001, 0.92086277, 0.6531904],
        "properties": { "magmom": 0.0 },
        "label": "S",
        "xyz": [1.41598367988408, 10.304406281220269, 8.320127529544443]
      },
      {
        "species": [{ "element": "S", "occu": 1 }],
        "abc": [0.7769463400000001, 0.42086277, 0.846809599999999],
        "properties": { "magmom": 0.0 },
        "label": "S",
        "xyz": [5.060408810115921, 4.709432406220268, 10.579587910455544]
      },
      {
        "species": [{ "element": "S", "occu": 1 }],
        "abc": [0.7769463400000001, 0.07913723, 0.3468096],
        "properties": { "magmom": 0.0 },
        "label": "S",
        "xyz": [5.105290290115921, 0.8855414687797325, 4.1383619804555565]
      },
      {
        "species": [{ "element": "S", "occu": 1 }],
        "abc": [0.22305366000000001, 0.5791372300000001, 0.1531904],
        "properties": { "magmom": 0.0 },
        "label": "S",
        "xyz": [1.4608651598840798, 6.480515343779733, 1.878901599544443]
      },
      {
        "species": [{ "element": "S", "occu": 1 }],
        "abc": [0.5443348100000001, 0.09781868, 0.87869489],
        "properties": { "magmom": -0.0 },
        "label": "S",
        "xyz": [3.5197432769312593, 1.09458591817397, 11.088967154818592]
      },
      {
        "species": [{ "element": "S", "occu": 1 }],
        "abc": [0.45566519, 0.59781868, 0.62130511],
        "properties": { "magmom": -0.0 },
        "label": "S",
        "xyz": [2.9566492130687414, 6.68955979317397, 7.810748285181408]
      },
      {
        "species": [{ "element": "S", "occu": 1 }],
        "abc": [0.45566519, 0.9021813200000001, 0.12130511000000001],
        "properties": { "magmom": -0.0 },
        "label": "S",
        "xyz": [3.0015306930687413, 10.09536183182603, 1.3695223551814082]
      },
      {
        "species": [{ "element": "S", "occu": 1 }],
        "abc": [0.5443348100000001, 0.40218132, 0.37869489],
        "properties": { "magmom": -0.0 },
        "label": "S",
        "xyz": [3.5646247569312592, 4.50038795682603, 4.647741224818592]
      }
    ]
  },
  "task_ids": null,
  "uncorrected_energy_per_atom": null,
  "energy_per_atom": -8.423256228888889,
  "formation_energy_per_atom": -0.17335109562665202,
  "energy_above_hull": 0.0,
  "is_stable": true,
  "equilibrium_reaction_energy_per_atom": null,
  "decomposes_to": null,
  "xas": null,
  "grain_boundaries": null,
  "band_gap": 2.1425,
  "cbm": null,
  "vbm": null,
  "efermi": 1.00074297,
  "is_gap_direct": null,
  "is_metal": null,
  "es_source_calc_id": null,
  "bandstructure": null,
  "dos": null,
  "dos_energy_up": null,
  "dos_energy_down": null,
  "is_magnetic": null,
  "ordering": null,
  "total_magnetization": 0.0,
  "total_magnetization_normalized_vol": null,
  "total_magnetization_normalized_formula_units": null,
  "num_magnetic_sites": null,
  "num_unique_magnetic_sites": null,
  "types_of_magnetic_species": null,
  "bulk_modulus": null,
  "shear_modulus": null,
  "universal_anisotropy": null,
  "homogeneous_poisson": null,
  "e_total": null,
  "e_ionic": null,
  "e_electronic": null,
  "n": null,
  "e_ij_max": null,
  "weighted_surface_energy_EV_PER_ANG2": null,
  "weighted_surface_energy": null,
  "weighted_work_function": null,
  "surface_anisotropy": null,
  "shape_factor": null,
  "has_reconstructed": null,
  "possible_species": null,
  "has_props": null,
  "theoretical": null,
  "database_IDs": null,
  "fields_not_requested": [
    "builder_meta",
    "nsites",
    "elements",
    "nelements",
    "composition",
    "composition_reduced",
    "chemsys",
    "symmetry",
    "property_name",
    "deprecated",
    "deprecation_reasons",
    "last_updated",
    "origins",
    "warnings",
    "task_ids",
    "uncorrected_energy_per_atom",
    "equilibrium_reaction_energy_per_atom",
    "decomposes_to",
    "xas",
    "grain_boundaries",
    "cbm",
    "vbm",
    "is_gap_direct",
    "is_metal",
    "es_source_calc_id",
    "bandstructure",
    "dos",
    "dos_energy_up",
    "dos_energy_down",
    "is_magnetic",
    "ordering",
    "total_magnetization_normalized_vol",
    "total_magnetization_normalized_formula_units",
    "num_magnetic_sites",
    "num_unique_magnetic_sites",
    "types_of_magnetic_species",
    "bulk_modulus",
    "shear_modulus",
    "universal_anisotropy",
    "homogeneous_poisson",
    "e_total",
    "e_ionic",
    "e_electronic",
    "n",
    "e_ij_max",
    "weighted_surface_energy_EV_PER_ANG2",
    "weighted_surface_energy",
    "weighted_work_function",
    "surface_anisotropy",
    "shape_factor",
    "has_reconstructed",
    "possible_species",
    "has_props",
    "theoretical",
    "database_IDs"
  ]
}
