{
  "builder_meta": null,
  "nsites": null,
  "elements": null,
  "nelements": null,
  "composition": null,
  "composition_reduced": null,
  "formula_pretty": "P2Se5",
  "formula_anonymous": "A2B5",
  "chemsys": null,
  "volume": 815.327802045095,
  "density": 3.720943185169942,
  "density_atomic": 29.11885007303911,
  "symmetry": null,
  "property_name": null,
  "material_id": "mp-28860",
  "deprecated": null,
  "deprecation_reasons": null,
  "last_updated": null,
  "origins": null,
  "warnings": null,
  "structure": {
    "@module": "pymatgen.core.structure",
    "@class": "Structure",
    "charge": 0,
    "lattice": {
      "matrix": [
        [5.97100357, 0.00225448, 0.0],
        [-2.90591316, 6.45789969, 0.0],
        [0.0, 0.0, 21.1407235]
      ],
      "pbc": [true, true, true],
      "a": 5.971003995613536,
      "b": 7.0815817230025155,
      "c": 21.1407235,
      "alpha": 90.0,
      "beta": 90.0,
      "gamma": 114.205066579826,
      "volume": 815.327802045095
    },
    "properties": {},
    "sites": [
      {
        "species": [{ "element": "P", "occu": 1 }],
        "abc": [0.31132885, 0.2770798, 0.33444557],
        "properties": { "magmom": 0.0 },
        "label": "P",
        "xyz": [1.0537758376038264, 1.79005543919101, 7.070421321169896]
      },
      {
        "species": [{ "element": "P", "occu": 1 }],
        "abc": [0.18867115, 0.7229202, 0.83444557],
        "properties": { "magmom": 0.0 },
        "label": "P",
        "xyz": [-0.9741872126038262, 4.66897149080899, 17.640783071169896]
      },
      {
        "species": [{ "element": "P", "occu": 1 }],
        "abc": [0.68867115, 0.7229202, 0.66555443],
        "properties": { "magmom": 0.0 },
        "label": "P",
        "xyz": [2.0113145723961736, 4.6700987308089905, 14.070302178830106]
      },
      {
        "species": [{ "element": "P", "occu": 1 }],
        "abc": [0.81132885, 0.2770798, 0.16555443],
        "properties": { "magmom": 0.0 },
        "label": "P",
        "xyz": [4.0392776226038265, 1.79118267919101, 3.4999404288301053]
      },
      {
        "species": [{ "element": "P", "occu": 1 }],
        "abc": [0.70106618, 0.28219118, 0.45008165],
        "properties": { "magmom": 0.0 },
        "label": "P",
        "xyz": [3.3660455999883334, 1.8239428735242202, 9.515051715073774]
      },
      {
        "species": [{ "element": "P", "occu": 1 }],
        "abc": [0.79893382, 0.71780882, 0.95008165],
        "properties": { "magmom": 0.0 },
        "label": "P",
        "xyz": [2.684546595011666, 4.637338536475779, 20.085413465073774]
      },
      {
        "species": [{ "element": "P", "occu": 1 }],
        "abc": [0.29893382, 0.71780882, 0.54991835],
        "properties": { "magmom": 0.0 },
        "label": "P",
        "xyz": [-0.3009551899883338, 4.636211296475779, 11.625671784926226]
      },
      {
        "species": [{ "element": "P", "occu": 1 }],
        "abc": [0.20106618, 0.28219118, 0.04991835],
        "properties": { "magmom": 0.0 },
        "label": "P",
        "xyz": [0.3805438149883339, 1.8228156335242203, 1.055310034926225]
      },
      {
        "species": [{ "element": "Se", "occu": 1 }],
        "abc": [0.65464553, 0.5575157, 0.31014245],
        "properties": { "magmom": -0.0 },
        "label": "Se",
        "xyz": [2.28879858717793, 3.601856351454607, 6.5566357810625755]
      },
      {
        "species": [{ "element": "Se", "occu": 1 }],
        "abc": [0.84535447, 0.4424843, 0.8101424500000001],
        "properties": { "magmom": -0.0 },
        "label": "Se",
        "xyz": [3.761793607822069, 2.8594250585453924, 17.126997531062578]
      },
      {
        "species": [{ "element": "Se", "occu": 1 }],
        "abc": [0.34535447, 0.4424843, 0.68985755],
        "properties": { "magmom": -0.0 },
        "label": "Se",
        "xyz": [0.7762918228220699, 2.8582978185453927, 14.584087718937425]
      },
      {
        "species": [{ "element": "Se", "occu": 1 }],
        "abc": [0.15464553, 0.5575157, 0.18985755],
        "properties": { "magmom": -0.0 },
        "label": "Se",
        "xyz": [-0.6967031978220697, 3.600729111454607, 4.013725968937425]
      },
      {
        "species": [{ "element": "Se", "occu": 1 }],
        "abc": [0.92978211, 0.56654625, 0.39482171],
        "properties": { "magmom": 0.0 },
        "label": "Se",
        "xyz": [3.9053980945084827, 3.660795027417015, 8.346816602907184]
      },
      {
        "species": [{ "element": "Se", "occu": 1 }],
        "abc": [0.57021789, 0.43345375, 0.89482171],
        "properties": { "magmom": 0.0 },
        "label": "Se",
        "xyz": [2.1451941004915174, 2.8004863825829847, 18.917178352907186]
      },
      {
        "species": [{ "element": "Se", "occu": 1 }],
        "abc": [0.07021789, 0.43345375, 0.60517829],
        "properties": { "magmom": 0.0 },
        "label": "Se",
        "xyz": [-0.8403076845084827, 2.7993591425829845, 12.793906897092816]
      },
      {
        "species": [{ "element": "Se", "occu": 1 }],
        "abc": [0.42978211, 0.56654625, 0.10517829000000001],
        "properties": { "magmom": 0.0 },
        "label": "Se",
        "xyz": [0.9198963095084822, 3.659667787417015, 2.2235451470928154]
      },
      {
        "species": [{ "element": "Se", "occu": 1 }],
        "abc": [0.6623465900000001, 8.45e-5, 0.39481618],
        "properties": { "magmom": -0.0 },
        "label": "Se",
        "xyz": [3.9546283038053067, 0.0020389396640282, 8.34669969470623]
      },
      {
        "species": [{ "element": "Se", "occu": 1 }],
        "abc": [0.83765341, -8.45e-5, 0.8948161800000001],
        "properties": { "magmom": -0.0 },
        "label": "Se",
        "xyz": [5.001877051194694, 0.0013427803359718003, 18.91706144470623]
      },
      {
        "species": [{ "element": "Se", "occu": 1 }],
        "abc": [0.33765341, -8.45e-5, 0.60518382],
        "properties": { "magmom": -0.0 },
        "label": "Se",
        "xyz": [2.0163752661946934, 0.00021554033597180014, 12.79402380529377]
      },
      {
        "species": [{ "element": "Se", "occu": 1 }],
        "abc": [0.16234659, 8.45e-5, 0.10518382],
        "properties": { "magmom": -0.0 },
        "label": "Se",
        "xyz": [0.9691265188053064, 0.0009116996640281999, 2.22366205529377]
      },
      {
        "species": [{ "element": "Se", "occu": 1 }],
        "abc": [0.38745286, -0.00016943, 0.31084545],
        "properties": { "magmom": 0.0 },
        "label": "Se",
        "xyz": [2.313974759133409, -0.00022065722066389988, 6.571497709683076]
      },
      {
        "species": [{ "element": "Se", "occu": 1 }],
        "abc": [0.11254714, 0.00016943, 0.81084545],
        "properties": { "magmom": 0.0 },
        "label": "Se",
        "xyz": [0.671527025866591, 0.0013478972206639, 17.141859459683076]
      },
      {
        "species": [{ "element": "Se", "occu": 1 }],
        "abc": [0.61254714, 0.00016943, 0.68915455],
        "properties": { "magmom": 0.0 },
        "label": "Se",
        "xyz": [3.6570288108665907, 0.0024751372206639, 14.569225790316926]
      },
      {
        "species": [{ "element": "Se", "occu": 1 }],
        "abc": [0.88745286, -0.00016943, 0.18915455],
        "properties": { "magmom": 0.0 },
        "label": "Se",
        "xyz": [5.299476544133409, 0.0009065827793361002, 3.998864040316925]
      },
      {
        "species": [{ "element": "Se", "occu": 1 }],
        "abc": [0.32109575, 0.27551964, 0.44142112],
        "properties": { "magmom": -0.0 },
        "label": "Se",
        "xyz": [1.1166277218473653, 1.7800021016913714, 9.33196184498032]
      },
      {
        "species": [{ "element": "Se", "occu": 1 }],
        "abc": [0.17890425000000001, 0.72448036, 0.94142112],
        "properties": { "magmom": -0.0 },
        "label": "Se",
        "xyz": [-1.037039096847365, 4.679024828308629, 19.90232359498032]
      },
      {
        "species": [{ "element": "Se", "occu": 1 }],
        "abc": [0.67890425, 0.72448036, 0.55857888],
        "properties": { "magmom": -0.0 },
        "label": "Se",
        "xyz": [1.948462688152635, 4.680152068308629, 11.80876165501968]
      },
      {
        "species": [{ "element": "Se", "occu": 1 }],
        "abc": [0.82109575, 0.27551964, 0.05857888],
        "properties": { "magmom": -0.0 },
        "label": "Se",
        "xyz": [4.1021295068473655, 1.7811293416913714, 1.23839990501968]
      }
    ]
  },
  "task_ids": null,
  "uncorrected_energy_per_atom": null,
  "energy_per_atom": -12.825893703928571,
  "formation_energy_per_atom": -0.031328878394983,
  "energy_above_hull": 0.020371351473215,
  "is_stable": false,
  "equilibrium_reaction_energy_per_atom": null,
  "decomposes_to": null,
  "xas": null,
  "grain_boundaries": null,
  "band_gap": 1.356199999999999,
  "cbm": null,
  "vbm": null,
  "efermi": 1.26174719,
  "is_gap_direct": null,
  "is_metal": null,
  "es_source_calc_id": null,
  "bandstructure": null,
  "dos": null,
  "dos_energy_up": null,
  "dos_energy_down": null,
  "is_magnetic": null,
  "ordering": null,
  "total_magnetization": 0.0,
  "total_magnetization_normalized_vol": null,
  "total_magnetization_normalized_formula_units": null,
  "num_magnetic_sites": null,
  "num_unique_magnetic_sites": null,
  "types_of_magnetic_species": null,
  "bulk_modulus": null,
  "shear_modulus": null,
  "universal_anisotropy": null,
  "homogeneous_poisson": null,
  "e_total": null,
  "e_ionic": null,
  "e_electronic": null,
  "n": null,
  "e_ij_max": null,
  "weighted_surface_energy_EV_PER_ANG2": null,
  "weighted_surface_energy": null,
  "weighted_work_function": null,
  "surface_anisotropy": null,
  "shape_factor": null,
  "has_reconstructed": null,
  "possible_species": null,
  "has_props": null,
  "theoretical": null,
  "database_IDs": null,
  "fields_not_requested": [
    "builder_meta",
    "nsites",
    "elements",
    "nelements",
    "composition",
    "composition_reduced",
    "chemsys",
    "symmetry",
    "property_name",
    "deprecated",
    "deprecation_reasons",
    "last_updated",
    "origins",
    "warnings",
    "task_ids",
    "uncorrected_energy_per_atom",
    "equilibrium_reaction_energy_per_atom",
    "decomposes_to",
    "xas",
    "grain_boundaries",
    "cbm",
    "vbm",
    "is_gap_direct",
    "is_metal",
    "es_source_calc_id",
    "bandstructure",
    "dos",
    "dos_energy_up",
    "dos_energy_down",
    "is_magnetic",
    "ordering",
    "total_magnetization_normalized_vol",
    "total_magnetization_normalized_formula_units",
    "num_magnetic_sites",
    "num_unique_magnetic_sites",
    "types_of_magnetic_species",
    "bulk_modulus",
    "shear_modulus",
    "universal_anisotropy",
    "homogeneous_poisson",
    "e_total",
    "e_ionic",
    "e_electronic",
    "n",
    "e_ij_max",
    "weighted_surface_energy_EV_PER_ANG2",
    "weighted_surface_energy",
    "weighted_work_function",
    "surface_anisotropy",
    "shape_factor",
    "has_reconstructed",
    "possible_species",
    "has_props",
    "theoretical",
    "database_IDs"
  ]
}
