{
  "builder_meta": null,
  "nsites": null,
  "elements": null,
  "nelements": null,
  "composition": null,
  "composition_reduced": null,
  "formula_pretty": "P2Se",
  "formula_anonymous": "AB2",
  "chemsys": null,
  "volume": 108.34668621956574,
  "density": 4.319143603630093,
  "density_atomic": 18.05778103659429,
  "symmetry": null,
  "property_name": null,
  "material_id": "mp-1220020",
  "deprecated": null,
  "deprecation_reasons": null,
  "last_updated": null,
  "origins": null,
  "warnings": null,
  "structure": {
    "@module": "pymatgen.core.structure",
    "@class": "Structure",
    "charge": 0,
    "lattice": {
      "matrix": [
        [-3.252164, 3.252164, 2.561007],
        [3.252164, -3.252164, 2.561007],
        [3.252164, 3.252164, -2.561007]
      ],
      "pbc": [true, true, true],
      "a": 5.264209173260595,
      "b": 5.264209173260595,
      "c": 5.264209173260595,
      "alpha": 103.69047111507291,
      "beta": 103.69047111507291,
      "gamma": 121.77917616536728,
      "volume": 108.34668621956574
    },
    "properties": {},
    "sites": [
      {
        "species": [{ "element": "P", "occu": 1 }],
        "abc": [0.125, 0.875, 0.25],
        "properties": { "magmom": -0.0 },
        "label": "P",
        "xyz": [3.252164, -1.6260819999999998, 1.92075525]
      },
      {
        "species": [{ "element": "P", "occu": 1 }],
        "abc": [0.625, 0.875, 0.75],
        "properties": { "magmom": 0.0 },
        "label": "P",
        "xyz": [3.252164, 1.6260819999999998, 1.92075525]
      },
      {
        "species": [{ "element": "P", "occu": 1 }],
        "abc": [0.125, 0.375, 0.25],
        "properties": { "magmom": 0.0 },
        "label": "P",
        "xyz": [1.6260819999999998, 1.1102230246251565e-16, 0.64025175]
      },
      {
        "species": [{ "element": "P", "occu": 1 }],
        "abc": [0.125, 0.875, 0.75],
        "properties": { "magmom": -0.0 },
        "label": "P",
        "xyz": [4.878246, 0.0, 0.64025175]
      },
      {
        "species": [{ "element": "Se", "occu": 1 }],
        "abc": [0.75, 0.25, 0.5],
        "properties": { "magmom": 0.0 },
        "label": "Se",
        "xyz": [2.220446049250313e-16, 3.2521639999999996, 1.2805035]
      },
      {
        "species": [{ "element": "Se", "occu": 1 }],
        "abc": [0.5, 0.5, 0.0],
        "properties": { "magmom": 0.0 },
        "label": "Se",
        "xyz": [0.0, 0.0, 2.561007]
      }
    ]
  },
  "task_ids": null,
  "uncorrected_energy_per_atom": null,
  "energy_per_atom": -10.471623902619049,
  "formation_energy_per_atom": 0.300280382375992,
  "energy_above_hull": 0.36059731722222205,
  "is_stable": false,
  "equilibrium_reaction_energy_per_atom": null,
  "decomposes_to": null,
  "xas": null,
  "grain_boundaries": null,
  "band_gap": 0.0,
  "cbm": null,
  "vbm": null,
  "efermi": 6.9075726,
  "is_gap_direct": null,
  "is_metal": null,
  "es_source_calc_id": null,
  "bandstructure": null,
  "dos": null,
  "dos_energy_up": null,
  "dos_energy_down": null,
  "is_magnetic": null,
  "ordering": null,
  "total_magnetization": 8.010000000000002e-5,
  "total_magnetization_normalized_vol": null,
  "total_magnetization_normalized_formula_units": null,
  "num_magnetic_sites": null,
  "num_unique_magnetic_sites": null,
  "types_of_magnetic_species": null,
  "bulk_modulus": null,
  "shear_modulus": null,
  "universal_anisotropy": null,
  "homogeneous_poisson": null,
  "e_total": null,
  "e_ionic": null,
  "e_electronic": null,
  "n": null,
  "e_ij_max": null,
  "weighted_surface_energy_EV_PER_ANG2": null,
  "weighted_surface_energy": null,
  "weighted_work_function": null,
  "surface_anisotropy": null,
  "shape_factor": null,
  "has_reconstructed": null,
  "possible_species": null,
  "has_props": null,
  "theoretical": null,
  "database_IDs": null,
  "fields_not_requested": [
    "builder_meta",
    "nsites",
    "elements",
    "nelements",
    "composition",
    "composition_reduced",
    "chemsys",
    "symmetry",
    "property_name",
    "deprecated",
    "deprecation_reasons",
    "last_updated",
    "origins",
    "warnings",
    "task_ids",
    "uncorrected_energy_per_atom",
    "equilibrium_reaction_energy_per_atom",
    "decomposes_to",
    "xas",
    "grain_boundaries",
    "cbm",
    "vbm",
    "is_gap_direct",
    "is_metal",
    "es_source_calc_id",
    "bandstructure",
    "dos",
    "dos_energy_up",
    "dos_energy_down",
    "is_magnetic",
    "ordering",
    "total_magnetization_normalized_vol",
    "total_magnetization_normalized_formula_units",
    "num_magnetic_sites",
    "num_unique_magnetic_sites",
    "types_of_magnetic_species",
    "bulk_modulus",
    "shear_modulus",
    "universal_anisotropy",
    "homogeneous_poisson",
    "e_total",
    "e_ionic",
    "e_electronic",
    "n",
    "e_ij_max",
    "weighted_surface_energy_EV_PER_ANG2",
    "weighted_surface_energy",
    "weighted_work_function",
    "surface_anisotropy",
    "shape_factor",
    "has_reconstructed",
    "possible_species",
    "has_props",
    "theoretical",
    "database_IDs"
  ]
}
