{"builder_meta": null, "nsites": null, "elements": null, "nelements": null, "composition": null, "composition_reduced": null, "formula_pretty": "P2W", "formula_anonymous": "AB2", "chemsys": null, "volume": 88.67367067809505, "density": 9.20543341814556, "density_atomic": 14.778945113015842, "symmetry": null, "property_name": null, "material_id": "mp-11328", "deprecated": null, "deprecation_reasons": null, "last_updated": null, "origins": null, "warnings": null, "structure": {"@module": "pymatgen.core.structure", "@class": "Structure", "charge": 0, "lattice": {"matrix": [[3.06461092, 0.0, -0.86911005], [-0.0, 4.98374023, -0.0], [-0.00836365, -0.0, 5.80819694]], "pbc": [true, true, true], "a": 3.185465801102603, "b": 4.98374023, "c": 5.808202961714294, "alpha": 90.0, "beta": 105.91560531997884, "gamma": 90.0, "volume": 88.67367067809505}, "properties": {}, "sites": [{"species": [{"element": "P", "occu": 1}], "abc": [0.43063927, 0.61728709, 0.8612775500000001], "properties": {"magmom": -0.0}, "label": "P", "xyz": [1.312538385441771, 3.0763985038926314, 4.628196712919034]}, {"species": [{"element": "P", "occu": 1}], "abc": [0.56936073, 0.11728709, 0.13872145], "properties": {"magmom": -0.0}, "label": "P", "xyz": [1.743708892921879, 0.5845283888926307, 0.31088436888402654]}, {"species": [{"element": "P", "occu": 1}], "abc": [0.70046009, 0.80067079, 0.40092217], "properties": {"magmom": -0.0}, "label": "P", "xyz": [2.1432844681310623, 3.990335227108882, 1.7198580171292555]}, {"species": [{"element": "P", "occu": 1}], "abc": [0.29953991, 0.30066979, 0.59907983], "properties": {"magmom": -0.0}, "label": "P", "xyz": [0.9129627851416376, 1.4984601283686518, 3.219240489264625]}, {"species": [{"element": "W", "occu": 1}], "abc": [0.09351542, 0.49904111, 0.18703283], "properties": {"magmom": 0.0}, "label": "W", "xyz": [0.2850241001917569, 2.4870912563308556, 1.0050483195335693]}, {"species": [{"element": "W", "occu": 1}], "abc": [0.9064835800000001, -0.00095889, 0.8129671700000001], "properties": {"magmom": 0.0}, "label": "W", "xyz": [2.771220105197323, -0.0047788586691447, 3.934039439576481]}]}, "task_ids": null, "uncorrected_energy_per_atom": null, "energy_per_atom": -23.50548562, "formation_energy_per_atom": -0.38150328531745903, "energy_above_hull": 0.0, "is_stable": true, "equilibrium_reaction_energy_per_atom": null, "decomposes_to": null, "xas": null, "grain_boundaries": null, "band_gap": 0.0, "cbm": null, "vbm": null, "efermi": 8.586541069999999, "is_gap_direct": null, "is_metal": null, "es_source_calc_id": null, "bandstructure": null, "dos": null, "dos_energy_up": null, "dos_energy_down": null, "is_magnetic": null, "ordering": null, "total_magnetization": 0.0, "total_magnetization_normalized_vol": null, "total_magnetization_normalized_formula_units": null, "num_magnetic_sites": null, "num_unique_magnetic_sites": null, "types_of_magnetic_species": null, "bulk_modulus": null, "shear_modulus": null, "universal_anisotropy": null, "homogeneous_poisson": null, "e_total": null, "e_ionic": null, "e_electronic": null, "n": null, "e_ij_max": null, "weighted_surface_energy_EV_PER_ANG2": null, "weighted_surface_energy": null, "weighted_work_function": null, "surface_anisotropy": null, "shape_factor": null, "has_reconstructed": null, "possible_species": null, "has_props": null, "theoretical": null, "database_IDs": null, "fields_not_requested": ["builder_meta", "nsites", "elements", "nelements", "composition", "composition_reduced", "chemsys", "symmetry", "property_name", "deprecated", "deprecation_reasons", "last_updated", "origins", "warnings", "task_ids", "uncorrected_energy_per_atom", "equilibrium_reaction_energy_per_atom", "decomposes_to", "xas", "grain_boundaries", "cbm", "vbm", "is_gap_direct", "is_metal", "es_source_calc_id", "bandstructure", "dos", "dos_energy_up", "dos_energy_down", "is_magnetic", "ordering", "total_magnetization_normalized_vol", "total_magnetization_normalized_formula_units", "num_magnetic_sites", "num_unique_magnetic_sites", "types_of_magnetic_species", "bulk_modulus", "shear_modulus", "universal_anisotropy", "homogeneous_poisson", "e_total", "e_ionic", "e_electronic", "n", "e_ij_max", "weighted_surface_energy_EV_PER_ANG2", "weighted_surface_energy", "weighted_work_function", "surface_anisotropy", "shape_factor", "has_reconstructed", "possible_species", "has_props", "theoretical", "database_IDs"]}