{"builder_meta": null, "nsites": null, "elements": null, "nelements": null, "composition": null, "composition_reduced": null, "formula_pretty": "P3Au2", "formula_anonymous": "A2B3", "chemsys": null, "volume": 191.606304063284, "density": 8.438561505074777, "density_atomic": 19.1606304063284, "symmetry": null, "property_name": null, "material_id": "mp-27258", "deprecated": null, "deprecation_reasons": null, "last_updated": null, "origins": null, "warnings": null, "structure": {"@module": "pymatgen.core.structure", "@class": "Structure", "charge": 0, "lattice": {"matrix": [[4.69385766, -0.03608178, 0.54708515], [1.5723259, 5.22838236, 2.21687203], [-0.01317228, 0.01925146, 7.79539886]], "pbc": [true, true, true], "a": 4.725770179403477, "b": 5.892598105722662, "c": 7.795433760488368, "alpha": 67.79313907738434, "beta": 83.45009140509318, "gamma": 72.43382449800487, "volume": 191.606304063284}, "properties": {}, "sites": [{"species": [{"element": "P", "occu": 1}], "abc": [0.53389924, 0.6807834500000001, -0.0], "properties": {"magmom": 0.0}, "label": "P", "xyz": [3.5764604880685336, 3.5401321460400954, 1.80129813459219]}, {"species": [{"element": "P", "occu": 1}], "abc": [0.46610076, 0.31921655, 0.0], "properties": {"magmom": 0.0}, "label": "P", "xyz": [2.6897230719314664, 1.6521684339599052, 0.9626590454078106]}, {"species": [{"element": "P", "occu": 1}], "abc": [0.17857535, 0.451044899999999, 0.756249899999999], "properties": {"magmom": -0.0}, "label": "P", "xyz": [1.5374353173848174, 2.36635079693569, 6.992874353560304]}, {"species": [{"element": "P", "occu": 1}], "abc": [0.82142465, 0.79270621, 0.756249899999999], "properties": {"magmom": -0.0}, "label": "P", "xyz": [5.092081355156386, 4.1294916162184325, 8.10198706115036]}, {"species": [{"element": "P", "occu": 1}], "abc": [0.17857535, 0.20729379, 0.2437501], "properties": {"magmom": -0.0}, "label": "P", "xyz": [1.160929924843614, 1.0820604237815676, 2.4573689788496322]}, {"species": [{"element": "P", "occu": 1}], "abc": [0.82142465, 0.5489551, 0.2437501], "properties": {"magmom": -0.0}, "label": "P", "xyz": [4.715575962615182, 2.8452012430643054, 3.566481686439687]}, {"species": [{"element": "Au", "occu": 1}], "abc": [-0.0, 0.89049227, 0.21901346], "properties": {"magmom": 0.0}, "label": "Au", "xyz": [1.3972591532519043, 4.660050405049009, 3.6814046827028637]}, {"species": [{"element": "Au", "occu": 1}], "abc": [0.0, 0.10950773, 0.78098654], "properties": {"magmom": 0.0}, "label": "Au", "xyz": [0.16189446674809582, 0.5875834149509912, 6.330866207297136]}, {"species": [{"element": "Au", "occu": 1}], "abc": [0.5, 0.5, 0.5], "properties": {"magmom": 0.0}, "label": "Au", "xyz": [3.12650564, 2.6057760200000004, 5.27967802]}, {"species": [{"element": "Au", "occu": 1}], "abc": [0.5, 0.0, 0.5], "properties": {"magmom": 0.0}, "label": "Au", "xyz": [2.34034269, -0.00841516, 4.171242005]}]}, "task_ids": null, "uncorrected_energy_per_atom": null, "energy_per_atom": -25.79845658, "formation_energy_per_atom": -0.16322673278571, "energy_above_hull": 0.0, "is_stable": true, "equilibrium_reaction_energy_per_atom": null, "decomposes_to": null, "xas": null, "grain_boundaries": null, "band_gap": 0.0, "cbm": null, "vbm": null, "efermi": 5.49498695, "is_gap_direct": null, "is_metal": null, "es_source_calc_id": null, "bandstructure": null, "dos": null, "dos_energy_up": null, "dos_energy_down": null, "is_magnetic": null, "ordering": null, "total_magnetization": 0.0, "total_magnetization_normalized_vol": null, "total_magnetization_normalized_formula_units": null, "num_magnetic_sites": null, "num_unique_magnetic_sites": null, "types_of_magnetic_species": null, "bulk_modulus": null, "shear_modulus": null, "universal_anisotropy": null, "homogeneous_poisson": null, "e_total": null, "e_ionic": null, "e_electronic": null, "n": null, "e_ij_max": null, "weighted_surface_energy_EV_PER_ANG2": null, "weighted_surface_energy": null, "weighted_work_function": null, "surface_anisotropy": null, "shape_factor": null, "has_reconstructed": null, "possible_species": null, "has_props": null, "theoretical": null, "database_IDs": null, "fields_not_requested": ["builder_meta", "nsites", "elements", "nelements", "composition", "composition_reduced", "chemsys", "symmetry", "property_name", "deprecated", "deprecation_reasons", "last_updated", "origins", "warnings", "task_ids", "uncorrected_energy_per_atom", "equilibrium_reaction_energy_per_atom", "decomposes_to", "xas", "grain_boundaries", "cbm", "vbm", "is_gap_direct", "is_metal", "es_source_calc_id", "bandstructure", "dos", "dos_energy_up", "dos_energy_down", "is_magnetic", "ordering", "total_magnetization_normalized_vol", "total_magnetization_normalized_formula_units", "num_magnetic_sites", "num_unique_magnetic_sites", "types_of_magnetic_species", "bulk_modulus", "shear_modulus", "universal_anisotropy", "homogeneous_poisson", "e_total", "e_ionic", "e_electronic", "n", "e_ij_max", "weighted_surface_energy_EV_PER_ANG2", "weighted_surface_energy", "weighted_work_function", "surface_anisotropy", "shape_factor", "has_reconstructed", "possible_species", "has_props", "theoretical", "database_IDs"]}