{"builder_meta": null, "nsites": null, "elements": null, "nelements": null, "composition": null, "composition_reduced": null, "formula_pretty": "P3Ir", "formula_anonymous": "AB3", "chemsys": null, "volume": 260.21569759251463, "density": 7.278319758061882, "density_atomic": 16.263481099532164, "symmetry": null, "property_name": null, "material_id": "mp-13853", "deprecated": null, "deprecation_reasons": null, "last_updated": null, "origins": null, "warnings": null, "structure": {"@module": "pymatgen.core.structure", "@class": "Structure", "charge": 0, "lattice": {"matrix": [[6.5676330400000005, -0.0, -2.32200876], [-3.2838165200000002, 5.68773614, -2.32200876], [0.0, 0.0, 6.9660273]], "pbc": [true, true, true], "a": 6.966026731905096, "b": 6.966025984505351, "c": 6.9660273, "alpha": 109.47122149378546, "beta": 109.47121932035644, "gamma": 109.47122412205427, "volume": 260.2156975925147}, "properties": {}, "sites": [{"species": [{"element": "P", "occu": 1}], "abc": [0.50661821, 0.861163, 0.64545321], "properties": {"magmom": -0.0}, "label": "P", "xyz": [0.4993812088488978, 4.89806791753082, 1.3202447303492333]}, {"species": [{"element": "P", "occu": 1}], "abc": [0.21570979, 0.861163, 0.35454679], "properties": {"magmom": -0.0}, "label": "P", "xyz": [-1.4111985419572985, 4.89806791753082, -0.030725433518273615]}, {"species": [{"element": "P", "occu": 1}], "abc": [0.78429021, 0.138837, 0.64545321], "properties": {"magmom": -0.0}, "label": "P", "xyz": [4.695015061957299, 0.78966822246918, 2.3527352135182733]}, {"species": [{"element": "P", "occu": 1}], "abc": [0.138837, 0.35454679, 0.49338179], "properties": {"magmom": -0.0}, "label": "P", "xyz": [-0.2524361377404909, 2.0165685908039905, 2.2912695360408666]}, {"species": [{"element": "P", "occu": 1}], "abc": [0.49338179, 0.138837, 0.35454679], "properties": {"magmom": -0.0}, "label": "P", "xyz": [2.784435311151102, 0.78966822246918, 1.0017650496507666]}, {"species": [{"element": "P", "occu": 1}], "abc": [0.138837, 0.64545321, 0.78429021], "properties": {"magmom": -0.0}, "label": "P", "xyz": [-1.2077194455105495, 3.6711675491960096, 3.6422582759804936]}, {"species": [{"element": "P", "occu": 1}], "abc": [0.35454679, 0.21570979, 0.861163], "properties": {"magmom": -0.0}, "label": "P", "xyz": [1.620181840302211, 1.2269003683348108, 4.674744193542259]}, {"species": [{"element": "P", "occu": 1}], "abc": [0.861163, 0.64545321, 0.50661821], "properties": {"magmom": -0.0}, "label": "P", "xyz": [3.536252657740491, 3.6711675491960096, 0.030740243959133107]}, {"species": [{"element": "P", "occu": 1}], "abc": [0.64545321, 0.78429021, 0.138837], "properties": {"magmom": -0.0}, "label": "P", "xyz": [1.6636346796977897, 4.46083577166519, -2.3527344135422594]}, {"species": [{"element": "P", "occu": 1}], "abc": [0.861163, 0.35454679, 0.21570979], "properties": {"magmom": -0.0}, "label": "P", "xyz": [4.49153596551055, 2.0165685908039905, -1.3202484959804934]}, {"species": [{"element": "P", "occu": 1}], "abc": [0.64545321, 0.50661821, 0.861163], "properties": {"magmom": -0.0}, "label": "P", "xyz": [2.5754585804392303, 2.881510702199109, 3.323765038364261]}, {"species": [{"element": "P", "occu": 1}], "abc": [0.35454679, 0.49338179, 0.138837], "properties": {"magmom": -0.0}, "label": "P", "xyz": [0.7083579395607709, 2.8062254378008906, -1.0017552583642608]}, {"species": [{"element": "Ir", "occu": 1}], "abc": [0.5, 0.0, 0.0], "properties": {"magmom": 0.0}, "label": "Ir", "xyz": [3.2838165200000002, 0.0, -1.16100438]}, {"species": [{"element": "Ir", "occu": 1}], "abc": [-0.0, 0.0, 0.5], "properties": {"magmom": 0.0}, "label": "Ir", "xyz": [0.0, 0.0, 3.48301365]}, {"species": [{"element": "Ir", "occu": 1}], "abc": [-0.0, 0.5, 0.0], "properties": {"magmom": 0.0}, "label": "Ir", "xyz": [-1.6419082600000001, 2.84386807, -1.16100438]}, {"species": [{"element": "Ir", "occu": 1}], "abc": [0.5, 0.5, 0.5], "properties": {"magmom": 0.0}, "label": "Ir", "xyz": [1.6419082600000001, 2.84386807, 1.16100489]}]}, "task_ids": null, "uncorrected_energy_per_atom": null, "energy_per_atom": -20.57468033375, "formation_energy_per_atom": -0.733284737232143, "energy_above_hull": 0.0, "is_stable": true, "equilibrium_reaction_energy_per_atom": null, "decomposes_to": null, "xas": null, "grain_boundaries": null, "band_gap": 0.084900000000001, "cbm": null, "vbm": null, "efermi": 8.72654453, "is_gap_direct": null, "is_metal": null, "es_source_calc_id": null, "bandstructure": null, "dos": null, "dos_energy_up": null, "dos_energy_down": null, "is_magnetic": null, "ordering": null, "total_magnetization": 0.0, "total_magnetization_normalized_vol": null, "total_magnetization_normalized_formula_units": null, "num_magnetic_sites": null, "num_unique_magnetic_sites": null, "types_of_magnetic_species": null, "bulk_modulus": null, "shear_modulus": null, "universal_anisotropy": null, "homogeneous_poisson": null, "e_total": null, "e_ionic": null, "e_electronic": null, "n": null, "e_ij_max": null, "weighted_surface_energy_EV_PER_ANG2": null, "weighted_surface_energy": null, "weighted_work_function": null, "surface_anisotropy": null, "shape_factor": null, "has_reconstructed": null, "possible_species": null, "has_props": null, "theoretical": null, "database_IDs": null, "fields_not_requested": ["builder_meta", "nsites", "elements", "nelements", "composition", "composition_reduced", "chemsys", "symmetry", "property_name", "deprecated", "deprecation_reasons", "last_updated", "origins", "warnings", "task_ids", "uncorrected_energy_per_atom", "equilibrium_reaction_energy_per_atom", "decomposes_to", "xas", "grain_boundaries", "cbm", "vbm", "is_gap_direct", "is_metal", "es_source_calc_id", "bandstructure", "dos", "dos_energy_up", "dos_energy_down", "is_magnetic", "ordering", "total_magnetization_normalized_vol", "total_magnetization_normalized_formula_units", "num_magnetic_sites", "num_unique_magnetic_sites", "types_of_magnetic_species", "bulk_modulus", "shear_modulus", "universal_anisotropy", "homogeneous_poisson", "e_total", "e_ionic", "e_electronic", "n", "e_ij_max", "weighted_surface_energy_EV_PER_ANG2", "weighted_surface_energy", "weighted_work_function", "surface_anisotropy", "shape_factor", "has_reconstructed", "possible_species", "has_props", "theoretical", "database_IDs"]}