{
  "builder_meta": null,
  "nsites": null,
  "elements": null,
  "nelements": null,
  "composition": null,
  "composition_reduced": null,
  "formula_pretty": "P3N5",
  "formula_anonymous": "A3B5",
  "chemsys": null,
  "volume": 195.8420094674841,
  "density": 2.763378388306106,
  "density_atomic": 12.240125591717756,
  "symmetry": null,
  "property_name": null,
  "material_id": "mp-567907",
  "deprecated": null,
  "deprecation_reasons": null,
  "last_updated": null,
  "origins": null,
  "warnings": null,
  "structure": {
    "@module": "pymatgen.core.structure",
    "@class": "Structure",
    "charge": 0,
    "lattice": {
      "matrix": [
        [4.89789746, 0.008581720000000001, -1.00943656],
        [-1.81398022, 4.56413392, -0.9415974300000001],
        [-0.0034671100000000002, -0.00406099, 8.75646545]
      ],
      "pbc": [true, true, true],
      "a": 5.000843463182711,
      "b": 5.000844768479463,
      "c": 8.756467078082075,
      "alpha": 100.86918440686868,
      "beta": 101.66808507811287,
      "gamma": 108.40277072904678,
      "volume": 195.84200946748413
    },
    "properties": {},
    "sites": [
      {
        "species": [{ "element": "P", "occu": 1 }],
        "abc": [0.23258421, 0.48258421, 0.75],
        "properties": { "magmom": 0.0 },
        "label": "P",
        "xyz": [0.26117506747078056, 2.2015291921840445, 5.8781700307527025]
      },
      {
        "species": [{ "element": "P", "occu": 1 }],
        "abc": [0.374915899999999, 0.66213241, 0.44480618],
        "properties": { "magmom": 0.0 },
        "label": "P",
        "xyz": [0.6336623476079393, 3.023472061840777, 2.893013955155472]
      },
      {
        "species": [{ "element": "P", "occu": 1 }],
        "abc": [0.28267577, 0.06989028, 0.94480618],
        "properties": { "magmom": 0.0 },
        "label": "P",
        "xyz": [1.254461603441543, 0.31757759348630377, 7.922010907222351]
      },
      {
        "species": [{ "element": "P", "occu": 1 }],
        "abc": [0.625084099999999, 0.33786759, 0.5551938200000001],
        "properties": { "magmom": 0.0 },
        "label": "P",
        "xyz": [2.4467877823920516, 1.5451825881592227, 3.912417504844531]
      },
      {
        "species": [{ "element": "P", "occu": 1 }],
        "abc": [0.71732423, 0.93010972, 0.055193820000000005],
        "properties": { "magmom": 0.0 },
        "label": "P",
        "xyz": [1.8259885265584574, 4.2510770565136955, -1.1165794472223494]
      },
      {
        "species": [{ "element": "P", "occu": 1 }],
        "abc": [0.76741579, 0.51741579, 0.25],
        "properties": { "magmom": 0.0 },
        "label": "P",
        "xyz": [2.8192750625292198, 2.3671254578159555, 0.9272614292472978]
      },
      {
        "species": [{ "element": "N", "occu": 1 }],
        "abc": [0.61088253, 0.50020682, 0.40016445],
        "properties": { "magmom": -0.0 },
        "label": "N",
        "xyz": [2.083287300490034, 2.2866282731728806, 2.4163855649154833]
      },
      {
        "species": [{ "element": "N", "occu": 1 }],
        "abc": [0.30044435, 0.22972627, 0.80875946],
        "properties": { "magmom": -0.0 },
        "label": "N",
        "xyz": [1.052022650930611, 1.0477954264298952, 6.562285092279735]
      },
      {
        "species": [{ "element": "N", "occu": 1 }],
        "abc": [0.38911747, 0.49979318, 0.59983555],
        "properties": { "magmom": -0.0 },
        "label": "N",
        "xyz": [0.9971628295099662, 2.2820263768271194, 4.389045895084517]
      },
      {
        "species": [{ "element": "N", "occu": 1 }],
        "abc": [0.60004136, 0.21071708, 0.09983555000000001],
        "properties": { "magmom": -0.0 },
        "label": "N",
        "xyz": [2.556358297069027, 0.9664849281210982, 0.07009219697552171]
      },
      {
        "species": [{ "element": "N", "occu": 1 }],
        "abc": [0.92096681, 0.49168389, 0.69124054],
        "properties": { "magmom": -0.0 },
        "label": "N",
        "xyz": [3.616499541502008, 2.2492074786387275, 4.660198050392367]
      },
      {
        "species": [{ "element": "N", "occu": 1 }],
        "abc": [0.69955565, 0.77027373, 0.19124054000000001],
        "properties": { "magmom": -0.0 },
        "label": "N",
        "xyz": [2.028427479069389, 3.520859223570105, 0.24314636772026543]
      },
      {
        "species": [{ "element": "N", "occu": 1 }],
        "abc": [0.5, 0.0, 0.5],
        "properties": { "magmom": 0.0 },
        "label": "N",
        "xyz": [2.447215175, 0.0022603650000000003, 3.873514445]
      },
      {
        "species": [{ "element": "N", "occu": 1 }],
        "abc": [0.39995864000000003, 0.78928292, 0.90016445],
        "properties": { "magmom": -0.0 },
        "label": "N",
        "xyz": [0.5240918329309727, 3.602169721878902, 6.735339263024479]
      },
      {
        "species": [{ "element": "N", "occu": 1 }],
        "abc": [0.07903319, 0.50831611, 0.30875946],
        "properties": { "magmom": -0.0 },
        "label": "N",
        "xyz": [-0.5360494115020072, 2.319447171361272, 2.1452334096076333]
      },
      {
        "species": [{ "element": "N", "occu": 1 }],
        "abc": [0.0, 0.0, 0.0],
        "properties": { "magmom": 0.0 },
        "label": "N",
        "xyz": [0.0, 0.0, 0.0]
      }
    ]
  },
  "task_ids": null,
  "uncorrected_energy_per_atom": null,
  "energy_per_atom": -9.5711204325,
  "formation_energy_per_atom": -0.48987264595982205,
  "energy_above_hull": 0.0,
  "is_stable": true,
  "equilibrium_reaction_energy_per_atom": null,
  "decomposes_to": null,
  "xas": null,
  "grain_boundaries": null,
  "band_gap": 3.559999999999999,
  "cbm": null,
  "vbm": null,
  "efermi": 4.07974537,
  "is_gap_direct": null,
  "is_metal": null,
  "es_source_calc_id": null,
  "bandstructure": null,
  "dos": null,
  "dos_energy_up": null,
  "dos_energy_down": null,
  "is_magnetic": null,
  "ordering": null,
  "total_magnetization": 0.0,
  "total_magnetization_normalized_vol": null,
  "total_magnetization_normalized_formula_units": null,
  "num_magnetic_sites": null,
  "num_unique_magnetic_sites": null,
  "types_of_magnetic_species": null,
  "bulk_modulus": null,
  "shear_modulus": null,
  "universal_anisotropy": null,
  "homogeneous_poisson": null,
  "e_total": null,
  "e_ionic": null,
  "e_electronic": null,
  "n": null,
  "e_ij_max": null,
  "weighted_surface_energy_EV_PER_ANG2": null,
  "weighted_surface_energy": null,
  "weighted_work_function": null,
  "surface_anisotropy": null,
  "shape_factor": null,
  "has_reconstructed": null,
  "possible_species": null,
  "has_props": null,
  "theoretical": null,
  "database_IDs": null,
  "fields_not_requested": [
    "builder_meta",
    "nsites",
    "elements",
    "nelements",
    "composition",
    "composition_reduced",
    "chemsys",
    "symmetry",
    "property_name",
    "deprecated",
    "deprecation_reasons",
    "last_updated",
    "origins",
    "warnings",
    "task_ids",
    "uncorrected_energy_per_atom",
    "equilibrium_reaction_energy_per_atom",
    "decomposes_to",
    "xas",
    "grain_boundaries",
    "cbm",
    "vbm",
    "is_gap_direct",
    "is_metal",
    "es_source_calc_id",
    "bandstructure",
    "dos",
    "dos_energy_up",
    "dos_energy_down",
    "is_magnetic",
    "ordering",
    "total_magnetization_normalized_vol",
    "total_magnetization_normalized_formula_units",
    "num_magnetic_sites",
    "num_unique_magnetic_sites",
    "types_of_magnetic_species",
    "bulk_modulus",
    "shear_modulus",
    "universal_anisotropy",
    "homogeneous_poisson",
    "e_total",
    "e_ionic",
    "e_electronic",
    "n",
    "e_ij_max",
    "weighted_surface_energy_EV_PER_ANG2",
    "weighted_surface_energy",
    "weighted_work_function",
    "surface_anisotropy",
    "shape_factor",
    "has_reconstructed",
    "possible_species",
    "has_props",
    "theoretical",
    "database_IDs"
  ]
}
