{"builder_meta": null, "nsites": null, "elements": null, "nelements": null, "composition": null, "composition_reduced": null, "formula_pretty": "P3Pd7", "formula_anonymous": "A3B7", "chemsys": null, "volume": 302.9687823481401, "density": 9.184453837200806, "density_atomic": 15.148439117407005, "symmetry": null, "property_name": null, "material_id": "mp-505363", "deprecated": null, "deprecation_reasons": null, "last_updated": null, "origins": null, "warnings": null, "structure": {"@module": "pymatgen.core.structure", "@class": "Structure", "charge": 0, "lattice": {"matrix": [[4.232057, -6.050166, 0.0], [4.232057, 6.050166, 0.0], [-4.417283, 0.0, 5.916285]], "pbc": [true, true, true], "a": 7.383414865684103, "b": 7.383414865684103, "c": 7.3834150163263885, "alpha": 110.05484586485113, "beta": 110.05484586485113, "gamma": 110.05485606499353, "volume": 302.9687823481401}, "properties": {}, "sites": [{"species": [{"element": "P", "occu": 1}], "abc": [0.499915, 0.8766400000000001, 0.699826], "properties": {"magmom": -0.0}, "label": "P", "xyz": [2.734329730877, 2.27924878635, 4.14037006641]}, {"species": [{"element": "P", "occu": 1}], "abc": [0.699826, 0.499915, 0.8766400000000001], "properties": {"magmom": -0.0}, "label": "P", "xyz": [1.2050053281169992, -1.2094947352259995, 5.186452082400001]}, {"species": [{"element": "P", "occu": 1}], "abc": [0.8766400000000001, 0.699826, 0.499915], "properties": {"magmom": -0.0}, "label": "P", "xyz": [4.4634279396170005, -1.0697540511240007, 2.9576396157750002]}, {"species": [{"element": "P", "occu": 1}], "abc": [0.077200999999999, 0.247554, 0.453511], "properties": {"magmom": 0.0}, "label": "P", "xyz": [-0.6289047595780042, 1.0306639285980062, 2.683100326635]}, {"species": [{"element": "P", "occu": 1}], "abc": [0.453511, 0.077200999999999, 0.247554], "properties": {"magmom": 0.0}, "label": "P", "xyz": [1.1524873588019957, -2.276737967460006, 1.46460001689]}, {"species": [{"element": "P", "occu": 1}], "abc": [0.247554, 0.453511, 0.077200999999999], "properties": {"magmom": 0.0}, "label": "P", "xyz": [2.6259283758220047, 1.246074038862, 0.45674311828499414]}, {"species": [{"element": "Pd", "occu": 1}], "abc": [0.891942, 0.818722, 0.251154], "properties": {"magmom": 0.0}, "label": "Pd", "xyz": [6.130209261266, -0.4429931545199999, 1.48589864289]}, {"species": [{"element": "Pd", "occu": 1}], "abc": [0.251154, 0.891942, 0.818722], "properties": {"magmom": 0.0}, "label": "Pd", "xyz": [1.2211206561459997, 3.876873770808, 4.84379268777]}, {"species": [{"element": "Pd", "occu": 1}], "abc": [0.818722, 0.251154, 0.891942], "properties": {"magmom": 0.0}, "label": "Pd", "xyz": [0.587815981346, -3.433880616288, 5.2769830754700005]}, {"species": [{"element": "Pd", "occu": 1}], "abc": [0.702217, 0.054794999999999004, 0.126832], "properties": {"magmom": 0.0}, "label": "Pd", "xyz": [2.6434650962279953, -3.9170105720520056, 0.75037425912]}, {"species": [{"element": "Pd", "occu": 1}], "abc": [0.126832, 0.702217, 0.054794999999999004], "properties": {"magmom": 0.0}, "label": "Pd", "xyz": [3.2665376018080043, 3.4811747639099995, 0.32418283657499414]}, {"species": [{"element": "Pd", "occu": 1}], "abc": [0.054794999999999004, 0.126832, 0.702217], "properties": {"magmom": 0.0}, "label": "Pd", "xyz": [-2.333235399672004, 0.435835808142006, 4.154515903845]}, {"species": [{"element": "Pd", "occu": 1}], "abc": [0.388787999999999, 0.562408999999999, 0.834808999999999], "properties": {"magmom": 0.0}, "label": "Pd", "xyz": [0.33793231828199577, 1.050435871086, 4.938967964564994]}, {"species": [{"element": "Pd", "occu": 1}], "abc": [0.834808999999999, 0.388787999999999, 0.562408999999999], "properties": {"magmom": 0.0}, "label": "Pd", "xyz": [2.6940125342819963, -2.6985010894859998, 3.3273719305649947]}, {"species": [{"element": "Pd", "occu": 1}], "abc": [0.562408999999999, 0.834808999999999, 0.388787999999999], "properties": {"magmom": 0.0}, "label": "Pd", "xyz": [4.1957195944219965, 1.6480652183999998, 2.3001806125799944]}, {"species": [{"element": "Pd", "occu": 1}], "abc": [0.124672999999999, 0.558922, 0.383798], "properties": {"magmom": -0.0}, "label": "Pd", "xyz": [1.1976686240809962, 2.627278535334006, 2.2706583504299998]}, {"species": [{"element": "Pd", "occu": 1}], "abc": [0.383798, 0.124672999999999, 0.558922], "properties": {"magmom": -0.0}, "label": "Pd", "xyz": [-0.31703839407900425, -1.5677492647500058, 3.3067418447700003]}, {"species": [{"element": "Pd", "occu": 1}], "abc": [0.558922, 0.383798, 0.124672999999999], "properties": {"magmom": -0.0}, "label": "Pd", "xyz": [3.4389288515810046, -1.0595292705840005, 0.7376009998049942]}, {"species": [{"element": "Pd", "occu": 1}], "abc": [0.775374, 0.775374, 0.775374], "properties": {"magmom": -0.0}, "label": "Pd", "xyz": [3.137807539794, 0.0, 4.58733356559]}, {"species": [{"element": "Pd", "occu": 1}], "abc": [0.171919, 0.171919, 0.171919], "properties": {"magmom": 0.0}, "label": "Pd", "xyz": [0.6957271386889999, 0.0, 1.017121800915]}]}, "task_ids": null, "uncorrected_energy_per_atom": null, "energy_per_atom": -5.7235148695, "formation_energy_per_atom": -0.472955544892855, "energy_above_hull": 0.0, "is_stable": true, "equilibrium_reaction_energy_per_atom": null, "decomposes_to": null, "xas": null, "grain_boundaries": null, "band_gap": 0.0, "cbm": null, "vbm": null, "efermi": 6.28739378, "is_gap_direct": null, "is_metal": null, "es_source_calc_id": null, "bandstructure": null, "dos": null, "dos_energy_up": null, "dos_energy_down": null, "is_magnetic": null, "ordering": null, "total_magnetization": 0.0001058, "total_magnetization_normalized_vol": null, "total_magnetization_normalized_formula_units": null, "num_magnetic_sites": null, "num_unique_magnetic_sites": null, "types_of_magnetic_species": null, "bulk_modulus": null, "shear_modulus": null, "universal_anisotropy": null, "homogeneous_poisson": null, "e_total": null, "e_ionic": null, "e_electronic": null, "n": null, "e_ij_max": null, "weighted_surface_energy_EV_PER_ANG2": null, "weighted_surface_energy": null, "weighted_work_function": null, "surface_anisotropy": null, "shape_factor": null, "has_reconstructed": null, "possible_species": null, "has_props": null, "theoretical": null, "database_IDs": null, "fields_not_requested": ["builder_meta", "nsites", "elements", "nelements", "composition", "composition_reduced", "chemsys", "symmetry", "property_name", "deprecated", "deprecation_reasons", "last_updated", "origins", "warnings", "task_ids", "uncorrected_energy_per_atom", "equilibrium_reaction_energy_per_atom", "decomposes_to", "xas", "grain_boundaries", "cbm", "vbm", "is_gap_direct", "is_metal", "es_source_calc_id", "bandstructure", "dos", "dos_energy_up", "dos_energy_down", "is_magnetic", "ordering", "total_magnetization_normalized_vol", "total_magnetization_normalized_formula_units", "num_magnetic_sites", "num_unique_magnetic_sites", "types_of_magnetic_species", "bulk_modulus", "shear_modulus", "universal_anisotropy", "homogeneous_poisson", "e_total", "e_ionic", "e_electronic", "n", "e_ij_max", "weighted_surface_energy_EV_PER_ANG2", "weighted_surface_energy", "weighted_work_function", "surface_anisotropy", "shape_factor", "has_reconstructed", "possible_species", "has_props", "theoretical", "database_IDs"]}