{
  "builder_meta": null,
  "nsites": null,
  "elements": null,
  "nelements": null,
  "composition": null,
  "composition_reduced": null,
  "formula_pretty": "P3Pd",
  "formula_anonymous": "AB3",
  "chemsys": null,
  "volume": 277.96079954320106,
  "density": 4.763462956406369,
  "density_atomic": 17.372549971450066,
  "symmetry": null,
  "property_name": null,
  "material_id": "mp-1021498",
  "deprecated": null,
  "deprecation_reasons": null,
  "last_updated": null,
  "origins": null,
  "warnings": null,
  "structure": {
    "@module": "pymatgen.core.structure",
    "@class": "Structure",
    "charge": 0,
    "lattice": {
      "matrix": [
        [-4.111256, 4.111256, 4.111256],
        [4.111256, -4.111256, 4.111256],
        [4.111256, 4.111256, -4.111256]
      ],
      "pbc": [true, true, true],
      "a": 7.120904274922392,
      "b": 7.120904274922392,
      "c": 7.120904274922392,
      "alpha": 109.47122063449069,
      "beta": 109.47122063449069,
      "gamma": 109.47122063449069,
      "volume": 277.96079954320106
    },
    "properties": {},
    "sites": [
      {
        "species": [{ "element": "P", "occu": 1 }],
        "abc": [0.865105, 0.635675, 0.50078],
        "properties": { "magmom": 0.0 },
        "label": "P",
        "xyz": [1.1155893156000003, 3.00208024376, 4.111256000000001]
      },
      {
        "species": [{ "element": "P", "occu": 1 }],
        "abc": [0.134895, 0.364325, 0.49922000000000005],
        "properties": { "magmom": 0.0 },
        "label": "P",
        "xyz": [2.9956666844000006, 1.1091757562400002, 0.0]
      },
      {
        "species": [{ "element": "P", "occu": 1 }],
        "abc": [0.134895, 0.635675, 0.7705700000000001],
        "properties": { "magmom": 0.0 },
        "label": "P",
        "xyz": [5.2268453156, 1.1091757562400004, -4.440892098500626e-16]
      },
      {
        "species": [{ "element": "P", "occu": 1 }],
        "abc": [0.865105, 0.364325, 0.22943000000000002],
        "properties": { "magmom": 0.0 },
        "label": "P",
        "xyz": [-1.1155893155999996, 3.00208024376, 4.111256]
      },
      {
        "species": [{ "element": "P", "occu": 1 }],
        "abc": [0.635675, 0.50078, 0.865105],
        "properties": { "magmom": -0.0 },
        "label": "P",
        "xyz": [3.00208024376, 4.111256, 1.1155893156000007]
      },
      {
        "species": [{ "element": "P", "occu": 1 }],
        "abc": [0.364325, 0.49922000000000005, 0.134895],
        "properties": { "magmom": -0.0 },
        "label": "P",
        "xyz": [1.1091757562400002, -2.220446049250313e-16, 2.9956666844]
      },
      {
        "species": [{ "element": "P", "occu": 1 }],
        "abc": [0.635675, 0.7705700000000001, 0.134895],
        "properties": { "magmom": 0.0 },
        "label": "P",
        "xyz": [1.1091757562400004, -4.440892098500626e-16, 5.2268453156]
      },
      {
        "species": [{ "element": "P", "occu": 1 }],
        "abc": [0.364325, 0.22943000000000002, 0.865105],
        "properties": { "magmom": 0.0 },
        "label": "P",
        "xyz": [3.00208024376, 4.111256, -1.1155893155999999]
      },
      {
        "species": [{ "element": "P", "occu": 1 }],
        "abc": [0.50078, 0.865105, 0.635675],
        "properties": { "magmom": -0.0 },
        "label": "P",
        "xyz": [4.111256, 1.1155893156000003, 3.00208024376]
      },
      {
        "species": [{ "element": "P", "occu": 1 }],
        "abc": [0.49922000000000005, 0.134895, 0.364325],
        "properties": { "magmom": -0.0 },
        "label": "P",
        "xyz": [-2.220446049250313e-16, 2.9956666844000006, 1.1091757562400002]
      },
      {
        "species": [{ "element": "P", "occu": 1 }],
        "abc": [0.7705700000000001, 0.134895, 0.635675],
        "properties": { "magmom": 0.0 },
        "label": "P",
        "xyz": [-4.440892098500626e-16, 5.2268453156, 1.1091757562400004]
      },
      {
        "species": [{ "element": "P", "occu": 1 }],
        "abc": [0.22943000000000002, 0.865105, 0.364325],
        "properties": { "magmom": 0.0 },
        "label": "P",
        "xyz": [4.111256, -1.1155893156, 3.00208024376]
      },
      {
        "species": [{ "element": "Pd", "occu": 1 }],
        "abc": [0.5, 0.5, 0.5],
        "properties": { "magmom": 0.001 },
        "label": "Pd",
        "xyz": [2.055628, 2.055628, 2.055628]
      },
      {
        "species": [{ "element": "Pd", "occu": 1 }],
        "abc": [0.5, 0.0, 0.0],
        "properties": { "magmom": -0.0 },
        "label": "Pd",
        "xyz": [-2.055628, 2.055628, 2.055628]
      },
      {
        "species": [{ "element": "Pd", "occu": 1 }],
        "abc": [0.0, 0.5, 0.0],
        "properties": { "magmom": 0.0 },
        "label": "Pd",
        "xyz": [2.055628, -2.055628, 2.055628]
      },
      {
        "species": [{ "element": "Pd", "occu": 1 }],
        "abc": [0.0, 0.0, 0.5],
        "properties": { "magmom": -0.001 },
        "label": "Pd",
        "xyz": [2.055628, 2.055628, -2.055628]
      }
    ]
  },
  "task_ids": null,
  "uncorrected_energy_per_atom": null,
  "energy_per_atom": -5.618915575,
  "formation_energy_per_atom": -0.262339978482141,
  "energy_above_hull": 0.05884529508928601,
  "is_stable": false,
  "equilibrium_reaction_energy_per_atom": null,
  "decomposes_to": null,
  "xas": null,
  "grain_boundaries": null,
  "band_gap": 0.0,
  "cbm": null,
  "vbm": null,
  "efermi": 6.45196116,
  "is_gap_direct": null,
  "is_metal": null,
  "es_source_calc_id": null,
  "bandstructure": null,
  "dos": null,
  "dos_energy_up": null,
  "dos_energy_down": null,
  "is_magnetic": null,
  "ordering": null,
  "total_magnetization": 0.000115099999999,
  "total_magnetization_normalized_vol": null,
  "total_magnetization_normalized_formula_units": null,
  "num_magnetic_sites": null,
  "num_unique_magnetic_sites": null,
  "types_of_magnetic_species": null,
  "bulk_modulus": null,
  "shear_modulus": null,
  "universal_anisotropy": null,
  "homogeneous_poisson": null,
  "e_total": null,
  "e_ionic": null,
  "e_electronic": null,
  "n": null,
  "e_ij_max": null,
  "weighted_surface_energy_EV_PER_ANG2": null,
  "weighted_surface_energy": null,
  "weighted_work_function": null,
  "surface_anisotropy": null,
  "shape_factor": null,
  "has_reconstructed": null,
  "possible_species": null,
  "has_props": null,
  "theoretical": null,
  "database_IDs": null,
  "fields_not_requested": [
    "builder_meta",
    "nsites",
    "elements",
    "nelements",
    "composition",
    "composition_reduced",
    "chemsys",
    "symmetry",
    "property_name",
    "deprecated",
    "deprecation_reasons",
    "last_updated",
    "origins",
    "warnings",
    "task_ids",
    "uncorrected_energy_per_atom",
    "equilibrium_reaction_energy_per_atom",
    "decomposes_to",
    "xas",
    "grain_boundaries",
    "cbm",
    "vbm",
    "is_gap_direct",
    "is_metal",
    "es_source_calc_id",
    "bandstructure",
    "dos",
    "dos_energy_up",
    "dos_energy_down",
    "is_magnetic",
    "ordering",
    "total_magnetization_normalized_vol",
    "total_magnetization_normalized_formula_units",
    "num_magnetic_sites",
    "num_unique_magnetic_sites",
    "types_of_magnetic_species",
    "bulk_modulus",
    "shear_modulus",
    "universal_anisotropy",
    "homogeneous_poisson",
    "e_total",
    "e_ionic",
    "e_electronic",
    "n",
    "e_ij_max",
    "weighted_surface_energy_EV_PER_ANG2",
    "weighted_surface_energy",
    "weighted_work_function",
    "surface_anisotropy",
    "shape_factor",
    "has_reconstructed",
    "possible_species",
    "has_props",
    "theoretical",
    "database_IDs"
  ]
}
