{"builder_meta": null, "nsites": null, "elements": null, "nelements": null, "composition": null, "composition_reduced": null, "formula_pretty": "P3Rh", "formula_anonymous": "AB3", "chemsys": null, "volume": 257.88125174967223, "density": 5.043841322057353, "density_atomic": 16.117578234354514, "symmetry": null, "property_name": null, "material_id": "mp-1357", "deprecated": null, "deprecation_reasons": null, "last_updated": null, "origins": null, "warnings": null, "structure": {"@module": "pymatgen.core.structure", "@class": "Structure", "charge": 0, "lattice": {"matrix": [[6.54793422, -0.0, -2.31504352], [-3.27396711, 5.67067713, -2.31504352], [0.0, 1e-08, 6.94513258]], "pbc": [true, true, true], "a": 6.945132759633973, "b": 6.945132558098569, "c": 6.94513258, "alpha": 109.47121473511993, "beta": 109.47121421873975, "gamma": 109.47122763806662, "volume": 257.88125174967223}, "properties": {}, "sites": [{"species": [{"element": "P", "occu": 1}], "abc": [0.49449238, 0.13924289, 0.35524949], "properties": {"magmom": 0.0}, "label": "P", "xyz": [2.782026934369896, 0.7896014753906005, 1.0001300768184336]}, {"species": [{"element": "P", "occu": 1}], "abc": [0.13924289, 0.64475051, 0.783992399999999], "properties": {"magmom": 0.0}, "label": "P", "xyz": [-1.1991386795730306, 3.6561719794527603, 3.629952319319617]}, {"species": [{"element": "P", "occu": 1}], "abc": [0.35524949, 0.2160076, 0.86075711], "properties": {"magmom": 0.0}, "label": "P", "xyz": [1.6189485142985118, 1.224909365833759, 4.655587223669087]}, {"species": [{"element": "P", "occu": 1}], "abc": [0.86075711, 0.64475051, 0.50550762], "properties": {"magmom": 0.0}, "label": "P", "xyz": [3.5252889717815776, 3.656171976667913, 0.025501781108637545]}, {"species": [{"element": "P", "occu": 1}], "abc": [0.64475051, 0.783992399999999, 0.13924289], "properties": {"magmom": 0.0}, "label": "P", "xyz": [1.6550185957014918, 4.445767774166235, -2.340541683669085]}, {"species": [{"element": "P", "occu": 1}], "abc": [0.86075711, 0.35524949, 0.2160076], "properties": {"magmom": 0.0}, "label": "P", "xyz": [4.47310578957303, 2.0145051605472397, -1.314906779319624]}, {"species": [{"element": "P", "occu": 1}], "abc": [0.64475051, 0.50550762, 0.86075711], "properties": {"magmom": 0.0}, "label": "P", "xyz": [2.5667686060570745, 2.866570508382302, 3.3151746179438257]}, {"species": [{"element": "P", "occu": 1}], "abc": [0.35524949, 0.49449238, 0.13924289], "properties": {"magmom": 0.0}, "label": "P", "xyz": [0.7071985039429258, 2.804106631617698, -1.0001290779438263]}, {"species": [{"element": "P", "occu": 1}], "abc": [0.13924289, 0.35524949, 0.49449238], "properties": {"magmom": 0.0}, "label": "P", "xyz": [-0.251321861781578, 2.014505163332087, 2.2895437588913627]}, {"species": [{"element": "P", "occu": 1}], "abc": [0.783992399999999, 0.13924289, 0.64475051], "properties": {"magmom": 0.0}, "label": "P", "xyz": [4.677654022018574, 0.7896014782856108, 2.3405478974227973]}, {"species": [{"element": "P", "occu": 1}], "abc": [0.2160076, 0.86075711, 0.35524949], "properties": {"magmom": 0.0}, "label": "P", "xyz": [-1.40368691201858, 4.881075661714389, -0.025502357422795274]}, {"species": [{"element": "P", "occu": 1}], "abc": [0.50550762, 0.86075711, 0.64475051], "properties": {"magmom": 0.0}, "label": "P", "xyz": [0.4919401756301047, 4.881075664609399, 1.314915463181566]}, {"species": [{"element": "Rh", "occu": 1}], "abc": [0.5, 0.5, 0.5], "properties": {"magmom": 0.0}, "label": "Rh", "xyz": [1.636983555, 2.83533857, 1.15752277]}, {"species": [{"element": "Rh", "occu": 1}], "abc": [-0.0, 0.5, -0.0], "properties": {"magmom": 0.0}, "label": "Rh", "xyz": [-1.636983555, 2.835338565, -1.15752176]}, {"species": [{"element": "Rh", "occu": 1}], "abc": [-0.0, -0.0, 0.5], "properties": {"magmom": 0.0}, "label": "Rh", "xyz": [0.0, 5e-09, 3.47256629]}, {"species": [{"element": "Rh", "occu": 1}], "abc": [0.5, -0.0, -0.0], "properties": {"magmom": 0.0}, "label": "Rh", "xyz": [3.27396711, 0.0, -1.15752176]}]}, "task_ids": null, "uncorrected_energy_per_atom": null, "energy_per_atom": -13.43802051, "formation_energy_per_atom": -0.652406118482142, "energy_above_hull": 0.0, "is_stable": true, "equilibrium_reaction_energy_per_atom": null, "decomposes_to": null, "xas": null, "grain_boundaries": null, "band_gap": 0.0, "cbm": null, "vbm": null, "efermi": 7.94880929, "is_gap_direct": null, "is_metal": null, "es_source_calc_id": null, "bandstructure": null, "dos": null, "dos_energy_up": null, "dos_energy_down": null, "is_magnetic": null, "ordering": null, "total_magnetization": 1e-07, "total_magnetization_normalized_vol": null, "total_magnetization_normalized_formula_units": null, "num_magnetic_sites": null, "num_unique_magnetic_sites": null, "types_of_magnetic_species": null, "bulk_modulus": null, "shear_modulus": null, "universal_anisotropy": null, "homogeneous_poisson": null, "e_total": null, "e_ionic": null, "e_electronic": null, "n": null, "e_ij_max": null, "weighted_surface_energy_EV_PER_ANG2": null, "weighted_surface_energy": null, "weighted_work_function": null, "surface_anisotropy": null, "shape_factor": null, "has_reconstructed": null, "possible_species": null, "has_props": null, "theoretical": null, "database_IDs": null, "fields_not_requested": ["builder_meta", "nsites", "elements", "nelements", "composition", "composition_reduced", "chemsys", "symmetry", "property_name", "deprecated", "deprecation_reasons", "last_updated", "origins", "warnings", "task_ids", "uncorrected_energy_per_atom", "equilibrium_reaction_energy_per_atom", "decomposes_to", "xas", "grain_boundaries", "cbm", "vbm", "is_gap_direct", "is_metal", "es_source_calc_id", "bandstructure", "dos", "dos_energy_up", "dos_energy_down", "is_magnetic", "ordering", "total_magnetization_normalized_vol", "total_magnetization_normalized_formula_units", "num_magnetic_sites", "num_unique_magnetic_sites", "types_of_magnetic_species", "bulk_modulus", "shear_modulus", "universal_anisotropy", "homogeneous_poisson", "e_total", "e_ionic", "e_electronic", "n", "e_ij_max", "weighted_surface_energy_EV_PER_ANG2", "weighted_surface_energy", "weighted_work_function", "surface_anisotropy", "shape_factor", "has_reconstructed", "possible_species", "has_props", "theoretical", "database_IDs"]}