{"builder_meta": null, "nsites": null, "elements": null, "nelements": null, "composition": null, "composition_reduced": null, "formula_pretty": "P3Rh4", "formula_anonymous": "A3B4", "chemsys": null, "volume": 391.6390554828436, "density": 8.556999874905873, "density_atomic": 13.987109124387272, "symmetry": null, "property_name": null, "material_id": "mp-621581", "deprecated": null, "deprecation_reasons": null, "last_updated": null, "origins": null, "warnings": null, "structure": {"@module": "pymatgen.core.structure", "@class": "Structure", "charge": 0, "lattice": {"matrix": [[3.33608831, 0.0, 0.0], [0.0, 10.0238576, 0.0], [0.0, 0.0, 11.71152818]], "pbc": [true, true, true], "a": 3.33608831, "b": 10.0238576, "c": 11.71152818, "alpha": 90.0, "beta": 90.0, "gamma": 90.0, "volume": 391.6390554828436}, "properties": {}, "sites": [{"species": [{"element": "P", "occu": 1}], "abc": [0.75, 0.92044144, 0.62992284], "properties": {"magmom": 0.0}, "label": "P", "xyz": [2.5020662325, 9.226373923698944, 7.377359091885631]}, {"species": [{"element": "P", "occu": 1}], "abc": [0.75, 0.08025417, 0.87266779], "properties": {"magmom": -0.0}, "label": "P", "xyz": [2.5020662325, 0.8044563718861919, 10.220273414363323]}, {"species": [{"element": "P", "occu": 1}], "abc": [0.75, 0.24136444, 0.62294543], "properties": {"magmom": 0.0}, "label": "P", "xyz": [2.5020662325, 2.4194027762637442, 7.2956429580472175]}, {"species": [{"element": "P", "occu": 1}], "abc": [0.25, 0.07955856, 0.37007716], "properties": {"magmom": 0.0}, "label": "P", "xyz": [0.8340220775, 0.797483676301056, 4.334169088114369]}, {"species": [{"element": "P", "occu": 1}], "abc": [0.25, 0.74136444, 0.87705457], "properties": {"magmom": 0.0}, "label": "P", "xyz": [0.8340220775, 7.4313315762637435, 10.271649311952782]}, {"species": [{"element": "P", "occu": 1}], "abc": [0.25, 0.58025417, 0.6273322100000001], "properties": {"magmom": -0.0}, "label": "P", "xyz": [0.8340220775, 5.816385171886192, 7.347018855636678]}, {"species": [{"element": "P", "occu": 1}], "abc": [0.25, 0.91974583, 0.12733221], "properties": {"magmom": -0.0}, "label": "P", "xyz": [0.8340220775, 9.219401228113808, 1.491254765636678]}, {"species": [{"element": "P", "occu": 1}], "abc": [0.75, 0.5795585600000001, 0.12992284], "properties": {"magmom": 0.0}, "label": "P", "xyz": [2.5020662325, 5.809412476301056, 1.5215950018856315]}, {"species": [{"element": "P", "occu": 1}], "abc": [0.25, 0.42044144, 0.87007716], "properties": {"magmom": 0.0}, "label": "P", "xyz": [0.8340220775, 4.214445123698944, 10.18993317811437]}, {"species": [{"element": "P", "occu": 1}], "abc": [0.75, 0.25863556, 0.12294543000000001], "properties": {"magmom": 0.0}, "label": "P", "xyz": [2.5020662325, 2.5925260237362555, 1.4398788680472174]}, {"species": [{"element": "P", "occu": 1}], "abc": [0.75, 0.41974583, 0.37266779], "properties": {"magmom": -0.0}, "label": "P", "xyz": [2.5020662325, 4.207472428113808, 4.364509324363322]}, {"species": [{"element": "P", "occu": 1}], "abc": [0.25, 0.75863556, 0.37705457000000003], "properties": {"magmom": 0.0}, "label": "P", "xyz": [0.8340220775, 7.604454823736256, 4.415885221952783]}, {"species": [{"element": "Rh", "occu": 1}], "abc": [0.25, 0.92856406, 0.76851937], "properties": {"magmom": -0.0}, "label": "Rh", "xyz": [0.8340220775, 9.307793909917855, 9.000536258630847]}, {"species": [{"element": "Rh", "occu": 1}], "abc": [0.25, 0.40305824, 0.06431809], "properties": {"magmom": 0.0}, "label": "Rh", "xyz": [0.8340220775, 4.040198402266624, 0.7532631235187761]}, {"species": [{"element": "Rh", "occu": 1}], "abc": [0.75, 0.88320232, 0.97137584], "properties": {"magmom": -0.0}, "label": "Rh", "xyz": [2.5020662325, 8.85309428766963, 11.376295523531171]}, {"species": [{"element": "Rh", "occu": 1}], "abc": [0.75, 0.59694176, 0.93568191], "properties": {"magmom": 0.0}, "label": "Rh", "xyz": [2.5020662325, 5.983659197733376, 10.958265056481224]}, {"species": [{"element": "Rh", "occu": 1}], "abc": [0.25, 0.29262262, 0.2977122], "properties": {"magmom": 0.0}, "label": "Rh", "xyz": [0.8340220775, 2.933207473418912, 3.486664819829796]}, {"species": [{"element": "Rh", "occu": 1}], "abc": [0.25, 0.38320232, 0.52862416], "properties": {"magmom": -0.0}, "label": "Rh", "xyz": [0.8340220775, 3.8411654876696315, 6.190996746468829]}, {"species": [{"element": "Rh", "occu": 1}], "abc": [0.75, 0.07143594, 0.23148063], "properties": {"magmom": -0.0}, "label": "Rh", "xyz": [2.5020662325, 0.716063690082144, 2.7109919213691533]}, {"species": [{"element": "Rh", "occu": 1}], "abc": [0.25, 0.09694176, 0.56431809], "properties": {"magmom": 0.0}, "label": "Rh", "xyz": [0.8340220775, 0.971730397733376, 6.609027213518776]}, {"species": [{"element": "Rh", "occu": 1}], "abc": [0.25, 0.57143594, 0.26851937], "properties": {"magmom": -0.0}, "label": "Rh", "xyz": [0.8340220775, 5.727992490082143, 3.1447721686308463]}, {"species": [{"element": "Rh", "occu": 1}], "abc": [0.75, 0.61679768, 0.47137584], "properties": {"magmom": -0.0}, "label": "Rh", "xyz": [2.5020662325, 6.1826921123303675, 5.520531433531171]}, {"species": [{"element": "Rh", "occu": 1}], "abc": [0.75, 0.90305824, 0.43568191], "properties": {"magmom": 0.0}, "label": "Rh", "xyz": [2.5020662325, 9.052127202266623, 5.102500966481224]}, {"species": [{"element": "Rh", "occu": 1}], "abc": [0.75, 0.42856406, 0.73148063], "properties": {"magmom": -0.0}, "label": "Rh", "xyz": [2.5020662325, 4.295865109917856, 8.566756011369153]}, {"species": [{"element": "Rh", "occu": 1}], "abc": [0.25, 0.11679768, 0.02862416], "properties": {"magmom": -0.0}, "label": "Rh", "xyz": [0.8340220775, 1.170763312330368, 0.33523265646882877]}, {"species": [{"element": "Rh", "occu": 1}], "abc": [0.75, 0.79262262, 0.2022878], "properties": {"magmom": 0.0}, "label": "Rh", "xyz": [2.5020662325, 7.945136273418912, 2.369099270170204]}, {"species": [{"element": "Rh", "occu": 1}], "abc": [0.75, 0.7073773800000001, 0.7022878], "properties": {"magmom": 0.0}, "label": "Rh", "xyz": [2.5020662325, 7.090650126581088, 8.224863360170204]}, {"species": [{"element": "Rh", "occu": 1}], "abc": [0.25, 0.20737738, 0.7977122], "properties": {"magmom": 0.0}, "label": "Rh", "xyz": [0.8340220775, 2.0787213265810878, 9.342428909829795]}]}, "task_ids": null, "uncorrected_energy_per_atom": null, "energy_per_atom": -18.4229579575, "formation_energy_per_atom": -0.7727946066326541, "energy_above_hull": 0.024386125595238003, "is_stable": false, "equilibrium_reaction_energy_per_atom": null, "decomposes_to": null, "xas": null, "grain_boundaries": null, "band_gap": 0.0, "cbm": null, "vbm": null, "efermi": 8.19527639, "is_gap_direct": null, "is_metal": null, "es_source_calc_id": null, "bandstructure": null, "dos": null, "dos_energy_up": null, "dos_energy_down": null, "is_magnetic": null, "ordering": null, "total_magnetization": 5e-07, "total_magnetization_normalized_vol": null, "total_magnetization_normalized_formula_units": null, "num_magnetic_sites": null, "num_unique_magnetic_sites": null, "types_of_magnetic_species": null, "bulk_modulus": null, "shear_modulus": null, "universal_anisotropy": null, "homogeneous_poisson": null, "e_total": null, "e_ionic": null, "e_electronic": null, "n": null, "e_ij_max": null, "weighted_surface_energy_EV_PER_ANG2": null, "weighted_surface_energy": null, "weighted_work_function": null, "surface_anisotropy": null, "shape_factor": null, "has_reconstructed": null, "possible_species": null, "has_props": null, "theoretical": null, "database_IDs": null, "fields_not_requested": ["builder_meta", "nsites", "elements", "nelements", "composition", "composition_reduced", "chemsys", "symmetry", "property_name", "deprecated", "deprecation_reasons", "last_updated", "origins", "warnings", "task_ids", "uncorrected_energy_per_atom", "equilibrium_reaction_energy_per_atom", "decomposes_to", "xas", "grain_boundaries", "cbm", "vbm", "is_gap_direct", "is_metal", "es_source_calc_id", "bandstructure", "dos", "dos_energy_up", "dos_energy_down", "is_magnetic", "ordering", "total_magnetization_normalized_vol", "total_magnetization_normalized_formula_units", "num_magnetic_sites", "num_unique_magnetic_sites", "types_of_magnetic_species", "bulk_modulus", "shear_modulus", "universal_anisotropy", "homogeneous_poisson", "e_total", "e_ionic", "e_electronic", "n", "e_ij_max", "weighted_surface_energy_EV_PER_ANG2", "weighted_surface_energy", "weighted_work_function", "surface_anisotropy", "shape_factor", "has_reconstructed", "possible_species", "has_props", "theoretical", "database_IDs"]}