{
  "builder_meta": null,
  "nsites": null,
  "elements": null,
  "nelements": null,
  "composition": null,
  "composition_reduced": null,
  "formula_pretty": "P3Ru",
  "formula_anonymous": "AB3",
  "chemsys": null,
  "volume": 244.21564415938082,
  "density": 5.276158455643308,
  "density_atomic": 15.263477759961301,
  "symmetry": null,
  "property_name": null,
  "material_id": "mp-28400",
  "deprecated": null,
  "deprecation_reasons": null,
  "last_updated": null,
  "origins": null,
  "warnings": null,
  "structure": {
    "@module": "pymatgen.core.structure",
    "@class": "Structure",
    "charge": 0,
    "lattice": {
      "matrix": [
        [5.54310095, -0.009043599999999001, 1.9944796],
        [1.10245388, 5.43064234, 2.15914817],
        [-0.00842268, 0.00920149, 8.11004025]
      ],
      "pbc": [true, true, true],
      "a": 5.891009998583267,
      "b": 5.947201157060528,
      "c": 8.110049843593853,
      "alpha": 68.6603493165339,
      "beta": 70.27025887802046,
      "gamma": 72.78606476483029,
      "volume": 244.2156441593808
    },
    "properties": {},
    "sites": [
      {
        "species": [{ "element": "P", "occu": 1 }],
        "abc": [0.8296057800000001, 0.08098435, 0.31957732],
        "properties": { "magmom": 0.0 },
        "label": "P",
        "xyz": [4.685178400618652, 0.43523500466957865, 4.421273943540358]
      },
      {
        "species": [{ "element": "P", "occu": 1 }],
        "abc": [0.17039422, 0.9190156500000001, 0.6804226800000001],
        "properties": { "magmom": 0.0 },
        "label": "P",
        "xyz": [1.951953749381349, 4.995565225330423, 7.8423940764596445]
      },
      {
        "species": [{ "element": "P", "occu": 1 }],
        "abc": [0.193223099999999, 0.52781365, 0.44816646],
        "properties": { "magmom": 0.0 },
        "label": "P",
        "xyz": [1.6491705928520888, 2.868743522092807, 5.159655436997294]
      },
      {
        "species": [{ "element": "P", "occu": 1 }],
        "abc": [0.806776899999999, 0.47218635000000003, 0.5518335400000001],
        "properties": { "magmom": 0.0 },
        "label": "P",
        "xyz": [4.987961557147901, 2.5620567079071948, 7.104012583002703]
      },
      {
        "species": [{ "element": "P", "occu": 1 }],
        "abc": [0.33892275, 0.21851316, 0.65782273],
        "properties": { "magmom": -0.0 },
        "label": "P",
        "xyz": [2.114043068223157, 1.1896546860331627, 6.4827456180507]
      },
      {
        "species": [{ "element": "P", "occu": 1 }],
        "abc": [0.6610772500000001, 0.78148684, 0.34217727000000003],
        "properties": { "magmom": -0.0 },
        "label": "P",
        "xyz": [4.523089081776844, 4.241145543966838, 5.780922401949301]
      },
      {
        "species": [{ "element": "P", "occu": 1 }],
        "abc": [0.67755256, 0.66203523, 0.76548839],
        "properties": { "magmom": 0.0 },
        "label": "P",
        "xyz": [4.47915808326844, 3.5961926700437243, 8.988938567985503]
      },
      {
        "species": [{ "element": "P", "occu": 1 }],
        "abc": [0.32244744000000003, 0.33796477, 0.23451161],
        "properties": { "magmom": 0.0 },
        "label": "P",
        "xyz": [2.157974066731561, 1.8346075599562774, 3.2747294520144976]
      },
      {
        "species": [{ "element": "P", "occu": 1 }],
        "abc": [0.68230457, 0.05159531, 0.94104785],
        "properties": { "magmom": 0.0 },
        "label": "P",
        "xyz": [3.831038414950407, 0.2826842278034706, 9.104180405694818]
      },
      {
        "species": [{ "element": "P", "occu": 1 }],
        "abc": [0.31769543, 0.94840469, 0.05895215],
        "properties": { "magmom": 0.0 },
        "label": "P",
        "xyz": [2.8060937350495943, 5.148116002196531, 3.1594876143051827]
      },
      {
        "species": [{ "element": "P", "occu": 1 }],
        "abc": [0.1527211, 0.31624897, 0.9145046],
        "properties": { "magmom": 0.0 },
        "label": "P",
        "xyz": [1.1874957989132207, 1.7244687028552843, 8.404096618089595]
      },
      {
        "species": [{ "element": "P", "occu": 1 }],
        "abc": [0.8472789, 0.68375103, 0.0854954],
        "properties": { "magmom": 0.0 },
        "label": "P",
        "xyz": [5.44963635108678, 3.7063315271447177, 3.859571401910405]
      },
      {
        "species": [{ "element": "Ru", "occu": 1 }],
        "abc": [0.27675808, 0.6339276500000001, 0.95635965],
        "properties": { "magmom": -0.0 },
        "label": "Ru",
        "xyz": [2.224918862253096, 3.4489313809702926, 9.676847325080981]
      },
      {
        "species": [{ "element": "Ru", "occu": 1 }],
        "abc": [0.72324192, 0.36607235, 0.04364035],
        "properties": { "magmom": -0.0 },
        "label": "Ru",
        "xyz": [4.412213287746904, 1.9818688490297092, 2.586820694919019]
      },
      {
        "species": [{ "element": "Ru", "occu": 1 }],
        "abc": [0.22770096, 0.92974435, 0.37228537],
        "properties": { "magmom": -0.0 },
        "label": "Ru",
        "xyz": [2.284034033217299, 5.050475376193125, 5.480850066676899]
      },
      {
        "species": [{ "element": "Ru", "occu": 1 }],
        "abc": [0.77229904, 0.07025565, 0.62771463],
        "properties": { "magmom": -0.0 },
        "label": "Ru",
        "xyz": [4.353098116782702, 0.3803248538068765, 6.782817953323104]
      }
    ]
  },
  "task_ids": null,
  "uncorrected_energy_per_atom": null,
  "energy_per_atom": -13.6995175325,
  "formation_energy_per_atom": -0.591826474732142,
  "energy_above_hull": 0.0,
  "is_stable": true,
  "equilibrium_reaction_energy_per_atom": null,
  "decomposes_to": null,
  "xas": null,
  "grain_boundaries": null,
  "band_gap": 1.144599999999999,
  "cbm": null,
  "vbm": null,
  "efermi": 7.74114088,
  "is_gap_direct": null,
  "is_metal": null,
  "es_source_calc_id": null,
  "bandstructure": null,
  "dos": null,
  "dos_energy_up": null,
  "dos_energy_down": null,
  "is_magnetic": null,
  "ordering": null,
  "total_magnetization": 0.0,
  "total_magnetization_normalized_vol": null,
  "total_magnetization_normalized_formula_units": null,
  "num_magnetic_sites": null,
  "num_unique_magnetic_sites": null,
  "types_of_magnetic_species": null,
  "bulk_modulus": null,
  "shear_modulus": null,
  "universal_anisotropy": null,
  "homogeneous_poisson": null,
  "e_total": null,
  "e_ionic": null,
  "e_electronic": null,
  "n": null,
  "e_ij_max": null,
  "weighted_surface_energy_EV_PER_ANG2": null,
  "weighted_surface_energy": null,
  "weighted_work_function": null,
  "surface_anisotropy": null,
  "shape_factor": null,
  "has_reconstructed": null,
  "possible_species": null,
  "has_props": null,
  "theoretical": null,
  "database_IDs": null,
  "fields_not_requested": [
    "builder_meta",
    "nsites",
    "elements",
    "nelements",
    "composition",
    "composition_reduced",
    "chemsys",
    "symmetry",
    "property_name",
    "deprecated",
    "deprecation_reasons",
    "last_updated",
    "origins",
    "warnings",
    "task_ids",
    "uncorrected_energy_per_atom",
    "equilibrium_reaction_energy_per_atom",
    "decomposes_to",
    "xas",
    "grain_boundaries",
    "cbm",
    "vbm",
    "is_gap_direct",
    "is_metal",
    "es_source_calc_id",
    "bandstructure",
    "dos",
    "dos_energy_up",
    "dos_energy_down",
    "is_magnetic",
    "ordering",
    "total_magnetization_normalized_vol",
    "total_magnetization_normalized_formula_units",
    "num_magnetic_sites",
    "num_unique_magnetic_sites",
    "types_of_magnetic_species",
    "bulk_modulus",
    "shear_modulus",
    "universal_anisotropy",
    "homogeneous_poisson",
    "e_total",
    "e_ionic",
    "e_electronic",
    "n",
    "e_ij_max",
    "weighted_surface_energy_EV_PER_ANG2",
    "weighted_surface_energy",
    "weighted_work_function",
    "surface_anisotropy",
    "shape_factor",
    "has_reconstructed",
    "possible_species",
    "has_props",
    "theoretical",
    "database_IDs"
  ]
}
