{"builder_meta": null, "nsites": null, "elements": null, "nelements": null, "composition": null, "composition_reduced": null, "formula_pretty": "P4N7", "formula_anonymous": "A4B7", "chemsys": null, "volume": 544.027666377605, "density": 2.7097392132664293, "density_atomic": 12.364265144945568, "symmetry": null, "property_name": null, "material_id": "mp-1200550", "deprecated": null, "deprecation_reasons": null, "last_updated": null, "origins": null, "warnings": null, "structure": {"@module": "pymatgen.core.structure", "@class": "Structure", "charge": 0, "lattice": {"matrix": [[0.0, 4.9434190000000005, 0.0], [0.021547999999999002, 0.0, 7.224075], [15.232299, 0.0, -0.539297]], "pbc": [true, true, true], "a": 4.9434190000000005, "b": 7.224107136659104, "c": 15.241842870191583, "alpha": 91.85679896226732, "beta": 90.0, "gamma": 90.0, "volume": 544.027666377605}, "properties": {}, "sites": [{"species": [{"element": "P", "occu": 1}], "abc": [0.298614999999999, 0.766235999999999, 0.952112], "properties": {"magmom": -0.002}, "label": "P", "xyz": [14.519365518815997, 1.4761790646849953, 5.021875186435993]}, {"species": [{"element": "P", "occu": 1}], "abc": [0.798615, 0.233764, 0.547887999999999], "properties": {"magmom": -0.002}, "label": "P", "xyz": [8.350630981183986, 3.9478885646850004, 1.3932543135640005]}, {"species": [{"element": "P", "occu": 1}], "abc": [0.701384999999999, 0.233764, 0.047888], "properties": {"magmom": -0.002}, "label": "P", "xyz": [0.7344814811839997, 3.4672399353149954, 1.662902813564]}, {"species": [{"element": "P", "occu": 1}], "abc": [0.201384999999999, 0.766235999999999, 0.452111999999999], "properties": {"magmom": -0.002}, "label": "P", "xyz": [6.903216018815984, 0.9955304353149952, 5.291523686435994]}, {"species": [{"element": "P", "occu": 1}], "abc": [0.629742999999999, 0.952098, 0.201215999999999], "properties": {"magmom": -0.0}, "label": "P", "xyz": [3.0854980832879835, 3.1130835113169955, 6.769512174198001]}, {"species": [{"element": "P", "occu": 1}], "abc": [0.129743, 0.047902, 0.298784], "properties": {"magmom": -0.0}, "label": "P", "xyz": [4.552199416712, 0.641374011317, 0.18491432580199998]}, {"species": [{"element": "P", "occu": 1}], "abc": [0.370257, 0.047902, 0.798783999999999], "properties": {"magmom": -0.0}, "label": "P", "xyz": [12.168348916711984, 1.8303354886830001, -0.0847341741979995]}, {"species": [{"element": "P", "occu": 1}], "abc": [0.870257, 0.952098, 0.701216], "properties": {"magmom": -0.0}, "label": "P", "xyz": [10.701647583287999, 4.302044988683, 6.499863674198]}, {"species": [{"element": "P", "occu": 1}], "abc": [0.310079, 0.481892999999999, 0.804773], "properties": {"magmom": -0.003}, "label": "P", "xyz": [12.268926793490998, 1.532850420101, 3.047219509393993]}, {"species": [{"element": "P", "occu": 1}], "abc": [0.810079, 0.518107, 0.695226999999999], "properties": {"magmom": -0.003}, "label": "P", "xyz": [10.601069706508985, 4.004559920101, 3.367909990606001]}, {"species": [{"element": "P", "occu": 1}], "abc": [0.689921, 0.518107, 0.195226999999999], "properties": {"magmom": -0.003}, "label": "P", "xyz": [2.9849202065089844, 3.4105685798990004, 3.6375584906060006]}, {"species": [{"element": "P", "occu": 1}], "abc": [0.189920999999999, 0.481892999999999, 0.304772999999999], "properties": {"magmom": -0.003}, "label": "P", "xyz": [4.652777293490985, 0.9388590798989952, 3.3168680093939935]}, {"species": [{"element": "P", "occu": 1}], "abc": [0.799616, 0.8123300000000001, 0.055325], "properties": {"magmom": -0.002}, "label": "P", "xyz": [0.8602310290149991, 3.9528369271040003, 5.838496238225001]}, {"species": [{"element": "P", "occu": 1}], "abc": [0.299616, 0.18767, 0.444675], "properties": {"magmom": -0.001}, "label": "P", "xyz": [6.777466470984999, 1.481127427104, 1.115930261775]}, {"species": [{"element": "P", "occu": 1}], "abc": [0.200383999999999, 0.18767, 0.944674999999999], "properties": {"magmom": -0.002}, "label": "P", "xyz": [14.393615970984985, 0.9905820728959952, 0.8462817617750005]}, {"species": [{"element": "P", "occu": 1}], "abc": [0.700384, 0.8123300000000001, 0.555325], "properties": {"magmom": -0.001}, "label": "P", "xyz": [8.476380529014998, 3.4622915728960004, 5.568847738225001]}, {"species": [{"element": "N", "occu": 1}], "abc": [0.708144, 0.737522999999999, 0.156629], "properties": {"magmom": 0.009000000000000001}, "label": "N", "xyz": [2.4017119056749987, 3.500652504336, 5.243451916411993]}, {"species": [{"element": "N", "occu": 1}], "abc": [0.208144, 0.262477, 0.343371], "properties": {"magmom": 0.009000000000000001}, "label": "N", "xyz": [5.235985594324999, 1.0289430043360002, 1.7109745835880001]}, {"species": [{"element": "N", "occu": 1}], "abc": [0.291856, 0.262477, 0.843371], "properties": {"magmom": 0.009000000000000001}, "label": "N", "xyz": [12.852135094325, 1.442766495664, 1.4413260835880002]}, {"species": [{"element": "N", "occu": 1}], "abc": [0.791856, 0.737522999999999, 0.656629], "properties": {"magmom": 0.009000000000000001}, "label": "N", "xyz": [10.017861405675, 3.9144759956640005, 4.973803416411993]}, {"species": [{"element": "N", "occu": 1}], "abc": [0.1114, 0.79671, 0.036882], "properties": {"magmom": 0.019}, "label": "N", "xyz": [0.5789651587979993, 0.5506968766, 5.735602441296]}, {"species": [{"element": "N", "occu": 1}], "abc": [0.6114, 0.20329000000000003, 0.463118], "properties": {"magmom": 0.018000000000000002}, "label": "N", "xyz": [7.058732341201999, 3.0224063766000007, 1.2188240587040002]}, {"species": [{"element": "N", "occu": 1}], "abc": [0.8886000000000001, 0.20329000000000003, 0.963117999999999], "properties": {"magmom": 0.019}, "label": "N", "xyz": [14.674881841201984, 4.3927221234000005, 0.9491755587040008]}, {"species": [{"element": "N", "occu": 1}], "abc": [0.3886, 0.79671, 0.536882], "properties": {"magmom": 0.018000000000000002}, "label": "N", "xyz": [8.195114658798, 1.9210126234000002, 5.465953941296]}, {"species": [{"element": "N", "occu": 1}], "abc": [0.610607, 0.743448, 0.9775400000000001], "properties": {"magmom": 0.05}, "label": "N", "xyz": [14.906201381964, 3.0184862453330004, 4.84353972122]}, {"species": [{"element": "N", "occu": 1}], "abc": [0.110607, 0.256552, 0.52246], "properties": {"magmom": 0.048}, "label": "N", "xyz": [7.963795118036, 0.546776745333, 1.57158977878]}, {"species": [{"element": "N", "occu": 1}], "abc": [0.389393, 0.256552, 0.02246], "properties": {"magmom": 0.05}, "label": "N", "xyz": [0.34764561803599975, 1.924932754667, 1.84123827878]}, {"species": [{"element": "N", "occu": 1}], "abc": [0.889393, 0.743448, 0.47754], "properties": {"magmom": 0.048}, "label": "N", "xyz": [7.290051881964, 4.396642254667, 5.113188221220001]}, {"species": [{"element": "N", "occu": 1}], "abc": [0.203837, 0.608031, 0.885172], "properties": {"magmom": 0.06}, "label": "N", "xyz": [13.496306422415998, 1.007651698703, 3.915090942241]}, {"species": [{"element": "N", "occu": 1}], "abc": [0.703836999999999, 0.391968999999999, 0.614827999999999], "properties": {"magmom": 0.059000000000000004}, "label": "N", "xyz": [9.373690077583985, 3.4793611987029958, 2.5000385577589936]}, {"species": [{"element": "N", "occu": 1}], "abc": [0.796163, 0.391968999999999, 0.114828], "properties": {"magmom": 0.06}, "label": "N", "xyz": [1.7575405775839994, 3.935767301297, 2.769687057758993]}, {"species": [{"element": "N", "occu": 1}], "abc": [0.296163, 0.608031, 0.385171999999999], "properties": {"magmom": 0.059000000000000004}, "label": "N", "xyz": [5.880156922415984, 1.4640578012970002, 4.184739442241001]}, {"species": [{"element": "N", "occu": 1}], "abc": [0.620004999999999, 0.516431, 0.780135999999999], "properties": {"magmom": 0.062}, "label": "N", "xyz": [11.894392867851984, 3.0649444970949955, 3.310011271933]}, {"species": [{"element": "N", "occu": 1}], "abc": [0.12000599999999902, 0.483568999999999, 0.719864], "properties": {"magmom": 0.061}, "label": "N", "xyz": [10.975603632148, 0.5932399405139952, 3.105118228066993]}, {"species": [{"element": "N", "occu": 1}], "abc": [0.37999499999999903, 0.483568999999999, 0.219864], "properties": {"magmom": 0.061}, "label": "N", "xyz": [3.3594541321479996, 1.8784745029049954, 3.374766728066993]}, {"species": [{"element": "N", "occu": 1}], "abc": [0.879995, 0.516431, 0.280136], "properties": {"magmom": 0.061}, "label": "N", "xyz": [4.278243367851999, 4.350184002905, 3.5796597719329997]}, {"species": [{"element": "N", "occu": 1}], "abc": [0.8186300000000001, 0.02722, 0.277685], "properties": {"magmom": 0.02}, "label": "N", "xyz": [4.230367484375, 4.046831095970001, 0.04688463405500001]}, {"species": [{"element": "N", "occu": 1}], "abc": [0.31863, 0.9727800000000001, 0.222314999999999], "properties": {"magmom": 0.02}, "label": "N", "xyz": [3.407330015624984, 1.5751215959700002, 6.907541865945001]}, {"species": [{"element": "N", "occu": 1}], "abc": [0.18137, 0.9727800000000001, 0.722314999999999], "properties": {"magmom": 0.02}, "label": "N", "xyz": [11.023479515624985, 0.8965879040300001, 6.6378933659450015]}, {"species": [{"element": "N", "occu": 1}], "abc": [0.68137, 0.02722, 0.777685], "properties": {"magmom": 0.02}, "label": "N", "xyz": [11.846516984374999, 3.3682974040300007, -0.22276386594499997]}, {"species": [{"element": "N", "occu": 1}], "abc": [0.284312, 0.973534999999999, 0.900404], "properties": {"magmom": 0.035}, "label": "N", "xyz": [13.736200680975998, 1.4054733427280002, 6.547304679136993]}, {"species": [{"element": "N", "occu": 1}], "abc": [0.784312, 0.026465, 0.599596], "properties": {"magmom": 0.034}, "label": "N", "xyz": [9.133795819024, 3.877182842728, -0.13217517913700005]}, {"species": [{"element": "N", "occu": 1}], "abc": [0.715688, 0.026465, 0.099595999999999], "properties": {"magmom": 0.035}, "label": "N", "xyz": [1.5176463190239846, 3.5379456572720005, 0.13747332086300051]}, {"species": [{"element": "N", "occu": 1}], "abc": [0.215688, 0.973534999999999, 0.400404], "properties": {"magmom": 0.034}, "label": "N", "xyz": [6.120051180975998, 1.066236157272, 6.816953179136993]}]}, "task_ids": null, "uncorrected_energy_per_atom": null, "energy_per_atom": -9.435253659659091, "formation_energy_per_atom": -0.35256639176407, "energy_above_hull": 0.12246162856060501, "is_stable": false, "equilibrium_reaction_energy_per_atom": null, "decomposes_to": null, "xas": null, "grain_boundaries": null, "band_gap": 0.0, "cbm": null, "vbm": null, "efermi": 3.35395868, "is_gap_direct": null, "is_metal": null, "es_source_calc_id": null, "bandstructure": null, "dos": null, "dos_energy_up": null, "dos_energy_down": null, "is_magnetic": null, "ordering": null, "total_magnetization": 1.4914353, "total_magnetization_normalized_vol": null, "total_magnetization_normalized_formula_units": null, "num_magnetic_sites": null, "num_unique_magnetic_sites": null, "types_of_magnetic_species": null, "bulk_modulus": null, "shear_modulus": null, "universal_anisotropy": null, "homogeneous_poisson": null, "e_total": null, "e_ionic": null, "e_electronic": null, "n": null, "e_ij_max": null, "weighted_surface_energy_EV_PER_ANG2": null, "weighted_surface_energy": null, "weighted_work_function": null, "surface_anisotropy": null, "shape_factor": null, "has_reconstructed": null, "possible_species": null, "has_props": null, "theoretical": null, "database_IDs": null, "fields_not_requested": ["builder_meta", "nsites", "elements", "nelements", "composition", "composition_reduced", "chemsys", "symmetry", "property_name", "deprecated", "deprecation_reasons", "last_updated", "origins", "warnings", "task_ids", "uncorrected_energy_per_atom", "equilibrium_reaction_energy_per_atom", "decomposes_to", "xas", "grain_boundaries", "cbm", "vbm", "is_gap_direct", "is_metal", "es_source_calc_id", "bandstructure", "dos", "dos_energy_up", "dos_energy_down", "is_magnetic", "ordering", "total_magnetization_normalized_vol", "total_magnetization_normalized_formula_units", "num_magnetic_sites", "num_unique_magnetic_sites", "types_of_magnetic_species", "bulk_modulus", "shear_modulus", "universal_anisotropy", "homogeneous_poisson", "e_total", "e_ionic", "e_electronic", "n", "e_ij_max", "weighted_surface_energy_EV_PER_ANG2", "weighted_surface_energy", "weighted_work_function", "surface_anisotropy", "shape_factor", "has_reconstructed", "possible_species", "has_props", "theoretical", "database_IDs"]}