{"builder_meta": null, "nsites": null, "elements": null, "nelements": null, "composition": null, "composition_reduced": null, "formula_pretty": "P4O7", "formula_anonymous": "A4B7", "chemsys": null, "volume": 772.1272269144046, "density": 2.029230183335191, "density_atomic": 17.548346066236466, "symmetry": null, "property_name": null, "material_id": "mp-542622", "deprecated": null, "deprecation_reasons": null, "last_updated": null, "origins": null, "warnings": null, "structure": {"@module": "pymatgen.core.structure", "@class": "Structure", "charge": 0, "lattice": {"matrix": [[10.68807, 0.0, 0.0], [0.0, 6.942302, 0.0], [0.0, 5.489723, 10.406054]], "pbc": [true, true, true], "a": 10.68807, "b": 6.942302, "c": 11.76533120943244, "alpha": 62.18607232733449, "beta": 90.0, "gamma": 90.0, "volume": 772.1272269144046}, "properties": {}, "sites": [{"species": [{"element": "P", "occu": 1}], "abc": [0.327499, 0.02874, 0.044351999999999], "properties": {"magmom": -0.0}, "label": "P", "xyz": [3.50033223693, 0.4430019539759945, 0.4615293070079896]}, {"species": [{"element": "P", "occu": 1}], "abc": [0.114883, 0.144347, 0.163286], "properties": {"magmom": -0.0}, "label": "P", "xyz": [1.22787754581, 1.8984953765719998, 1.6991629334439997]}, {"species": [{"element": "P", "occu": 1}], "abc": [0.827499, 0.9712600000000001, 0.455648], "properties": {"magmom": -0.0}, "label": "P", "xyz": [8.84436723693, 9.244161546024001, 4.741497692992]}, {"species": [{"element": "P", "occu": 1}], "abc": [0.672501, 0.9712600000000001, 0.955647999999999], "properties": {"magmom": -0.0}, "label": "P", "xyz": [7.18773776307, 11.989023046023995, 9.944524692991989]}, {"species": [{"element": "P", "occu": 1}], "abc": [0.709986999999999, 0.511406, 0.012275], "properties": {"magmom": -0.0}, "label": "P", "xyz": [7.588390755089989, 3.617721246437, 0.12773431284999998]}, {"species": [{"element": "P", "occu": 1}], "abc": [0.290012999999999, 0.488594, 0.987725], "properties": {"magmom": -0.0}, "label": "P", "xyz": [3.0996792449099893, 8.814303753563, 10.278319687149999]}, {"species": [{"element": "P", "occu": 1}], "abc": [0.616684999999999, 0.721066, 0.610746999999999], "properties": {"magmom": -0.0}, "label": "P", "xyz": [6.591172447949989, 8.358689787012995, 6.355466262337989]}, {"species": [{"element": "P", "occu": 1}], "abc": [0.885116999999999, 0.855653, 0.836714], "properties": {"magmom": -0.0}, "label": "P", "xyz": [9.46019245418999, 10.533529623427999, 8.706891066555999]}, {"species": [{"element": "P", "occu": 1}], "abc": [0.385117, 0.144347, 0.663285999999999], "properties": {"magmom": -0.0}, "label": "P", "xyz": [4.11615745419, 4.643356876571994, 6.90218993344399]}, {"species": [{"element": "P", "occu": 1}], "abc": [0.790013, 0.511406, 0.512274999999999], "properties": {"magmom": -0.0}, "label": "P", "xyz": [8.44371424491, 6.362582746436995, 5.330761312849989]}, {"species": [{"element": "P", "occu": 1}], "abc": [0.883315, 0.721066, 0.110747], "properties": {"magmom": -0.0}, "label": "P", "xyz": [9.440932552049999, 5.613828287013, 1.152439262338]}, {"species": [{"element": "P", "occu": 1}], "abc": [0.614883, 0.855653, 0.336713999999999], "properties": {"magmom": -0.0}, "label": "P", "xyz": [6.571912545809999, 7.788668123427994, 3.5038640665559897]}, {"species": [{"element": "P", "occu": 1}], "abc": [0.116685, 0.278933999999999, 0.889253], "properties": {"magmom": -0.0}, "label": "P", "xyz": [1.24713744795, 6.8181967129869925, 9.253614737662]}, {"species": [{"element": "P", "occu": 1}], "abc": [0.383314999999999, 0.278933999999999, 0.389252999999999], "properties": {"magmom": -0.0}, "label": "P", "xyz": [4.096897552049989, 4.073335212986988, 4.050587737661989]}, {"species": [{"element": "P", "occu": 1}], "abc": [0.172501, 0.02874, 0.544352], "properties": {"magmom": -0.0}, "label": "P", "xyz": [1.8437027630699998, 3.1878634539759996, 5.664556307007999]}, {"species": [{"element": "P", "occu": 1}], "abc": [0.209986999999999, 0.488594, 0.487724999999999], "properties": {"magmom": -0.0}, "label": "P", "xyz": [2.2443557550899893, 6.069442253562994, 5.0752926871499895]}, {"species": [{"element": "O", "occu": 1}], "abc": [0.694124, 0.624212, 0.386785], "properties": {"magmom": 0.0}, "label": "O", "xyz": [7.418845900679999, 6.456810726578999, 4.02490559639]}, {"species": [{"element": "O", "occu": 1}], "abc": [0.956909, 0.801018999999999, 0.977073], "properties": {"magmom": 0.0}, "label": "O", "xyz": [10.22751037563, 10.924775926516993, 10.167474399941998]}, {"species": [{"element": "O", "occu": 1}], "abc": [0.876933, 0.724123, 0.489847], "properties": {"magmom": 0.0}, "label": "O", "xyz": [9.372721289309998, 7.716204893526999, 5.097374333737999]}, {"species": [{"element": "O", "occu": 1}], "abc": [0.462651999999999, 0.313562, 0.280093], "properties": {"magmom": 0.0}, "label": "O", "xyz": [4.94485696163999, 3.7144750839629994, 2.9146628830219994]}, {"species": [{"element": "O", "occu": 1}], "abc": [0.962652, 0.686438, 0.219907], "properties": {"magmom": 0.0}, "label": "O", "xyz": [10.28889196164, 5.972688416036999, 2.288364116978]}, {"species": [{"element": "O", "occu": 1}], "abc": [0.8085500000000001, 0.509868, 0.126301], "properties": {"magmom": 0.0}, "label": "O", "xyz": [8.6418389985, 4.233015140759, 1.3142950262539999]}, {"species": [{"element": "O", "occu": 1}], "abc": [0.723845, 0.902308, 0.5781000000000001], "properties": {"magmom": 0.0}, "label": "O", "xyz": [7.736506029149999, 9.437703499316, 6.0157398174]}, {"species": [{"element": "O", "occu": 1}], "abc": [0.776154999999999, 0.902308, 0.0781], "properties": {"magmom": 0.0}, "label": "O", "xyz": [8.295598970849989, 6.692841999315999, 0.8127128174]}, {"species": [{"element": "O", "occu": 1}], "abc": [0.30855000000000005, 0.490131999999999, 0.373699], "properties": {"magmom": 0.0}, "label": "O", "xyz": [3.2978039985000005, 5.4541483592409925, 3.8887319737459998]}, {"species": [{"element": "O", "occu": 1}], "abc": [0.272962, 0.980474, 0.661793], "properties": {"magmom": 0.0}, "label": "O", "xyz": [2.9174369633399997, 10.439806864486998, 6.886653694821999]}, {"species": [{"element": "O", "occu": 1}], "abc": [0.727038, 0.019525999999999002, 0.338207], "properties": {"magmom": 0.0}, "label": "O", "xyz": [7.77063303666, 1.9922181355129929, 3.5194003051779994]}, {"species": [{"element": "O", "occu": 1}], "abc": [0.19145, 0.490131999999999, 0.873699], "properties": {"magmom": 0.0}, "label": "O", "xyz": [2.0462310015000003, 8.199009859240993, 9.091758973746]}, {"species": [{"element": "O", "occu": 1}], "abc": [0.043091, 0.198981, 0.022927], "properties": {"magmom": 0.0}, "label": "O", "xyz": [0.46055962437, 1.5072490734829997, 0.23857960005799997]}, {"species": [{"element": "O", "occu": 1}], "abc": [0.223845, 0.097692, 0.9219], "properties": {"magmom": 0.0}, "label": "O", "xyz": [2.3924710291499998, 5.739183000684, 9.5933411826]}, {"species": [{"element": "O", "occu": 1}], "abc": [0.805875999999999, 0.624212, 0.886784999999999], "properties": {"magmom": 0.0}, "label": "O", "xyz": [8.61325909931999, 9.201672226578994, 9.227932596389989]}, {"species": [{"element": "O", "occu": 1}], "abc": [0.037348, 0.313562, 0.780092999999999], "properties": {"magmom": 0.0}, "label": "O", "xyz": [0.39917803836, 6.459336583962994, 8.11768988302199]}, {"species": [{"element": "O", "occu": 1}], "abc": [0.543091, 0.801018999999999, 0.477072999999999], "properties": {"magmom": 0.0}, "label": "O", "xyz": [5.80459462437, 8.179914426516987, 4.96444739994199]}, {"species": [{"element": "O", "occu": 1}], "abc": [0.227038, 0.980474, 0.161793], "properties": {"magmom": 0.0}, "label": "O", "xyz": [2.4265980366599997, 7.694945364486999, 1.6836266948219998]}, {"species": [{"element": "O", "occu": 1}], "abc": [0.276155, 0.097692, 0.4219], "properties": {"magmom": 0.0}, "label": "O", "xyz": [2.9515639708499997, 2.994321500684, 4.3903141826]}, {"species": [{"element": "O", "occu": 1}], "abc": [0.194124, 0.375787999999999, 0.113215], "properties": {"magmom": 0.0}, "label": "O", "xyz": [2.0748109006799997, 3.230352773420993, 1.1781214036099998]}, {"species": [{"element": "O", "occu": 1}], "abc": [0.376932999999999, 0.275877, 0.010152999999999001], "properties": {"magmom": 0.0}, "label": "O", "xyz": [4.02868628930999, 1.9709586064729943, 0.1056526662619896]}, {"species": [{"element": "O", "occu": 1}], "abc": [0.69145, 0.509868, 0.626301], "properties": {"magmom": 0.0}, "label": "O", "xyz": [7.3902660015, 6.977876640759, 6.517322026254]}, {"species": [{"element": "O", "occu": 1}], "abc": [0.305876, 0.375787999999999, 0.613215], "properties": {"magmom": 0.0}, "label": "O", "xyz": [3.2692240993199997, 5.975214273420993, 6.381148403609999]}, {"species": [{"element": "O", "occu": 1}], "abc": [0.772961999999999, 0.019525999999999002, 0.838206999999999], "properties": {"magmom": 0.0}, "label": "O", "xyz": [8.26147196333999, 4.737079635512988, 8.72242730517799]}, {"species": [{"element": "O", "occu": 1}], "abc": [0.537347999999999, 0.686438, 0.719907], "properties": {"magmom": 0.0}, "label": "O", "xyz": [5.74321303835999, 8.717549916037, 7.491391116977999]}, {"species": [{"element": "O", "occu": 1}], "abc": [0.123067, 0.275877, 0.510153], "properties": {"magmom": 0.0}, "label": "O", "xyz": [1.31534871069, 4.715820106472999, 5.308679666261999]}, {"species": [{"element": "O", "occu": 1}], "abc": [0.456908999999999, 0.198981, 0.522927], "properties": {"magmom": 0.0}, "label": "O", "xyz": [4.883475375629989, 4.252110573483, 5.441606600058]}, {"species": [{"element": "O", "occu": 1}], "abc": [0.623066999999999, 0.724123, 0.989846999999999], "properties": {"magmom": 0.0}, "label": "O", "xyz": [6.65938371068999, 10.461066393526995, 10.30040133373799]}]}, "task_ids": null, "uncorrected_energy_per_atom": null, "energy_per_atom": -7.248675477272727, "formation_energy_per_atom": -2.130709919415583, "energy_above_hull": 0.05116716503896301, "is_stable": false, "equilibrium_reaction_energy_per_atom": null, "decomposes_to": null, "xas": null, "grain_boundaries": null, "band_gap": 4.3719, "cbm": null, "vbm": null, "efermi": -0.21150633, "is_gap_direct": null, "is_metal": null, "es_source_calc_id": null, "bandstructure": null, "dos": null, "dos_energy_up": null, "dos_energy_down": null, "is_magnetic": null, "ordering": null, "total_magnetization": 0.002154, "total_magnetization_normalized_vol": null, "total_magnetization_normalized_formula_units": null, "num_magnetic_sites": null, "num_unique_magnetic_sites": null, "types_of_magnetic_species": null, "bulk_modulus": null, "shear_modulus": null, "universal_anisotropy": null, "homogeneous_poisson": null, "e_total": null, "e_ionic": null, "e_electronic": null, "n": null, "e_ij_max": null, "weighted_surface_energy_EV_PER_ANG2": null, "weighted_surface_energy": null, "weighted_work_function": null, "surface_anisotropy": null, "shape_factor": null, "has_reconstructed": null, "possible_species": null, "has_props": null, "theoretical": null, "database_IDs": null, "fields_not_requested": ["builder_meta", "nsites", "elements", "nelements", "composition", "composition_reduced", "chemsys", "symmetry", "property_name", "deprecated", "deprecation_reasons", "last_updated", "origins", "warnings", "task_ids", "uncorrected_energy_per_atom", "equilibrium_reaction_energy_per_atom", "decomposes_to", "xas", "grain_boundaries", "cbm", "vbm", "is_gap_direct", "is_metal", "es_source_calc_id", "bandstructure", "dos", "dos_energy_up", "dos_energy_down", "is_magnetic", "ordering", "total_magnetization_normalized_vol", "total_magnetization_normalized_formula_units", "num_magnetic_sites", "num_unique_magnetic_sites", "types_of_magnetic_species", "bulk_modulus", "shear_modulus", "universal_anisotropy", "homogeneous_poisson", "e_total", "e_ionic", "e_electronic", "n", "e_ij_max", "weighted_surface_energy_EV_PER_ANG2", "weighted_surface_energy", "weighted_work_function", "surface_anisotropy", "shape_factor", "has_reconstructed", "possible_species", "has_props", "theoretical", "database_IDs"]}