{"builder_meta": null, "nsites": null, "elements": null, "nelements": null, "composition": null, "composition_reduced": null, "formula_pretty": "P4Os", "formula_anonymous": "AB4", "chemsys": null, "volume": 234.23808984740512, "density": 6.680598971005209, "density_atomic": 15.615872656493675, "symmetry": null, "property_name": null, "material_id": "mp-1103842", "deprecated": null, "deprecation_reasons": null, "last_updated": null, "origins": null, "warnings": null, "structure": {"@module": "pymatgen.core.structure", "@class": "Structure", "charge": 0, "lattice": {"matrix": [[0.0008486300000000001, 0.00250988, -4.73011352], [2.60242872, -6.55439647, 1.29502356], [-7.5571656, 0.00259028, 0.04635276]], "pbc": [true, true, true], "a": 4.730114262019183, "b": 7.170065156578731, "c": 7.557308197614641, "alpha": 111.23267110840138, "beta": 90.36169491182034, "gamma": 100.43006430240067, "volume": 234.23808984740512}, "properties": {}, "sites": [{"species": [{"element": "P", "occu": 1}], "abc": [0.82047937, 0.83849468, 0.21517967000000002], "properties": {"magmom": -0.0}, "label": "P", "xyz": [0.5566705202636204, -5.493209890348997, -2.7851160237830324]}, {"species": [{"element": "P", "occu": 1}], "abc": [0.17952063000000001, 0.16150532, 0.7848203300000001], "properties": {"magmom": -0.0}, "label": "P", "xyz": [-5.510558770263621, -1.0560864196510038, -0.6036211762169675]}, {"species": [{"element": "P", "occu": 1}], "abc": [0.72696669, 0.5728907400000001, 0.54931187], "properties": {"magmom": 0.0}, "label": "P", "xyz": [-2.6597165266954854, -3.7517055732451676, -2.6712658420775535]}, {"species": [{"element": "P", "occu": 1}], "abc": [0.27303331000000003, 0.42710926, 0.45068813], "properties": {"magmom": 0.0}, "label": "P", "xyz": [-2.2941717233045162, -2.797590736754833, -0.7174713579224469]}, {"species": [{"element": "P", "occu": 1}], "abc": [0.793627899999999, 0.29621019, 0.1232993], "properties": {"magmom": -0.0}, "label": "P", "xyz": [-0.16025382640664643, -1.9391677332095734, -3.3646356220160594]}, {"species": [{"element": "P", "occu": 1}], "abc": [0.2063721, 0.70378981, 0.8767007], "properties": {"magmom": -0.0}, "label": "P", "xyz": [-4.793634423593354, -4.610128576790426, -0.024101577983936362]}, {"species": [{"element": "P", "occu": 1}], "abc": [0.40121234, 0.63349967, 0.10033079], "properties": {"magmom": -0.0}, "label": "P", "xyz": [0.8907618213377924, -4.1509411211275244, -1.0727323068931311]}, {"species": [{"element": "P", "occu": 1}], "abc": [0.59878766, 0.36650033, 0.89966921], "properties": {"magmom": -0.0}, "label": "P", "xyz": [-5.844650071337793, -2.3983551888724755, -2.316004893106869]}, {"species": [{"element": "P", "occu": 1}], "abc": [0.34146637, 0.91416246, 0.56130569], "properties": {"magmom": 0.0}, "label": "P", "xyz": [-1.86254763229684, -5.989472222315088, -0.40529470205956036]}, {"species": [{"element": "P", "occu": 1}], "abc": [0.65853363, 0.08583754, 0.43869431000000003], "properties": {"magmom": 0.0}, "label": "P", "xyz": [-3.091340617703161, -0.5598240876849127, -2.9834424979404393]}, {"species": [{"element": "P", "occu": 1}], "abc": [0.60812968, 0.82955512, 0.76863466], "properties": {"magmom": -0.0}, "label": "P", "xyz": [-3.649325265318312, -5.433715838690083, -1.7666006586399847]}, {"species": [{"element": "P", "occu": 1}], "abc": [0.39187032, 0.17044488, 0.23136534], "properties": {"magmom": -0.0}, "label": "P", "xyz": [-1.3045629846816889, -1.1155804713099167, -1.622136541360015]}, {"species": [{"element": "Os", "occu": 1}], "abc": [0.0, -0.0, -0.0], "properties": {"magmom": -0.0}, "label": "Os", "xyz": [0.0, 0.0, 0.0]}, {"species": [{"element": "Os", "occu": 1}], "abc": [0.0592484, 0.62824578, 0.32838528], "properties": {"magmom": 0.0}, "label": "Os", "xyz": [-0.8466468005018746, -4.116772606527126, 0.5485629927635814]}, {"species": [{"element": "Os", "occu": 1}], "abc": [0.940751599999999, 0.37175422, 0.67161472], "properties": {"magmom": 0.0}, "label": "Os", "xyz": [-4.107241449498125, -2.432523703472874, -3.9373001927635762]}]}, "task_ids": null, "uncorrected_energy_per_atom": null, "energy_per_atom": -18.260096724666667, "formation_energy_per_atom": -0.461389905047618, "energy_above_hull": 0.0, "is_stable": true, "equilibrium_reaction_energy_per_atom": null, "decomposes_to": null, "xas": null, "grain_boundaries": null, "band_gap": 1.3036, "cbm": null, "vbm": null, "efermi": 7.80875322, "is_gap_direct": null, "is_metal": null, "es_source_calc_id": null, "bandstructure": null, "dos": null, "dos_energy_up": null, "dos_energy_down": null, "is_magnetic": null, "ordering": null, "total_magnetization": 0.0, "total_magnetization_normalized_vol": null, "total_magnetization_normalized_formula_units": null, "num_magnetic_sites": null, "num_unique_magnetic_sites": null, "types_of_magnetic_species": null, "bulk_modulus": null, "shear_modulus": null, "universal_anisotropy": null, "homogeneous_poisson": null, "e_total": null, "e_ionic": null, "e_electronic": null, "n": null, "e_ij_max": null, "weighted_surface_energy_EV_PER_ANG2": null, "weighted_surface_energy": null, "weighted_work_function": null, "surface_anisotropy": null, "shape_factor": null, "has_reconstructed": null, "possible_species": null, "has_props": null, "theoretical": null, "database_IDs": null, "fields_not_requested": ["builder_meta", "nsites", "elements", "nelements", "composition", "composition_reduced", "chemsys", "symmetry", "property_name", "deprecated", "deprecation_reasons", "last_updated", "origins", "warnings", "task_ids", "uncorrected_energy_per_atom", "equilibrium_reaction_energy_per_atom", "decomposes_to", "xas", "grain_boundaries", "cbm", "vbm", "is_gap_direct", "is_metal", "es_source_calc_id", "bandstructure", "dos", "dos_energy_up", "dos_energy_down", "is_magnetic", "ordering", "total_magnetization_normalized_vol", "total_magnetization_normalized_formula_units", "num_magnetic_sites", "num_unique_magnetic_sites", "types_of_magnetic_species", "bulk_modulus", "shear_modulus", "universal_anisotropy", "homogeneous_poisson", "e_total", "e_ionic", "e_electronic", "n", "e_ij_max", "weighted_surface_energy_EV_PER_ANG2", "weighted_surface_energy", "weighted_work_function", "surface_anisotropy", "shape_factor", "has_reconstructed", "possible_species", "has_props", "theoretical", "database_IDs"]}