{"builder_meta": null, "nsites": null, "elements": null, "nelements": null, "composition": null, "composition_reduced": null, "formula_pretty": "P4Ru", "formula_anonymous": "AB4", "chemsys": null, "volume": 233.46729289993837, "density": 4.800200227408077, "density_atomic": 15.564486193329225, "symmetry": null, "property_name": null, "material_id": "mp-27173", "deprecated": null, "deprecation_reasons": null, "last_updated": null, "origins": null, "warnings": null, "structure": {"@module": "pymatgen.core.structure", "@class": "Structure", "charge": 0, "lattice": {"matrix": [[4.72678206, -0.00111418, -0.02992339], [-1.32017979, 6.55255513, -2.57855651], [-0.00147076, -0.0024319, 7.53921742]], "pbc": [true, true, true], "a": 4.726876906944374, "b": 7.16434275316844, "c": 7.5392179556837355, "alpha": 111.11090320070358, "beta": 90.37388504734318, "gamma": 100.49818258054808, "volume": 233.46729289993837}, "properties": {}, "sites": [{"species": [{"element": "P", "occu": 1}], "abc": [0.59792448, 0.36810679, 0.9011226800000001], "properties": {"magmom": -0.0}, "label": "P", "xyz": [2.338966225386218, 2.4091823994597146, 5.826683719477796]}, {"species": [{"element": "P", "occu": 1}], "abc": [0.40207552, 0.63189321, 0.09887732], "properties": {"magmom": -0.0}, "label": "P", "xyz": [1.066165284613782, 4.139826650540286, -0.8959461994777955]}, {"species": [{"element": "P", "occu": 1}], "abc": [0.17921095, 0.16157833, 0.78486109], "properties": {"magmom": -0.0}, "label": "P", "xyz": [0.6326243153508778, 1.0566425381972908, 5.495236948162639]}, {"species": [{"element": "P", "occu": 1}], "abc": [0.82078905, 0.83842167, 0.21513991000000002], "properties": {"magmom": -0.0}, "label": "P", "xyz": [2.772507193178362, 5.492366509370809, -0.5644918889452191]}, {"species": [{"element": "P", "occu": 1}], "abc": [0.27360709, 0.42722479, 0.45061961], "properties": {"magmom": -0.0}, "label": "P", "xyz": [0.7286047976582076, 2.798013280000578, 2.287508698356888]}, {"species": [{"element": "P", "occu": 1}], "abc": [0.7263929100000001, 0.57277521, 0.54938039], "properties": {"magmom": -0.0}, "label": "P", "xyz": [2.676526712341792, 3.7509957699994225, 2.6432288216431123]}, {"species": [{"element": "P", "occu": 1}], "abc": [0.65880407, 0.08556597, 0.43728269000000003], "properties": {"magmom": 0.0}, "label": "P", "xyz": [3.000417656936093, 0.5588782815844026, 3.056418933814298]}, {"species": [{"element": "P", "occu": 1}], "abc": [0.34119593, 0.91443403, 0.56271731], "properties": {"magmom": 0.0}, "label": "P", "xyz": [0.40471385306390634, 5.9901307684155976, 1.8743185861857028]}, {"species": [{"element": "P", "occu": 1}], "abc": [0.20651018000000002, 0.70416015, 0.8759637], "properties": {"magmom": -0.0}, "label": "P", "xyz": [0.04522228270659036, 4.611687857589686, 4.782184562807467]}, {"species": [{"element": "P", "occu": 1}], "abc": [0.79348982, 0.29583985, 0.124036299999999], "properties": {"magmom": -0.0}, "label": "P", "xyz": [3.3599092272934095, 1.9373211924103129, 0.14855295719252515]}, {"species": [{"element": "P", "occu": 1}], "abc": [0.39174679, 0.16943567, 0.2319977], "properties": {"magmom": 0.0}, "label": "P", "xyz": [1.6276749388582261, 1.109235897018375, 1.3004592593568043]}, {"species": [{"element": "P", "occu": 1}], "abc": [0.60825321, 0.8305643300000001, 0.768002299999999], "properties": {"magmom": 0.0}, "label": "P", "xyz": [1.7774565711417736, 5.439773152981625, 3.6302782606431885]}, {"species": [{"element": "Ru", "occu": 1}], "abc": [0.0, -0.0, -0.0], "properties": {"magmom": 0.0}, "label": "Ru", "xyz": [0.0, 0.0, 0.0]}, {"species": [{"element": "Ru", "occu": 1}], "abc": [0.94133823, 0.37328915, 0.67099044], "properties": {"magmom": 0.0}, "label": "Ru", "xyz": [3.955705000400341, 2.443317132925702, 4.068027615078398]}, {"species": [{"element": "Ru", "occu": 1}], "abc": [0.05866177, 0.62671085, 0.32900956000000003], "properties": {"magmom": 0.0}, "label": "Ru", "xyz": [-0.550573490400341, 4.105691917074298, 0.8627099049216016]}]}, "task_ids": null, "uncorrected_energy_per_atom": null, "energy_per_atom": -12.801271645333333, "formation_energy_per_atom": -0.514703536714284, "energy_above_hull": 0.0, "is_stable": true, "equilibrium_reaction_energy_per_atom": null, "decomposes_to": null, "xas": null, "grain_boundaries": null, "band_gap": 1.258600000000001, "cbm": null, "vbm": null, "efermi": 7.72588415, "is_gap_direct": null, "is_metal": null, "es_source_calc_id": null, "bandstructure": null, "dos": null, "dos_energy_up": null, "dos_energy_down": null, "is_magnetic": null, "ordering": null, "total_magnetization": 0.0, "total_magnetization_normalized_vol": null, "total_magnetization_normalized_formula_units": null, "num_magnetic_sites": null, "num_unique_magnetic_sites": null, "types_of_magnetic_species": null, "bulk_modulus": null, "shear_modulus": null, "universal_anisotropy": null, "homogeneous_poisson": null, "e_total": null, "e_ionic": null, "e_electronic": null, "n": null, "e_ij_max": null, "weighted_surface_energy_EV_PER_ANG2": null, "weighted_surface_energy": null, "weighted_work_function": null, "surface_anisotropy": null, "shape_factor": null, "has_reconstructed": null, "possible_species": null, "has_props": null, "theoretical": null, "database_IDs": null, "fields_not_requested": ["builder_meta", "nsites", "elements", "nelements", "composition", "composition_reduced", "chemsys", "symmetry", "property_name", "deprecated", "deprecation_reasons", "last_updated", "origins", "warnings", "task_ids", "uncorrected_energy_per_atom", "equilibrium_reaction_energy_per_atom", "decomposes_to", "xas", "grain_boundaries", "cbm", "vbm", "is_gap_direct", "is_metal", "es_source_calc_id", "bandstructure", "dos", "dos_energy_up", "dos_energy_down", "is_magnetic", "ordering", "total_magnetization_normalized_vol", "total_magnetization_normalized_formula_units", "num_magnetic_sites", "num_unique_magnetic_sites", "types_of_magnetic_species", "bulk_modulus", "shear_modulus", "universal_anisotropy", "homogeneous_poisson", "e_total", "e_ionic", "e_electronic", "n", "e_ij_max", "weighted_surface_energy_EV_PER_ANG2", "weighted_surface_energy", "weighted_work_function", "surface_anisotropy", "shape_factor", "has_reconstructed", "possible_species", "has_props", "theoretical", "database_IDs"]}