{
  "builder_meta": null,
  "nsites": null,
  "elements": null,
  "nelements": null,
  "composition": null,
  "composition_reduced": null,
  "formula_pretty": "P4S5",
  "formula_anonymous": "A4B5",
  "chemsys": null,
  "volume": 469.0018517014797,
  "density": 2.012608229595346,
  "density_atomic": 26.055658427859985,
  "symmetry": null,
  "property_name": null,
  "material_id": "mp-690",
  "deprecated": null,
  "deprecation_reasons": null,
  "last_updated": null,
  "origins": null,
  "warnings": null,
  "structure": {
    "@module": "pymatgen.core.structure",
    "@class": "Structure",
    "charge": 0,
    "lattice": {
      "matrix": [
        [6.5533554, -0.04933742, 0.0],
        [-2.50595096, 6.43038293, 0.0],
        [0.0, 0.0, 11.16220666]
      ],
      "pbc": [true, true, true],
      "a": 6.55354111757311,
      "b": 6.90142121887661,
      "c": 11.16220666,
      "alpha": 90.0,
      "beta": 90.0,
      "gamma": 111.72244770508877,
      "volume": 469.0018517014797
    },
    "properties": {},
    "sites": [
      {
        "species": [{ "element": "P", "occu": 1 }],
        "abc": [0.31830023, 0.6040223, 0.992030499999999],
        "properties": { "magmom": 0.0 },
        "label": "P",
        "xyz": [0.5722842685453342, 3.8683905751257326, 11.07324945402312]
      },
      {
        "species": [{ "element": "P", "occu": 1 }],
        "abc": [0.68169977, 0.3959777, 0.4920305],
        "properties": { "magmom": 0.0 },
        "label": "P",
        "xyz": [3.475120171454666, 2.5126549348742677, 5.49214612402313]
      },
      {
        "species": [{ "element": "P", "occu": 1 }],
        "abc": [0.53862387, 0.51393044, 0.86549631],
        "properties": { "magmom": -0.0 },
        "label": "P",
        "xyz": [2.241909167542176, 3.278195216487174, 9.660848675687426]
      },
      {
        "species": [{ "element": "P", "occu": 1 }],
        "abc": [0.46137613, 0.48606956, 0.36549631],
        "properties": { "magmom": -0.0 },
        "label": "P",
        "xyz": [1.8054952724578244, 3.1028502935128266, 4.079745345687424]
      },
      {
        "species": [{ "element": "P", "occu": 1 }],
        "abc": [0.24973504, 0.435473699999999, 0.74164031],
        "properties": { "magmom": 0.0 },
        "label": "P",
        "xyz": [0.5453267363834666, 2.787941364386738, 8.278342407606464]
      },
      {
        "species": [{ "element": "P", "occu": 1 }],
        "abc": [0.75026496, 0.564526299999999, 0.24164031],
        "properties": { "magmom": 0.0 },
        "label": "P",
        "xyz": [3.5020777036165383, 3.5931041456132498, 2.6972390776064645]
      },
      {
        "species": [{ "element": "P", "occu": 1 }],
        "abc": [0.52092626, 0.94600003, 0.76245129],
        "properties": { "magmom": 0.0 },
        "label": "P",
        "xyz": [1.0431852356342755, 6.057441287012839, 8.510638867163593]
      },
      {
        "species": [{ "element": "P", "occu": 1 }],
        "abc": [0.47907374, 0.05399997, 0.26245129],
        "properties": { "magmom": 0.0 },
        "label": "P",
        "xyz": [3.0042192043657248, 0.32360422298716135, 2.929535537163592]
      },
      {
        "species": [{ "element": "S", "occu": 1 }],
        "abc": [0.37120181, 0.91107931, 0.93293865],
        "properties": { "magmom": -0.0 },
        "label": "S",
        "xyz": [0.14949731452263704, 5.840274703295448, 10.413654012401409]
      },
      {
        "species": [{ "element": "S", "occu": 1 }],
        "abc": [0.62879819, 0.08892069, 0.43293865000000004],
        "properties": { "magmom": -0.0 },
        "label": "S",
        "xyz": [3.8979071254773645, 0.5407708067045519, 4.8325506824014095]
      },
      {
        "species": [{ "element": "S", "occu": 1 }],
        "abc": [0.74665823, 0.79276497, 0.79472329],
        "properties": { "magmom": -0.0 },
        "label": "S",
        "xyz": [2.906486605899071, 5.060944139899996, 8.870865600495112]
      },
      {
        "species": [{ "element": "S", "occu": 1 }],
        "abc": [0.25334177, 0.20723503000000001, 0.29472329],
        "properties": { "magmom": -0.0 },
        "label": "S",
        "xyz": [1.1409178341009294, 1.3201013701000046, 3.2897622704951117]
      },
      {
        "species": [{ "element": "S", "occu": 1 }],
        "abc": [0.28694152, 0.71682705, 0.65505709],
        "properties": { "magmom": -0.0 },
        "label": "S",
        "xyz": [0.08409632547474022, 4.595315471794579, 7.31188261267822]
      },
      {
        "species": [{ "element": "S", "occu": 1 }],
        "abc": [0.71305848, 0.28317295, 0.15505709],
        "properties": { "magmom": -0.0 },
        "label": "S",
        "xyz": [3.9633081145252604, 1.785730038205422, 1.7307792826782196]
      },
      {
        "species": [{ "element": "S", "occu": 1 }],
        "abc": [0.044557940000000004, 0.39134621, 0.89107461],
        "properties": { "magmom": 0.0 },
        "label": "S",
        "xyz": [-0.6886903939299855, 2.514307614704081, 9.946358946298902]
      },
      {
        "species": [{ "element": "S", "occu": 1 }],
        "abc": [0.95544206, 0.60865379, 0.39107461],
        "properties": { "magmom": 0.0 },
        "label": "S",
        "xyz": [4.736094833929986, 3.8667378952959193, 4.365255616298903]
      },
      {
        "species": [{ "element": "S", "occu": 1 }],
        "abc": [0.15783514, 0.21176806, 0.62558697],
        "properties": { "magmom": -0.0 },
        "label": "S",
        "xyz": [0.5036693937744184, 1.353962539550277, 6.98293104294322]
      },
      {
        "species": [{ "element": "S", "occu": 1 }],
        "abc": [0.84216486, 0.78823194, 0.12558697],
        "properties": { "magmom": -0.0 },
        "label": "S",
        "xyz": [3.5437350462255823, 5.027082970449722, 1.4018277129432202]
      }
    ]
  },
  "task_ids": null,
  "uncorrected_energy_per_atom": null,
  "energy_per_atom": -8.653892881666668,
  "formation_energy_per_atom": -0.189081697329696,
  "energy_above_hull": 0.005537089583331,
  "is_stable": false,
  "equilibrium_reaction_energy_per_atom": null,
  "decomposes_to": null,
  "xas": null,
  "grain_boundaries": null,
  "band_gap": 2.489099999999999,
  "cbm": null,
  "vbm": null,
  "efermi": 0.63518954,
  "is_gap_direct": null,
  "is_metal": null,
  "es_source_calc_id": null,
  "bandstructure": null,
  "dos": null,
  "dos_energy_up": null,
  "dos_energy_down": null,
  "is_magnetic": null,
  "ordering": null,
  "total_magnetization": 0.0,
  "total_magnetization_normalized_vol": null,
  "total_magnetization_normalized_formula_units": null,
  "num_magnetic_sites": null,
  "num_unique_magnetic_sites": null,
  "types_of_magnetic_species": null,
  "bulk_modulus": null,
  "shear_modulus": null,
  "universal_anisotropy": null,
  "homogeneous_poisson": null,
  "e_total": null,
  "e_ionic": null,
  "e_electronic": null,
  "n": null,
  "e_ij_max": null,
  "weighted_surface_energy_EV_PER_ANG2": null,
  "weighted_surface_energy": null,
  "weighted_work_function": null,
  "surface_anisotropy": null,
  "shape_factor": null,
  "has_reconstructed": null,
  "possible_species": null,
  "has_props": null,
  "theoretical": null,
  "database_IDs": null,
  "fields_not_requested": [
    "builder_meta",
    "nsites",
    "elements",
    "nelements",
    "composition",
    "composition_reduced",
    "chemsys",
    "symmetry",
    "property_name",
    "deprecated",
    "deprecation_reasons",
    "last_updated",
    "origins",
    "warnings",
    "task_ids",
    "uncorrected_energy_per_atom",
    "equilibrium_reaction_energy_per_atom",
    "decomposes_to",
    "xas",
    "grain_boundaries",
    "cbm",
    "vbm",
    "is_gap_direct",
    "is_metal",
    "es_source_calc_id",
    "bandstructure",
    "dos",
    "dos_energy_up",
    "dos_energy_down",
    "is_magnetic",
    "ordering",
    "total_magnetization_normalized_vol",
    "total_magnetization_normalized_formula_units",
    "num_magnetic_sites",
    "num_unique_magnetic_sites",
    "types_of_magnetic_species",
    "bulk_modulus",
    "shear_modulus",
    "universal_anisotropy",
    "homogeneous_poisson",
    "e_total",
    "e_ionic",
    "e_electronic",
    "n",
    "e_ij_max",
    "weighted_surface_energy_EV_PER_ANG2",
    "weighted_surface_energy",
    "weighted_work_function",
    "surface_anisotropy",
    "shape_factor",
    "has_reconstructed",
    "possible_species",
    "has_props",
    "theoretical",
    "database_IDs"
  ]
}
