{
  "builder_meta": null,
  "nsites": null,
  "elements": null,
  "nelements": null,
  "composition": null,
  "composition_reduced": null,
  "formula_pretty": "P4S7",
  "formula_anonymous": "A4B7",
  "chemsys": null,
  "volume": 1137.9158459348423,
  "density": 2.033362539496993,
  "density_atomic": 25.861723771246417,
  "symmetry": null,
  "property_name": null,
  "material_id": "mp-2650",
  "deprecated": null,
  "deprecation_reasons": null,
  "last_updated": null,
  "origins": null,
  "warnings": null,
  "structure": {
    "@module": "pymatgen.core.structure",
    "@class": "Structure",
    "charge": 0,
    "lattice": {
      "matrix": [
        [6.99344298, -0.04823855, 0.0],
        [-0.499014199999999, 9.13020455, 0.0],
        [0.0, 0.0, 17.82798899]
      ],
      "pbc": [true, true, true],
      "a": 6.993609345124832,
      "b": 9.143831270131923,
      "c": 17.82798899,
      "alpha": 90.0,
      "beta": 90.0,
      "gamma": 93.52360809153038,
      "volume": 1137.9158459348423
    },
    "properties": {},
    "sites": [
      {
        "species": [{ "element": "P", "occu": 1 }],
        "abc": [0.29742122, 0.71673899, 0.3789804],
        "properties": { "magmom": 0.0 },
        "label": "P",
        "xyz": [1.7223354094083783, 6.529626419268373, 6.756458398625797]
      },
      {
        "species": [{ "element": "P", "occu": 1 }],
        "abc": [0.20257878, 0.78326101, 0.8789804],
        "properties": { "magmom": 0.0 },
        "label": "P",
        "xyz": [1.0258647805916234, 7.141561130731628, 15.670452893625797]
      },
      {
        "species": [{ "element": "P", "occu": 1 }],
        "abc": [0.7025787800000001, 0.28326101, 0.6210196],
        "properties": { "magmom": 0.0 },
        "label": "P",
        "xyz": [4.772093370591623, 2.5523395807316263, 11.071530591374206]
      },
      {
        "species": [{ "element": "P", "occu": 1 }],
        "abc": [0.79742122, 0.21673899, 0.121019599999999],
        "properties": { "magmom": 0.0 },
        "label": "P",
        "xyz": [5.468563999408378, 1.9404048692683735, 2.1575360963741863]
      },
      {
        "species": [{ "element": "P", "occu": 1 }],
        "abc": [0.53187667, 0.64754033, 0.29332767],
        "properties": { "magmom": 0.0 },
        "label": "P",
        "xyz": [3.3965173442945917, 5.886518707934873, 5.229442471222353]
      },
      {
        "species": [{ "element": "P", "occu": 1 }],
        "abc": [0.9681233300000001, 0.85245967, 0.79332767],
        "properties": { "magmom": 0.0 },
        "label": "P",
        "xyz": [6.345125825705411, 7.736430292065127, 14.143436966222355]
      },
      {
        "species": [{ "element": "P", "occu": 1 }],
        "abc": [0.46812333, 0.35245967, 0.70667233],
        "properties": { "magmom": 0.0 },
        "label": "P",
        "xyz": [3.09791143570541, 3.1954472920651273, 12.598546518777647]
      },
      {
        "species": [{ "element": "P", "occu": 1 }],
        "abc": [0.03187667, 0.14754033, 0.20667233000000002],
        "properties": { "magmom": 0.0 },
        "label": "P",
        "xyz": [0.14930295429459078, 1.345535707934873, 3.6845520237776475]
      },
      {
        "species": [{ "element": "P", "occu": 1 }],
        "abc": [0.72302583, 0.7296655, 0.45780368],
        "properties": { "magmom": 0.0 },
        "label": "P",
        "xyz": [4.692326469422074, 6.627117550426278, 8.161718966621484]
      },
      {
        "species": [{ "element": "P", "occu": 1 }],
        "abc": [0.77697417, 0.770334499999999, 0.95780368],
        "properties": { "magmom": 0.0 },
        "label": "P",
        "xyz": [5.049316700577928, 6.995831449573713, 17.075713461621486]
      },
      {
        "species": [{ "element": "P", "occu": 1 }],
        "abc": [0.27697417, 0.2703345, 0.5421963200000001],
        "properties": { "magmom": 0.0 },
        "label": "P",
        "xyz": [1.802102310577927, 2.4548484495737215, 9.66627002337852]
      },
      {
        "species": [{ "element": "P", "occu": 1 }],
        "abc": [0.22302583, 0.2296655, 0.04219632],
        "properties": { "magmom": 0.0 },
        "label": "P",
        "xyz": [1.4451120794220735, 2.0861345504262787, 0.7522755283785169]
      },
      {
        "species": [{ "element": "P", "occu": 1 }],
        "abc": [0.58741474, 0.9974935300000001, 0.33232423],
        "properties": { "magmom": 0.0 },
        "label": "P",
        "xyz": [3.6102880539234, 9.078983930895335, 5.924672713550228]
      },
      {
        "species": [{ "element": "P", "occu": 1 }],
        "abc": [0.9125852600000001, 0.50250647, 0.83232423],
        "properties": { "magmom": 0.0 },
        "label": "P",
        "xyz": [6.131355116076602, 4.543965069104666, 14.838667208550229]
      },
      {
        "species": [{ "element": "P", "occu": 1 }],
        "abc": [0.41258526, 0.0025064700000000002, 0.66767577],
        "properties": { "magmom": 0.0 },
        "label": "P",
        "xyz": [2.884140726076601, 0.0029820691046655023, 11.903316276449774]
      },
      {
        "species": [{ "element": "P", "occu": 1 }],
        "abc": [0.08741474, 0.49749353, 0.16767577],
        "properties": { "magmom": 0.0 },
        "label": "P",
        "xyz": [0.36307366392339974, 4.538000930895334, 2.989321781449773]
      },
      {
        "species": [{ "element": "S", "occu": 1 }],
        "abc": [0.77163097, 0.95002732, 0.42190721000000003],
        "properties": { "magmom": 0.0 },
        "label": "S",
        "xyz": [4.922280067229148, 8.636721400560413, 7.521757094681619]
      },
      {
        "species": [{ "element": "S", "occu": 1 }],
        "abc": [0.72836903, 0.54997268, 0.92190721],
        "properties": { "magmom": 0.0 },
        "label": "S",
        "xyz": [4.819363102770854, 4.986227599439587, 16.43575158968162]
      },
      {
        "species": [{ "element": "S", "occu": 1 }],
        "abc": [0.22836903, 0.04997268, 0.57809279],
        "properties": { "magmom": 0.0 },
        "label": "S",
        "xyz": [1.5721487127708533, 0.4452445994395875, 10.306231895318383]
      },
      {
        "species": [{ "element": "S", "occu": 1 }],
        "abc": [0.27163097, 0.45002732, 0.07809279],
        "properties": { "magmom": 0.0 },
        "label": "S",
        "xyz": [1.6750656772291475, 4.095738400560413, 1.3922374003183822]
      },
      {
        "species": [{ "element": "S", "occu": 1 }],
        "abc": [0.89463614, 0.69738902, 0.53904285],
        "properties": { "magmom": -0.0 },
        "label": "S",
        "xyz": [5.908579809033214, 6.324148453352844, 9.61004999493822]
      },
      {
        "species": [{ "element": "S", "occu": 1 }],
        "abc": [0.60536386, 0.80261098, 0.039042850000000004],
        "properties": { "magmom": -0.0 },
        "label": "S",
        "xyz": [3.8330633609667872, 7.298800546647156, 0.6960554999382216]
      },
      {
        "species": [{ "element": "S", "occu": 1 }],
        "abc": [0.10536386, 0.30261098000000003, 0.46095715],
        "properties": { "magmom": -0.0 },
        "label": "S",
        "xyz": [0.5858489709667871, 2.7578175466471566, 8.217938995061779]
      },
      {
        "species": [{ "element": "S", "occu": 1 }],
        "abc": [0.39463614, 0.19738902, 0.96095715],
        "properties": { "magmom": -0.0 },
        "label": "S",
        "xyz": [2.6613654190332134, 1.783165453352844, 17.13193349006178]
      },
      {
        "species": [{ "element": "S", "occu": 1 }],
        "abc": [0.63488804, 0.20049043, 0.30621000000000004],
        "properties": { "magmom": -0.0 },
        "label": "S",
        "xyz": [4.3400057348898535, 1.7998925577555145, 5.459108508627901]
      },
      {
        "species": [{ "element": "S", "occu": 1 }],
        "abc": [0.86511196, 0.29950957, 0.8062100000000001],
        "properties": { "magmom": -0.0 },
        "label": "S",
        "xyz": [5.9006516351101475, 2.6928518922444855, 14.373103003627904]
      },
      {
        "species": [{ "element": "S", "occu": 1 }],
        "abc": [0.36511196, 0.79950957, 0.69379],
        "properties": { "magmom": -0.0 },
        "label": "S",
        "xyz": [2.1544230451101476, 7.282073442244486, 12.368880481372102]
      },
      {
        "species": [{ "element": "S", "occu": 1 }],
        "abc": [0.13488804000000001, 0.70049043, 0.19379000000000002],
        "properties": { "magmom": -0.0 },
        "label": "S",
        "xyz": [0.5937771448898541, 6.389114107755514, 3.4548859863721004]
      },
      {
        "species": [{ "element": "S", "occu": 1 }],
        "abc": [0.43241317, 0.6931754800000001, 0.48375214],
        "properties": { "magmom": -0.0 },
        "label": "S",
        "xyz": [2.678152440584231, 6.307974937122731, 8.624327825808939]
      },
      {
        "species": [{ "element": "S", "occu": 1 }],
        "abc": [0.06758683, 0.80682452, 0.98375214],
        "properties": { "magmom": -0.0 },
        "label": "S",
        "xyz": [0.07004774941577019, 7.36321261287727, 17.53832232080894]
      },
      {
        "species": [{ "element": "S", "occu": 1 }],
        "abc": [0.56758683, 0.30682452, 0.51624786],
        "properties": { "magmom": -0.0 },
        "label": "S",
        "xyz": [3.81627633941577, 2.7739910628772697, 9.203661164191063]
      },
      {
        "species": [{ "element": "S", "occu": 1 }],
        "abc": [0.93241317, 0.19317548, 0.01624786],
        "properties": { "magmom": -0.0 },
        "label": "S",
        "xyz": [6.4243810305842315, 1.7187533871227307, 0.28966666919106143]
      },
      {
        "species": [{ "element": "S", "occu": 1 }],
        "abc": [0.75377667, 0.5906592900000001, 0.36588455000000003],
        "properties": { "magmom": -0.0 },
        "label": "S",
        "xyz": [4.976746788227359, 5.356479043473142, 6.522985729011106]
      },
      {
        "species": [{ "element": "S", "occu": 1 }],
        "abc": [0.74622333, 0.90934071, 0.86588455],
        "properties": { "magmom": -0.0 },
        "label": "S",
        "xyz": [4.764896381772642, 8.26646995652686, 15.436980224011105]
      },
      {
        "species": [{ "element": "S", "occu": 1 }],
        "abc": [0.24622333000000002, 0.40934071, 0.63411545],
        "properties": { "magmom": -0.0 },
        "label": "S",
        "xyz": [1.5176819917726418, 3.725486956526859, 11.305003260988897]
      },
      {
        "species": [{ "element": "S", "occu": 1 }],
        "abc": [0.25377667, 0.09065929, 0.13411545],
        "properties": { "magmom": -0.0 },
        "label": "S",
        "xyz": [1.7295323982273587, 0.8154960434731411, 2.3910087659888957]
      },
      {
        "species": [{ "element": "S", "occu": 1 }],
        "abc": [0.62768194, 0.85012247, 0.24494326],
        "properties": { "magmom": -0.0 },
        "label": "S",
        "xyz": [3.9654346726967082, 7.731513577004451, 4.366845742454708]
      },
      {
        "species": [{ "element": "S", "occu": 1 }],
        "abc": [0.87231806, 0.64987753, 0.74494326],
        "properties": { "magmom": -0.0 },
        "label": "S",
        "xyz": [5.776208497303294, 5.891435422995549, 13.280840237454708]
      },
      {
        "species": [{ "element": "S", "occu": 1 }],
        "abc": [0.37231806, 0.14987753, 0.75505674],
        "properties": { "magmom": -0.0 },
        "label": "S",
        "xyz": [2.5289941073032933, 1.3504524229955486, 13.461143247545294]
      },
      {
        "species": [{ "element": "S", "occu": 1 }],
        "abc": [0.12768194, 0.35012247, 0.25505674],
        "properties": { "magmom": -0.0 },
        "label": "S",
        "xyz": [0.7182202826967075, 3.1905305770044516, 4.547148752545293]
      },
      {
        "species": [{ "element": "S", "occu": 1 }],
        "abc": [0.30221018, 0.94553893, 0.36219113000000003],
        "properties": { "magmom": 0.0 },
        "label": "S",
        "xyz": [1.6416523090827315, 8.618385660009691, 6.45713947791566]
      },
      {
        "species": [{ "element": "S", "occu": 1 }],
        "abc": [0.19778982, 0.55446107, 0.86219113],
        "properties": { "magmom": 0.0 },
        "label": "S",
        "xyz": [1.1065478809172702, 5.052801889990308, 15.371133972915661]
      },
      {
        "species": [{ "element": "S", "occu": 1 }],
        "abc": [0.69778982, 0.05446107, 0.63780887],
        "properties": { "magmom": 0.0 },
        "label": "S",
        "xyz": [4.85277647091727, 0.4635803399903075, 11.370849512084341]
      },
      {
        "species": [{ "element": "S", "occu": 1 }],
        "abc": [0.80221018, 0.44553893, 0.13780887],
        "properties": { "magmom": 0.0 },
        "label": "S",
        "xyz": [5.387880899082731, 4.029164110009693, 2.4568550170843415]
      }
    ]
  },
  "task_ids": null,
  "uncorrected_energy_per_atom": null,
  "energy_per_atom": -8.607139174545454,
  "formation_energy_per_atom": -0.22047564514475002,
  "energy_above_hull": 0.0,
  "is_stable": true,
  "equilibrium_reaction_energy_per_atom": null,
  "decomposes_to": null,
  "xas": null,
  "grain_boundaries": null,
  "band_gap": 2.7617000000000003,
  "cbm": null,
  "vbm": null,
  "efermi": 0.36606083,
  "is_gap_direct": null,
  "is_metal": null,
  "es_source_calc_id": null,
  "bandstructure": null,
  "dos": null,
  "dos_energy_up": null,
  "dos_energy_down": null,
  "is_magnetic": null,
  "ordering": null,
  "total_magnetization": 0.0,
  "total_magnetization_normalized_vol": null,
  "total_magnetization_normalized_formula_units": null,
  "num_magnetic_sites": null,
  "num_unique_magnetic_sites": null,
  "types_of_magnetic_species": null,
  "bulk_modulus": null,
  "shear_modulus": null,
  "universal_anisotropy": null,
  "homogeneous_poisson": null,
  "e_total": null,
  "e_ionic": null,
  "e_electronic": null,
  "n": null,
  "e_ij_max": null,
  "weighted_surface_energy_EV_PER_ANG2": null,
  "weighted_surface_energy": null,
  "weighted_work_function": null,
  "surface_anisotropy": null,
  "shape_factor": null,
  "has_reconstructed": null,
  "possible_species": null,
  "has_props": null,
  "theoretical": null,
  "database_IDs": null,
  "fields_not_requested": [
    "builder_meta",
    "nsites",
    "elements",
    "nelements",
    "composition",
    "composition_reduced",
    "chemsys",
    "symmetry",
    "property_name",
    "deprecated",
    "deprecation_reasons",
    "last_updated",
    "origins",
    "warnings",
    "task_ids",
    "uncorrected_energy_per_atom",
    "equilibrium_reaction_energy_per_atom",
    "decomposes_to",
    "xas",
    "grain_boundaries",
    "cbm",
    "vbm",
    "is_gap_direct",
    "is_metal",
    "es_source_calc_id",
    "bandstructure",
    "dos",
    "dos_energy_up",
    "dos_energy_down",
    "is_magnetic",
    "ordering",
    "total_magnetization_normalized_vol",
    "total_magnetization_normalized_formula_units",
    "num_magnetic_sites",
    "num_unique_magnetic_sites",
    "types_of_magnetic_species",
    "bulk_modulus",
    "shear_modulus",
    "universal_anisotropy",
    "homogeneous_poisson",
    "e_total",
    "e_ionic",
    "e_electronic",
    "n",
    "e_ij_max",
    "weighted_surface_energy_EV_PER_ANG2",
    "weighted_surface_energy",
    "weighted_work_function",
    "surface_anisotropy",
    "shape_factor",
    "has_reconstructed",
    "possible_species",
    "has_props",
    "theoretical",
    "database_IDs"
  ]
}
