{
  "builder_meta": null,
  "nsites": null,
  "elements": null,
  "nelements": null,
  "composition": null,
  "composition_reduced": null,
  "formula_pretty": "P4Se5",
  "formula_anonymous": "A4B5",
  "chemsys": null,
  "volume": 1032.69549696675,
  "density": 3.336175642813688,
  "density_atomic": 28.685986026854167,
  "symmetry": null,
  "property_name": null,
  "material_id": "mp-2447",
  "deprecated": null,
  "deprecation_reasons": null,
  "last_updated": null,
  "origins": null,
  "warnings": null,
  "structure": {
    "@module": "pymatgen.core.structure",
    "@class": "Structure",
    "charge": 0,
    "lattice": {
      "matrix": [
        [6.81272973, 0.0, 0.0],
        [0.0, 11.48749228, 0.0],
        [0.0, 0.0, 13.1955012]
      ],
      "pbc": [true, true, true],
      "a": 6.81272973,
      "b": 11.48749228,
      "c": 13.1955012,
      "alpha": 90.0,
      "beta": 90.0,
      "gamma": 90.0,
      "volume": 1032.69549696675
    },
    "properties": {},
    "sites": [
      {
        "species": [{ "element": "P", "occu": 1 }],
        "abc": [0.49034707, 0.46999412, 0.94087186],
        "properties": { "magmom": -0.0 },
        "label": "P",
        "xyz": [3.3406020618073913, 5.399053825145393, 12.415275757676232]
      },
      {
        "species": [{ "element": "P", "occu": 1 }],
        "abc": [0.50965293, 0.9699941200000001, 0.05912814],
        "properties": { "magmom": -0.0 },
        "label": "P",
        "xyz": [3.4721276681926088, 11.142799965145395, 0.7802254423237681]
      },
      {
        "species": [{ "element": "P", "occu": 1 }],
        "abc": [0.00965293, 0.46999412, 0.44087186],
        "properties": { "magmom": -0.0 },
        "label": "P",
        "xyz": [0.06576280319260891, 5.399053825145393, 5.817525157676233]
      },
      {
        "species": [{ "element": "P", "occu": 1 }],
        "abc": [0.99034707, 0.9699941200000001, 0.55912814],
        "properties": { "magmom": -0.0 },
        "label": "P",
        "xyz": [6.746966926807391, 11.142799965145395, 7.377976042323768]
      },
      {
        "species": [{ "element": "P", "occu": 1 }],
        "abc": [0.79660261, 0.52017163, 0.89165754],
        "properties": { "magmom": 0.0 },
        "label": "P",
        "xyz": [5.427038284142595, 5.975467583900016, 11.765868139059048]
      },
      {
        "species": [{ "element": "P", "occu": 1 }],
        "abc": [0.20339739, 0.02017163, 0.10834246],
        "properties": { "magmom": 0.0 },
        "label": "P",
        "xyz": [1.3856914458574048, 0.2317214439000164, 1.429633060940952]
      },
      {
        "species": [{ "element": "P", "occu": 1 }],
        "abc": [0.70339739, 0.52017163, 0.39165754],
        "properties": { "magmom": 0.0 },
        "label": "P",
        "xyz": [4.792056310857405, 5.975467583900016, 5.168117539059049]
      },
      {
        "species": [{ "element": "P", "occu": 1 }],
        "abc": [0.29660261, 0.02017163, 0.60834246],
        "properties": { "magmom": 0.0 },
        "label": "P",
        "xyz": [2.0206734191425952, 0.2317214439000164, 8.027383660940952]
      },
      {
        "species": [{ "element": "P", "occu": 1 }],
        "abc": [0.40010677, 0.6514961300000001, 0.90189882],
        "properties": { "magmom": 0.0 },
        "label": "P",
        "xyz": [2.7258192871532723, 7.484056763824877, 11.901006961588584]
      },
      {
        "species": [{ "element": "P", "occu": 1 }],
        "abc": [0.59989323, 0.15149613, 0.09810118],
        "properties": { "magmom": 0.0 },
        "label": "P",
        "xyz": [4.086910442846729, 1.7403106238248764, 1.294494238411416]
      },
      {
        "species": [{ "element": "P", "occu": 1 }],
        "abc": [0.09989323, 0.6514961300000001, 0.40189882],
        "properties": { "magmom": 0.0 },
        "label": "P",
        "xyz": [0.6805455778467279, 7.484056763824877, 5.303256361588584]
      },
      {
        "species": [{ "element": "P", "occu": 1 }],
        "abc": [0.9001067700000001, 0.15149613, 0.59810118],
        "properties": { "magmom": 0.0 },
        "label": "P",
        "xyz": [6.132184152153273, 1.7403106238248764, 7.8922448384114166]
      },
      {
        "species": [{ "element": "P", "occu": 1 }],
        "abc": [0.46095323, 0.48588617, 0.6830828],
        "properties": { "magmom": -0.0 },
        "label": "P",
        "xyz": [3.1403497741605277, 5.581613626833768, 9.013619907099361]
      },
      {
        "species": [{ "element": "P", "occu": 1 }],
        "abc": [0.53904677, 0.98588617, 0.3169172],
        "properties": { "magmom": -0.0 },
        "label": "P",
        "xyz": [3.6723799558394723, 11.325359766833767, 4.18188129290064]
      },
      {
        "species": [{ "element": "P", "occu": 1 }],
        "abc": [0.03904677, 0.48588617, 0.1830828],
        "properties": { "magmom": -0.0 },
        "label": "P",
        "xyz": [0.2660150908394721, 5.581613626833768, 2.41586930709936]
      },
      {
        "species": [{ "element": "P", "occu": 1 }],
        "abc": [0.96095323, 0.98588617, 0.8169172],
        "properties": { "magmom": -0.0 },
        "label": "P",
        "xyz": [6.546714639160528, 11.325359766833767, 10.77963189290064]
      },
      {
        "species": [{ "element": "Se", "occu": 1 }],
        "abc": [0.36402086, 0.36739999, 0.81451534],
        "properties": { "magmom": -0.0 },
        "label": "Se",
        "xyz": [2.4799757352621676, 4.220504548797077, 10.747938146388408]
      },
      {
        "species": [{ "element": "Se", "occu": 1 }],
        "abc": [0.63597914, 0.86739999, 0.18548466],
        "properties": { "magmom": -0.0 },
        "label": "Se",
        "xyz": [4.332753994737832, 9.964250688797078, 2.447563053611592]
      },
      {
        "species": [{ "element": "Se", "occu": 1 }],
        "abc": [0.13597914, 0.36739999, 0.31451534000000003],
        "properties": { "magmom": -0.0 },
        "label": "Se",
        "xyz": [0.9263891297378322, 4.220504548797077, 4.150187546388409]
      },
      {
        "species": [{ "element": "Se", "occu": 1 }],
        "abc": [0.86402086, 0.86739999, 0.68548466],
        "properties": { "magmom": -0.0 },
        "label": "Se",
        "xyz": [5.886340600262168, 9.964250688797078, 9.045313653611592]
      },
      {
        "species": [{ "element": "Se", "occu": 1 }],
        "abc": [0.78541868, 0.49815379, 0.72009561],
        "properties": { "magmom": -0.0 },
        "label": "Se",
        "xyz": [5.350845191733357, 5.7225378168777405, 9.502022485869732]
      },
      {
        "species": [{ "element": "Se", "occu": 1 }],
        "abc": [0.21458132, 0.99815379, 0.27990439],
        "properties": { "magmom": -0.0 },
        "label": "Se",
        "xyz": [1.4618845382666437, 11.466283956877742, 3.693478714130268]
      },
      {
        "species": [{ "element": "Se", "occu": 1 }],
        "abc": [0.71458132, 0.49815379, 0.22009561],
        "properties": { "magmom": -0.0 },
        "label": "Se",
        "xyz": [4.868249403266644, 5.7225378168777405, 2.9042718858697323]
      },
      {
        "species": [{ "element": "Se", "occu": 1 }],
        "abc": [0.28541868, 0.99815379, 0.77990439],
        "properties": { "magmom": -0.0 },
        "label": "Se",
        "xyz": [1.9444803267333564, 11.466283956877742, 10.291229314130268]
      },
      {
        "species": [{ "element": "Se", "occu": 1 }],
        "abc": [0.32882827000000003, 0.6579880100000001, 0.73410412],
        "properties": { "magmom": -0.0 },
        "label": "Se",
        "xyz": [2.2402181310934672, 7.558632185207563, 9.686871796384946]
      },
      {
        "species": [{ "element": "Se", "occu": 1 }],
        "abc": [0.67117173, 0.15798801, 0.26589588000000003],
        "properties": { "magmom": -0.0 },
        "label": "Se",
        "xyz": [4.572511598906533, 1.8148860452075628, 3.5086294036150565]
      },
      {
        "species": [{ "element": "Se", "occu": 1 }],
        "abc": [0.17117173, 0.6579880100000001, 0.23410412],
        "properties": { "magmom": -0.0 },
        "label": "Se",
        "xyz": [1.1661467339065328, 7.558632185207563, 3.0891211963849443]
      },
      {
        "species": [{ "element": "Se", "occu": 1 }],
        "abc": [0.82882827, 0.15798801, 0.76589588],
        "properties": { "magmom": -0.0 },
        "label": "Se",
        "xyz": [5.646582996093468, 1.8148860452075628, 10.106380003615056]
      },
      {
        "species": [{ "element": "Se", "occu": 1 }],
        "abc": [0.71407138, 0.71048702, 0.92936498],
        "properties": { "magmom": 0.0 },
        "label": "Se",
        "xyz": [4.864775319868127, 8.161714157290206, 12.263436708827976]
      },
      {
        "species": [{ "element": "Se", "occu": 1 }],
        "abc": [0.28592862, 0.21048702, 0.07063502],
        "properties": { "magmom": 0.0 },
        "label": "Se",
        "xyz": [1.9479544101318729, 2.4179680172902054, 0.9320644911720242]
      },
      {
        "species": [{ "element": "Se", "occu": 1 }],
        "abc": [0.78592862, 0.71048702, 0.42936498],
        "properties": { "magmom": 0.0 },
        "label": "Se",
        "xyz": [5.354319275131872, 8.161714157290206, 5.665686108827976]
      },
      {
        "species": [{ "element": "Se", "occu": 1 }],
        "abc": [0.21407138, 0.21048702, 0.57063502],
        "properties": { "magmom": 0.0 },
        "label": "Se",
        "xyz": [1.4584104548681274, 2.4179680172902054, 7.529815091172025]
      },
      {
        "species": [{ "element": "Se", "occu": 1 }],
        "abc": [0.18429356, 0.74222214, 0.98532089],
        "properties": { "magmom": -0.0 },
        "label": "Se",
        "xyz": [1.2555422152595388, 8.526271103295079, 13.001802986380069]
      },
      {
        "species": [{ "element": "Se", "occu": 1 }],
        "abc": [0.81570644, 0.24222214, 0.01467911],
        "properties": { "magmom": -0.0 },
        "label": "Se",
        "xyz": [5.557187514740462, 2.7825249632950793, 0.193698213619932]
      },
      {
        "species": [{ "element": "Se", "occu": 1 }],
        "abc": [0.31570644000000003, 0.74222214, 0.48532089],
        "properties": { "magmom": -0.0 },
        "label": "Se",
        "xyz": [2.1508226497404612, 8.526271103295079, 6.4040523863800685]
      },
      {
        "species": [{ "element": "Se", "occu": 1 }],
        "abc": [0.68429356, 0.24222214, 0.51467911],
        "properties": { "magmom": -0.0 },
        "label": "Se",
        "xyz": [4.661907080259539, 2.7825249632950793, 6.791448813619932]
      }
    ]
  },
  "task_ids": null,
  "uncorrected_energy_per_atom": null,
  "energy_per_atom": -12.024488516666667,
  "formation_energy_per_atom": -0.07269891635747301,
  "energy_above_hull": 0.0077236634375,
  "is_stable": false,
  "equilibrium_reaction_energy_per_atom": null,
  "decomposes_to": null,
  "xas": null,
  "grain_boundaries": null,
  "band_gap": 1.8351000000000002,
  "cbm": null,
  "vbm": null,
  "efermi": 1.26912924,
  "is_gap_direct": null,
  "is_metal": null,
  "es_source_calc_id": null,
  "bandstructure": null,
  "dos": null,
  "dos_energy_up": null,
  "dos_energy_down": null,
  "is_magnetic": null,
  "ordering": null,
  "total_magnetization": 0.0,
  "total_magnetization_normalized_vol": null,
  "total_magnetization_normalized_formula_units": null,
  "num_magnetic_sites": null,
  "num_unique_magnetic_sites": null,
  "types_of_magnetic_species": null,
  "bulk_modulus": null,
  "shear_modulus": null,
  "universal_anisotropy": null,
  "homogeneous_poisson": null,
  "e_total": null,
  "e_ionic": null,
  "e_electronic": null,
  "n": null,
  "e_ij_max": null,
  "weighted_surface_energy_EV_PER_ANG2": null,
  "weighted_surface_energy": null,
  "weighted_work_function": null,
  "surface_anisotropy": null,
  "shape_factor": null,
  "has_reconstructed": null,
  "possible_species": null,
  "has_props": null,
  "theoretical": null,
  "database_IDs": null,
  "fields_not_requested": [
    "builder_meta",
    "nsites",
    "elements",
    "nelements",
    "composition",
    "composition_reduced",
    "chemsys",
    "symmetry",
    "property_name",
    "deprecated",
    "deprecation_reasons",
    "last_updated",
    "origins",
    "warnings",
    "task_ids",
    "uncorrected_energy_per_atom",
    "equilibrium_reaction_energy_per_atom",
    "decomposes_to",
    "xas",
    "grain_boundaries",
    "cbm",
    "vbm",
    "is_gap_direct",
    "is_metal",
    "es_source_calc_id",
    "bandstructure",
    "dos",
    "dos_energy_up",
    "dos_energy_down",
    "is_magnetic",
    "ordering",
    "total_magnetization_normalized_vol",
    "total_magnetization_normalized_formula_units",
    "num_magnetic_sites",
    "num_unique_magnetic_sites",
    "types_of_magnetic_species",
    "bulk_modulus",
    "shear_modulus",
    "universal_anisotropy",
    "homogeneous_poisson",
    "e_total",
    "e_ionic",
    "e_electronic",
    "n",
    "e_ij_max",
    "weighted_surface_energy_EV_PER_ANG2",
    "weighted_surface_energy",
    "weighted_work_function",
    "surface_anisotropy",
    "shape_factor",
    "has_reconstructed",
    "possible_species",
    "has_props",
    "theoretical",
    "database_IDs"
  ]
}
