{
  "builder_meta": null,
  "nsites": null,
  "elements": null,
  "nelements": null,
  "composition": null,
  "composition_reduced": null,
  "formula_pretty": "P7Pb",
  "formula_anonymous": "AB7",
  "chemsys": null,
  "volume": 718.0123395696409,
  "density": 3.922471237224316,
  "density_atomic": 22.437885611551277,
  "symmetry": null,
  "property_name": null,
  "material_id": "mp-1201560",
  "deprecated": null,
  "deprecation_reasons": null,
  "last_updated": null,
  "origins": null,
  "warnings": null,
  "structure": {
    "@module": "pymatgen.core.structure",
    "@class": "Structure",
    "charge": 0,
    "lattice": {
      "matrix": [
        [0.0, 6.87912428, 0.0],
        [8.18639169, 0.0, -5.30129432],
        [-8.24157749, 0.0, -7.41285275]
      ],
      "pbc": [true, true, true],
      "a": 6.87912428,
      "b": 9.75298571563423,
      "c": 11.084853874402551,
      "alpha": 105.1042899495936,
      "beta": 90.0,
      "gamma": 90.0,
      "volume": 718.012339569641
    },
    "properties": {},
    "sites": [
      {
        "species": [{ "element": "P", "occu": 1 }],
        "abc": [0.37836966, 0.44745831, 0.36104519],
        "properties": { "magmom": 0.0 },
        "label": "P",
        "xyz": [0.6874870798286712, 2.6028519149213447, -5.048483026805572]
      },
      {
        "species": [{ "element": "P", "occu": 1 }],
        "abc": [0.87836966, 0.05254169, 0.13895481],
        "properties": { "magmom": 0.0 },
        "label": "P",
        "xyz": [-0.7150799798286707, 6.042414054921346, -1.3085905081944285]
      },
      {
        "species": [{ "element": "P", "occu": 1 }],
        "abc": [0.6216303400000001, 0.55254169, 0.63895481],
        "properties": { "magmom": 0.0 },
        "label": "P",
        "xyz": [-0.7426728798286701, 4.276272365078656, -7.665664043194428]
      },
      {
        "species": [{ "element": "P", "occu": 1 }],
        "abc": [0.12163034, 0.94745831, 0.86104519],
        "properties": { "magmom": 0.0 },
        "label": "P",
        "xyz": [0.6598941798286724, 0.8367102250786552, -11.405556561805572]
      },
      {
        "species": [{ "element": "P", "occu": 1 }],
        "abc": [0.41669201, 0.18771979, 0.08776531],
        "properties": { "magmom": 0.0 },
        "label": "P",
        "xyz": [0.8134231256056734, 2.866476123273003, -1.6457491760666954]
      },
      {
        "species": [{ "element": "P", "occu": 1 }],
        "abc": [0.91669201, 0.31228021, 0.41223469],
        "properties": { "magmom": 0.0 },
        "label": "P",
        "xyz": [-0.8410160256056729, 6.3060382632730025, -4.711324358933305]
      },
      {
        "species": [{ "element": "P", "occu": 1 }],
        "abc": [0.58330799, 0.8122802100000001, 0.91223469],
        "properties": { "magmom": 0.0 },
        "label": "P",
        "xyz": [-0.8686089256056713, 4.012648156726997, -11.068397893933305]
      },
      {
        "species": [{ "element": "P", "occu": 1 }],
        "abc": [0.08330799, 0.68771979, 0.58776531],
        "properties": { "magmom": 0.0 },
        "label": "P",
        "xyz": [0.7858302256056744, 0.5730860167269972, -8.002822711066695]
      },
      {
        "species": [{ "element": "P", "occu": 1 }],
        "abc": [0.06996029000000001, 0.43790608000000003, 0.30051212],
        "properties": { "magmom": 0.0 },
        "label": "P",
        "xyz": [1.1081767706482974, 0.48126552957484126, -4.549121109747796]
      },
      {
        "species": [{ "element": "P", "occu": 1 }],
        "abc": [0.56996029, 0.062093920000000004, 0.19948788],
        "properties": { "magmom": 0.0 },
        "label": "P",
        "xyz": [-1.1357696706482963, 3.9208276695748414, -1.8079524252522043]
      },
      {
        "species": [{ "element": "P", "occu": 1 }],
        "abc": [0.9300397100000001, 0.56209392, 0.6994878800000001],
        "properties": { "magmom": 0.0 },
        "label": "P",
        "xyz": [-1.163362570648296, 6.39785875042516, -8.165025960252205]
      },
      {
        "species": [{ "element": "P", "occu": 1 }],
        "abc": [0.43003971, 0.93790608, 0.80051212],
        "properties": { "magmom": 0.0 },
        "label": "P",
        "xyz": [1.0805838706482973, 2.958296610425159, -10.906194644747796]
      },
      {
        "species": [{ "element": "P", "occu": 1 }],
        "abc": [0.9297981200000001, 0.63790432, 0.402652299999999],
        "properties": { "magmom": -0.0 },
        "label": "P",
        "xyz": [1.9036444922863827, 6.396196822790354, -6.36652075766828]
      },
      {
        "species": [{ "element": "P", "occu": 1 }],
        "abc": [0.42979812, 0.86209568, 0.0973477],
        "properties": { "magmom": -0.0 },
        "label": "P",
        "xyz": [6.255154297713627, 2.956634682790354, -5.291847097331713]
      },
      {
        "species": [{ "element": "P", "occu": 1 }],
        "abc": [0.07020188000000001, 0.36209568000000003, 0.597347699999999],
        "properties": { "magmom": -0.0 },
        "label": "P",
        "xyz": [-1.9588302922863643, 0.48292745720964647, -6.347626312331706]
      },
      {
        "species": [{ "element": "P", "occu": 1 }],
        "abc": [0.57020188, 0.13790432, 0.9026523],
        "properties": { "magmom": -0.0 },
        "label": "P",
        "xyz": [-6.310340097713625, 3.9224895972096467, -7.422299972668288]
      },
      {
        "species": [{ "element": "P", "occu": 1 }],
        "abc": [0.41514614, 0.53637243, 0.08703975],
        "properties": { "magmom": -0.0 },
        "label": "P",
        "xyz": [3.6736099593618796, 2.8558418914222794, -3.4886809667104104]
      },
      {
        "species": [{ "element": "P", "occu": 1 }],
        "abc": [0.91514614, 0.96362757, 0.41296025000000003],
        "properties": { "magmom": -0.0 },
        "label": "P",
        "xyz": [4.485188830638122, 6.2954040314222794, -8.16968688828959]
      },
      {
        "species": [{ "element": "P", "occu": 1 }],
        "abc": [0.5848538600000001, 0.46362757, 0.91296025],
        "properties": { "magmom": -0.0 },
        "label": "P",
        "xyz": [-3.7287957593618786, 4.023282388577721, -9.22546610328959]
      },
      {
        "species": [{ "element": "P", "occu": 1 }],
        "abc": [0.08485386, 0.036372430000000004, 0.58703975],
        "properties": { "magmom": -0.0 },
        "label": "P",
        "xyz": [-4.54037463063812, 0.5837202485777209, -4.544460181710409]
      },
      {
        "species": [{ "element": "P", "occu": 1 }],
        "abc": [0.0977078, 0.781061599999999, 0.32106866],
        "properties": { "magmom": -0.0 },
        "label": "P",
        "xyz": [3.7479639506176334, 0.672144099325384, -6.520672122869922]
      },
      {
        "species": [{ "element": "P", "occu": 1 }],
        "abc": [0.5977078, 0.7189384, 0.17893134],
        "properties": { "magmom": -0.0 },
        "label": "P",
        "xyz": [4.41083483938236, 4.111706239325384, -5.137695732130073]
      },
      {
        "species": [{ "element": "P", "occu": 1 }],
        "abc": [0.9022922, 0.218938399999999, 0.67893134],
        "properties": { "magmom": -0.0 },
        "label": "P",
        "xyz": [-3.8031497506176475, 6.206980180674616, -6.193474947130068]
      },
      {
        "species": [{ "element": "P", "occu": 1 }],
        "abc": [0.4022922, 0.281061599999999, 0.82106866],
        "properties": { "magmom": -0.0 },
        "label": "P",
        "xyz": [-4.466020639382367, 2.767418040674616, -7.576451337869922]
      },
      {
        "species": [{ "element": "P", "occu": 1 }],
        "abc": [0.049601360000000004, 0.10661129, 0.31154088],
        "properties": { "magmom": -0.0 },
        "label": "P",
        "xyz": [-1.694826525306611, 0.3412139198970208, -2.874584495170293]
      },
      {
        "species": [{ "element": "P", "occu": 1 }],
        "abc": [0.54960136, 0.39338971, 0.18845912],
        "properties": { "magmom": -0.0 },
        "label": "P",
        "xyz": [1.6672418116983014, 3.780776059897021, -3.4824943411240277]
      },
      {
        "species": [{ "element": "P", "occu": 1 }],
        "abc": [0.9503986400000001, 0.89338871, 0.68845912],
        "properties": { "magmom": -0.0 },
        "label": "P",
        "xyz": [1.639640725306612, 6.5379103601029795, -9.839562574829706]
      },
      {
        "species": [{ "element": "P", "occu": 1 }],
        "abc": [0.45039864, 0.60661129, 0.81154088],
        "properties": { "magmom": -0.0 },
        "label": "P",
        "xyz": [-1.7224194253066099, 3.0983482201029795, -9.231658030170294]
      },
      {
        "species": [{ "element": "Pb", "occu": 1 }],
        "abc": [0.48149634, 0.73954178, 0.43784106],
        "properties": { "magmom": 0.0 },
        "label": "Pb",
        "xyz": [2.44567765790607, 3.3122731632251354, -7.166179943400605]
      },
      {
        "species": [{ "element": "Pb", "occu": 1 }],
        "abc": [0.98149634, 0.76045822, 0.06215894],
        "properties": { "magmom": 0.0 },
        "label": "Pb",
        "xyz": [5.7131211320939315, 6.7518353032251355, -4.4921879115993955]
      },
      {
        "species": [{ "element": "Pb", "occu": 1 }],
        "abc": [0.51850366, 0.26045822, 0.56215894],
        "properties": { "magmom": 0.0 },
        "label": "Pb",
        "xyz": [-2.500863457906068, 3.566851116774865, -5.547967126599396]
      },
      {
        "species": [{ "element": "Pb", "occu": 1 }],
        "abc": [0.01850366, 0.23954178, 0.93784106],
        "properties": { "magmom": 0.0 },
        "label": "Pb",
        "xyz": [-5.76830693209393, 0.1272889767748648, -8.221959158400605]
      }
    ]
  },
  "task_ids": null,
  "uncorrected_energy_per_atom": null,
  "energy_per_atom": -14.9430159196875,
  "formation_energy_per_atom": -0.030557382916665002,
  "energy_above_hull": 0.0,
  "is_stable": true,
  "equilibrium_reaction_energy_per_atom": null,
  "decomposes_to": null,
  "xas": null,
  "grain_boundaries": null,
  "band_gap": 0.8769999999999991,
  "cbm": null,
  "vbm": null,
  "efermi": 5.21004206,
  "is_gap_direct": null,
  "is_metal": null,
  "es_source_calc_id": null,
  "bandstructure": null,
  "dos": null,
  "dos_energy_up": null,
  "dos_energy_down": null,
  "is_magnetic": null,
  "ordering": null,
  "total_magnetization": 0.0,
  "total_magnetization_normalized_vol": null,
  "total_magnetization_normalized_formula_units": null,
  "num_magnetic_sites": null,
  "num_unique_magnetic_sites": null,
  "types_of_magnetic_species": null,
  "bulk_modulus": null,
  "shear_modulus": null,
  "universal_anisotropy": null,
  "homogeneous_poisson": null,
  "e_total": null,
  "e_ionic": null,
  "e_electronic": null,
  "n": null,
  "e_ij_max": null,
  "weighted_surface_energy_EV_PER_ANG2": null,
  "weighted_surface_energy": null,
  "weighted_work_function": null,
  "surface_anisotropy": null,
  "shape_factor": null,
  "has_reconstructed": null,
  "possible_species": null,
  "has_props": null,
  "theoretical": null,
  "database_IDs": null,
  "fields_not_requested": [
    "builder_meta",
    "nsites",
    "elements",
    "nelements",
    "composition",
    "composition_reduced",
    "chemsys",
    "symmetry",
    "property_name",
    "deprecated",
    "deprecation_reasons",
    "last_updated",
    "origins",
    "warnings",
    "task_ids",
    "uncorrected_energy_per_atom",
    "equilibrium_reaction_energy_per_atom",
    "decomposes_to",
    "xas",
    "grain_boundaries",
    "cbm",
    "vbm",
    "is_gap_direct",
    "is_metal",
    "es_source_calc_id",
    "bandstructure",
    "dos",
    "dos_energy_up",
    "dos_energy_down",
    "is_magnetic",
    "ordering",
    "total_magnetization_normalized_vol",
    "total_magnetization_normalized_formula_units",
    "num_magnetic_sites",
    "num_unique_magnetic_sites",
    "types_of_magnetic_species",
    "bulk_modulus",
    "shear_modulus",
    "universal_anisotropy",
    "homogeneous_poisson",
    "e_total",
    "e_ionic",
    "e_electronic",
    "n",
    "e_ij_max",
    "weighted_surface_energy_EV_PER_ANG2",
    "weighted_surface_energy",
    "weighted_work_function",
    "surface_anisotropy",
    "shape_factor",
    "has_reconstructed",
    "possible_species",
    "has_props",
    "theoretical",
    "database_IDs"
  ]
}
