{"builder_meta": null, "nsites": null, "elements": null, "nelements": null, "composition": null, "composition_reduced": null, "formula_pretty": "Pa2P3", "formula_anonymous": "A2B3", "chemsys": null, "volume": 3221.9014352960403, "density": 0.286038431988733, "density_atomic": 644.3802870592081, "symmetry": null, "property_name": null, "material_id": "mp-1207343", "deprecated": null, "deprecation_reasons": null, "last_updated": null, "origins": null, "warnings": null, "structure": {"@module": "pymatgen.core.structure", "@class": "Structure", "charge": 0, "lattice": {"matrix": [[9.66986959, 0.0, 0.0], [-0.0, 9.66986959, 0.0], [-0.0, 0.0, 34.45648851]], "pbc": [true, true, true], "a": 9.66986959, "b": 9.66986959, "c": 34.45648851, "alpha": 90.0, "beta": 90.0, "gamma": 90.0, "volume": 3221.9014352960403}, "properties": {}, "sites": [{"species": [{"element": "Pa", "occu": 1}], "abc": [0.5, 0.5, 0.2872712], "properties": {"magmom": 1.439}, "label": "Pa", "xyz": [4.834934795, 4.834934795, 9.898356802053913]}, {"species": [{"element": "Pa", "occu": 1}], "abc": [0.5, 0.5, 0.712728799999999], "properties": {"magmom": 1.44}, "label": "Pa", "xyz": [4.834934795, 4.834934795, 24.558131707946057]}, {"species": [{"element": "P", "occu": 1}], "abc": [0.5, 0.5, 0.64535522], "properties": {"magmom": -0.046}, "label": "P", "xyz": [4.834934795, 4.834934795, 22.236674722798522]}, {"species": [{"element": "P", "occu": 1}], "abc": [0.5, 0.5, 0.35464478], "properties": {"magmom": -0.045}, "label": "P", "xyz": [4.834934795, 4.834934795, 12.219813787201478]}, {"species": [{"element": "P", "occu": 1}], "abc": [0.5, 0.5, -0.0], "properties": {"magmom": 1.194}, "label": "P", "xyz": [4.834934795, 4.834934795, 0.0]}]}, "task_ids": null, "uncorrected_energy_per_atom": null, "energy_per_atom": -33.1508699305, "formation_energy_per_atom": 2.992783128714291, "energy_above_hull": 4.279066569999998, "is_stable": false, "equilibrium_reaction_energy_per_atom": null, "decomposes_to": null, "xas": null, "grain_boundaries": null, "band_gap": 0.1406, "cbm": null, "vbm": null, "efermi": -3.66314855, "is_gap_direct": null, "is_metal": null, "es_source_calc_id": null, "bandstructure": null, "dos": null, "dos_energy_up": null, "dos_energy_down": null, "is_magnetic": null, "ordering": null, "total_magnetization": 0.999345399999999, "total_magnetization_normalized_vol": null, "total_magnetization_normalized_formula_units": null, "num_magnetic_sites": null, "num_unique_magnetic_sites": null, "types_of_magnetic_species": null, "bulk_modulus": null, "shear_modulus": null, "universal_anisotropy": null, "homogeneous_poisson": null, "e_total": null, "e_ionic": null, "e_electronic": null, "n": null, "e_ij_max": null, "weighted_surface_energy_EV_PER_ANG2": null, "weighted_surface_energy": null, "weighted_work_function": null, "surface_anisotropy": null, "shape_factor": null, "has_reconstructed": null, "possible_species": null, "has_props": null, "theoretical": null, "database_IDs": null, "fields_not_requested": ["builder_meta", "nsites", "elements", "nelements", "composition", "composition_reduced", "chemsys", "symmetry", "property_name", "deprecated", "deprecation_reasons", "last_updated", "origins", "warnings", "task_ids", "uncorrected_energy_per_atom", "equilibrium_reaction_energy_per_atom", "decomposes_to", "xas", "grain_boundaries", "cbm", "vbm", "is_gap_direct", "is_metal", "es_source_calc_id", "bandstructure", "dos", "dos_energy_up", "dos_energy_down", "is_magnetic", "ordering", "total_magnetization_normalized_vol", "total_magnetization_normalized_formula_units", "num_magnetic_sites", "num_unique_magnetic_sites", "types_of_magnetic_species", "bulk_modulus", "shear_modulus", "universal_anisotropy", "homogeneous_poisson", "e_total", "e_ionic", "e_electronic", "n", "e_ij_max", "weighted_surface_energy_EV_PER_ANG2", "weighted_surface_energy", "weighted_work_function", "surface_anisotropy", "shape_factor", "has_reconstructed", "possible_species", "has_props", "theoretical", "database_IDs"]}