{"builder_meta": null, "nsites": null, "elements": null, "nelements": null, "composition": null, "composition_reduced": null, "formula_pretty": "Pa2S3", "formula_anonymous": "A2B3", "chemsys": null, "volume": 250.1838303589924, "density": 7.410740839917643, "density_atomic": 25.01838303589924, "symmetry": null, "property_name": null, "material_id": "mp-862869", "deprecated": null, "deprecation_reasons": null, "last_updated": null, "origins": null, "warnings": null, "structure": {"@module": "pymatgen.core.structure", "@class": "Structure", "charge": 0, "lattice": {"matrix": [[-6.79870195, -2e-08, -1e-08], [3.39934995, -5.8878492399999995, -0.0], [-3.39934995, 1.9626170900000002, 6.24995014]], "pbc": [true, true, true], "a": 6.79870195, "b": 6.798701990493007, "c": 7.380333507166942, "alpha": 117.42556241952693, "beta": 62.57444588414677, "gamma": 119.999989659958, "volume": 250.18383035899234}, "properties": {}, "sites": [{"species": [{"element": "Pa", "occu": 1}], "abc": [0.65746472, 0.34253428, 0.027602830000000002], "properties": {"magmom": -0.001}, "label": "Pa", "xyz": [-3.399344465109276, -1.962616427430877, 0.17251630464824902]}, {"species": [{"element": "Pa", "occu": 1}], "abc": [0.84253528, 0.15746572, 0.47239717000000003], "properties": {"magmom": -0.001}, "label": "Pa", "xyz": [-6.798708459890723, 3.224308771088147e-07, 2.9524587503517514]}, {"species": [{"element": "Pa", "occu": 1}], "abc": [0.15746572, 0.84253528, 0.52760283], "properties": {"magmom": -0.001}, "label": "Pa", "xyz": [3.1105387237051474e-06, -3.9252383802801365, 3.2974913796482386]}, {"species": [{"element": "Pa", "occu": 1}], "abc": [0.34253328, 0.65746572, 0.97239717], "properties": {"magmom": -0.001}, "label": "Pa", "xyz": [-3.3993438874868236, -1.9626157425690829, 6.077433825351771]}, {"species": [{"element": "S", "occu": 1}], "abc": [0.250001, 0.06295965, 0.249999], "properties": {"magmom": 0.0}, "label": "S", "xyz": [-2.3354944912724824, 0.11995537747972401, 1.56248128254985]}, {"species": [{"element": "S", "occu": 1}], "abc": [0.93703935, 0.43703935, 0.249999], "properties": {"magmom": 0.0}, "label": "S", "xyz": [-5.734835651651251, -2.082569513605471, 1.5624812756794664]}, {"species": [{"element": "S", "occu": 1}], "abc": [0.5629606500000001, 0.75, 0.249999], "properties": {"magmom": 0.0}, "label": "S", "xyz": [-2.1277232945783178, -3.9252346313763025, 1.5624812794202534]}, {"species": [{"element": "S", "occu": 1}], "abc": [0.43704035, 0.25, 0.749999], "properties": {"magmom": 0.0}, "label": "S", "xyz": [-4.670978655423733, -1.4638578966774674e-06, 4.687456350679456]}, {"species": [{"element": "S", "occu": 1}], "abc": [0.06295865, 0.5629606500000001, 0.749999], "properties": {"magmom": 0.0}, "label": "S", "xyz": [-1.0638459022449496, -1.8426665816286694, 4.687456354420274]}, {"species": [{"element": "S", "occu": 1}], "abc": [0.750000999999999, 0.93704035, 0.749999], "properties": {"magmom": 0.0}, "label": "S", "xyz": [-4.463214257431511, -4.045191472713943, 4.687456347549849]}]}, "task_ids": null, "uncorrected_energy_per_atom": null, "energy_per_atom": -37.228173327, "formation_energy_per_atom": -1.6647666056874981, "energy_above_hull": 0.0, "is_stable": true, "equilibrium_reaction_energy_per_atom": null, "decomposes_to": null, "xas": null, "grain_boundaries": null, "band_gap": 0.0, "cbm": null, "vbm": null, "efermi": 7.89570607, "is_gap_direct": null, "is_metal": null, "es_source_calc_id": null, "bandstructure": null, "dos": null, "dos_energy_up": null, "dos_energy_down": null, "is_magnetic": null, "ordering": null, "total_magnetization": 0.0025076, "total_magnetization_normalized_vol": null, "total_magnetization_normalized_formula_units": null, "num_magnetic_sites": null, "num_unique_magnetic_sites": null, "types_of_magnetic_species": null, "bulk_modulus": null, "shear_modulus": null, "universal_anisotropy": null, "homogeneous_poisson": null, "e_total": null, "e_ionic": null, "e_electronic": null, "n": null, "e_ij_max": null, "weighted_surface_energy_EV_PER_ANG2": null, "weighted_surface_energy": null, "weighted_work_function": null, "surface_anisotropy": null, "shape_factor": null, "has_reconstructed": null, "possible_species": null, "has_props": null, "theoretical": null, "database_IDs": null, "fields_not_requested": ["builder_meta", "nsites", "elements", "nelements", "composition", "composition_reduced", "chemsys", "symmetry", "property_name", "deprecated", "deprecation_reasons", "last_updated", "origins", "warnings", "task_ids", "uncorrected_energy_per_atom", "equilibrium_reaction_energy_per_atom", "decomposes_to", "xas", "grain_boundaries", "cbm", "vbm", "is_gap_direct", "is_metal", "es_source_calc_id", "bandstructure", "dos", "dos_energy_up", "dos_energy_down", "is_magnetic", "ordering", "total_magnetization_normalized_vol", "total_magnetization_normalized_formula_units", "num_magnetic_sites", "num_unique_magnetic_sites", "types_of_magnetic_species", "bulk_modulus", "shear_modulus", "universal_anisotropy", "homogeneous_poisson", "e_total", "e_ionic", "e_electronic", "n", "e_ij_max", "weighted_surface_energy_EV_PER_ANG2", "weighted_surface_energy", "weighted_work_function", "surface_anisotropy", "shape_factor", "has_reconstructed", "possible_species", "has_props", "theoretical", "database_IDs"]}