{
  "builder_meta": null,
  "nsites": null,
  "elements": null,
  "nelements": null,
  "composition": null,
  "composition_reduced": null,
  "formula_pretty": "Pa3As4",
  "formula_anonymous": "A3B4",
  "chemsys": null,
  "volume": 317.84497202359233,
  "density": 10.373442612678964,
  "density_atomic": 22.703212287399452,
  "symmetry": null,
  "property_name": null,
  "material_id": "mp-2622",
  "deprecated": null,
  "deprecation_reasons": null,
  "last_updated": null,
  "origins": null,
  "warnings": null,
  "structure": {
    "@module": "pymatgen.core.structure",
    "@class": "Structure",
    "charge": 0,
    "lattice": {
      "matrix": [
        [7.02052348, 1e-8, -2.48213103],
        [-3.51026173, 6.07995092, -2.48213103],
        [-2e-8, -3.0000000000000004e-8, 7.44638998]
      ],
      "pbc": [true, true, true],
      "a": 7.446390023583251,
      "b": 7.446389397070254,
      "c": 7.44638998,
      "alpha": 109.47123080367992,
      "beta": 109.47122913024236,
      "gamma": 109.4712138534081,
      "volume": 317.84497202359233
    },
    "properties": {},
    "sites": [
      {
        "species": [{ "element": "Pa", "occu": 1 }],
        "abc": [0.75, 0.875, 0.125],
        "properties": { "magmom": -0.859 },
        "label": "Pa",
        "xyz": [2.193913593749999, 5.319957058749999, -3.1026641762500002]
      },
      {
        "species": [{ "element": "Pa", "occu": 1 }],
        "abc": [0.625, 0.375, 0.25],
        "properties": { "magmom": -0.859 },
        "label": "Pa",
        "xyz": [3.07147902125, 2.2799815937499996, -0.6205335350000001]
      },
      {
        "species": [{ "element": "Pa", "occu": 1 }],
        "abc": [0.875, 0.125, 0.75],
        "properties": { "magmom": -0.859 },
        "label": "Pa",
        "xyz": [5.704175313749999, 0.75999385125, 3.1026614550000002]
      },
      {
        "species": [{ "element": "Pa", "occu": 1 }],
        "abc": [0.125, 0.75, 0.875],
        "properties": { "magmom": -0.859 },
        "label": "Pa",
        "xyz": [-1.7551308799999998, 4.559963164999999, 4.343726581249999]
      },
      {
        "species": [{ "element": "Pa", "occu": 1 }],
        "abc": [0.375, 0.25, 0.625],
        "properties": { "magmom": -0.859 },
        "label": "Pa",
        "xyz": [1.7551308599999997, 1.519987715, 3.1026618437500004]
      },
      {
        "species": [{ "element": "Pa", "occu": 1 }],
        "abc": [0.25, 0.625, 0.375],
        "properties": { "magmom": -0.859 },
        "label": "Pa",
        "xyz": [-0.43878271875, 3.7999693162500003, 0.6205315912500002]
      },
      {
        "species": [{ "element": "As", "occu": 1 }],
        "abc": [0.6563402700000001, 0.6563402700000001, 0.6563402700000001],
        "properties": { "magmom": 0.05 },
        "label": "As",
        "xyz": [2.303926131638867, 3.9905166152927434, 1.6291205091873384]
      },
      {
        "species": [{ "element": "As", "occu": 1 }],
        "abc": [0.34365973, 0.5, -0.0],
        "properties": { "magmom": 0.05 },
        "label": "As",
        "xyz": [0.6575403385954601, 3.039975463436597, -2.094073994594422]
      },
      {
        "species": [{ "element": "As", "occu": 1 }],
        "abc": [0.5, -0.0, 0.34365973],
        "properties": { "magmom": 0.05 },
        "label": "As",
        "xyz": [3.5102617331268053, -5.309791900000001e-9, 1.3179588550015053]
      },
      {
        "species": [{ "element": "As", "occu": 1 }],
        "abc": [-0.0, 0.34365973, 0.5],
        "properties": { "magmom": 0.05 },
        "label": "As",
        "xyz": [-1.2063356083611327, 2.0894342765804517, 2.870186510405578]
      },
      {
        "species": [{ "element": "As", "occu": 1 }],
        "abc": [0.5, -0.0, 0.84365973],
        "properties": { "magmom": 0.05 },
        "label": "As",
        "xyz": [3.5102617231268054, -2.0309791900000006e-8, 5.0411538450015065]
      },
      {
        "species": [{ "element": "As", "occu": 1 }],
        "abc": [-0.0, 0.84365973, 0.5],
        "properties": { "magmom": 0.05 },
        "label": "As",
        "xyz": [-2.961466473361133, 5.129409736580452, 1.6291209954055779]
      },
      {
        "species": [{ "element": "As", "occu": 1 }],
        "abc": [0.15634027, 0.15634027, 0.15634027],
        "properties": { "magmom": 0.05 },
        "label": "As",
        "xyz": [0.548795266638867, 0.950541165292743, 0.38805654918733845]
      },
      {
        "species": [{ "element": "As", "occu": 1 }],
        "abc": [0.84365973, 0.5, -0.0],
        "properties": { "magmom": 0.05 },
        "label": "As",
        "xyz": [4.167802078595461, 3.039975468436597, -3.3351395095944225]
      }
    ]
  },
  "task_ids": null,
  "uncorrected_energy_per_atom": null,
  "energy_per_atom": -42.53129452357143,
  "formation_energy_per_atom": -1.188697596428572,
  "energy_above_hull": 0.0,
  "is_stable": true,
  "equilibrium_reaction_energy_per_atom": null,
  "decomposes_to": null,
  "xas": null,
  "grain_boundaries": null,
  "band_gap": 0.0,
  "cbm": null,
  "vbm": null,
  "efermi": 9.26489982,
  "is_gap_direct": null,
  "is_metal": null,
  "es_source_calc_id": null,
  "bandstructure": null,
  "dos": null,
  "dos_energy_up": null,
  "dos_energy_down": null,
  "is_magnetic": null,
  "ordering": null,
  "total_magnetization": 5.8097936,
  "total_magnetization_normalized_vol": null,
  "total_magnetization_normalized_formula_units": null,
  "num_magnetic_sites": null,
  "num_unique_magnetic_sites": null,
  "types_of_magnetic_species": null,
  "bulk_modulus": null,
  "shear_modulus": null,
  "universal_anisotropy": null,
  "homogeneous_poisson": null,
  "e_total": null,
  "e_ionic": null,
  "e_electronic": null,
  "n": null,
  "e_ij_max": null,
  "weighted_surface_energy_EV_PER_ANG2": null,
  "weighted_surface_energy": null,
  "weighted_work_function": null,
  "surface_anisotropy": null,
  "shape_factor": null,
  "has_reconstructed": null,
  "possible_species": null,
  "has_props": null,
  "theoretical": null,
  "database_IDs": null,
  "fields_not_requested": [
    "builder_meta",
    "nsites",
    "elements",
    "nelements",
    "composition",
    "composition_reduced",
    "chemsys",
    "symmetry",
    "property_name",
    "deprecated",
    "deprecation_reasons",
    "last_updated",
    "origins",
    "warnings",
    "task_ids",
    "uncorrected_energy_per_atom",
    "equilibrium_reaction_energy_per_atom",
    "decomposes_to",
    "xas",
    "grain_boundaries",
    "cbm",
    "vbm",
    "is_gap_direct",
    "is_metal",
    "es_source_calc_id",
    "bandstructure",
    "dos",
    "dos_energy_up",
    "dos_energy_down",
    "is_magnetic",
    "ordering",
    "total_magnetization_normalized_vol",
    "total_magnetization_normalized_formula_units",
    "num_magnetic_sites",
    "num_unique_magnetic_sites",
    "types_of_magnetic_species",
    "bulk_modulus",
    "shear_modulus",
    "universal_anisotropy",
    "homogeneous_poisson",
    "e_total",
    "e_ionic",
    "e_electronic",
    "n",
    "e_ij_max",
    "weighted_surface_energy_EV_PER_ANG2",
    "weighted_surface_energy",
    "weighted_work_function",
    "surface_anisotropy",
    "shape_factor",
    "has_reconstructed",
    "possible_species",
    "has_props",
    "theoretical",
    "database_IDs"
  ]
}
