{"builder_meta": null, "nsites": null, "elements": null, "nelements": null, "composition": null, "composition_reduced": null, "formula_pretty": "Pa3O", "formula_anonymous": "AB3", "chemsys": null, "volume": 157.4033698439702, "density": 14.96155950775785, "density_atomic": 19.675421230496276, "symmetry": null, "property_name": null, "material_id": "mp-1186398", "deprecated": null, "deprecation_reasons": null, "last_updated": null, "origins": null, "warnings": null, "structure": {"@module": "pymatgen.core.structure", "@class": "Structure", "charge": 0, "lattice": {"matrix": [[6.141, -0.00054, -0.001539], [-3.070965, 5.316646, 0.0018800000000000002], [-0.001264, 0.001059, 4.821246]], "pbc": [true, true, true], "a": 6.141000216586953, "b": 6.139833406122759, "c": 4.821246281999397, "alpha": 89.9640450850502, "beta": 90.0293814378557, "gamma": 120.01633877399406, "volume": 157.40336984397018}, "properties": {}, "sites": [{"species": [{"element": "Pa", "occu": 1}], "abc": [0.8278300000000001, 0.172212, 0.749846999999999], "properties": {"magmom": 0.058}, "label": "Pa", "xyz": [4.553899198812001, 0.9159373007250001, 3.6142465775519956]}, {"species": [{"element": "Pa", "occu": 1}], "abc": [0.344074, 0.171964, 0.750057], "properties": {"magmom": 0.06}, "label": "Pa", "xyz": [1.5839149366919998, 0.9148802231470001, 3.616003073456]}, {"species": [{"element": "Pa", "occu": 1}], "abc": [0.827981, 0.655957, 0.750068], "properties": {"magmom": 0.062}, "label": "Pa", "xyz": [3.069262246543, 3.4878383724940005, 3.6162212811290004]}, {"species": [{"element": "Pa", "occu": 1}], "abc": [0.172262, 0.827576, 0.25013799999999903], "properties": {"magmom": 0.059000000000000004}, "label": "Pa", "xyz": [-1.4839121632719998, 4.400100504758001, 1.2072675636099954]}, {"species": [{"element": "Pa", "occu": 1}], "abc": [0.655613, 0.827481999999999, 0.24995799999999901], "properties": {"magmom": 0.059000000000000004}, "label": "Pa", "xyz": [1.4846352259580025, 4.3993395398739965, 1.2056556854209954]}, {"species": [{"element": "Pa", "occu": 1}], "abc": [0.172303999999999, 0.344240999999999, 0.24993], "properties": {"magmom": 0.06}, "label": "Pa", "xyz": [0.0006508899149968335, 1.830379167395995, 1.2053560100040002]}, {"species": [{"element": "O", "occu": 1}], "abc": [0.666678, 0.333518, 0.249988], "properties": {"magmom": 0.002}, "label": "O", "xyz": [3.069531508298, 1.7731018718, 1.204854641446]}, {"species": [{"element": "O", "occu": 1}], "abc": [0.333256, 0.667045, 0.750012999999999], "properties": {"magmom": 0.002}, "label": "O", "xyz": [-0.0028947688570003073, 3.5470564365970003, 3.6167383398139954]}]}, "task_ids": null, "uncorrected_energy_per_atom": null, "energy_per_atom": -8.568936944999999, "formation_energy_per_atom": -0.17372380874999901, "energy_above_hull": 1.334759340000001, "is_stable": false, "equilibrium_reaction_energy_per_atom": null, "decomposes_to": null, "xas": null, "grain_boundaries": null, "band_gap": 0.0, "cbm": null, "vbm": null, "efermi": 12.72676051, "is_gap_direct": null, "is_metal": null, "es_source_calc_id": null, "bandstructure": null, "dos": null, "dos_energy_up": null, "dos_energy_down": null, "is_magnetic": null, "ordering": null, "total_magnetization": 0.3959591, "total_magnetization_normalized_vol": null, "total_magnetization_normalized_formula_units": null, "num_magnetic_sites": null, "num_unique_magnetic_sites": null, "types_of_magnetic_species": null, "bulk_modulus": null, "shear_modulus": null, "universal_anisotropy": null, "homogeneous_poisson": null, "e_total": null, "e_ionic": null, "e_electronic": null, "n": null, "e_ij_max": null, "weighted_surface_energy_EV_PER_ANG2": null, "weighted_surface_energy": null, "weighted_work_function": null, "surface_anisotropy": null, "shape_factor": null, "has_reconstructed": null, "possible_species": null, "has_props": null, "theoretical": null, "database_IDs": null, "fields_not_requested": ["builder_meta", "nsites", "elements", "nelements", "composition", "composition_reduced", "chemsys", "symmetry", "property_name", "deprecated", "deprecation_reasons", "last_updated", "origins", "warnings", "task_ids", "uncorrected_energy_per_atom", "equilibrium_reaction_energy_per_atom", "decomposes_to", "xas", "grain_boundaries", "cbm", "vbm", "is_gap_direct", "is_metal", "es_source_calc_id", "bandstructure", "dos", "dos_energy_up", "dos_energy_down", "is_magnetic", "ordering", "total_magnetization_normalized_vol", "total_magnetization_normalized_formula_units", "num_magnetic_sites", "num_unique_magnetic_sites", "types_of_magnetic_species", "bulk_modulus", "shear_modulus", "universal_anisotropy", "homogeneous_poisson", "e_total", "e_ionic", "e_electronic", "n", "e_ij_max", "weighted_surface_energy_EV_PER_ANG2", "weighted_surface_energy", "weighted_work_function", "surface_anisotropy", "shape_factor", "has_reconstructed", "possible_species", "has_props", "theoretical", "database_IDs"]}