{"builder_meta": null, "nsites": null, "elements": null, "nelements": null, "composition": null, "composition_reduced": null, "formula_pretty": "Pa3P4", "formula_anonymous": "A3B4", "chemsys": null, "volume": 284.91539815214804, "density": 9.523282277756966, "density_atomic": 20.351099868010575, "symmetry": null, "property_name": null, "material_id": "mp-567978", "deprecated": null, "deprecation_reasons": null, "last_updated": null, "origins": null, "warnings": null, "structure": {"@module": "pymatgen.core.structure", "@class": "Structure", "charge": 0, "lattice": {"matrix": [[6.7691793, -1.4370000000000001e-05, -2.3932624], [-3.38460579, 5.86230682, -2.39327063], [4.48e-06, -4.16e-06, 7.17979343]], "pbc": [true, true, true], "a": 7.179797581478795, "b": 7.179828822050052, "c": 7.1797934300026025, "alpha": 109.47121948784468, "beta": 109.47115559302141, "gamma": 109.4713666727195, "volume": 284.91539815214804}, "properties": {}, "sites": [{"species": [{"element": "Pa", "occu": 1}], "abc": [0.12499867, 0.75000405, 0.87499263], "properties": {"magmom": 0.281}, "label": "Pa", "xyz": [-1.6923257206949363, 4.396748421142393, 4.188149053965362]}, {"species": [{"element": "Pa", "occu": 1}], "abc": [0.62498907, 0.37499383000000003, 0.24999483], "properties": {"magmom": 0.281}, "label": "Pa", "xyz": [2.9614579071148137, 2.198318865995492, -0.5983133234442137]}, {"species": [{"element": "Pa", "occu": 1}], "abc": [0.37501093, 0.25000375, 0.62500476], "properties": {"magmom": 0.281}, "label": "Pa", "xyz": [1.692354884879361, 1.4655906997237091, 2.991578878943833]}, {"species": [{"element": "Pa", "occu": 1}], "abc": [0.7500011, 0.8749941999999991, 0.12500431], "properties": {"magmom": 0.281}, "label": "Pa", "xyz": [2.115382045580124, 5.129473168586702, -2.9915422292093004]}, {"species": [{"element": "Pa", "occu": 1}], "abc": [0.2499999, 0.6249941, 0.3750042], "properties": {"magmom": 0.281}, "label": "Pa", "xyz": [-0.42306282147495283, 3.6639020223737266, 0.5983573072553634]}, {"species": [{"element": "Pa", "occu": 1}], "abc": [0.87500133, 0.12500438, 0.74999395], "properties": {"magmom": 0.281}, "label": "Pa", "xyz": [5.499953702158005, 0.7327983356599274, 2.991524540435398]}, {"species": [{"element": "P", "occu": 1}], "abc": [0.65746863, 0.65745894, 0.65746534], "properties": {"magmom": -0.014}, "label": "P", "xyz": [2.22528665102882, 3.854213844951943, 1.5734932056932722]}, {"species": [{"element": "P", "occu": 1}], "abc": [-9.5e-07, 0.8425278900000001, 0.49999975], "properties": {"magmom": -0.014}, "label": "P", "xyz": [-2.8516289654519382, 4.939154915601901, 1.5734999395580518]}, {"species": [{"element": "P", "occu": 1}], "abc": [0.84251091, 0.49999081, -5.889999999999999e-06], "properties": {"magmom": -0.014}, "label": "P", "xyz": [4.0108356214969865, 2.9310874285430497, -3.2130052923189973]}, {"species": [{"element": "P", "occu": 1}], "abc": [9.5e-07, 0.34252783000000003, 0.5000017], "properties": {"magmom": -0.014}, "label": "P", "xyz": [-1.159313005926185, 2.0080011538280775, 2.770144851552918]}, {"species": [{"element": "P", "occu": 1}], "abc": [0.49999744, 1.372e-05, 0.8425314700000001], "properties": {"magmom": -0.014}, "label": "P", "xyz": [3.384529658650539, 6.974095544240001e-05, 4.852544003952943]}, {"species": [{"element": "P", "occu": 1}], "abc": [0.50000256, 1.6280000000000003e-05, 0.34253403], "properties": {"magmom": -0.014}, "label": "P", "xyz": [3.384553412269201, 8.682837667760002e-05, 1.2626472889478229]}, {"species": [{"element": "P", "occu": 1}], "abc": [0.34253137, 0.49999032, -3.29e-06], "properties": {"magmom": -0.014}, "label": "P", "xyz": [0.6263861273739492, 2.9310917407078816, -2.016403218302174]}, {"species": [{"element": "P", "occu": 1}], "abc": [0.15748909, 0.1574799, 0.15748321], "properties": {"magmom": -0.014}, "label": "P", "xyz": [0.5330652121799969, 0.9231925735345411, 0.3768921795007576]}]}, "task_ids": null, "uncorrected_energy_per_atom": null, "energy_per_atom": -39.429551172857146, "formation_energy_per_atom": -1.347214060272108, "energy_above_hull": 0.0, "is_stable": true, "equilibrium_reaction_energy_per_atom": null, "decomposes_to": null, "xas": null, "grain_boundaries": null, "band_gap": 0.0, "cbm": null, "vbm": null, "efermi": 10.47589636, "is_gap_direct": null, "is_metal": null, "es_source_calc_id": null, "bandstructure": null, "dos": null, "dos_energy_up": null, "dos_energy_down": null, "is_magnetic": null, "ordering": null, "total_magnetization": 2.0196648, "total_magnetization_normalized_vol": null, "total_magnetization_normalized_formula_units": null, "num_magnetic_sites": null, "num_unique_magnetic_sites": null, "types_of_magnetic_species": null, "bulk_modulus": null, "shear_modulus": null, "universal_anisotropy": null, "homogeneous_poisson": null, "e_total": null, "e_ionic": null, "e_electronic": null, "n": null, "e_ij_max": null, "weighted_surface_energy_EV_PER_ANG2": null, "weighted_surface_energy": null, "weighted_work_function": null, "surface_anisotropy": null, "shape_factor": null, "has_reconstructed": null, "possible_species": null, "has_props": null, "theoretical": null, "database_IDs": null, "fields_not_requested": ["builder_meta", "nsites", "elements", "nelements", "composition", "composition_reduced", "chemsys", "symmetry", "property_name", "deprecated", "deprecation_reasons", "last_updated", "origins", "warnings", "task_ids", "uncorrected_energy_per_atom", "equilibrium_reaction_energy_per_atom", "decomposes_to", "xas", "grain_boundaries", "cbm", "vbm", "is_gap_direct", "is_metal", "es_source_calc_id", "bandstructure", "dos", "dos_energy_up", "dos_energy_down", "is_magnetic", "ordering", "total_magnetization_normalized_vol", "total_magnetization_normalized_formula_units", "num_magnetic_sites", "num_unique_magnetic_sites", "types_of_magnetic_species", "bulk_modulus", "shear_modulus", "universal_anisotropy", "homogeneous_poisson", "e_total", "e_ionic", "e_electronic", "n", "e_ij_max", "weighted_surface_energy_EV_PER_ANG2", "weighted_surface_energy", "weighted_work_function", "surface_anisotropy", "shape_factor", "has_reconstructed", "possible_species", "has_props", "theoretical", "database_IDs"]}