{
  "builder_meta": null,
  "nsites": null,
  "elements": null,
  "nelements": null,
  "composition": null,
  "composition_reduced": null,
  "formula_pretty": "Pa3Re",
  "formula_anonymous": "AB3",
  "chemsys": null,
  "volume": 179.75109897125898,
  "density": 16.24620177467489,
  "density_atomic": 22.468887371407373,
  "symmetry": null,
  "property_name": null,
  "material_id": "mp-973911",
  "deprecated": null,
  "deprecation_reasons": null,
  "last_updated": null,
  "origins": null,
  "warnings": null,
  "structure": {
    "@module": "pymatgen.core.structure",
    "@class": "Structure",
    "charge": 0,
    "lattice": {
      "matrix": [
        [3.099729, -5.368888, 0.0],
        [3.099729, 5.368888, 0.0],
        [0.0, 0.0, 5.400494]
      ],
      "pbc": [true, true, true],
      "a": 6.199457898073428,
      "b": 6.199457898073428,
      "c": 5.400494,
      "alpha": 90.0,
      "beta": 90.0,
      "gamma": 119.99999891225848,
      "volume": 179.75109897125898
    },
    "properties": {},
    "sites": [
      {
        "species": [{ "element": "Pa", "occu": 1 }],
        "abc": [0.17646799999999901, 0.352935, 0.25],
        "properties": { "magmom": 0.003 },
        "label": "Pa",
        "xyz": [1.6410058317869969, 0.9474315586960053, 1.3501235]
      },
      {
        "species": [{ "element": "Pa", "occu": 1 }],
        "abc": [0.647065, 0.823531999999999, 0.25],
        "properties": { "magmom": 0.003 },
        "label": "Pa",
        "xyz": [4.558452168212997, 0.9474315586959952, 1.3501235]
      },
      {
        "species": [{ "element": "Pa", "occu": 1 }],
        "abc": [0.17646799999999901, 0.823531999999999, 0.25],
        "properties": { "magmom": 0.003 },
        "label": "Pa",
        "xyz": [3.099728999999994, 3.4740141448320006, 1.3501235]
      },
      {
        "species": [{ "element": "Pa", "occu": 1 }],
        "abc": [0.823531999999999, 0.647065, 0.75],
        "properties": { "magmom": 0.003 },
        "label": "Pa",
        "xyz": [4.558452168212997, -0.9474315586959952, 4.0503705]
      },
      {
        "species": [{ "element": "Pa", "occu": 1 }],
        "abc": [0.352935, 0.17646799999999901, 0.75],
        "properties": { "magmom": 0.003 },
        "label": "Pa",
        "xyz": [1.6410058317869969, -0.9474315586960053, 4.0503705]
      },
      {
        "species": [{ "element": "Pa", "occu": 1 }],
        "abc": [0.823531999999999, 0.17646799999999901, 0.75],
        "properties": { "magmom": 0.003 },
        "label": "Pa",
        "xyz": [3.099728999999994, -3.4740141448320006, 4.0503705]
      },
      {
        "species": [{ "element": "Re", "occu": 1 }],
        "abc": [0.333333, 0.666667, 0.75],
        "properties": { "magmom": -0.001 },
        "label": "Re",
        "xyz": [3.099729, 1.7896329125920003, 4.0503705]
      },
      {
        "species": [{ "element": "Re", "occu": 1 }],
        "abc": [0.666667, 0.333333, 0.25],
        "properties": { "magmom": -0.001 },
        "label": "Re",
        "xyz": [3.099729, -1.7896329125920003, 1.3501235]
      }
    ]
  },
  "task_ids": null,
  "uncorrected_energy_per_atom": null,
  "energy_per_atom": -70.562575331875,
  "formation_energy_per_atom": 0.182091980000009,
  "energy_above_hull": 0.182091980000009,
  "is_stable": false,
  "equilibrium_reaction_energy_per_atom": null,
  "decomposes_to": null,
  "xas": null,
  "grain_boundaries": null,
  "band_gap": 0.0,
  "cbm": null,
  "vbm": null,
  "efermi": 11.93125438,
  "is_gap_direct": null,
  "is_metal": null,
  "es_source_calc_id": null,
  "bandstructure": null,
  "dos": null,
  "dos_energy_up": null,
  "dos_energy_down": null,
  "is_magnetic": null,
  "ordering": null,
  "total_magnetization": 0.0277232,
  "total_magnetization_normalized_vol": null,
  "total_magnetization_normalized_formula_units": null,
  "num_magnetic_sites": null,
  "num_unique_magnetic_sites": null,
  "types_of_magnetic_species": null,
  "bulk_modulus": null,
  "shear_modulus": null,
  "universal_anisotropy": null,
  "homogeneous_poisson": null,
  "e_total": null,
  "e_ionic": null,
  "e_electronic": null,
  "n": null,
  "e_ij_max": null,
  "weighted_surface_energy_EV_PER_ANG2": null,
  "weighted_surface_energy": null,
  "weighted_work_function": null,
  "surface_anisotropy": null,
  "shape_factor": null,
  "has_reconstructed": null,
  "possible_species": null,
  "has_props": null,
  "theoretical": null,
  "database_IDs": null,
  "fields_not_requested": [
    "builder_meta",
    "nsites",
    "elements",
    "nelements",
    "composition",
    "composition_reduced",
    "chemsys",
    "symmetry",
    "property_name",
    "deprecated",
    "deprecation_reasons",
    "last_updated",
    "origins",
    "warnings",
    "task_ids",
    "uncorrected_energy_per_atom",
    "equilibrium_reaction_energy_per_atom",
    "decomposes_to",
    "xas",
    "grain_boundaries",
    "cbm",
    "vbm",
    "is_gap_direct",
    "is_metal",
    "es_source_calc_id",
    "bandstructure",
    "dos",
    "dos_energy_up",
    "dos_energy_down",
    "is_magnetic",
    "ordering",
    "total_magnetization_normalized_vol",
    "total_magnetization_normalized_formula_units",
    "num_magnetic_sites",
    "num_unique_magnetic_sites",
    "types_of_magnetic_species",
    "bulk_modulus",
    "shear_modulus",
    "universal_anisotropy",
    "homogeneous_poisson",
    "e_total",
    "e_ionic",
    "e_electronic",
    "n",
    "e_ij_max",
    "weighted_surface_energy_EV_PER_ANG2",
    "weighted_surface_energy",
    "weighted_work_function",
    "surface_anisotropy",
    "shape_factor",
    "has_reconstructed",
    "possible_species",
    "has_props",
    "theoretical",
    "database_IDs"
  ]
}
