{
  "builder_meta": null,
  "nsites": null,
  "elements": null,
  "nelements": null,
  "composition": null,
  "composition_reduced": null,
  "formula_pretty": "Pa3Si",
  "formula_anonymous": "AB3",
  "chemsys": null,
  "volume": 87.64364877782847,
  "density": 13.664074924238848,
  "density_atomic": 21.91091219445712,
  "symmetry": null,
  "property_name": null,
  "material_id": "mp-862861",
  "deprecated": null,
  "deprecation_reasons": null,
  "last_updated": null,
  "origins": null,
  "warnings": null,
  "structure": {
    "@module": "pymatgen.core.structure",
    "@class": "Structure",
    "charge": 0,
    "lattice": {
      "matrix": [
        [4.44077462, -5.4760000000000004e-5, -7.957e-5],
        [-2.1390000000000004e-5, 4.44151938, 6.872e-5],
        [-6.64e-5, 6.365e-5, 4.44355087]
      ],
      "pbc": [true, true, true],
      "a": 4.440774621050497,
      "b": 4.44151938058313,
      "c": 4.443550870951973,
      "alpha": 89.99829279290964,
      "beta": 90.001882809565,
      "gamma": 90.00098247243261,
      "volume": 87.64364877782847
    },
    "properties": {},
    "sites": [
      {
        "species": [{ "element": "Pa", "occu": 1 }],
        "abc": [0.9999973, 0.50000296, 0.50000004],
        "properties": { "magmom": 0.0 },
        "label": "Pa",
        "xyz": [4.440718734842555, 2.2207499020477632, 2.221730403160285]
      },
      {
        "species": [{ "element": "Pa", "occu": 1 }],
        "abc": [0.49999809, 0.99999801, 0.50000004],
        "properties": { "magmom": 0.0 },
        "label": "Pa",
        "xyz": [2.2203242381603863, 4.441514986483571, 2.221804547757261]
      },
      {
        "species": [{ "element": "Pa", "occu": 1 }],
        "abc": [0.50000438, 0.49999981, 7.599999999999997e-7],
        "properties": { "magmom": 0.0 },
        "label": "Pa",
        "xyz": [2.220396065546436, 2.2207314659198434, -2.0482629121999956e-6]
      },
      {
        "species": [{ "element": "Si", "occu": 1 }],
        "abc": [2.299999999999999e-7, 2.2e-7, 0.99999917],
        "properties": { "magmom": 0.0 },
        "label": "Si",
        "xyz": [-6.53785714312e-5, 6.46270688393e-5, 4.4435471818495955]
      }
    ]
  },
  "task_ids": null,
  "uncorrected_energy_per_atom": null,
  "energy_per_atom": -60.1509647375,
  "formation_energy_per_atom": -0.315509953749995,
  "energy_above_hull": 0.0,
  "is_stable": true,
  "equilibrium_reaction_energy_per_atom": null,
  "decomposes_to": null,
  "xas": null,
  "grain_boundaries": null,
  "band_gap": 0.0,
  "cbm": null,
  "vbm": null,
  "efermi": 12.39481239,
  "is_gap_direct": null,
  "is_metal": null,
  "es_source_calc_id": null,
  "bandstructure": null,
  "dos": null,
  "dos_energy_up": null,
  "dos_energy_down": null,
  "is_magnetic": null,
  "ordering": null,
  "total_magnetization": 0.0011313,
  "total_magnetization_normalized_vol": null,
  "total_magnetization_normalized_formula_units": null,
  "num_magnetic_sites": null,
  "num_unique_magnetic_sites": null,
  "types_of_magnetic_species": null,
  "bulk_modulus": null,
  "shear_modulus": null,
  "universal_anisotropy": null,
  "homogeneous_poisson": null,
  "e_total": null,
  "e_ionic": null,
  "e_electronic": null,
  "n": null,
  "e_ij_max": null,
  "weighted_surface_energy_EV_PER_ANG2": null,
  "weighted_surface_energy": null,
  "weighted_work_function": null,
  "surface_anisotropy": null,
  "shape_factor": null,
  "has_reconstructed": null,
  "possible_species": null,
  "has_props": null,
  "theoretical": null,
  "database_IDs": null,
  "fields_not_requested": [
    "builder_meta",
    "nsites",
    "elements",
    "nelements",
    "composition",
    "composition_reduced",
    "chemsys",
    "symmetry",
    "property_name",
    "deprecated",
    "deprecation_reasons",
    "last_updated",
    "origins",
    "warnings",
    "task_ids",
    "uncorrected_energy_per_atom",
    "equilibrium_reaction_energy_per_atom",
    "decomposes_to",
    "xas",
    "grain_boundaries",
    "cbm",
    "vbm",
    "is_gap_direct",
    "is_metal",
    "es_source_calc_id",
    "bandstructure",
    "dos",
    "dos_energy_up",
    "dos_energy_down",
    "is_magnetic",
    "ordering",
    "total_magnetization_normalized_vol",
    "total_magnetization_normalized_formula_units",
    "num_magnetic_sites",
    "num_unique_magnetic_sites",
    "types_of_magnetic_species",
    "bulk_modulus",
    "shear_modulus",
    "universal_anisotropy",
    "homogeneous_poisson",
    "e_total",
    "e_ionic",
    "e_electronic",
    "n",
    "e_ij_max",
    "weighted_surface_energy_EV_PER_ANG2",
    "weighted_surface_energy",
    "weighted_work_function",
    "surface_anisotropy",
    "shape_factor",
    "has_reconstructed",
    "possible_species",
    "has_props",
    "theoretical",
    "database_IDs"
  ]
}
