{"builder_meta": null, "nsites": null, "elements": null, "nelements": null, "composition": null, "composition_reduced": null, "formula_pretty": "Pa3Sb4", "formula_anonymous": "A3B4", "chemsys": null, "volume": 396.7835259387804, "density": 9.87783580953485, "density_atomic": 28.341680424198596, "symmetry": null, "property_name": null, "material_id": "mp-19987", "deprecated": null, "deprecation_reasons": null, "last_updated": null, "origins": null, "warnings": null, "structure": {"@module": "pymatgen.core.structure", "@class": "Structure", "charge": 0, "lattice": {"matrix": [[7.54450206, 0.00011356, -2.68319495], [-3.77214957, 6.53355683, -2.68311981], [-3.39e-06, 3.9e-06, 8.04951176]], "pbc": [true, true, true], "a": 8.007436948608813, "b": 8.00722231139521, "c": 8.049511760001659, "alpha": 109.57782050471579, "beta": 109.57790517656456, "gamma": 109.36365287637656, "volume": 396.7835259387804}, "properties": {}, "sites": [{"species": [{"element": "Pa", "occu": 1}], "abc": [0.74864206, 0.87603491, 0.12530653], "properties": {"magmom": 0.996}, "label": "Pa", "xyz": [2.3435964300220187, 5.723709374036737, -3.3506028291823706]}, {"species": [{"element": "Pa", "occu": 1}], "abc": [0.62397064, 0.37260661, 0.24927301000000002], "properties": {"magmom": 0.996}, "label": "Pa", "xyz": [3.3020190701333574, 2.4345182919392636, -0.6674570213786142]}, {"species": [{"element": "Pa", "occu": 1}], "abc": [0.87259925, 0.12396212000000001, 0.7492846], "properties": {"magmom": 0.996}, "label": "Pa", "xyz": [6.115720641450372, 0.8100155703680496, 3.3574160784515104]}, {"species": [{"element": "Pa", "occu": 1}], "abc": [0.12740075, 0.75136287, 0.87668535], "properties": {"magmom": 0.996}, "label": "Pa", "xyz": [-1.8730808781272574, 4.909089897798937, 4.699051384623049]}, {"species": [{"element": "Pa", "occu": 1}], "abc": [0.37602936000000003, 0.24863497, 0.62530237], "properties": {"magmom": 0.996}, "label": "Pa", "xyz": [1.8990638661929846, 1.6245158469937098, 3.3573012876013832]}, {"species": [{"element": "Pa", "occu": 1}], "abc": [0.25135894000000003, 0.62739385, 0.37666448], "properties": {"magmom": 0.996}, "label": "Pa", "xyz": [-0.470246677761315, 4.099143387080194, 0.6741472552817633]}, {"species": [{"element": "Sb", "occu": 1}], "abc": [0.6584511200000001, 0.65765611, 0.65746801], "properties": {"magmom": -0.053}, "label": "Sb", "xyz": [2.4869063898883814, 4.296910907116158, 1.760973621404414]}, {"species": [{"element": "Sb", "occu": 1}], "abc": [0.34154888, 0.49920499, -0.00098211], "properties": {"magmom": -0.053}, "label": "Sb", "xyz": [0.6937403437096917, 3.2616229544451656, -2.2637745339086215]}, {"species": [{"element": "Sb", "occu": 1}], "abc": [0.50001546, 5.35e-06, 0.34242838000000003], "properties": {"magmom": -0.065}, "label": "Sb", "xyz": [3.7723463261694397, 9.30717553601e-05, 1.4147279598828386]}, {"species": [{"element": "Sb", "occu": 1}], "abc": [0.00077839, 0.3423604, 0.49983179], "properties": {"magmom": -0.053}, "label": "Sb", "xyz": [-1.2855637651163125, 2.2368331674794817, 3.102719328110196]}, {"species": [{"element": "Sb", "occu": 1}], "abc": [0.49998454000000003, -1.2110000000000001e-05, 0.84241292], "properties": {"magmom": -0.065}, "label": "Sb", "xyz": [3.772177216949647, -1.90577184609e-05, 5.439489206090765]}, {"species": [{"element": "Sb", "occu": 1}], "abc": [-0.00077839, 0.84158201, 0.4990534], "properties": {"magmom": -0.053}, "label": "Sb", "xyz": [-3.180447473890745, 5.49852574735492, 1.761159421514496]}, {"species": [{"element": "Sb", "occu": 1}], "abc": [0.15764425, 0.15842559, 0.15745875], "properties": {"magmom": -0.053}, "label": "Sb", "xyz": [0.5917418138914964, 1.0351011117614348, 0.41940096540342475]}, {"species": [{"element": "Sb", "occu": 1}], "abc": [0.8423557500000001, 0.50078133, -0.00018549999999900002], "properties": {"magmom": -0.053}, "label": "Sb", "xyz": [4.466132613133163, 3.271978936153504, -3.605354185936082]}]}, "task_ids": null, "uncorrected_energy_per_atom": null, "energy_per_atom": -48.28965809214286, "formation_energy_per_atom": -0.662041312142849, "energy_above_hull": 0.0, "is_stable": true, "equilibrium_reaction_energy_per_atom": null, "decomposes_to": null, "xas": null, "grain_boundaries": null, "band_gap": 0.0, "cbm": null, "vbm": null, "efermi": 9.79354652, "is_gap_direct": null, "is_metal": null, "es_source_calc_id": null, "bandstructure": null, "dos": null, "dos_energy_up": null, "dos_energy_down": null, "is_magnetic": null, "ordering": null, "total_magnetization": 5.9999793, "total_magnetization_normalized_vol": null, "total_magnetization_normalized_formula_units": null, "num_magnetic_sites": null, "num_unique_magnetic_sites": null, "types_of_magnetic_species": null, "bulk_modulus": null, "shear_modulus": null, "universal_anisotropy": null, "homogeneous_poisson": null, "e_total": null, "e_ionic": null, "e_electronic": null, "n": null, "e_ij_max": null, "weighted_surface_energy_EV_PER_ANG2": null, "weighted_surface_energy": null, "weighted_work_function": null, "surface_anisotropy": null, "shape_factor": null, "has_reconstructed": null, "possible_species": null, "has_props": null, "theoretical": null, "database_IDs": null, "fields_not_requested": ["builder_meta", "nsites", "elements", "nelements", "composition", "composition_reduced", "chemsys", "symmetry", "property_name", "deprecated", "deprecation_reasons", "last_updated", "origins", "warnings", "task_ids", "uncorrected_energy_per_atom", "equilibrium_reaction_energy_per_atom", "decomposes_to", "xas", "grain_boundaries", "cbm", "vbm", "is_gap_direct", "is_metal", "es_source_calc_id", "bandstructure", "dos", "dos_energy_up", "dos_energy_down", "is_magnetic", "ordering", "total_magnetization_normalized_vol", "total_magnetization_normalized_formula_units", "num_magnetic_sites", "num_unique_magnetic_sites", "types_of_magnetic_species", "bulk_modulus", "shear_modulus", "universal_anisotropy", "homogeneous_poisson", "e_total", "e_ionic", "e_electronic", "n", "e_ij_max", "weighted_surface_energy_EV_PER_ANG2", "weighted_surface_energy", "weighted_work_function", "surface_anisotropy", "shape_factor", "has_reconstructed", "possible_species", "has_props", "theoretical", "database_IDs"]}