{
  "builder_meta": null,
  "nsites": null,
  "elements": null,
  "nelements": null,
  "composition": null,
  "composition_reduced": null,
  "formula_pretty": "Pa3Ta",
  "formula_anonymous": "AB3",
  "chemsys": null,
  "volume": 188.9671907491257,
  "density": 15.361432125688651,
  "density_atomic": 23.620898843640713,
  "symmetry": null,
  "property_name": null,
  "material_id": "mp-973815",
  "deprecated": null,
  "deprecation_reasons": null,
  "last_updated": null,
  "origins": null,
  "warnings": null,
  "structure": {
    "@module": "pymatgen.core.structure",
    "@class": "Structure",
    "charge": 0,
    "lattice": {
      "matrix": [
        [3.129965, -5.421258, 0.0],
        [3.129965, 5.421258, 0.0],
        [0.0, 0.0, 5.568226]
      ],
      "pbc": [true, true, true],
      "a": 6.259929648469622,
      "b": 6.259929648469622,
      "c": 5.568226,
      "alpha": 90.0,
      "beta": 90.0,
      "gamma": 119.99999628477248,
      "volume": 188.9671907491257
    },
    "properties": {},
    "sites": [
      {
        "species": [{ "element": "Pa", "occu": 1 }],
        "abc": [0.172844, 0.345686999999999, 0.25],
        "properties": { "magmom": 0.0 },
        "label": "Pa",
        "xyz": [1.622983881414997, 0.9370264964939946, 1.3920565]
      },
      {
        "species": [{ "element": "Pa", "occu": 1 }],
        "abc": [0.654312999999999, 0.827156, 0.25],
        "properties": { "magmom": 0.0 },
        "label": "Pa",
        "xyz": [4.636946118584996, 0.9370264964940054, 1.3920565]
      },
      {
        "species": [{ "element": "Pa", "occu": 1 }],
        "abc": [0.172844, 0.827156, 0.25],
        "properties": { "magmom": 0.0 },
        "label": "Pa",
        "xyz": [3.129965, 3.547194164496, 1.3920565]
      },
      {
        "species": [{ "element": "Pa", "occu": 1 }],
        "abc": [0.827156, 0.654312999999999, 0.75],
        "properties": { "magmom": 0.0 },
        "label": "Pa",
        "xyz": [4.636946118584996, -0.9370264964940054, 4.1761695]
      },
      {
        "species": [{ "element": "Pa", "occu": 1 }],
        "abc": [0.345686999999999, 0.172844, 0.75],
        "properties": { "magmom": 0.0 },
        "label": "Pa",
        "xyz": [1.622983881414997, -0.9370264964939946, 4.1761695]
      },
      {
        "species": [{ "element": "Pa", "occu": 1 }],
        "abc": [0.827156, 0.172844, 0.75],
        "properties": { "magmom": 0.0 },
        "label": "Pa",
        "xyz": [3.129965, -3.547194164496, 4.1761695]
      },
      {
        "species": [{ "element": "Ta", "occu": 1 }],
        "abc": [0.333333, 0.666667, 0.75],
        "properties": { "magmom": -0.0 },
        "label": "Ta",
        "xyz": [3.1299649999999994, 1.8070896141719999, 4.1761695]
      },
      {
        "species": [{ "element": "Ta", "occu": 1 }],
        "abc": [0.666667, 0.333333, 0.25],
        "properties": { "magmom": -0.0 },
        "label": "Ta",
        "xyz": [3.1299649999999994, -1.8070896141719999, 1.3920565]
      }
    ]
  },
  "task_ids": null,
  "uncorrected_energy_per_atom": null,
  "energy_per_atom": -69.59573892816667,
  "formation_energy_per_atom": 0.19423288500000502,
  "energy_above_hull": 0.19423288500000502,
  "is_stable": false,
  "equilibrium_reaction_energy_per_atom": null,
  "decomposes_to": null,
  "xas": null,
  "grain_boundaries": null,
  "band_gap": 0.0,
  "cbm": null,
  "vbm": null,
  "efermi": 11.31841095,
  "is_gap_direct": null,
  "is_metal": null,
  "es_source_calc_id": null,
  "bandstructure": null,
  "dos": null,
  "dos_energy_up": null,
  "dos_energy_down": null,
  "is_magnetic": null,
  "ordering": null,
  "total_magnetization": 0.0044301,
  "total_magnetization_normalized_vol": null,
  "total_magnetization_normalized_formula_units": null,
  "num_magnetic_sites": null,
  "num_unique_magnetic_sites": null,
  "types_of_magnetic_species": null,
  "bulk_modulus": null,
  "shear_modulus": null,
  "universal_anisotropy": null,
  "homogeneous_poisson": null,
  "e_total": null,
  "e_ionic": null,
  "e_electronic": null,
  "n": null,
  "e_ij_max": null,
  "weighted_surface_energy_EV_PER_ANG2": null,
  "weighted_surface_energy": null,
  "weighted_work_function": null,
  "surface_anisotropy": null,
  "shape_factor": null,
  "has_reconstructed": null,
  "possible_species": null,
  "has_props": null,
  "theoretical": null,
  "database_IDs": null,
  "fields_not_requested": [
    "builder_meta",
    "nsites",
    "elements",
    "nelements",
    "composition",
    "composition_reduced",
    "chemsys",
    "symmetry",
    "property_name",
    "deprecated",
    "deprecation_reasons",
    "last_updated",
    "origins",
    "warnings",
    "task_ids",
    "uncorrected_energy_per_atom",
    "equilibrium_reaction_energy_per_atom",
    "decomposes_to",
    "xas",
    "grain_boundaries",
    "cbm",
    "vbm",
    "is_gap_direct",
    "is_metal",
    "es_source_calc_id",
    "bandstructure",
    "dos",
    "dos_energy_up",
    "dos_energy_down",
    "is_magnetic",
    "ordering",
    "total_magnetization_normalized_vol",
    "total_magnetization_normalized_formula_units",
    "num_magnetic_sites",
    "num_unique_magnetic_sites",
    "types_of_magnetic_species",
    "bulk_modulus",
    "shear_modulus",
    "universal_anisotropy",
    "homogeneous_poisson",
    "e_total",
    "e_ionic",
    "e_electronic",
    "n",
    "e_ij_max",
    "weighted_surface_energy_EV_PER_ANG2",
    "weighted_surface_energy",
    "weighted_work_function",
    "surface_anisotropy",
    "shape_factor",
    "has_reconstructed",
    "possible_species",
    "has_props",
    "theoretical",
    "database_IDs"
  ]
}
