{
  "builder_meta": null,
  "nsites": null,
  "elements": null,
  "nelements": null,
  "composition": null,
  "composition_reduced": null,
  "formula_pretty": "PaAl3",
  "formula_anonymous": "AB3",
  "chemsys": null,
  "volume": 154.9848854552293,
  "density": 6.6852428838009335,
  "density_atomic": 19.37311068190366,
  "symmetry": null,
  "property_name": null,
  "material_id": "mp-862844",
  "deprecated": null,
  "deprecation_reasons": null,
  "last_updated": null,
  "origins": null,
  "warnings": null,
  "structure": {
    "@module": "pymatgen.core.structure",
    "@class": "Structure",
    "charge": 0,
    "lattice": {
      "matrix": [
        [6.28246663, -9.189999999999997e-6, -0.0],
        [-3.14124148, 5.44079038, -0.0],
        [0.0, -0.0, 4.53416718]
      ],
      "pbc": [true, true, true],
      "a": 6.282466630006722,
      "b": 6.282483425745996,
      "c": 4.53416718,
      "alpha": 90.0,
      "beta": 90.0,
      "gamma": 120.00008136000265,
      "volume": 154.9848854552293
    },
    "properties": {},
    "sites": [
      {
        "species": [{ "element": "Pa", "occu": 1 }],
        "abc": [0.333333, 0.666666, 0.749997999999999],
        "properties": { "magmom": -0.0 },
        "label": "Pa",
        "xyz": [-5.443327890208849e-6, 3.62718689614281, 3.400616316665636]
      },
      {
        "species": [{ "element": "Pa", "occu": 1 }],
        "abc": [0.666666, 0.333331999999999, 0.249998],
        "properties": { "magmom": -0.0 },
        "label": "Pa",
        "xyz": [3.141230593344223, 1.8135834122856147, 1.1335327266656399]
      },
      {
        "species": [{ "element": "Al", "occu": 1 }],
        "abc": [0.14664847, 0.29329895, 0.249998],
        "properties": { "magmom": -0.0 },
        "label": "Al",
        "xyz": [-8.708664889889306e-6, 1.5957767579246618, 1.1335327266656399]
      },
      {
        "species": [{ "element": "Al", "occu": 1 }],
        "abc": [0.70670105, 0.85335253, 0.249998],
        "properties": { "magmom": -0.0 },
        "label": "Al",
        "xyz": [1.7592393997120173, 4.642905741390012, 1.1335327266656399]
      },
      {
        "species": [{ "element": "Al", "occu": 1 }],
        "abc": [0.14665047, 0.85335253, 0.249998],
        "properties": { "magmom": -0.0 },
        "label": "Al",
        "xyz": [-1.7592596802501286, 4.642910888254843, 1.1335327266656399]
      },
      {
        "species": [{ "element": "Al", "occu": 1 }],
        "abc": [0.85335253, 0.70670105, 0.749997999999999],
        "properties": { "magmom": -0.0 },
        "label": "Al",
        "xyz": [3.14124014113152, 3.845004432066149, 3.400616316665636]
      },
      {
        "species": [{ "element": "Al", "occu": 1 }],
        "abc": [0.29329695, 0.14664747, 0.749997999999999],
        "properties": { "magmom": -0.0 },
        "label": "Al",
        "xyz": [1.3819731853547228, 0.7978754486283681, 3.400616316665636]
      },
      {
        "species": [{ "element": "Al", "occu": 1 }],
        "abc": [0.85335153, 0.14664747, 0.749997999999999],
        "properties": { "magmom": -0.0 },
        "label": "Al",
        "xyz": [4.900497395183388, 0.7978703017267779, 3.400616316665636]
      }
    ]
  },
  "task_ids": null,
  "uncorrected_energy_per_atom": null,
  "energy_per_atom": -24.5489413825,
  "formation_energy_per_atom": -0.28586308999999904,
  "energy_above_hull": 0.0,
  "is_stable": true,
  "equilibrium_reaction_energy_per_atom": null,
  "decomposes_to": null,
  "xas": null,
  "grain_boundaries": null,
  "band_gap": 0.0,
  "cbm": null,
  "vbm": null,
  "efermi": 8.79935227,
  "is_gap_direct": null,
  "is_metal": null,
  "es_source_calc_id": null,
  "bandstructure": null,
  "dos": null,
  "dos_energy_up": null,
  "dos_energy_down": null,
  "is_magnetic": null,
  "ordering": null,
  "total_magnetization": 0.0001673,
  "total_magnetization_normalized_vol": null,
  "total_magnetization_normalized_formula_units": null,
  "num_magnetic_sites": null,
  "num_unique_magnetic_sites": null,
  "types_of_magnetic_species": null,
  "bulk_modulus": null,
  "shear_modulus": null,
  "universal_anisotropy": null,
  "homogeneous_poisson": null,
  "e_total": null,
  "e_ionic": null,
  "e_electronic": null,
  "n": null,
  "e_ij_max": null,
  "weighted_surface_energy_EV_PER_ANG2": null,
  "weighted_surface_energy": null,
  "weighted_work_function": null,
  "surface_anisotropy": null,
  "shape_factor": null,
  "has_reconstructed": null,
  "possible_species": null,
  "has_props": null,
  "theoretical": null,
  "database_IDs": null,
  "fields_not_requested": [
    "builder_meta",
    "nsites",
    "elements",
    "nelements",
    "composition",
    "composition_reduced",
    "chemsys",
    "symmetry",
    "property_name",
    "deprecated",
    "deprecation_reasons",
    "last_updated",
    "origins",
    "warnings",
    "task_ids",
    "uncorrected_energy_per_atom",
    "equilibrium_reaction_energy_per_atom",
    "decomposes_to",
    "xas",
    "grain_boundaries",
    "cbm",
    "vbm",
    "is_gap_direct",
    "is_metal",
    "es_source_calc_id",
    "bandstructure",
    "dos",
    "dos_energy_up",
    "dos_energy_down",
    "is_magnetic",
    "ordering",
    "total_magnetization_normalized_vol",
    "total_magnetization_normalized_formula_units",
    "num_magnetic_sites",
    "num_unique_magnetic_sites",
    "types_of_magnetic_species",
    "bulk_modulus",
    "shear_modulus",
    "universal_anisotropy",
    "homogeneous_poisson",
    "e_total",
    "e_ionic",
    "e_electronic",
    "n",
    "e_ij_max",
    "weighted_surface_energy_EV_PER_ANG2",
    "weighted_surface_energy",
    "weighted_work_function",
    "surface_anisotropy",
    "shape_factor",
    "has_reconstructed",
    "possible_species",
    "has_props",
    "theoretical",
    "database_IDs"
  ]
}
