{"builder_meta": null, "nsites": null, "elements": null, "nelements": null, "composition": null, "composition_reduced": null, "formula_pretty": "PaB3", "formula_anonymous": "AB3", "chemsys": null, "volume": 88.36482880654853, "density": 9.902138078740332, "density_atomic": 11.045603600818566, "symmetry": null, "property_name": null, "material_id": "mp-862847", "deprecated": null, "deprecation_reasons": null, "last_updated": null, "origins": null, "warnings": null, "structure": {"@module": "pymatgen.core.structure", "@class": "Structure", "charge": 0, "lattice": {"matrix": [[5.43435283, -4.536e-05, -1.6240000000000004e-05], [-2.717214079999999, 4.70625833, 3.849999999999999e-06], [5.639999999999998e-06, 6.06e-06, 3.45507866]], "pbc": [true, true, true], "a": 5.434352830213574, "b": 5.434346310758953, "c": 3.4550786600099177, "alpha": 89.99991914399119, "beta": 90.00007769487252, "gamma": 120.00097647278845, "volume": 88.36482880654853}, "properties": {}, "sites": [{"species": [{"element": "Pa", "occu": 1}], "abc": [0.66666905, 0.33333105, 0.24999676], "properties": {"magmom": 0.0}, "label": "Pa", "xyz": [2.7171844261614546, 1.568713305582404, 0.8637489271643122]}, {"species": [{"element": "Pa", "occu": 1}], "abc": [0.33333135, 0.66667026, 0.7500029300000001], "properties": {"magmom": 0.0}, "label": "Pa", "xyz": [-4.142197251407481e-05, 3.1375118895959853, 2.5913162717598506]}, {"species": [{"element": "B", "occu": 1}], "abc": [0.88753325, 0.11247388, 0.75000859], "properties": {"magmom": -0.0}, "label": "B", "xyz": [4.517557448536815, 0.5292954212012557, 2.5913246936101473]}, {"species": [{"element": "B", "occu": 1}], "abc": [0.22494233, 0.11248073, 0.74999151], "properties": {"magmom": -0.0}, "label": "B", "xyz": [0.9167859942897318, 0.5293577140914427, 2.5912764413695477]}, {"species": [{"element": "B", "occu": 1}], "abc": [0.88751756, 0.77505793, 0.74997107], "properties": {"magmom": -0.0}, "label": "B", "xyz": [2.717089473485876, 3.647587126323219, 2.5911976102622223]}, {"species": [{"element": "B", "occu": 1}], "abc": [0.11247377, 0.8875295200000001, 0.25000184000000003], "properties": {"magmom": 0.0}, "label": "B", "xyz": [-1.8003841478489941, 4.1769396098218445, 0.8637776127593617]}, {"species": [{"element": "B", "occu": 1}], "abc": [0.7750534, 0.8875143400000001, 0.25001927], "properties": {"magmom": -0.0}, "label": "B", "xyz": [1.8003485869498985, 4.1768381143140045, 0.8638270744287713]}, {"species": [{"element": "B", "occu": 1}], "abc": [0.11248128, 0.2249473, 0.25000702], "properties": {"magmom": -0.0}, "label": "B", "xyz": [3.440151163152366e-05, 1.0586565173276894, 0.863792959003311]}]}, "task_ids": null, "uncorrected_energy_per_atom": null, "energy_per_atom": -24.93902250125, "formation_energy_per_atom": -0.21525230812499802, "energy_above_hull": 0.0, "is_stable": true, "equilibrium_reaction_energy_per_atom": null, "decomposes_to": null, "xas": null, "grain_boundaries": null, "band_gap": 0.0, "cbm": null, "vbm": null, "efermi": 10.58401999, "is_gap_direct": null, "is_metal": null, "es_source_calc_id": null, "bandstructure": null, "dos": null, "dos_energy_up": null, "dos_energy_down": null, "is_magnetic": null, "ordering": null, "total_magnetization": 0.0, "total_magnetization_normalized_vol": null, "total_magnetization_normalized_formula_units": null, "num_magnetic_sites": null, "num_unique_magnetic_sites": null, "types_of_magnetic_species": null, "bulk_modulus": null, "shear_modulus": null, "universal_anisotropy": null, "homogeneous_poisson": null, "e_total": null, "e_ionic": null, "e_electronic": null, "n": null, "e_ij_max": null, "weighted_surface_energy_EV_PER_ANG2": null, "weighted_surface_energy": null, "weighted_work_function": null, "surface_anisotropy": null, "shape_factor": null, "has_reconstructed": null, "possible_species": null, "has_props": null, "theoretical": null, "database_IDs": null, "fields_not_requested": ["builder_meta", "nsites", "elements", "nelements", "composition", "composition_reduced", "chemsys", "symmetry", "property_name", "deprecated", "deprecation_reasons", "last_updated", "origins", "warnings", "task_ids", "uncorrected_energy_per_atom", "equilibrium_reaction_energy_per_atom", "decomposes_to", "xas", "grain_boundaries", "cbm", "vbm", "is_gap_direct", "is_metal", "es_source_calc_id", "bandstructure", "dos", "dos_energy_up", "dos_energy_down", "is_magnetic", "ordering", "total_magnetization_normalized_vol", "total_magnetization_normalized_formula_units", "num_magnetic_sites", "num_unique_magnetic_sites", "types_of_magnetic_species", "bulk_modulus", "shear_modulus", "universal_anisotropy", "homogeneous_poisson", "e_total", "e_ionic", "e_electronic", "n", "e_ij_max", "weighted_surface_energy_EV_PER_ANG2", "weighted_surface_energy", "weighted_work_function", "surface_anisotropy", "shape_factor", "has_reconstructed", "possible_species", "has_props", "theoretical", "database_IDs"]}