{"builder_meta": null, "nsites": null, "elements": null, "nelements": null, "composition": null, "composition_reduced": null, "formula_pretty": "PaBi3", "formula_anonymous": "AB3", "chemsys": null, "volume": 236.37293854247383, "density": 12.054717163245726, "density_atomic": 29.54661731780923, "symmetry": null, "property_name": null, "material_id": "mp-973876", "deprecated": null, "deprecation_reasons": null, "last_updated": null, "origins": null, "warnings": null, "structure": {"@module": "pymatgen.core.structure", "@class": "Structure", "charge": 0, "lattice": {"matrix": [[6.70116557, 2.14e-06, 0.0], [-3.35057964, 5.80338806, -0.0], [-0.0, 0.0, 6.07807023]], "pbc": [true, true, true], "a": 6.701165570000342, "b": 6.701171307982888, "c": 6.07807023, "alpha": 90.0, "beta": 90.0, "gamma": 119.99992232769448, "volume": 236.37293854247383}, "properties": {}, "sites": [{"species": [{"element": "Pa", "occu": 1}], "abc": [0.333333, 0.666667, 0.749999], "properties": {"magmom": 0.9470000000000001}, "label": "Pa", "xyz": [-1.2539150699986124e-06, 3.86892802112864, 4.55854659442977]}, {"species": [{"element": "Pa", "occu": 1}], "abc": [0.666667, 0.333333, 0.25], "properties": {"magmom": 0.9470000000000001}, "label": "Pa", "xyz": [3.35058718391507, 1.9344621788713598, 1.5195175575]}, {"species": [{"element": "Bi", "occu": 1}], "abc": [0.1726307, 0.3452594, 0.25], "properties": {"magmom": -0.011}, "label": "Bi", "xyz": [7.787006383042083e-06, 2.0036746489924617, 1.5195175575]}, {"species": [{"element": "Bi", "occu": 1}], "abc": [0.6547406, 0.8273703, 0.25], "properties": {"magmom": -0.011}, "label": "Bi", "xyz": [1.6153550840804498, 4.801552321363501, 1.5195175575]}, {"species": [{"element": "Bi", "occu": 1}], "abc": [0.1726297, 0.8273703, 0.25], "properties": {"magmom": -0.011}, "label": "Bi", "xyz": [-1.615349879921263, 4.801551289646175, 1.5195175575]}, {"species": [{"element": "Bi", "occu": 1}], "abc": [0.82735955, 0.6547191, 0.749999], "properties": {"magmom": -0.011}, "label": "Bi", "xyz": [3.35058484409157, 3.7995907781433824, 4.55854659442977]}, {"species": [{"element": "Bi", "occu": 1}], "abc": [0.3452809, 0.17264145, 0.749999], "properties": {"magmom": -0.011}, "label": "Bi", "xyz": [1.735335551668535, 1.001906068492213, 4.55854659442977]}, {"species": [{"element": "Bi", "occu": 1}], "abc": [0.82735955, 0.17264145, 0.749999], "properties": {"magmom": -0.011}, "label": "Bi", "xyz": [4.965824403080616, 1.001907100140524, 4.55854659442977]}]}, "task_ids": null, "uncorrected_energy_per_atom": null, "energy_per_atom": -63.19952300125, "formation_energy_per_atom": -0.10881314750000101, "energy_above_hull": 0.0, "is_stable": true, "equilibrium_reaction_energy_per_atom": null, "decomposes_to": null, "xas": null, "grain_boundaries": null, "band_gap": 0.0, "cbm": null, "vbm": null, "efermi": 8.25548392, "is_gap_direct": null, "is_metal": null, "es_source_calc_id": null, "bandstructure": null, "dos": null, "dos_energy_up": null, "dos_energy_down": null, "is_magnetic": null, "ordering": null, "total_magnetization": 1.9597315, "total_magnetization_normalized_vol": null, "total_magnetization_normalized_formula_units": null, "num_magnetic_sites": null, "num_unique_magnetic_sites": null, "types_of_magnetic_species": null, "bulk_modulus": null, "shear_modulus": null, "universal_anisotropy": null, "homogeneous_poisson": null, "e_total": null, "e_ionic": null, "e_electronic": null, "n": null, "e_ij_max": null, "weighted_surface_energy_EV_PER_ANG2": null, "weighted_surface_energy": null, "weighted_work_function": null, "surface_anisotropy": null, "shape_factor": null, "has_reconstructed": null, "possible_species": null, "has_props": null, "theoretical": null, "database_IDs": null, "fields_not_requested": ["builder_meta", "nsites", "elements", "nelements", "composition", "composition_reduced", "chemsys", "symmetry", "property_name", "deprecated", "deprecation_reasons", "last_updated", "origins", "warnings", "task_ids", "uncorrected_energy_per_atom", "equilibrium_reaction_energy_per_atom", "decomposes_to", "xas", "grain_boundaries", "cbm", "vbm", "is_gap_direct", "is_metal", "es_source_calc_id", "bandstructure", "dos", "dos_energy_up", "dos_energy_down", "is_magnetic", "ordering", "total_magnetization_normalized_vol", "total_magnetization_normalized_formula_units", "num_magnetic_sites", "num_unique_magnetic_sites", "types_of_magnetic_species", "bulk_modulus", "shear_modulus", "universal_anisotropy", "homogeneous_poisson", "e_total", "e_ionic", "e_electronic", "n", "e_ij_max", "weighted_surface_energy_EV_PER_ANG2", "weighted_surface_energy", "weighted_work_function", "surface_anisotropy", "shape_factor", "has_reconstructed", "possible_species", "has_props", "theoretical", "database_IDs"]}