{"builder_meta": null, "nsites": null, "elements": null, "nelements": null, "composition": null, "composition_reduced": null, "formula_pretty": "PaBr5", "formula_anonymous": "AB5", "chemsys": null, "volume": 922.013142843995, "density": 4.542506494797352, "density_atomic": 38.41721428516646, "symmetry": null, "property_name": null, "material_id": "mp-27642", "deprecated": null, "deprecation_reasons": null, "last_updated": null, "origins": null, "warnings": null, "structure": {"@module": "pymatgen.core.structure", "@class": "Structure", "charge": 0, "lattice": {"matrix": [[8.73707907, 0.00202035, 0.0], [-0.17631845000000002, 9.14341138, 0.0], [0.0, 0.0, 11.5414573]], "pbc": [true, true, true], "a": 8.737079303591457, "b": 9.145111254638945, "c": 11.5414573, "alpha": 90.0, "beta": 90.0, "gamma": 91.09148649949137, "volume": 922.013142843995}, "properties": {}, "sites": [{"species": [{"element": "Pa", "occu": 1}], "abc": [0.5529510400000001, 0.33885776, 0.6373422400000001], "properties": {"magmom": 0.0}, "label": "Pa", "xyz": [4.771430083305061, 3.0994330536189727, 7.355858248446352]}, {"species": [{"element": "Pa", "occu": 1}], "abc": [0.94704896, 0.16114224, 0.13734224], "properties": {"magmom": 0.0}, "label": "Pa", "xyz": [8.24602929669494, 1.4753031613810272, 1.585129598446352]}, {"species": [{"element": "Pa", "occu": 1}], "abc": [0.44704896, 0.66114224, 0.36265776], "properties": {"magmom": 0.0}, "label": "Pa", "xyz": [3.7893305366949392, 6.045998676381027, 4.185599051553647]}, {"species": [{"element": "Pa", "occu": 1}], "abc": [0.05295104, 0.83885776, 0.86265776], "properties": {"magmom": 0.0}, "label": "Pa", "xyz": [0.3147313233050608, 7.670128568618972, 9.956327701553649]}, {"species": [{"element": "Br", "occu": 1}], "abc": [0.54588086, 0.36058699, 0.86581657], "properties": {"magmom": -0.0}, "label": "Br", "xyz": [4.7058260974526345, 3.298098058241447, 9.99278497228746]}, {"species": [{"element": "Br", "occu": 1}], "abc": [0.95411914, 0.13941301, 0.36581657], "properties": {"magmom": -0.0}, "label": "Br", "xyz": [8.311633282547366, 1.276638156758553, 4.222056322287461]}, {"species": [{"element": "Br", "occu": 1}], "abc": [0.45411914000000003, 0.6394130100000001, 0.13418343], "properties": {"magmom": -0.0}, "label": "Br", "xyz": [3.8549345225473655, 5.847333671758553, 1.548672327712539]}, {"species": [{"element": "Br", "occu": 1}], "abc": [0.04588086, 0.86058699, 0.63418343], "properties": {"magmom": -0.0}, "label": "Br", "xyz": [0.24912733745263474, 7.868793573241447, 7.319400977712538]}, {"species": [{"element": "Br", "occu": 1}], "abc": [0.9566979800000001, 0.138371499999999, 0.88740522], "properties": {"magmom": 0.0}, "label": "Br", "xyz": [8.334348448965104, 1.2671204125315538, 10.241949454427106]}, {"species": [{"element": "Br", "occu": 1}], "abc": [0.54330202, 0.361628499999999, 0.38740522], "properties": {"magmom": 0.0}, "label": "Br", "xyz": [4.683110931034897, 3.307615802468428, 4.471220804427106]}, {"species": [{"element": "Br", "occu": 1}], "abc": [0.043302020000000004, 0.861628499999999, 0.11259478], "properties": {"magmom": 0.0}, "label": "Br", "xyz": [0.22641217103489658, 7.878311317468428, 1.299507845572894]}, {"species": [{"element": "Br", "occu": 1}], "abc": [0.45669798, 0.6383715, 0.61259478], "properties": {"magmom": 0.0}, "label": "Br", "xyz": [3.8776496889651035, 5.837815927531563, 7.070236495572893]}, {"species": [{"element": "Br", "occu": 1}], "abc": [0.1426828, 0.56456317, 0.87500344], "properties": {"magmom": 0.0}, "label": "Br", "xyz": [1.1470880024675094, 5.162321582501855, 10.09881484011311]}, {"species": [{"element": "Br", "occu": 1}], "abc": [0.3573172, 0.93543683, 0.37500344], "properties": {"magmom": 0.0}, "label": "Br", "xyz": [2.9569738575324904, 8.553805662498146, 4.328086190113112]}, {"species": [{"element": "Br", "occu": 1}], "abc": [0.8573172, 0.43543783, 0.12499656], "properties": {"magmom": 0.0}, "label": "Br", "xyz": [7.4136724412140405, 3.9831192909095257, 1.442642459886888]}, {"species": [{"element": "Br", "occu": 1}], "abc": [0.6426828, 0.06456217, 0.62499656], "properties": {"magmom": 0.0}, "label": "Br", "xyz": [5.60378693878596, 0.5916169240904746, 7.213371109886888]}, {"species": [{"element": "Br", "occu": 1}], "abc": [0.75938843, 0.75958015, 0.87230791], "properties": {"magmom": -0.0}, "label": "Br", "xyz": [6.500908763054392, 6.9466880179466575, 10.067704495717242]}, {"species": [{"element": "Br", "occu": 1}], "abc": [0.74061157, 0.74041985, 0.37230791], "properties": {"magmom": -0.0}, "label": "Br", "xyz": [6.340232166945608, 6.771459577053343, 4.296975845717243]}, {"species": [{"element": "Br", "occu": 1}], "abc": [0.24061157, 0.24041985000000002, 0.12769209], "properties": {"magmom": -0.0}, "label": "Br", "xyz": [2.0598518569456075, 2.198743712053343, 1.473752804282757]}, {"species": [{"element": "Br", "occu": 1}], "abc": [0.25938843, 0.25958015, 0.62769209], "properties": {"magmom": -0.0}, "label": "Br", "xyz": [2.2205284530543925, 2.3739721529466578, 7.244481454282757]}, {"species": [{"element": "Br", "occu": 1}], "abc": [0.34000261, 0.93857371, 0.87376759], "properties": {"magmom": -0.0}, "label": "Br", "xyz": [2.805141825818423, 8.582452465255933, 10.084551330108907]}, {"species": [{"element": "Br", "occu": 1}], "abc": [0.15999739000000002, 0.56142629, 0.37376759], "properties": {"magmom": -0.0}, "label": "Br", "xyz": [1.298920034181577, 5.133674779744067, 4.313822680108906]}, {"species": [{"element": "Br", "occu": 1}], "abc": [0.65999739, 0.06142629, 0.12623241], "properties": {"magmom": -0.0}, "label": "Br", "xyz": [5.7556187941815775, 0.5629792647440668, 1.456905969891093]}, {"species": [{"element": "Br", "occu": 1}], "abc": [0.84000261, 0.43857371, 0.62623241], "properties": {"magmom": -0.0}, "label": "Br", "xyz": [7.261840585818423, 4.011756950255933, 7.227634619891092]}]}, "task_ids": null, "uncorrected_energy_per_atom": null, "energy_per_atom": -4.839463140416664, "formation_energy_per_atom": -1.884624831249997, "energy_above_hull": 0.0, "is_stable": true, "equilibrium_reaction_energy_per_atom": null, "decomposes_to": null, "xas": null, "grain_boundaries": null, "band_gap": 1.9646000000000001, "cbm": null, "vbm": null, "efermi": -1.565616149999999, "is_gap_direct": null, "is_metal": null, "es_source_calc_id": null, "bandstructure": null, "dos": null, "dos_energy_up": null, "dos_energy_down": null, "is_magnetic": null, "ordering": null, "total_magnetization": 0.0, "total_magnetization_normalized_vol": null, "total_magnetization_normalized_formula_units": null, "num_magnetic_sites": null, "num_unique_magnetic_sites": null, "types_of_magnetic_species": null, "bulk_modulus": null, "shear_modulus": null, "universal_anisotropy": null, "homogeneous_poisson": null, "e_total": null, "e_ionic": null, "e_electronic": null, "n": null, "e_ij_max": null, "weighted_surface_energy_EV_PER_ANG2": null, "weighted_surface_energy": null, "weighted_work_function": null, "surface_anisotropy": null, "shape_factor": null, "has_reconstructed": null, "possible_species": null, "has_props": null, "theoretical": null, "database_IDs": null, "fields_not_requested": ["builder_meta", "nsites", "elements", "nelements", "composition", "composition_reduced", "chemsys", "symmetry", "property_name", "deprecated", "deprecation_reasons", "last_updated", "origins", "warnings", "task_ids", "uncorrected_energy_per_atom", "equilibrium_reaction_energy_per_atom", "decomposes_to", "xas", "grain_boundaries", "cbm", "vbm", "is_gap_direct", "is_metal", "es_source_calc_id", "bandstructure", "dos", "dos_energy_up", "dos_energy_down", "is_magnetic", "ordering", "total_magnetization_normalized_vol", "total_magnetization_normalized_formula_units", "num_magnetic_sites", "num_unique_magnetic_sites", "types_of_magnetic_species", "bulk_modulus", "shear_modulus", "universal_anisotropy", "homogeneous_poisson", "e_total", "e_ionic", "e_electronic", "n", "e_ij_max", "weighted_surface_energy_EV_PER_ANG2", "weighted_surface_energy", "weighted_work_function", "surface_anisotropy", "shape_factor", "has_reconstructed", "possible_species", "has_props", "theoretical", "database_IDs"]}