{
  "builder_meta": null,
  "nsites": null,
  "elements": null,
  "nelements": null,
  "composition": null,
  "composition_reduced": null,
  "formula_pretty": "PaBr4",
  "formula_anonymous": "AB4",
  "chemsys": null,
  "volume": 320.347695247023,
  "density": 5.708665755385875,
  "density_atomic": 32.0347695247023,
  "symmetry": null,
  "property_name": null,
  "material_id": "mp-27474",
  "deprecated": null,
  "deprecation_reasons": null,
  "last_updated": null,
  "origins": null,
  "warnings": null,
  "structure": {
    "@module": "pymatgen.core.structure",
    "@class": "Structure",
    "charge": 0,
    "lattice": {
      "matrix": [
        [7.15285733, 0.05387945, -2.18476447],
        [-3.91730017, 5.9887676899999995, -2.17201179],
        [-0.02395861, -0.05387945, 7.47903711]
      ],
      "pbc": [true, true, true],
      "a": 7.479269133267061,
      "b": 7.478516850456978,
      "c": 7.479269556773749,
      "alpha": 107.12847765625916,
      "beta": 107.17047244277398,
      "gamma": 114.22618534710257,
      "volume": 320.34769524702295
    },
    "properties": {},
    "sites": [
      {
        "species": [{ "element": "Pa", "occu": 1 }],
        "abc": [0.12498694, 0.87491598, 0.24992903],
        "properties": { "magmom": 1.087 },
        "label": "Pa",
        "xyz": [-2.5392827194138943, 5.232936741397635, -0.30416635930912284]
      },
      {
        "species": [{ "element": "Pa", "occu": 1 }],
        "abc": [0.87501306, 0.12508402, 0.75007097],
        "properties": { "magmom": 1.087 },
        "label": "Pa",
        "xyz": [5.750881269413894, 0.7558309486023641, 3.4264272093091224]
      },
      {
        "species": [{ "element": "Br", "occu": 1 }],
        "abc": [0.36375406, 0.80177964, 0.5616985800000001],
        "properties": { "magmom": -0.022 },
        "label": "Br",
        "xyz": [-0.5523881429020527, 4.7910068606637175, 1.6647727472860998]
      },
      {
        "species": [{ "element": "Br", "occu": 1 }],
        "abc": [0.80195635, 0.74000721, 0.43805086],
        "properties": { "magmom": -0.022 },
        "label": "Br",
        "xyz": [2.8269538971884147, 4.451338297268225, -0.08319148676847599]
      },
      {
        "species": [{ "element": "Br", "occu": 1 }],
        "abc": [0.80185709, 0.3636616, 0.06180351],
        "properties": { "magmom": -0.022 },
        "label": "Br",
        "xyz": [4.309516990123777, 2.217758520034635, -2.0795154182016002]
      },
      {
        "species": [{ "element": "Br", "occu": 1 }],
        "abc": [0.7400810600000001, 0.80177964, 0.93802558],
        "properties": { "magmom": -0.022 },
        "label": "Br",
        "xyz": [2.130408925699388, 4.7910068606637175, 3.65715048707938]
      },
      {
        "species": [{ "element": "Br", "occu": 1 }],
        "abc": [0.19814291, 0.6363384, 0.93819649],
        "properties": { "magmom": -0.022 },
        "label": "Br",
        "xyz": [-1.0979184401237767, 3.7710091699653643, 5.2017762682016]
      },
      {
        "species": [{ "element": "Br", "occu": 1 }],
        "abc": [0.25991894, 0.19822036, 0.06197442],
        "properties": { "magmom": -0.022 },
        "label": "Br",
        "xyz": [1.0811896243006127, 1.1977608293362823, -0.5348896370793801]
      },
      {
        "species": [{ "element": "Br", "occu": 1 }],
        "abc": [0.63624594, 0.19822036, 0.43830142],
        "properties": { "magmom": -0.022 },
        "label": "Br",
        "xyz": [3.7639866929020527, 1.1977608293362823, 1.4574881027138997]
      },
      {
        "species": [{ "element": "Br", "occu": 1 }],
        "abc": [0.19804365000000002, 0.25999279000000003, 0.56194914],
        "properties": { "magmom": -0.022 },
        "label": "Br",
        "xyz": [0.38464465281158483, 1.5374293927317746, 3.2054523367684755]
      }
    ]
  },
  "task_ids": null,
  "uncorrected_energy_per_atom": null,
  "energy_per_atom": -5.076170654000004,
  "formation_energy_per_atom": -1.857753990000003,
  "energy_above_hull": 0.0,
  "is_stable": true,
  "equilibrium_reaction_energy_per_atom": null,
  "decomposes_to": null,
  "xas": null,
  "grain_boundaries": null,
  "band_gap": 0.182199999999999,
  "cbm": null,
  "vbm": null,
  "efermi": 3.33344563,
  "is_gap_direct": null,
  "is_metal": null,
  "es_source_calc_id": null,
  "bandstructure": null,
  "dos": null,
  "dos_energy_up": null,
  "dos_energy_down": null,
  "is_magnetic": null,
  "ordering": null,
  "total_magnetization": 2.0,
  "total_magnetization_normalized_vol": null,
  "total_magnetization_normalized_formula_units": null,
  "num_magnetic_sites": null,
  "num_unique_magnetic_sites": null,
  "types_of_magnetic_species": null,
  "bulk_modulus": null,
  "shear_modulus": null,
  "universal_anisotropy": null,
  "homogeneous_poisson": null,
  "e_total": null,
  "e_ionic": null,
  "e_electronic": null,
  "n": null,
  "e_ij_max": null,
  "weighted_surface_energy_EV_PER_ANG2": null,
  "weighted_surface_energy": null,
  "weighted_work_function": null,
  "surface_anisotropy": null,
  "shape_factor": null,
  "has_reconstructed": null,
  "possible_species": null,
  "has_props": null,
  "theoretical": null,
  "database_IDs": null,
  "fields_not_requested": [
    "builder_meta",
    "nsites",
    "elements",
    "nelements",
    "composition",
    "composition_reduced",
    "chemsys",
    "symmetry",
    "property_name",
    "deprecated",
    "deprecation_reasons",
    "last_updated",
    "origins",
    "warnings",
    "task_ids",
    "uncorrected_energy_per_atom",
    "equilibrium_reaction_energy_per_atom",
    "decomposes_to",
    "xas",
    "grain_boundaries",
    "cbm",
    "vbm",
    "is_gap_direct",
    "is_metal",
    "es_source_calc_id",
    "bandstructure",
    "dos",
    "dos_energy_up",
    "dos_energy_down",
    "is_magnetic",
    "ordering",
    "total_magnetization_normalized_vol",
    "total_magnetization_normalized_formula_units",
    "num_magnetic_sites",
    "num_unique_magnetic_sites",
    "types_of_magnetic_species",
    "bulk_modulus",
    "shear_modulus",
    "universal_anisotropy",
    "homogeneous_poisson",
    "e_total",
    "e_ionic",
    "e_electronic",
    "n",
    "e_ij_max",
    "weighted_surface_energy_EV_PER_ANG2",
    "weighted_surface_energy",
    "weighted_work_function",
    "surface_anisotropy",
    "shape_factor",
    "has_reconstructed",
    "possible_species",
    "has_props",
    "theoretical",
    "database_IDs"
  ]
}
