{
  "builder_meta": null,
  "nsites": null,
  "elements": null,
  "nelements": null,
  "composition": null,
  "composition_reduced": null,
  "formula_pretty": "PaCl5",
  "formula_anonymous": "AB5",
  "chemsys": null,
  "volume": 384.87975068444695,
  "density": 3.523176061933344,
  "density_atomic": 32.07331255703725,
  "symmetry": null,
  "property_name": null,
  "material_id": "mp-27436",
  "deprecated": null,
  "deprecation_reasons": null,
  "last_updated": null,
  "origins": null,
  "warnings": null,
  "structure": {
    "@module": "pymatgen.core.structure",
    "@class": "Structure",
    "charge": 0,
    "lattice": {
      "matrix": [
        [7.0138989, 0.00034837000000000003, -1.12102175],
        [-2.60495435, 6.51221797, -1.12102175],
        [-0.05831626, -0.08614043, 8.45578214]
      ],
      "pbc": [true, true, true],
      "a": 7.102919657771439,
      "b": 7.102919105434603,
      "c": 8.45642197143709,
      "alpha": 99.47537603348196,
      "beta": 99.47537557958736,
      "gamma": 109.70600587693802,
      "volume": 384.87975068444695
    },
    "properties": {},
    "sites": [
      {
        "species": [{ "element": "Pa", "occu": 1 }],
        "abc": [0.07060763, 0.92939237, 0.25],
        "properties": { "magmom": 0.0 },
        "label": "Pa",
        "xyz": [-1.9403689836997022, 6.030895183174952, 0.9929237850000003]
      },
      {
        "species": [{ "element": "Pa", "occu": 1 }],
        "abc": [0.92939237, 0.07060763, 0.75],
        "properties": { "magmom": 0.0 },
        "label": "Pa",
        "xyz": [6.290997273699702, 0.39553072682504803, 5.220814855]
      },
      {
        "species": [{ "element": "Cl", "occu": 1 }],
        "abc": [0.12714166, 0.87243763, 0.93565105],
        "properties": { "magmom": -0.0 },
        "label": "Cl",
        "xyz": [-1.4354651200550894, 5.600950920353354, 6.791111312922689]
      },
      {
        "species": [{ "element": "Cl", "occu": 1 }],
        "abc": [0.12756237, 0.8728583400000001, 0.56434895],
        "properties": { "magmom": -0.0 },
        "label": "Cl",
        "xyz": [-1.4119572831913132, 5.635674944692159, 3.6505183970773105]
      },
      {
        "species": [{ "element": "Cl", "occu": 1 }],
        "abc": [0.713954299999999, 0.2860457, 0.75],
        "properties": { "magmom": -0.0 },
        "label": "Cl",
        "xyz": [4.218730093906468, 1.79843534554072, 5.220814855000001]
      },
      {
        "species": [{ "element": "Cl", "occu": 1 }],
        "abc": [0.2860457, 0.713954299999999, 0.25],
        "properties": { "magmom": -0.0 },
        "label": "Cl",
        "xyz": [0.13189819609352765, 4.627990564459274, 0.9929237850000012]
      },
      {
        "species": [{ "element": "Cl", "occu": 1 }],
        "abc": [0.62054725, 0.74651113, 0.66220712],
        "properties": { "magmom": -0.0 },
        "label": "Cl",
        "xyz": [2.369210816172338, 4.804616569570627, 4.0669769607770725]
      },
      {
        "species": [{ "element": "Cl", "occu": 1 }],
        "abc": [0.25348887000000003, 0.37945275, 0.83779288],
        "properties": { "magmom": -0.0 },
        "label": "Cl",
        "xyz": [0.740631267307052, 2.398999486299421, 6.3746527492229275]
      },
      {
        "species": [{ "element": "Cl", "occu": 1 }],
        "abc": [0.37945275, 0.25348887000000003, 0.33779288],
        "properties": { "magmom": -0.0 },
        "label": "Cl",
        "xyz": [1.9814174738276618, 1.6218093404293732, 2.1467616792229283]
      },
      {
        "species": [{ "element": "Cl", "occu": 1 }],
        "abc": [0.74651113, 0.62054725, 0.16220712],
        "properties": { "magmom": -0.0 },
        "label": "Cl",
        "xyz": [3.609997022692948, 4.027426423700579, -0.16091410922292804]
      },
      {
        "species": [{ "element": "Cl", "occu": 1 }],
        "abc": [0.87243763, 0.12714166, 0.43565105],
        "properties": { "magmom": -0.0 },
        "label": "Cl",
        "xyz": [5.762585573191313, 0.7907509653078417, 2.5632202429226894]
      },
      {
        "species": [{ "element": "Cl", "occu": 1 }],
        "abc": [0.8728583400000001, 0.12756237, 0.06434895],
        "properties": { "magmom": -0.0 },
        "label": "Cl",
        "xyz": [5.7860934100550905, 0.8254749896466463, -0.5773726729226896]
      }
    ]
  },
  "task_ids": null,
  "uncorrected_energy_per_atom": null,
  "energy_per_atom": -19.955721229166667,
  "formation_energy_per_atom": -2.01935245125,
  "energy_above_hull": 0.0,
  "is_stable": true,
  "equilibrium_reaction_energy_per_atom": null,
  "decomposes_to": null,
  "xas": null,
  "grain_boundaries": null,
  "band_gap": 2.4189,
  "cbm": null,
  "vbm": null,
  "efermi": -1.28772042,
  "is_gap_direct": null,
  "is_metal": null,
  "es_source_calc_id": null,
  "bandstructure": null,
  "dos": null,
  "dos_energy_up": null,
  "dos_energy_down": null,
  "is_magnetic": null,
  "ordering": null,
  "total_magnetization": 0.0,
  "total_magnetization_normalized_vol": null,
  "total_magnetization_normalized_formula_units": null,
  "num_magnetic_sites": null,
  "num_unique_magnetic_sites": null,
  "types_of_magnetic_species": null,
  "bulk_modulus": null,
  "shear_modulus": null,
  "universal_anisotropy": null,
  "homogeneous_poisson": null,
  "e_total": null,
  "e_ionic": null,
  "e_electronic": null,
  "n": null,
  "e_ij_max": null,
  "weighted_surface_energy_EV_PER_ANG2": null,
  "weighted_surface_energy": null,
  "weighted_work_function": null,
  "surface_anisotropy": null,
  "shape_factor": null,
  "has_reconstructed": null,
  "possible_species": null,
  "has_props": null,
  "theoretical": null,
  "database_IDs": null,
  "fields_not_requested": [
    "builder_meta",
    "nsites",
    "elements",
    "nelements",
    "composition",
    "composition_reduced",
    "chemsys",
    "symmetry",
    "property_name",
    "deprecated",
    "deprecation_reasons",
    "last_updated",
    "origins",
    "warnings",
    "task_ids",
    "uncorrected_energy_per_atom",
    "equilibrium_reaction_energy_per_atom",
    "decomposes_to",
    "xas",
    "grain_boundaries",
    "cbm",
    "vbm",
    "is_gap_direct",
    "is_metal",
    "es_source_calc_id",
    "bandstructure",
    "dos",
    "dos_energy_up",
    "dos_energy_down",
    "is_magnetic",
    "ordering",
    "total_magnetization_normalized_vol",
    "total_magnetization_normalized_formula_units",
    "num_magnetic_sites",
    "num_unique_magnetic_sites",
    "types_of_magnetic_species",
    "bulk_modulus",
    "shear_modulus",
    "universal_anisotropy",
    "homogeneous_poisson",
    "e_total",
    "e_ionic",
    "e_electronic",
    "n",
    "e_ij_max",
    "weighted_surface_energy_EV_PER_ANG2",
    "weighted_surface_energy",
    "weighted_work_function",
    "surface_anisotropy",
    "shape_factor",
    "has_reconstructed",
    "possible_species",
    "has_props",
    "theoretical",
    "database_IDs"
  ]
}
