{
  "builder_meta": null,
  "nsites": null,
  "elements": null,
  "nelements": null,
  "composition": null,
  "composition_reduced": null,
  "formula_pretty": "PaCl4",
  "formula_anonymous": "AB4",
  "chemsys": null,
  "volume": 269.726621527206,
  "density": 4.590785048457223,
  "density_atomic": 26.972662152720602,
  "symmetry": null,
  "property_name": null,
  "material_id": "mp-27291",
  "deprecated": null,
  "deprecation_reasons": null,
  "last_updated": null,
  "origins": null,
  "warnings": null,
  "structure": {
    "@module": "pymatgen.core.structure",
    "@class": "Structure",
    "charge": 0,
    "lattice": {
      "matrix": [
        [6.76457554, 0.06220391, -2.03661732],
        [-3.736952999999999, 5.64319503, -2.02256232],
        [-0.02365157, -0.06220386, 7.06446983]
      ],
      "pbc": [true, true, true],
      "a": 7.0647832005596305,
      "b": 7.064079997360553,
      "c": 7.064783273104887,
      "alpha": 106.95176317751235,
      "beta": 106.95063637753208,
      "gamma": 114.6425552904243,
      "volume": 269.726621527206
    },
    "properties": {},
    "sites": [
      {
        "species": [{ "element": "Pa", "occu": 1 }],
        "abc": [0.87499576, 0.12500798, 0.75001122],
        "properties": { "magmom": 1.067 },
        "label": "Pa",
        "xyz": [5.434087026944154, 0.7132189760244518, 3.2635636860616155]
      },
      {
        "species": [{ "element": "Pa", "occu": 1 }],
        "abc": [0.12500424000000002, 0.87499202, 0.24998878],
        "properties": { "magmom": 1.067 },
        "label": "Pa",
        "xyz": [-2.430116056944154, 4.929976103975549, -0.25827349606161576]
      },
      {
        "species": [{ "element": "Cl", "occu": 1 }],
        "abc": [0.19666476, 0.25875567, 0.56209191],
        "properties": { "magmom": -0.019 },
        "label": "Cl",
        "xyz": [0.350101491646662, 1.4374777414827593, 3.047001015204078]
      },
      {
        "species": [{ "element": "Cl", "occu": 1 }],
        "abc": [0.63475392, 0.19705802, 0.43831638],
        "properties": { "magmom": -0.019 },
        "label": "Cl",
        "xyz": [3.5470774115943406, 1.124256044060241, 1.405159888989115]
      },
      {
        "species": [{ "element": "Cl", "occu": 1 }],
        "abc": [0.36524608000000003, 0.80294198, 0.56168362],
        "properties": { "magmom": -0.019 },
        "label": "Cl",
        "xyz": [-0.5431064415943394, 4.518939035939759, 1.6001303010108856]
      },
      {
        "species": [{ "element": "Cl", "occu": 1 }],
        "abc": [0.80333524, 0.74124433, 0.43790809],
        "properties": { "magmom": -0.019 },
        "label": "Cl",
        "xyz": [2.6538694783533394, 4.205717338517241, -0.041710825204077207]
      },
      {
        "species": [{ "element": "Cl", "occu": 1 }],
        "abc": [0.80316172, 0.36502927, 0.06186755],
        "properties": { "magmom": -0.019 },
        "label": "Cl",
        "xyz": [4.067487635472466, 2.10604276119611, -1.9369660764810805]
      },
      {
        "species": [{ "element": "Cl", "occu": 1 }],
        "abc": [0.74125837, 0.80294198, 0.9376949],
        "properties": { "magmom": -0.019 },
        "label": "Cl",
        "xyz": [1.9915638409693381, 4.518939117566273, 3.4906575019637054]
      },
      {
        "species": [{ "element": "Cl", "occu": 1 }],
        "abc": [0.19683828, 0.63497073, 0.93813245],
        "properties": { "magmom": -0.019 },
        "label": "Cl",
        "xyz": [-1.0635166654724646, 3.53715231880389, 4.942256266481081]
      },
      {
        "species": [{ "element": "Cl", "occu": 1 }],
        "abc": [0.25874163, 0.19705802, 0.062305099999999],
        "properties": { "magmom": -0.019 },
        "label": "Cl",
        "xyz": [1.0124071290306635, 1.1242559624337278, -0.4853673119637119]
      }
    ]
  },
  "task_ids": null,
  "uncorrected_energy_per_atom": null,
  "energy_per_atom": -22.443008409,
  "formation_energy_per_atom": -2.149853655000001,
  "energy_above_hull": 0.0,
  "is_stable": true,
  "equilibrium_reaction_energy_per_atom": null,
  "decomposes_to": null,
  "xas": null,
  "grain_boundaries": null,
  "band_gap": 0.155399999999999,
  "cbm": null,
  "vbm": null,
  "efermi": 4.10147739,
  "is_gap_direct": null,
  "is_metal": null,
  "es_source_calc_id": null,
  "bandstructure": null,
  "dos": null,
  "dos_energy_up": null,
  "dos_energy_down": null,
  "is_magnetic": null,
  "ordering": null,
  "total_magnetization": 1.9999999,
  "total_magnetization_normalized_vol": null,
  "total_magnetization_normalized_formula_units": null,
  "num_magnetic_sites": null,
  "num_unique_magnetic_sites": null,
  "types_of_magnetic_species": null,
  "bulk_modulus": null,
  "shear_modulus": null,
  "universal_anisotropy": null,
  "homogeneous_poisson": null,
  "e_total": null,
  "e_ionic": null,
  "e_electronic": null,
  "n": null,
  "e_ij_max": null,
  "weighted_surface_energy_EV_PER_ANG2": null,
  "weighted_surface_energy": null,
  "weighted_work_function": null,
  "surface_anisotropy": null,
  "shape_factor": null,
  "has_reconstructed": null,
  "possible_species": null,
  "has_props": null,
  "theoretical": null,
  "database_IDs": null,
  "fields_not_requested": [
    "builder_meta",
    "nsites",
    "elements",
    "nelements",
    "composition",
    "composition_reduced",
    "chemsys",
    "symmetry",
    "property_name",
    "deprecated",
    "deprecation_reasons",
    "last_updated",
    "origins",
    "warnings",
    "task_ids",
    "uncorrected_energy_per_atom",
    "equilibrium_reaction_energy_per_atom",
    "decomposes_to",
    "xas",
    "grain_boundaries",
    "cbm",
    "vbm",
    "is_gap_direct",
    "is_metal",
    "es_source_calc_id",
    "bandstructure",
    "dos",
    "dos_energy_up",
    "dos_energy_down",
    "is_magnetic",
    "ordering",
    "total_magnetization_normalized_vol",
    "total_magnetization_normalized_formula_units",
    "num_magnetic_sites",
    "num_unique_magnetic_sites",
    "types_of_magnetic_species",
    "bulk_modulus",
    "shear_modulus",
    "universal_anisotropy",
    "homogeneous_poisson",
    "e_total",
    "e_ionic",
    "e_electronic",
    "n",
    "e_ij_max",
    "weighted_surface_energy_EV_PER_ANG2",
    "weighted_surface_energy",
    "weighted_work_function",
    "surface_anisotropy",
    "shape_factor",
    "has_reconstructed",
    "possible_species",
    "has_props",
    "theoretical",
    "database_IDs"
  ]
}
