{
  "builder_meta": null,
  "nsites": null,
  "elements": null,
  "nelements": null,
  "composition": null,
  "composition_reduced": null,
  "formula_pretty": "PaFe3",
  "formula_anonymous": "AB3",
  "chemsys": null,
  "volume": 118.51285778639638,
  "density": 11.169125939769732,
  "density_atomic": 14.814107223299548,
  "symmetry": null,
  "property_name": null,
  "material_id": "mp-1186420",
  "deprecated": null,
  "deprecation_reasons": null,
  "last_updated": null,
  "origins": null,
  "warnings": null,
  "structure": {
    "@module": "pymatgen.core.structure",
    "@class": "Structure",
    "charge": 0,
    "lattice": {
      "matrix": [
        [2.65172066, -4.59259172, 0.0],
        [2.65148598, 4.59245608, 0.0],
        [0.0, 0.0, 4.866038]
      ],
      "pbc": [true, true, true],
      "a": 5.303161431192096,
      "b": 5.302926621108907,
      "c": 4.866038,
      "alpha": 90.0,
      "beta": 90.0,
      "gamma": 119.99797128640819,
      "volume": 118.51285778639638
    },
    "properties": {},
    "sites": [
      {
        "species": [{ "element": "Pa", "occu": 1 }],
        "abc": [0.66667328, 0.33332597, 0.25],
        "properties": { "magmom": 1.155 },
        "label": "Pa",
        "xyz": [2.6516404462708656, -1.5309733081248438, 1.2165095]
      },
      {
        "species": [{ "element": "Pa", "occu": 1 }],
        "abc": [0.33333058, 0.66666099, 0.75],
        "properties": { "magmom": 1.155 },
        "label": "Pa",
        "xyz": [2.6515418539937032, 1.5307600550935219, 3.6495284999999997]
      },
      {
        "species": [{ "element": "Fe", "occu": 1 }],
        "abc": [0.84256386, 0.15744225, 0.75],
        "properties": { "magmom": -2.246 },
        "label": "Fe",
        "xyz": [2.6516999134660026, -3.1465051887458593, 3.6495284999999997]
      },
      {
        "species": [{ "element": "Fe", "occu": 1 }],
        "abc": [0.31487945, 0.15745681, 0.75],
        "properties": { "magmom": -2.246 },
        "label": "Fe",
        "xyz": [1.2524668671449608, -0.722999270446249, 3.6495284999999997]
      },
      {
        "species": [{ "element": "Fe", "occu": 1 }],
        "abc": [0.84254997, 0.68512593, 0.75],
        "properties": { "magmom": -2.246 },
        "label": "Fe",
        "xyz": [4.0508089604608415, -0.723077273114094, 3.6495284999999997]
      },
      {
        "species": [{ "element": "Fe", "occu": 1 }],
        "abc": [0.15744717, 0.842554199999999, 0.25],
        "properties": { "magmom": -2.246 },
        "label": "Fe",
        "xyz": [2.6515265622376454, 3.146302589240099, 1.2165095]
      },
      {
        "species": [{ "element": "Fe", "occu": 1 }],
        "abc": [0.68511496, 0.8425573, 0.25],
        "properties": { "magmom": -2.246 },
        "label": "Fe",
        "xyz": [4.050762362203727, 0.7229541025892523, 1.2165095]
      },
      {
        "species": [{ "element": "Fe", "occu": 1 }],
        "abc": [0.15744073, 0.31487555, 0.25],
        "properties": { "magmom": -2.246 },
        "label": "Fe",
        "xyz": [1.2523769427362708, 0.7229911410520883, 1.2165095]
      }
    ]
  },
  "task_ids": null,
  "uncorrected_energy_per_atom": null,
  "energy_per_atom": -8.772664132500001,
  "formation_energy_per_atom": -0.034073929999999,
  "energy_above_hull": 0.0,
  "is_stable": true,
  "equilibrium_reaction_energy_per_atom": null,
  "decomposes_to": null,
  "xas": null,
  "grain_boundaries": null,
  "band_gap": 0.0,
  "cbm": null,
  "vbm": null,
  "efermi": 8.38680379,
  "is_gap_direct": null,
  "is_metal": null,
  "es_source_calc_id": null,
  "bandstructure": null,
  "dos": null,
  "dos_energy_up": null,
  "dos_energy_down": null,
  "is_magnetic": null,
  "ordering": null,
  "total_magnetization": 10.5838718,
  "total_magnetization_normalized_vol": null,
  "total_magnetization_normalized_formula_units": null,
  "num_magnetic_sites": null,
  "num_unique_magnetic_sites": null,
  "types_of_magnetic_species": null,
  "bulk_modulus": null,
  "shear_modulus": null,
  "universal_anisotropy": null,
  "homogeneous_poisson": null,
  "e_total": null,
  "e_ionic": null,
  "e_electronic": null,
  "n": null,
  "e_ij_max": null,
  "weighted_surface_energy_EV_PER_ANG2": null,
  "weighted_surface_energy": null,
  "weighted_work_function": null,
  "surface_anisotropy": null,
  "shape_factor": null,
  "has_reconstructed": null,
  "possible_species": null,
  "has_props": null,
  "theoretical": null,
  "database_IDs": null,
  "fields_not_requested": [
    "builder_meta",
    "nsites",
    "elements",
    "nelements",
    "composition",
    "composition_reduced",
    "chemsys",
    "symmetry",
    "property_name",
    "deprecated",
    "deprecation_reasons",
    "last_updated",
    "origins",
    "warnings",
    "task_ids",
    "uncorrected_energy_per_atom",
    "equilibrium_reaction_energy_per_atom",
    "decomposes_to",
    "xas",
    "grain_boundaries",
    "cbm",
    "vbm",
    "is_gap_direct",
    "is_metal",
    "es_source_calc_id",
    "bandstructure",
    "dos",
    "dos_energy_up",
    "dos_energy_down",
    "is_magnetic",
    "ordering",
    "total_magnetization_normalized_vol",
    "total_magnetization_normalized_formula_units",
    "num_magnetic_sites",
    "num_unique_magnetic_sites",
    "types_of_magnetic_species",
    "bulk_modulus",
    "shear_modulus",
    "universal_anisotropy",
    "homogeneous_poisson",
    "e_total",
    "e_ionic",
    "e_electronic",
    "n",
    "e_ij_max",
    "weighted_surface_energy_EV_PER_ANG2",
    "weighted_surface_energy",
    "weighted_work_function",
    "surface_anisotropy",
    "shape_factor",
    "has_reconstructed",
    "possible_species",
    "has_props",
    "theoretical",
    "database_IDs"
  ]
}
