{
  "builder_meta": null,
  "nsites": null,
  "elements": null,
  "nelements": null,
  "composition": null,
  "composition_reduced": null,
  "formula_pretty": "PaH3",
  "formula_anonymous": "AB3",
  "chemsys": null,
  "volume": 302.60101048900736,
  "density": 10.275319970375183,
  "density_atomic": 9.45628157778148,
  "symmetry": null,
  "property_name": null,
  "material_id": "mp-505570",
  "deprecated": null,
  "deprecation_reasons": null,
  "last_updated": null,
  "origins": null,
  "warnings": null,
  "structure": {
    "@module": "pymatgen.core.structure",
    "@class": "Structure",
    "charge": 0,
    "lattice": {
      "matrix": [
        [6.70599047, 0.0, 0.0],
        [-0.0, 6.71743547, 0.0],
        [0.0, 0.0, 6.71744221]
      ],
      "pbc": [true, true, true],
      "a": 6.70599047,
      "b": 6.71743547,
      "c": 6.71744221,
      "alpha": 90.0,
      "beta": 90.0,
      "gamma": 90.0,
      "volume": 302.60101048900736
    },
    "properties": {},
    "sites": [
      {
        "species": [{ "element": "Pa", "occu": 1 }],
        "abc": [-0.0, 0.0, -0.0],
        "properties": { "magmom": 1.206 },
        "label": "Pa",
        "xyz": [0.0, 0.0, 0.0]
      },
      {
        "species": [{ "element": "Pa", "occu": 1 }],
        "abc": [0.5, 0.5, 0.5],
        "properties": { "magmom": 1.206 },
        "label": "Pa",
        "xyz": [3.352995235, 3.358717735, 3.358721105]
      },
      {
        "species": [{ "element": "Pa", "occu": 1 }],
        "abc": [0.25001683, 0.0, 0.5],
        "properties": { "magmom": 1.45 },
        "label": "Pa",
        "xyz": [1.6766104793196102, 0.0, 3.358721105]
      },
      {
        "species": [{ "element": "Pa", "occu": 1 }],
        "abc": [0.74998317, 0.0, 0.5],
        "properties": { "magmom": 1.45 },
        "label": "Pa",
        "xyz": [5.02937999068039, 0.0, 3.358721105]
      },
      {
        "species": [{ "element": "Pa", "occu": 1 }],
        "abc": [-0.0, 0.5, 0.24904309],
        "properties": { "magmom": 1.459 },
        "label": "Pa",
        "xyz": [0.0, 3.358717735, 1.6729325648748288]
      },
      {
        "species": [{ "element": "Pa", "occu": 1 }],
        "abc": [-0.0, 0.5, 0.75095691],
        "properties": { "magmom": 1.459 },
        "label": "Pa",
        "xyz": [0.0, 3.358717735, 5.044509645125171]
      },
      {
        "species": [{ "element": "Pa", "occu": 1 }],
        "abc": [0.5, 0.7490475, -0.0],
        "properties": { "magmom": 1.458 },
        "label": "Pa",
        "xyz": [3.352995235, 5.031678245214825, 0.0]
      },
      {
        "species": [{ "element": "Pa", "occu": 1 }],
        "abc": [0.5, 0.250952499999999, -0.0],
        "properties": { "magmom": 1.458 },
        "label": "Pa",
        "xyz": [3.352995235, 1.6857572247851684, 0.0]
      },
      {
        "species": [{ "element": "H", "occu": 1 }],
        "abc": [-0.0, 0.15497051, 0.30351168],
        "properties": { "magmom": -0.009000000000000001 },
        "label": "H",
        "xyz": [0.0, 1.0410044006779897, 2.038822170460013]
      },
      {
        "species": [{ "element": "H", "occu": 1 }],
        "abc": [0.5, 0.19648381, 0.6549692300000001],
        "properties": { "magmom": -0.009000000000000001 },
        "label": "H",
        "xyz": [3.352995235, 1.3198673145747408, 4.399717951853199]
      },
      {
        "species": [{ "element": "H", "occu": 1 }],
        "abc": [0.5, 0.80351619, 0.34503077],
        "properties": { "magmom": -0.009000000000000001 },
        "label": "H",
        "xyz": [3.352995235, 5.397568155425259, 2.3177242581468014]
      },
      {
        "species": [{ "element": "H", "occu": 1 }],
        "abc": [0.80375617, 0.6546424, 0.5],
        "properties": { "magmom": -0.009000000000000001 },
        "label": "H",
        "xyz": [5.3899812162237, 4.397518077925928, 3.358721105]
      },
      {
        "species": [{ "element": "H", "occu": 1 }],
        "abc": [0.19624383, 0.6546424, 0.5],
        "properties": { "magmom": -0.009000000000000001 },
        "label": "H",
        "xyz": [1.3160092537763002, 4.397518077925928, 3.358721105]
      },
      {
        "species": [{ "element": "H", "occu": 1 }],
        "abc": [0.34562684, 0.5, 0.80363321],
        "properties": { "magmom": -0.009000000000000001 },
        "label": "H",
        "xyz": [2.3177702952162145, 3.358717735, 5.3983596462117935]
      },
      {
        "species": [{ "element": "H", "occu": 1 }],
        "abc": [0.65437316, 0.5, 0.80363321],
        "properties": { "magmom": -0.009000000000000001 },
        "label": "H",
        "xyz": [4.388220174783785, 3.358717735, 5.3983596462117935]
      },
      {
        "species": [{ "element": "H", "occu": 1 }],
        "abc": [0.30375007, 0.0, 0.15463458],
        "properties": { "magmom": -0.009000000000000001 },
        "label": "H",
        "xyz": [2.0369450746818325, 0.0, 1.0387488548176218]
      },
      {
        "species": [{ "element": "H", "occu": 1 }],
        "abc": [0.15438315, 0.30359982, -0.0],
        "properties": { "magmom": -0.009000000000000001 },
        "label": "H",
        "xyz": [1.0352919326285803, 2.0394121995536154, 0.0]
      },
      {
        "species": [{ "element": "H", "occu": 1 }],
        "abc": [0.84561685, 0.69640018, -0.0],
        "properties": { "magmom": -0.009000000000000001 },
        "label": "H",
        "xyz": [5.670698537371419, 4.678023270446385, 0.0]
      },
      {
        "species": [{ "element": "H", "occu": 1 }],
        "abc": [0.30375007, 0.0, 0.84536542],
        "properties": { "magmom": -0.009000000000000001 },
        "label": "H",
        "xyz": [2.0369450746818325, 0.0, 5.678693355182379]
      },
      {
        "species": [{ "element": "H", "occu": 1 }],
        "abc": [0.84561685, 0.30359982, -0.0],
        "properties": { "magmom": -0.009000000000000001 },
        "label": "H",
        "xyz": [5.670698537371419, 2.0394121995536154, 0.0]
      },
      {
        "species": [{ "element": "H", "occu": 1 }],
        "abc": [0.69624993, 0.0, 0.15463458],
        "properties": { "magmom": -0.009000000000000001 },
        "label": "H",
        "xyz": [4.669045395318167, 0.0, 1.0387488548176218]
      },
      {
        "species": [{ "element": "H", "occu": 1 }],
        "abc": [0.69624993, 0.0, 0.84536542],
        "properties": { "magmom": -0.009000000000000001 },
        "label": "H",
        "xyz": [4.669045395318167, 0.0, 5.678693355182379]
      },
      {
        "species": [{ "element": "H", "occu": 1 }],
        "abc": [0.15438315, 0.69640018, -0.0],
        "properties": { "magmom": -0.009000000000000001 },
        "label": "H",
        "xyz": [1.0352919326285803, 4.678023270446385, 0.0]
      },
      {
        "species": [{ "element": "H", "occu": 1 }],
        "abc": [-0.0, 0.84502949, 0.69648832],
        "properties": { "magmom": -0.009000000000000001 },
        "label": "H",
        "xyz": [0.0, 5.67643106932201, 4.678620039539988]
      },
      {
        "species": [{ "element": "H", "occu": 1 }],
        "abc": [-0.0, 0.15497051, 0.69648832],
        "properties": { "magmom": -0.009000000000000001 },
        "label": "H",
        "xyz": [0.0, 1.0410044006779897, 4.678620039539988]
      },
      {
        "species": [{ "element": "H", "occu": 1 }],
        "abc": [-0.0, 0.84502949, 0.30351168],
        "properties": { "magmom": -0.009000000000000001 },
        "label": "H",
        "xyz": [0.0, 5.67643106932201, 2.038822170460013]
      },
      {
        "species": [{ "element": "H", "occu": 1 }],
        "abc": [0.65437316, 0.5, 0.19636779000000001],
        "properties": { "magmom": -0.009000000000000001 },
        "label": "H",
        "xyz": [4.388220174783785, 3.358717735, 1.319089281230416]
      },
      {
        "species": [{ "element": "H", "occu": 1 }],
        "abc": [0.34562684, 0.5, 0.19636779000000001],
        "properties": { "magmom": -0.009000000000000001 },
        "label": "H",
        "xyz": [2.3177702952162145, 3.358717735, 1.319089281230416]
      },
      {
        "species": [{ "element": "H", "occu": 1 }],
        "abc": [0.80375617, 0.3453576, 0.5],
        "properties": { "magmom": -0.009000000000000001 },
        "label": "H",
        "xyz": [5.3899812162237, 2.3199173920740717, 3.358721105]
      },
      {
        "species": [{ "element": "H", "occu": 1 }],
        "abc": [0.19624383, 0.3453576, 0.5],
        "properties": { "magmom": -0.009000000000000001 },
        "label": "H",
        "xyz": [1.3160092537763002, 2.3199173920740717, 3.358721105]
      },
      {
        "species": [{ "element": "H", "occu": 1 }],
        "abc": [0.5, 0.80351619, 0.6549692300000001],
        "properties": { "magmom": -0.009000000000000001 },
        "label": "H",
        "xyz": [3.352995235, 5.397568155425259, 4.399717951853199]
      },
      {
        "species": [{ "element": "H", "occu": 1 }],
        "abc": [0.5, 0.19648381, 0.34503077],
        "properties": { "magmom": -0.009000000000000001 },
        "label": "H",
        "xyz": [3.352995235, 1.3198673145747408, 2.3177242581468014]
      }
    ]
  },
  "task_ids": null,
  "uncorrected_energy_per_atom": null,
  "energy_per_atom": -22.228188734375,
  "formation_energy_per_atom": -0.42284988843749705,
  "energy_above_hull": 0.0,
  "is_stable": true,
  "equilibrium_reaction_energy_per_atom": null,
  "decomposes_to": null,
  "xas": null,
  "grain_boundaries": null,
  "band_gap": 0.0,
  "cbm": null,
  "vbm": null,
  "efermi": 9.51074047,
  "is_gap_direct": null,
  "is_metal": null,
  "es_source_calc_id": null,
  "bandstructure": null,
  "dos": null,
  "dos_energy_up": null,
  "dos_energy_down": null,
  "is_magnetic": null,
  "ordering": null,
  "total_magnetization": 13.2900679,
  "total_magnetization_normalized_vol": null,
  "total_magnetization_normalized_formula_units": null,
  "num_magnetic_sites": null,
  "num_unique_magnetic_sites": null,
  "types_of_magnetic_species": null,
  "bulk_modulus": null,
  "shear_modulus": null,
  "universal_anisotropy": null,
  "homogeneous_poisson": null,
  "e_total": null,
  "e_ionic": null,
  "e_electronic": null,
  "n": null,
  "e_ij_max": null,
  "weighted_surface_energy_EV_PER_ANG2": null,
  "weighted_surface_energy": null,
  "weighted_work_function": null,
  "surface_anisotropy": null,
  "shape_factor": null,
  "has_reconstructed": null,
  "possible_species": null,
  "has_props": null,
  "theoretical": null,
  "database_IDs": null,
  "fields_not_requested": [
    "builder_meta",
    "nsites",
    "elements",
    "nelements",
    "composition",
    "composition_reduced",
    "chemsys",
    "symmetry",
    "property_name",
    "deprecated",
    "deprecation_reasons",
    "last_updated",
    "origins",
    "warnings",
    "task_ids",
    "uncorrected_energy_per_atom",
    "equilibrium_reaction_energy_per_atom",
    "decomposes_to",
    "xas",
    "grain_boundaries",
    "cbm",
    "vbm",
    "is_gap_direct",
    "is_metal",
    "es_source_calc_id",
    "bandstructure",
    "dos",
    "dos_energy_up",
    "dos_energy_down",
    "is_magnetic",
    "ordering",
    "total_magnetization_normalized_vol",
    "total_magnetization_normalized_formula_units",
    "num_magnetic_sites",
    "num_unique_magnetic_sites",
    "types_of_magnetic_species",
    "bulk_modulus",
    "shear_modulus",
    "universal_anisotropy",
    "homogeneous_poisson",
    "e_total",
    "e_ionic",
    "e_electronic",
    "n",
    "e_ij_max",
    "weighted_surface_energy_EV_PER_ANG2",
    "weighted_surface_energy",
    "weighted_work_function",
    "surface_anisotropy",
    "shape_factor",
    "has_reconstructed",
    "possible_species",
    "has_props",
    "theoretical",
    "database_IDs"
  ]
}
