{
  "builder_meta": null,
  "nsites": null,
  "elements": null,
  "nelements": null,
  "composition": null,
  "composition_reduced": null,
  "formula_pretty": "PaI3",
  "formula_anonymous": "AB3",
  "chemsys": null,
  "volume": 446.3074094294473,
  "density": 4.552169977677221,
  "density_atomic": 55.788426178680915,
  "symmetry": null,
  "property_name": null,
  "material_id": "mp-862851",
  "deprecated": null,
  "deprecation_reasons": null,
  "last_updated": null,
  "origins": null,
  "warnings": null,
  "structure": {
    "@module": "pymatgen.core.structure",
    "@class": "Structure",
    "charge": 0,
    "lattice": {
      "matrix": [
        [11.37858076, -0.00732063, -0.00244968],
        [-5.69037465, 9.85975483, 0.00492548],
        [-0.00275765, -0.0022260500000000003, 3.97961579]
      ],
      "pbc": [true, true, true],
      "a": 11.378583378628374,
      "b": 11.383986701741362,
      "c": 3.979617368032943,
      "alpha": 89.98312225643225,
      "beta": 90.0520172436186,
      "gamma": 120.02746089761969,
      "volume": 446.3074094294473
    },
    "properties": {},
    "sites": [
      {
        "species": [{ "element": "Pa", "occu": 1 }],
        "abc": [0.66670691, 0.33335429, 0.25004221],
        "properties": { "magmom": 1.7810000000000001 },
        "label": "Pa",
        "xyz": [5.688578088499898, 3.281354249860597, 0.9950806383875163]
      },
      {
        "species": [{ "element": "Pa", "occu": 1 }],
        "abc": [0.33330124, 0.66666544, 0.75001472],
        "properties": { "magmom": 1.7810000000000001 },
        "label": "Pa",
        "xyz": [-0.0031493211515618456, 6.569048246710039, 2.987237588354237]
      },
      {
        "species": [{ "element": "I", "occu": 1 }],
        "abc": [0.7901300000000001, 0.211117199999999, 0.75043266],
        "properties": { "magmom": -0.028 },
        "label": "I",
        "xyz": [7.787152622214977, 2.0741090823913737, 2.9855379509555573]
      },
      {
        "species": [{ "element": "I", "occu": 1 }],
        "abc": [0.420910599999999, 0.20994375, 0.74967894],
        "properties": { "magmom": -0.028 },
        "label": "I",
        "xyz": [3.5926393097852167, 2.065243749520748, 2.9834371245176046]
      },
      {
        "species": [{ "element": "I", "occu": 1 }],
        "abc": [0.7890557300000001, 0.5790234, 0.75002094],
        "properties": { "magmom": -0.028 },
        "label": "I",
        "xyz": [5.681405975583755, 5.7015827956708245, 2.985714209790208]
      },
      {
        "species": [{ "element": "I", "occu": 1 }],
        "abc": [0.21061624, 0.78960273, 0.24958352],
        "properties": { "magmom": -0.028 },
        "label": "I",
        "xyz": [-2.0973097261491795, 7.783191901938959, 0.996619747179538]
      },
      {
        "species": [{ "element": "I", "occu": 1 }],
        "abc": [0.57906518, 0.789291099999999, 0.25047186],
        "properties": { "magmom": -0.028 },
        "label": "I",
        "xyz": [2.0968871352985983, 7.777420050688386, 0.999250882143755]
      },
      {
        "species": [{ "element": "I", "occu": 1 }],
        "abc": [0.2102171, 0.42100009, 0.24975815],
        "properties": { "magmom": -0.028 },
        "label": "I",
        "xyz": [-0.0043647358630696876, 4.148862775069354, 0.9955001403189537]
      }
    ]
  },
  "task_ids": null,
  "uncorrected_energy_per_atom": null,
  "energy_per_atom": -4.675139331250001,
  "formation_energy_per_atom": -1.146055575000001,
  "energy_above_hull": 0.0,
  "is_stable": true,
  "equilibrium_reaction_energy_per_atom": null,
  "decomposes_to": null,
  "xas": null,
  "grain_boundaries": null,
  "band_gap": 0.0,
  "cbm": null,
  "vbm": null,
  "efermi": 3.06064242,
  "is_gap_direct": null,
  "is_metal": null,
  "es_source_calc_id": null,
  "bandstructure": null,
  "dos": null,
  "dos_energy_up": null,
  "dos_energy_down": null,
  "is_magnetic": null,
  "ordering": null,
  "total_magnetization": 4.0000007,
  "total_magnetization_normalized_vol": null,
  "total_magnetization_normalized_formula_units": null,
  "num_magnetic_sites": null,
  "num_unique_magnetic_sites": null,
  "types_of_magnetic_species": null,
  "bulk_modulus": null,
  "shear_modulus": null,
  "universal_anisotropy": null,
  "homogeneous_poisson": null,
  "e_total": null,
  "e_ionic": null,
  "e_electronic": null,
  "n": null,
  "e_ij_max": null,
  "weighted_surface_energy_EV_PER_ANG2": null,
  "weighted_surface_energy": null,
  "weighted_work_function": null,
  "surface_anisotropy": null,
  "shape_factor": null,
  "has_reconstructed": null,
  "possible_species": null,
  "has_props": null,
  "theoretical": null,
  "database_IDs": null,
  "fields_not_requested": [
    "builder_meta",
    "nsites",
    "elements",
    "nelements",
    "composition",
    "composition_reduced",
    "chemsys",
    "symmetry",
    "property_name",
    "deprecated",
    "deprecation_reasons",
    "last_updated",
    "origins",
    "warnings",
    "task_ids",
    "uncorrected_energy_per_atom",
    "equilibrium_reaction_energy_per_atom",
    "decomposes_to",
    "xas",
    "grain_boundaries",
    "cbm",
    "vbm",
    "is_gap_direct",
    "is_metal",
    "es_source_calc_id",
    "bandstructure",
    "dos",
    "dos_energy_up",
    "dos_energy_down",
    "is_magnetic",
    "ordering",
    "total_magnetization_normalized_vol",
    "total_magnetization_normalized_formula_units",
    "num_magnetic_sites",
    "num_unique_magnetic_sites",
    "types_of_magnetic_species",
    "bulk_modulus",
    "shear_modulus",
    "universal_anisotropy",
    "homogeneous_poisson",
    "e_total",
    "e_ionic",
    "e_electronic",
    "n",
    "e_ij_max",
    "weighted_surface_energy_EV_PER_ANG2",
    "weighted_surface_energy",
    "weighted_work_function",
    "surface_anisotropy",
    "shape_factor",
    "has_reconstructed",
    "possible_species",
    "has_props",
    "theoretical",
    "database_IDs"
  ]
}
