{
  "builder_meta": null,
  "nsites": null,
  "elements": null,
  "nelements": null,
  "composition": null,
  "composition_reduced": null,
  "formula_pretty": "PaIn3",
  "formula_anonymous": "AB3",
  "chemsys": null,
  "volume": 99.99018816690305,
  "density": 9.557172015496407,
  "density_atomic": 24.997547041725763,
  "symmetry": null,
  "property_name": null,
  "material_id": "mp-861987",
  "deprecated": null,
  "deprecation_reasons": null,
  "last_updated": null,
  "origins": null,
  "warnings": null,
  "structure": {
    "@module": "pymatgen.core.structure",
    "@class": "Structure",
    "charge": 0,
    "lattice": {
      "matrix": [
        [4.6412449, -0.00025793, -1.5960000000000003e-5],
        [-0.00025785, 4.64111644, 7.521e-5],
        [-1.569e-5, 7.735000000000002e-5, 4.64194978]
      ],
      "pbc": [true, true, true],
      "a": 4.641244907194472,
      "b": 4.641116447772179,
      "c": 4.641949780670968,
      "alpha": 89.99811676812277,
      "beta": 90.00039074024394,
      "gamma": 90.00636735218572,
      "volume": 99.99018816690305
    },
    "properties": {},
    "sites": [
      {
        "species": [{ "element": "Pa", "occu": 1 }],
        "abc": [2.964e-5, 2.371e-5, 0.99998336],
        "properties": { "magmom": -1.13 },
        "label": "Pa",
        "xyz": [
          0.00012187064629410001, 0.00018738193864320003, 4.641872539265836
        ]
      },
      {
        "species": [{ "element": "In", "occu": 1 }],
        "abc": [0.99994712, 0.49998995, 0.49999146],
        "properties": { "magmom": -0.033 },
        "label": "In",
        "xyz": [4.640862703695073, 2.320292334758548, 2.320956892836983]
      },
      {
        "species": [{ "element": "In", "occu": 1 }],
        "abc": [0.5000101, 0.99995028, 0.5000081200000001],
        "properties": { "magmom": -0.033 },
        "label": "In",
        "xyz": [2.3204036442663893, 4.640795391713593, 2.3210798087315765]
      },
      {
        "species": [{ "element": "In", "occu": 1 }],
        "abc": [0.50001414, 0.50003706, 2.006e-5],
        "properties": { "magmom": -0.033 },
        "label": "In",
        "xyz": [2.3205591423322236, 2.3206012526797775, 0.000122745074195]
      }
    ]
  },
  "task_ids": null,
  "uncorrected_energy_per_atom": null,
  "energy_per_atom": -36.3995507025,
  "formation_energy_per_atom": -0.25160337250000003,
  "energy_above_hull": 0.0,
  "is_stable": true,
  "equilibrium_reaction_energy_per_atom": null,
  "decomposes_to": null,
  "xas": null,
  "grain_boundaries": null,
  "band_gap": 0.0,
  "cbm": null,
  "vbm": null,
  "efermi": 9.01775958,
  "is_gap_direct": null,
  "is_metal": null,
  "es_source_calc_id": null,
  "bandstructure": null,
  "dos": null,
  "dos_energy_up": null,
  "dos_energy_down": null,
  "is_magnetic": null,
  "ordering": null,
  "total_magnetization": 1.4106907,
  "total_magnetization_normalized_vol": null,
  "total_magnetization_normalized_formula_units": null,
  "num_magnetic_sites": null,
  "num_unique_magnetic_sites": null,
  "types_of_magnetic_species": null,
  "bulk_modulus": null,
  "shear_modulus": null,
  "universal_anisotropy": null,
  "homogeneous_poisson": null,
  "e_total": null,
  "e_ionic": null,
  "e_electronic": null,
  "n": null,
  "e_ij_max": null,
  "weighted_surface_energy_EV_PER_ANG2": null,
  "weighted_surface_energy": null,
  "weighted_work_function": null,
  "surface_anisotropy": null,
  "shape_factor": null,
  "has_reconstructed": null,
  "possible_species": null,
  "has_props": null,
  "theoretical": null,
  "database_IDs": null,
  "fields_not_requested": [
    "builder_meta",
    "nsites",
    "elements",
    "nelements",
    "composition",
    "composition_reduced",
    "chemsys",
    "symmetry",
    "property_name",
    "deprecated",
    "deprecation_reasons",
    "last_updated",
    "origins",
    "warnings",
    "task_ids",
    "uncorrected_energy_per_atom",
    "equilibrium_reaction_energy_per_atom",
    "decomposes_to",
    "xas",
    "grain_boundaries",
    "cbm",
    "vbm",
    "is_gap_direct",
    "is_metal",
    "es_source_calc_id",
    "bandstructure",
    "dos",
    "dos_energy_up",
    "dos_energy_down",
    "is_magnetic",
    "ordering",
    "total_magnetization_normalized_vol",
    "total_magnetization_normalized_formula_units",
    "num_magnetic_sites",
    "num_unique_magnetic_sites",
    "types_of_magnetic_species",
    "bulk_modulus",
    "shear_modulus",
    "universal_anisotropy",
    "homogeneous_poisson",
    "e_total",
    "e_ionic",
    "e_electronic",
    "n",
    "e_ij_max",
    "weighted_surface_energy_EV_PER_ANG2",
    "weighted_surface_energy",
    "weighted_work_function",
    "surface_anisotropy",
    "shape_factor",
    "has_reconstructed",
    "possible_species",
    "has_props",
    "theoretical",
    "database_IDs"
  ]
}
