{"builder_meta": null, "nsites": null, "elements": null, "nelements": null, "composition": null, "composition_reduced": null, "formula_pretty": "PaNi3", "formula_anonymous": "AB3", "chemsys": null, "volume": 113.3331792220825, "density": 11.929995436840773, "density_atomic": 14.166647402760313, "symmetry": null, "property_name": null, "material_id": "mp-862852", "deprecated": null, "deprecation_reasons": null, "last_updated": null, "origins": null, "warnings": null, "structure": {"@module": "pymatgen.core.structure", "@class": "Structure", "charge": 0, "lattice": {"matrix": [[5.26624568, 0.00025377, 0.0], [-2.63290256, 4.56081565, 0.0], [0.0, 0.0, 4.71847172]], "pbc": [true, true, true], "a": 5.266245686114338, "b": 5.266233500685236, "c": 4.71847172, "alpha": 90.0, "beta": 90.0, "gamma": 119.99454820162885, "volume": 113.3331792220825}, "properties": {}, "sites": [{"species": [{"element": "Pa", "occu": 1}], "abc": [0.33333327, 0.66666643, 0.749999], "properties": {"magmom": 0.0}, "label": "Pa", "xyz": [0.00014714292471285084, 3.0406272772575575, 3.53884907152828]}, {"species": [{"element": "Pa", "occu": 1}], "abc": [0.6666655300000001, 0.33333146, 0.25], "properties": {"magmom": -0.0}, "label": "Pa", "xyz": [2.633195213004873, 1.5204325191168975, 1.17961793]}, {"species": [{"element": "Ni", "occu": 1}], "abc": [0.15889328, 0.31778847, 0.249999], "properties": {"magmom": -0.0}, "label": "Ni", "xyz": [6.497317954734516e-05, 1.4494149497132212, 1.17961321152828]}, {"species": [{"element": "Ni", "occu": 1}], "abc": [0.68221051, 0.84110587, 0.249999], "properties": {"magmom": 0.0}, "label": "Ni", "xyz": [1.3781383527840694, 3.8363019397639886, 1.17961321152828]}, {"species": [{"element": "Ni", "occu": 1}], "abc": [0.15889269, 0.8411061400000001, 0.249999], "properties": {"magmom": 0.0}, "label": "Ni", "xyz": [-1.377782566941639, 3.836170368821033, 1.17961321152828]}, {"species": [{"element": "Ni", "occu": 1}], "abc": [0.84110518, 0.68220894, 0.75], "properties": {"magmom": -0.0}, "label": "Ni", "xyz": [2.6332768560197364, 3.11164265738344, 3.53885379]}, {"species": [{"element": "Ni", "occu": 1}], "abc": [0.31778924000000003, 0.15889292, 0.75], "properties": {"magmom": 0.0}, "label": "Ni", "xyz": [1.2552066364666081, 0.7247619615856329, 3.53885379]}, {"species": [{"element": "Ni", "occu": 1}], "abc": [0.8411053, 0.15889278, 0.75], "properties": {"magmom": 0.0}, "label": "Ni", "xyz": [4.011117945322587, 0.7248941249879881, 3.53885379]}]}, "task_ids": null, "uncorrected_energy_per_atom": null, "energy_per_atom": -28.5741835025, "formation_energy_per_atom": -0.37389108749999805, "energy_above_hull": 0.0, "is_stable": true, "equilibrium_reaction_energy_per_atom": null, "decomposes_to": null, "xas": null, "grain_boundaries": null, "band_gap": 0.0, "cbm": null, "vbm": null, "efermi": 10.65871834, "is_gap_direct": null, "is_metal": null, "es_source_calc_id": null, "bandstructure": null, "dos": null, "dos_energy_up": null, "dos_energy_down": null, "is_magnetic": null, "ordering": null, "total_magnetization": 1e-07, "total_magnetization_normalized_vol": null, "total_magnetization_normalized_formula_units": null, "num_magnetic_sites": null, "num_unique_magnetic_sites": null, "types_of_magnetic_species": null, "bulk_modulus": null, "shear_modulus": null, "universal_anisotropy": null, "homogeneous_poisson": null, "e_total": null, "e_ionic": null, "e_electronic": null, "n": null, "e_ij_max": null, "weighted_surface_energy_EV_PER_ANG2": null, "weighted_surface_energy": null, "weighted_work_function": null, "surface_anisotropy": null, "shape_factor": null, "has_reconstructed": null, "possible_species": null, "has_props": null, "theoretical": null, "database_IDs": null, "fields_not_requested": ["builder_meta", "nsites", "elements", "nelements", "composition", "composition_reduced", "chemsys", "symmetry", "property_name", "deprecated", "deprecation_reasons", "last_updated", "origins", "warnings", "task_ids", "uncorrected_energy_per_atom", "equilibrium_reaction_energy_per_atom", "decomposes_to", "xas", "grain_boundaries", "cbm", "vbm", "is_gap_direct", "is_metal", "es_source_calc_id", "bandstructure", "dos", "dos_energy_up", "dos_energy_down", "is_magnetic", "ordering", "total_magnetization_normalized_vol", "total_magnetization_normalized_formula_units", "num_magnetic_sites", "num_unique_magnetic_sites", "types_of_magnetic_species", "bulk_modulus", "shear_modulus", "universal_anisotropy", "homogeneous_poisson", "e_total", "e_ionic", "e_electronic", "n", "e_ij_max", "weighted_surface_energy_EV_PER_ANG2", "weighted_surface_energy", "weighted_work_function", "surface_anisotropy", "shape_factor", "has_reconstructed", "possible_species", "has_props", "theoretical", "database_IDs"]}