{
  "builder_meta": null,
  "nsites": null,
  "elements": null,
  "nelements": null,
  "composition": null,
  "composition_reduced": null,
  "formula_pretty": "PaP3",
  "formula_anonymous": "AB3",
  "chemsys": null,
  "volume": 146.10722718230664,
  "density": 7.363681323947065,
  "density_atomic": 18.26340339778833,
  "symmetry": null,
  "property_name": null,
  "material_id": "mp-862853",
  "deprecated": null,
  "deprecation_reasons": null,
  "last_updated": null,
  "origins": null,
  "warnings": null,
  "structure": {
    "@module": "pymatgen.core.structure",
    "@class": "Structure",
    "charge": 0,
    "lattice": {
      "matrix": [
        [2.778835, -4.813083, 0.0],
        [2.778835, 4.813083, 0.0],
        [0.0, 0.0, 5.462049]
      ],
      "pbc": [true, true, true],
      "a": 5.557669648523021,
      "b": 5.557669648523021,
      "c": 5.462049,
      "alpha": 90.0,
      "beta": 90.0,
      "gamma": 119.9999958159568,
      "volume": 146.10722718230664
    },
    "properties": {},
    "sites": [
      {
        "species": [{ "element": "Pa", "occu": 1 }],
        "abc": [0.333333, 0.666667, 0.75],
        "properties": { "magmom": 0.0 },
        "label": "Pa",
        "xyz": [2.778835, 1.604364208722, 4.09653675]
      },
      {
        "species": [{ "element": "Pa", "occu": 1 }],
        "abc": [0.666667, 0.333333, 0.25],
        "properties": { "magmom": 0.0 },
        "label": "Pa",
        "xyz": [2.778835, -1.604364208722, 1.36551225]
      },
      {
        "species": [{ "element": "P", "occu": 1 }],
        "abc": [0.189879, 0.379758, 0.25],
        "properties": { "magmom": -0.0 },
        "label": "P",
        "xyz": [1.582927232895, 0.9139033869569999, 1.36551225]
      },
      {
        "species": [{ "element": "P", "occu": 1 }],
        "abc": [0.620242, 0.810121, 0.25],
        "properties": { "magmom": -0.0 },
        "label": "P",
        "xyz": [3.974742767105, 0.9139033869570001, 1.36551225]
      },
      {
        "species": [{ "element": "P", "occu": 1 }],
        "abc": [0.189879, 0.810121, 0.25],
        "properties": { "magmom": -0.0 },
        "label": "P",
        "xyz": [2.778835, 2.9852762260859995, 1.36551225]
      },
      {
        "species": [{ "element": "P", "occu": 1 }],
        "abc": [0.810121, 0.620242, 0.75],
        "properties": { "magmom": -0.0 },
        "label": "P",
        "xyz": [3.974742767105, -0.9139033869570001, 4.09653675]
      },
      {
        "species": [{ "element": "P", "occu": 1 }],
        "abc": [0.379758, 0.189879, 0.75],
        "properties": { "magmom": -0.0 },
        "label": "P",
        "xyz": [1.582927232895, -0.9139033869569999, 4.09653675]
      },
      {
        "species": [{ "element": "P", "occu": 1 }],
        "abc": [0.810121, 0.189879, 0.75],
        "properties": { "magmom": -0.0 },
        "label": "P",
        "xyz": [2.778835, -2.9852762260859995, 4.09653675]
      }
    ]
  },
  "task_ids": null,
  "uncorrected_energy_per_atom": null,
  "energy_per_atom": -26.748277182589284,
  "formation_energy_per_atom": -0.7827154035714231,
  "energy_above_hull": 0.07536859416666801,
  "is_stable": false,
  "equilibrium_reaction_energy_per_atom": null,
  "decomposes_to": null,
  "xas": null,
  "grain_boundaries": null,
  "band_gap": 0.0,
  "cbm": null,
  "vbm": null,
  "efermi": 9.76989751,
  "is_gap_direct": null,
  "is_metal": null,
  "es_source_calc_id": null,
  "bandstructure": null,
  "dos": null,
  "dos_energy_up": null,
  "dos_energy_down": null,
  "is_magnetic": null,
  "ordering": null,
  "total_magnetization": 0.0004437,
  "total_magnetization_normalized_vol": null,
  "total_magnetization_normalized_formula_units": null,
  "num_magnetic_sites": null,
  "num_unique_magnetic_sites": null,
  "types_of_magnetic_species": null,
  "bulk_modulus": null,
  "shear_modulus": null,
  "universal_anisotropy": null,
  "homogeneous_poisson": null,
  "e_total": null,
  "e_ionic": null,
  "e_electronic": null,
  "n": null,
  "e_ij_max": null,
  "weighted_surface_energy_EV_PER_ANG2": null,
  "weighted_surface_energy": null,
  "weighted_work_function": null,
  "surface_anisotropy": null,
  "shape_factor": null,
  "has_reconstructed": null,
  "possible_species": null,
  "has_props": null,
  "theoretical": null,
  "database_IDs": null,
  "fields_not_requested": [
    "builder_meta",
    "nsites",
    "elements",
    "nelements",
    "composition",
    "composition_reduced",
    "chemsys",
    "symmetry",
    "property_name",
    "deprecated",
    "deprecation_reasons",
    "last_updated",
    "origins",
    "warnings",
    "task_ids",
    "uncorrected_energy_per_atom",
    "equilibrium_reaction_energy_per_atom",
    "decomposes_to",
    "xas",
    "grain_boundaries",
    "cbm",
    "vbm",
    "is_gap_direct",
    "is_metal",
    "es_source_calc_id",
    "bandstructure",
    "dos",
    "dos_energy_up",
    "dos_energy_down",
    "is_magnetic",
    "ordering",
    "total_magnetization_normalized_vol",
    "total_magnetization_normalized_formula_units",
    "num_magnetic_sites",
    "num_unique_magnetic_sites",
    "types_of_magnetic_species",
    "bulk_modulus",
    "shear_modulus",
    "universal_anisotropy",
    "homogeneous_poisson",
    "e_total",
    "e_ionic",
    "e_electronic",
    "n",
    "e_ij_max",
    "weighted_surface_energy_EV_PER_ANG2",
    "weighted_surface_energy",
    "weighted_work_function",
    "surface_anisotropy",
    "shape_factor",
    "has_reconstructed",
    "possible_species",
    "has_props",
    "theoretical",
    "database_IDs"
  ]
}
