{
  "builder_meta": null,
  "nsites": null,
  "elements": null,
  "nelements": null,
  "composition": null,
  "composition_reduced": null,
  "formula_pretty": "PaPd3",
  "formula_anonymous": "AB3",
  "chemsys": null,
  "volume": 141.55265179743728,
  "density": 12.91092459697133,
  "density_atomic": 17.69408147467966,
  "symmetry": null,
  "property_name": null,
  "material_id": "mp-862854",
  "deprecated": null,
  "deprecation_reasons": null,
  "last_updated": null,
  "origins": null,
  "warnings": null,
  "structure": {
    "@module": "pymatgen.core.structure",
    "@class": "Structure",
    "charge": 0,
    "lattice": {
      "matrix": [
        [5.68684487, -1.1e-7, 0.0],
        [-2.84342253, 4.92495335, 1e-8],
        [0.0, 1e-8, 5.05410793]
      ],
      "pbc": [true, true, true],
      "a": 5.686844870000001,
      "b": 5.686845978553299,
      "c": 5.05410793,
      "alpha": 89.9999998010718,
      "beta": 90.0,
      "gamma": 119.9999957651463,
      "volume": 141.55265179743728
    },
    "properties": {},
    "sites": [
      {
        "species": [{ "element": "Pa", "occu": 1 }],
        "abc": [0.66666586, 0.33333206, 0.25000106],
        "properties": { "magmom": -0.0 },
        "label": "Pa",
        "xyz": [2.8434214365698267, 1.6416447747261669, 1.2635323431877263]
      },
      {
        "species": [{ "element": "Pa", "occu": 1 }],
        "abc": [0.33333404, 0.6666680700000001, 0.7500017800000001],
        "properties": { "magmom": -0.0 },
        "label": "Pa",
        "xyz": [-3.489924238486708e-8, 3.2833091155178082, 3.7905899504787963]
      },
      {
        "species": [{ "element": "Pd", "occu": 1 }],
        "abc": [0.83536102, 0.16464085, 0.750002],
        "properties": { "magmom": 0.0 },
        "label": "Pd",
        "xyz": [4.282425028936617, 0.8108484213646554, 3.790591057362268]
      },
      {
        "species": [{ "element": "Pd", "occu": 1 }],
        "abc": [0.32927968, 0.16464072, 0.750002],
        "properties": { "magmom": 0.0 },
        "label": "Pd",
        "xyz": [1.4044193263998201, 0.8108478367896672, 3.7905910573622665]
      },
      {
        "species": [{ "element": "Pd", "occu": 1 }],
        "abc": [0.83536027, 0.67072142, 0.750002],
        "properties": { "magmom": 0.0 },
        "label": "Pd",
        "xyz": [2.8434198690697228, 3.3032716199561474, 3.790591062423074]
      },
      {
        "species": [{ "element": "Pd", "occu": 1 }],
        "abc": [0.16463965, 0.83535943, 0.25000106],
        "properties": { "magmom": 0.0 },
        "label": "Pd",
        "xyz": [-1.4389996749088625, 4.11410620762224, 1.263532348208]
      },
      {
        "species": [{ "element": "Pd", "occu": 1 }],
        "abc": [0.6707228, 0.83535934, 0.25000106],
        "properties": { "magmom": 0.0 },
        "label": "Pd",
        "xyz": [1.439016946370106, 4.114105708707292, 1.2635323482079992]
      },
      {
        "species": [{ "element": "Pd", "occu": 1 }],
        "abc": [0.16463967000000002, 0.32927612, 0.25000105],
        "properties": { "magmom": 0.0 },
        "label": "Pd",
        "xyz": [9.124539009364163e-6, 1.6216695146586488, 1.2635322926060877]
      }
    ]
  },
  "task_ids": null,
  "uncorrected_energy_per_atom": null,
  "energy_per_atom": -37.21554285375,
  "formation_energy_per_atom": -0.7811981012499981,
  "energy_above_hull": 0.0,
  "is_stable": true,
  "equilibrium_reaction_energy_per_atom": null,
  "decomposes_to": null,
  "xas": null,
  "grain_boundaries": null,
  "band_gap": 0.0,
  "cbm": null,
  "vbm": null,
  "efermi": 8.12312861,
  "is_gap_direct": null,
  "is_metal": null,
  "es_source_calc_id": null,
  "bandstructure": null,
  "dos": null,
  "dos_energy_up": null,
  "dos_energy_down": null,
  "is_magnetic": null,
  "ordering": null,
  "total_magnetization": 1.6600000000000004e-5,
  "total_magnetization_normalized_vol": null,
  "total_magnetization_normalized_formula_units": null,
  "num_magnetic_sites": null,
  "num_unique_magnetic_sites": null,
  "types_of_magnetic_species": null,
  "bulk_modulus": null,
  "shear_modulus": null,
  "universal_anisotropy": null,
  "homogeneous_poisson": null,
  "e_total": null,
  "e_ionic": null,
  "e_electronic": null,
  "n": null,
  "e_ij_max": null,
  "weighted_surface_energy_EV_PER_ANG2": null,
  "weighted_surface_energy": null,
  "weighted_work_function": null,
  "surface_anisotropy": null,
  "shape_factor": null,
  "has_reconstructed": null,
  "possible_species": null,
  "has_props": null,
  "theoretical": null,
  "database_IDs": null,
  "fields_not_requested": [
    "builder_meta",
    "nsites",
    "elements",
    "nelements",
    "composition",
    "composition_reduced",
    "chemsys",
    "symmetry",
    "property_name",
    "deprecated",
    "deprecation_reasons",
    "last_updated",
    "origins",
    "warnings",
    "task_ids",
    "uncorrected_energy_per_atom",
    "equilibrium_reaction_energy_per_atom",
    "decomposes_to",
    "xas",
    "grain_boundaries",
    "cbm",
    "vbm",
    "is_gap_direct",
    "is_metal",
    "es_source_calc_id",
    "bandstructure",
    "dos",
    "dos_energy_up",
    "dos_energy_down",
    "is_magnetic",
    "ordering",
    "total_magnetization_normalized_vol",
    "total_magnetization_normalized_formula_units",
    "num_magnetic_sites",
    "num_unique_magnetic_sites",
    "types_of_magnetic_species",
    "bulk_modulus",
    "shear_modulus",
    "universal_anisotropy",
    "homogeneous_poisson",
    "e_total",
    "e_ionic",
    "e_electronic",
    "n",
    "e_ij_max",
    "weighted_surface_energy_EV_PER_ANG2",
    "weighted_surface_energy",
    "weighted_work_function",
    "surface_anisotropy",
    "shape_factor",
    "has_reconstructed",
    "possible_species",
    "has_props",
    "theoretical",
    "database_IDs"
  ]
}
