{"builder_meta": null, "nsites": null, "elements": null, "nelements": null, "composition": null, "composition_reduced": null, "formula_pretty": "PaPt3", "formula_anonymous": "AB3", "chemsys": null, "volume": 144.02569678617652, "density": 18.822723230347744, "density_atomic": 18.003212098272066, "symmetry": null, "property_name": null, "material_id": "mp-862858", "deprecated": null, "deprecation_reasons": null, "last_updated": null, "origins": null, "warnings": null, "structure": {"@module": "pymatgen.core.structure", "@class": "Structure", "charge": 0, "lattice": {"matrix": [[5.72580834, 4.1420000000000013e-05, -3.29e-06], [-2.8628693, 4.95870871, -2.92e-06], [-2.91e-06, -4.65e-06, 5.07262511]], "pbc": [true, true, true], "a": 5.72580834015076, "b": 5.7258023629462516, "c": 5.072625110002965, "alpha": 90.00005827079387, "beta": 90.00006579076452, "gamma": 119.99921714967843, "volume": 144.02569678617652}, "properties": {}, "sites": [{"species": [{"element": "Pa", "occu": 1}], "abc": [0.6666653100000001, 0.33333247, 0.25000348], "properties": {"magmom": -0.0}, "label": "Pa", "xyz": [2.8629097694203884, 1.6529250730757719, 1.2681707635757005]}, {"species": [{"element": "Pa", "occu": 1}], "abc": [0.33333398000000003, 0.66666915, 0.75000327], "properties": {"magmom": -0.0}, "label": "Pa", "xyz": [1.765738778289026e-05, 3.3058284399715427, 3.8044823766413973]}, {"species": [{"element": "Pt", "occu": 1}], "abc": [0.83472605, 0.16527264, 0.75000288], "properties": {"magmom": 0.0}, "label": "Pt", "xyz": [4.306325229010924, 0.8195699663322934, 3.8044802128155033]}, {"species": [{"element": "Pt", "occu": 1}], "abc": [0.33055092, 0.16527383, 0.750002899999999], "properties": {"magmom": -0.0}, "label": "Pt", "xyz": [1.419511658021815, 0.8195549842616807, 3.804481973000703]}, {"species": [{"element": "Pt", "occu": 1}], "abc": [0.83472625, 0.66944895, 0.75000288], "properties": {"magmom": -0.0}, "label": "Pt", "xyz": [2.86293549448631, 3.3196334261132376, 3.80447874062002]}, {"species": [{"element": "Pt", "occu": 1}], "abc": [0.16527631, 0.83472698, 0.24999465], "properties": {"magmom": 0.0}, "label": "Pt", "xyz": [-1.44337449820572, 4.139173629467634, 1.2681261577938199]}, {"species": [{"element": "Pt", "occu": 1}], "abc": [0.66944614, 0.8347252, 0.24999855], "properties": {"magmom": 0.0}, "label": "Pt", "xyz": [1.4434104150806681, 4.139185685662353, 1.2681442823182059]}, {"species": [{"element": "Pt", "occu": 1}], "abc": [0.16527504, 0.33055376000000003, 0.24999939000000002], "properties": {"magmom": 0.0}, "label": "Pt", "xyz": [2.634240407867555e-07, 1.639125492030243, 1.2681516742268222]}]}, "task_ids": null, "uncorrected_energy_per_atom": null, "energy_per_atom": -58.94114727, "formation_energy_per_atom": -1.11135505, "energy_above_hull": 0.0, "is_stable": true, "equilibrium_reaction_energy_per_atom": null, "decomposes_to": null, "xas": null, "grain_boundaries": null, "band_gap": 0.0, "cbm": null, "vbm": null, "efermi": 9.37426491, "is_gap_direct": null, "is_metal": null, "es_source_calc_id": null, "bandstructure": null, "dos": null, "dos_energy_up": null, "dos_energy_down": null, "is_magnetic": null, "ordering": null, "total_magnetization": 1e-07, "total_magnetization_normalized_vol": null, "total_magnetization_normalized_formula_units": null, "num_magnetic_sites": null, "num_unique_magnetic_sites": null, "types_of_magnetic_species": null, "bulk_modulus": null, "shear_modulus": null, "universal_anisotropy": null, "homogeneous_poisson": null, "e_total": null, "e_ionic": null, "e_electronic": null, "n": null, "e_ij_max": null, "weighted_surface_energy_EV_PER_ANG2": null, "weighted_surface_energy": null, "weighted_work_function": null, "surface_anisotropy": null, "shape_factor": null, "has_reconstructed": null, "possible_species": null, "has_props": null, "theoretical": null, "database_IDs": null, "fields_not_requested": ["builder_meta", "nsites", "elements", "nelements", "composition", "composition_reduced", "chemsys", "symmetry", "property_name", "deprecated", "deprecation_reasons", "last_updated", "origins", "warnings", "task_ids", "uncorrected_energy_per_atom", "equilibrium_reaction_energy_per_atom", "decomposes_to", "xas", "grain_boundaries", "cbm", "vbm", "is_gap_direct", "is_metal", "es_source_calc_id", "bandstructure", "dos", "dos_energy_up", "dos_energy_down", "is_magnetic", "ordering", "total_magnetization_normalized_vol", "total_magnetization_normalized_formula_units", "num_magnetic_sites", "num_unique_magnetic_sites", "types_of_magnetic_species", "bulk_modulus", "shear_modulus", "universal_anisotropy", "homogeneous_poisson", "e_total", "e_ionic", "e_electronic", "n", "e_ij_max", "weighted_surface_energy_EV_PER_ANG2", "weighted_surface_energy", "weighted_work_function", "surface_anisotropy", "shape_factor", "has_reconstructed", "possible_species", "has_props", "theoretical", "database_IDs"]}