{"builder_meta": null, "nsites": null, "elements": null, "nelements": null, "composition": null, "composition_reduced": null, "formula_pretty": "PaRe3", "formula_anonymous": "AB3", "chemsys": null, "volume": 69.74831694442308, "density": 18.79982422363402, "density_atomic": 17.43707923610577, "symmetry": null, "property_name": null, "material_id": "mp-1186413", "deprecated": null, "deprecation_reasons": null, "last_updated": null, "origins": null, "warnings": null, "structure": {"@module": "pymatgen.core.structure", "@class": "Structure", "charge": 0, "lattice": {"matrix": [[-2.149329, 2.149329, 3.774574], [2.149329, -2.149329, 3.774574], [2.149329, 2.149329, -3.774574]], "pbc": [true, true, true], "a": 4.846301598328152, "b": 4.846301598328152, "c": 4.846301598328152, "alpha": 127.34533378261766, "beta": 127.34533378261766, "gamma": 77.68798812249935, "volume": 69.74831694442308}, "properties": {}, "sites": [{"species": [{"element": "Pa", "occu": 1}], "abc": [0.0, 0.0, 0.0], "properties": {"magmom": 0.0}, "label": "Pa", "xyz": [0.0, 0.0, 0.0]}, {"species": [{"element": "Re", "occu": 1}], "abc": [0.749997999999999, 0.25, 0.499998], "properties": {"magmom": -0.0}, "label": "Re", "xyz": [1.9984014443252818e-15, 2.1493204026839976, 1.8872869999999964]}, {"species": [{"element": "Re", "occu": 1}], "abc": [0.25, 0.749997999999999, 0.499998], "properties": {"magmom": -0.0}, "label": "Re", "xyz": [2.1493204026839976, 1.9984014443252818e-15, 1.8872869999999964]}, {"species": [{"element": "Re", "occu": 1}], "abc": [0.500001, 0.500001, 0.0], "properties": {"magmom": -0.0}, "label": "Re", "xyz": [0.0, 0.0, 3.774581549148]}]}, "task_ids": null, "uncorrected_energy_per_atom": null, "energy_per_atom": -58.221421164375, "formation_energy_per_atom": 0.30054441125000103, "energy_above_hull": 0.30054441125000103, "is_stable": false, "equilibrium_reaction_energy_per_atom": null, "decomposes_to": null, "xas": null, "grain_boundaries": null, "band_gap": 0.0, "cbm": null, "vbm": null, "efermi": 9.33072856, "is_gap_direct": null, "is_metal": null, "es_source_calc_id": null, "bandstructure": null, "dos": null, "dos_energy_up": null, "dos_energy_down": null, "is_magnetic": null, "ordering": null, "total_magnetization": 0.00011939999999900002, "total_magnetization_normalized_vol": null, "total_magnetization_normalized_formula_units": null, "num_magnetic_sites": null, "num_unique_magnetic_sites": null, "types_of_magnetic_species": null, "bulk_modulus": null, "shear_modulus": null, "universal_anisotropy": null, "homogeneous_poisson": null, "e_total": null, "e_ionic": null, "e_electronic": null, "n": null, "e_ij_max": null, "weighted_surface_energy_EV_PER_ANG2": null, "weighted_surface_energy": null, "weighted_work_function": null, "surface_anisotropy": null, "shape_factor": null, "has_reconstructed": null, "possible_species": null, "has_props": null, "theoretical": null, "database_IDs": null, "fields_not_requested": ["builder_meta", "nsites", "elements", "nelements", "composition", "composition_reduced", "chemsys", "symmetry", "property_name", "deprecated", "deprecation_reasons", "last_updated", "origins", "warnings", "task_ids", "uncorrected_energy_per_atom", "equilibrium_reaction_energy_per_atom", "decomposes_to", "xas", "grain_boundaries", "cbm", "vbm", "is_gap_direct", "is_metal", "es_source_calc_id", "bandstructure", "dos", "dos_energy_up", "dos_energy_down", "is_magnetic", "ordering", "total_magnetization_normalized_vol", "total_magnetization_normalized_formula_units", "num_magnetic_sites", "num_unique_magnetic_sites", "types_of_magnetic_species", "bulk_modulus", "shear_modulus", "universal_anisotropy", "homogeneous_poisson", "e_total", "e_ionic", "e_electronic", "n", "e_ij_max", "weighted_surface_energy_EV_PER_ANG2", "weighted_surface_energy", "weighted_work_function", "surface_anisotropy", "shape_factor", "has_reconstructed", "possible_species", "has_props", "theoretical", "database_IDs"]}