{"builder_meta": null, "nsites": null, "elements": null, "nelements": null, "composition": null, "composition_reduced": null, "formula_pretty": "PaS3", "formula_anonymous": "AB3", "chemsys": null, "volume": 145.70450283329032, "density": 7.458652951303932, "density_atomic": 18.21306285416129, "symmetry": null, "property_name": null, "material_id": "mp-862857", "deprecated": null, "deprecation_reasons": null, "last_updated": null, "origins": null, "warnings": null, "structure": {"@module": "pymatgen.core.structure", "@class": "Structure", "charge": 0, "lattice": {"matrix": [[5.83759766, -0.00261186, -1.236e-05], [-2.92106108, 5.03965222, 5.15e-06], [-1.675e-05, -5.15e-06, 4.95394166]], "pbc": [true, true, true], "a": 5.837598244312717, "b": 5.825005779539469, "c": 4.953941660030994, "alpha": 89.99990372910732, "beta": 90.00031501160265, "gamma": 120.12288552495664, "volume": 145.70450283329032}, "properties": {}, "sites": [{"species": [{"element": "Pa", "occu": 1}], "abc": [0.66664446, 0.33323923, 0.25], "properties": {"magmom": 0.0}, "label": "Pa", "xyz": [2.9181858071657953, 1.6776673557612949, 1.2384788914565088]}, {"species": [{"element": "Pa", "occu": 1}], "abc": [0.33335765, 0.6667599, 0.750000999999999], "properties": {"magmom": 0.0}, "label": "Pa", "xyz": [-0.0016511185283425735, 3.359363464225099, 3.715460512454586]}, {"species": [{"element": "S", "occu": 1}], "abc": [0.82264073, 0.17741879, 0.750000999999999], "properties": {"magmom": 0.0}, "label": "S", "xyz": [4.283981915622248, 0.8919765139710059, 3.7154519448090007]}, {"species": [{"element": "S", "occu": 1}], "abc": [0.35477801000000003, 0.17745044000000001, 0.750000999999999], "properties": {"magmom": 0.0}, "label": "S", "xyz": [1.5526951445658317, 0.8933580108876281, 3.7154577277552177]}, {"species": [{"element": "S", "occu": 1}], "abc": [0.82259393, 0.6452132700000001, 0.75], "properties": {"magmom": -0.0}, "label": "S", "xyz": [2.917252467101672, 3.24949812584695, 3.7154494005873655]}, {"species": [{"element": "S", "occu": 1}], "abc": [0.17737024, 0.82257095, 0.250001], "properties": {"magmom": -0.0}, "label": "S", "xyz": [-1.3673680771227372, 4.145006960534813, 1.2384924128858859]}, {"species": [{"element": "S", "occu": 1}], "abc": [0.64519747, 0.822535599999999, 0.249999], "properties": {"magmom": -0.0}, "label": "S", "xyz": [1.3637223255522253, 4.143606909610183, 1.2384767224759508]}, {"species": [{"element": "S", "occu": 1}], "abc": [0.17741751, 0.35480681000000003, 0.250001], "properties": {"magmom": -0.0}, "label": "S", "xyz": [-0.0007245099076782297, 1.7876382504847996, 1.2384900033163078]}]}, "task_ids": null, "uncorrected_energy_per_atom": null, "energy_per_atom": -26.3530726175, "formation_energy_per_atom": -1.112818760859372, "energy_above_hull": 0.0, "is_stable": true, "equilibrium_reaction_energy_per_atom": null, "decomposes_to": null, "xas": null, "grain_boundaries": null, "band_gap": 0.0, "cbm": null, "vbm": null, "efermi": 9.91689999, "is_gap_direct": null, "is_metal": null, "es_source_calc_id": null, "bandstructure": null, "dos": null, "dos_energy_up": null, "dos_energy_down": null, "is_magnetic": null, "ordering": null, "total_magnetization": 1e-07, "total_magnetization_normalized_vol": null, "total_magnetization_normalized_formula_units": null, "num_magnetic_sites": null, "num_unique_magnetic_sites": null, "types_of_magnetic_species": null, "bulk_modulus": null, "shear_modulus": null, "universal_anisotropy": null, "homogeneous_poisson": null, "e_total": null, "e_ionic": null, "e_electronic": null, "n": null, "e_ij_max": null, "weighted_surface_energy_EV_PER_ANG2": null, "weighted_surface_energy": null, "weighted_work_function": null, "surface_anisotropy": null, "shape_factor": null, "has_reconstructed": null, "possible_species": null, "has_props": null, "theoretical": null, "database_IDs": null, "fields_not_requested": ["builder_meta", "nsites", "elements", "nelements", "composition", "composition_reduced", "chemsys", "symmetry", "property_name", "deprecated", "deprecation_reasons", "last_updated", "origins", "warnings", "task_ids", "uncorrected_energy_per_atom", "equilibrium_reaction_energy_per_atom", "decomposes_to", "xas", "grain_boundaries", "cbm", "vbm", "is_gap_direct", "is_metal", "es_source_calc_id", "bandstructure", "dos", "dos_energy_up", "dos_energy_down", "is_magnetic", "ordering", "total_magnetization_normalized_vol", "total_magnetization_normalized_formula_units", "num_magnetic_sites", "num_unique_magnetic_sites", "types_of_magnetic_species", "bulk_modulus", "shear_modulus", "universal_anisotropy", "homogeneous_poisson", "e_total", "e_ionic", "e_electronic", "n", "e_ij_max", "weighted_surface_energy_EV_PER_ANG2", "weighted_surface_energy", "weighted_work_function", "surface_anisotropy", "shape_factor", "has_reconstructed", "possible_species", "has_props", "theoretical", "database_IDs"]}