{"builder_meta": null, "nsites": null, "elements": null, "nelements": null, "composition": null, "composition_reduced": null, "formula_pretty": "PaSb2", "formula_anonymous": "AB2", "chemsys": null, "volume": 164.541215136227, "density": 9.578373143437952, "density_atomic": 27.423535856037834, "symmetry": null, "property_name": null, "material_id": "mp-1018880", "deprecated": null, "deprecation_reasons": null, "last_updated": null, "origins": null, "warnings": null, "structure": {"@module": "pymatgen.core.structure", "@class": "Structure", "charge": 0, "lattice": {"matrix": [[4.33271306, 0.0, 0.0], [0.0, 4.33271306, 0.0], [-0.0, -0.0, 8.765059]], "pbc": [true, true, true], "a": 4.33271306, "b": 4.33271306, "c": 8.765059, "alpha": 90.0, "beta": 90.0, "gamma": 90.0, "volume": 164.541215136227}, "properties": {}, "sites": [{"species": [{"element": "Pa", "occu": 1}], "abc": [0.75, 0.75, 0.72530746], "properties": {"magmom": 0.0}, "label": "Pa", "xyz": [3.2495347949999998, 3.2495347949999998, 6.357362680040141]}, {"species": [{"element": "Pa", "occu": 1}], "abc": [0.25, 0.25, 0.27469254], "properties": {"magmom": 0.0}, "label": "Pa", "xyz": [1.083178265, 1.083178265, 2.40769631995986]}, {"species": [{"element": "Sb", "occu": 1}], "abc": [0.75, 0.75, 0.36292545], "properties": {"magmom": -0.0}, "label": "Sb", "xyz": [3.2495347949999998, 3.2495347949999998, 3.18106298185155]}, {"species": [{"element": "Sb", "occu": 1}], "abc": [0.25, 0.25, 0.63707455], "properties": {"magmom": -0.0}, "label": "Sb", "xyz": [1.083178265, 1.083178265, 5.583996018148451]}, {"species": [{"element": "Sb", "occu": 1}], "abc": [0.75, 0.25, -0.0], "properties": {"magmom": -0.0}, "label": "Sb", "xyz": [3.2495347949999998, 1.083178265, 0.0]}, {"species": [{"element": "Sb", "occu": 1}], "abc": [0.25, 0.75, 0.0], "properties": {"magmom": -0.0}, "label": "Sb", "xyz": [1.083178265, 3.2495347949999998, 0.0]}]}, "task_ids": null, "uncorrected_energy_per_atom": null, "energy_per_atom": -43.381692725, "formation_energy_per_atom": -0.625476178333334, "energy_above_hull": 0.0, "is_stable": true, "equilibrium_reaction_energy_per_atom": null, "decomposes_to": null, "xas": null, "grain_boundaries": null, "band_gap": 0.0, "cbm": null, "vbm": null, "efermi": 9.48543711, "is_gap_direct": null, "is_metal": null, "es_source_calc_id": null, "bandstructure": null, "dos": null, "dos_energy_up": null, "dos_energy_down": null, "is_magnetic": null, "ordering": null, "total_magnetization": 3.55e-05, "total_magnetization_normalized_vol": null, "total_magnetization_normalized_formula_units": null, "num_magnetic_sites": null, "num_unique_magnetic_sites": null, "types_of_magnetic_species": null, "bulk_modulus": null, "shear_modulus": null, "universal_anisotropy": null, "homogeneous_poisson": null, "e_total": null, "e_ionic": null, "e_electronic": null, "n": null, "e_ij_max": null, "weighted_surface_energy_EV_PER_ANG2": null, "weighted_surface_energy": null, "weighted_work_function": null, "surface_anisotropy": null, "shape_factor": null, "has_reconstructed": null, "possible_species": null, "has_props": null, "theoretical": null, "database_IDs": null, "fields_not_requested": ["builder_meta", "nsites", "elements", "nelements", "composition", "composition_reduced", "chemsys", "symmetry", "property_name", "deprecated", "deprecation_reasons", "last_updated", "origins", "warnings", "task_ids", "uncorrected_energy_per_atom", "equilibrium_reaction_energy_per_atom", "decomposes_to", "xas", "grain_boundaries", "cbm", "vbm", "is_gap_direct", "is_metal", "es_source_calc_id", "bandstructure", "dos", "dos_energy_up", "dos_energy_down", "is_magnetic", "ordering", "total_magnetization_normalized_vol", "total_magnetization_normalized_formula_units", "num_magnetic_sites", "num_unique_magnetic_sites", "types_of_magnetic_species", "bulk_modulus", "shear_modulus", "universal_anisotropy", "homogeneous_poisson", "e_total", "e_ionic", "e_electronic", "n", "e_ij_max", "weighted_surface_energy_EV_PER_ANG2", "weighted_surface_energy", "weighted_work_function", "surface_anisotropy", "shape_factor", "has_reconstructed", "possible_species", "has_props", "theoretical", "database_IDs"]}