{"builder_meta": null, "nsites": null, "elements": null, "nelements": null, "composition": null, "composition_reduced": null, "formula_pretty": "PaSb3", "formula_anonymous": "AB3", "chemsys": null, "volume": 208.7596294328504, "density": 9.486564212286714, "density_atomic": 26.0949536791063, "symmetry": null, "property_name": null, "material_id": "mp-1186409", "deprecated": null, "deprecation_reasons": null, "last_updated": null, "origins": null, "warnings": null, "structure": {"@module": "pymatgen.core.structure", "@class": "Structure", "charge": 0, "lattice": {"matrix": [[3.17818523, -5.50477733, 0.0], [3.17818523, 5.50477733, 0.0], [-0.0, -0.0, 5.9661966]], "pbc": [true, true, true], "a": 6.356369624956692, "b": 6.356369624956692, "c": 5.9661966, "alpha": 90.0, "beta": 90.0, "gamma": 119.9999913085574, "volume": 208.7596294328504}, "properties": {}, "sites": [{"species": [{"element": "Pa", "occu": 1}], "abc": [0.666667, 0.333333, 0.25], "properties": {"magmom": 0.149}, "label": "Pa", "xyz": [3.1781852299999995, -1.8349294465182198, 1.49154915]}, {"species": [{"element": "Pa", "occu": 1}], "abc": [0.333333, 0.666667, 0.75], "properties": {"magmom": 0.149}, "label": "Pa", "xyz": [3.1781852299999995, 1.8349294465182198, 4.47464745]}, {"species": [{"element": "Sb", "occu": 1}], "abc": [0.82672594, 0.17327406, 0.75], "properties": {"magmom": 0.0}, "label": "Sb", "xyz": [3.17818523, -3.5971070952698803, 4.47464745]}, {"species": [{"element": "Sb", "occu": 1}], "abc": [0.34654712, 0.17327406, 0.75], "properties": {"magmom": 0.0}, "label": "Sb", "xyz": [1.6520879965171713, -0.9538296125877296, 4.47464745]}, {"species": [{"element": "Sb", "occu": 1}], "abc": [0.82672594, 0.65345288, 0.75], "properties": {"magmom": 0.0}, "label": "Sb", "xyz": [4.704282463482828, -0.9538296125877297, 4.47464745]}, {"species": [{"element": "Sb", "occu": 1}], "abc": [0.17327406, 0.82672594, 0.25], "properties": {"magmom": 0.0}, "label": "Sb", "xyz": [3.17818523, 3.5971070952698803, 1.49154915]}, {"species": [{"element": "Sb", "occu": 1}], "abc": [0.65345288, 0.82672594, 0.25], "properties": {"magmom": 0.0}, "label": "Sb", "xyz": [4.704282463482828, 0.9538296125877297, 1.49154915]}, {"species": [{"element": "Sb", "occu": 1}], "abc": [0.17327406, 0.34654712, 0.25], "properties": {"magmom": 0.0}, "label": "Sb", "xyz": [1.6520879965171713, 0.9538296125877296, 1.49154915]}]}, "task_ids": null, "uncorrected_energy_per_atom": null, "energy_per_atom": -38.82795810125, "formation_energy_per_atom": -0.334216758749995, "energy_above_hull": 0.134890375000004, "is_stable": false, "equilibrium_reaction_energy_per_atom": null, "decomposes_to": null, "xas": null, "grain_boundaries": null, "band_gap": 0.0, "cbm": null, "vbm": null, "efermi": 9.6848782, "is_gap_direct": null, "is_metal": null, "es_source_calc_id": null, "bandstructure": null, "dos": null, "dos_energy_up": null, "dos_energy_down": null, "is_magnetic": null, "ordering": null, "total_magnetization": 0.3334218, "total_magnetization_normalized_vol": null, "total_magnetization_normalized_formula_units": null, "num_magnetic_sites": null, "num_unique_magnetic_sites": null, "types_of_magnetic_species": null, "bulk_modulus": null, "shear_modulus": null, "universal_anisotropy": null, "homogeneous_poisson": null, "e_total": null, "e_ionic": null, "e_electronic": null, "n": null, "e_ij_max": null, "weighted_surface_energy_EV_PER_ANG2": null, "weighted_surface_energy": null, "weighted_work_function": null, "surface_anisotropy": null, "shape_factor": null, "has_reconstructed": null, "possible_species": null, "has_props": null, "theoretical": null, "database_IDs": null, "fields_not_requested": ["builder_meta", "nsites", "elements", "nelements", "composition", "composition_reduced", "chemsys", "symmetry", "property_name", "deprecated", "deprecation_reasons", "last_updated", "origins", "warnings", "task_ids", "uncorrected_energy_per_atom", "equilibrium_reaction_energy_per_atom", "decomposes_to", "xas", "grain_boundaries", "cbm", "vbm", "is_gap_direct", "is_metal", "es_source_calc_id", "bandstructure", "dos", "dos_energy_up", "dos_energy_down", "is_magnetic", "ordering", "total_magnetization_normalized_vol", "total_magnetization_normalized_formula_units", "num_magnetic_sites", "num_unique_magnetic_sites", "types_of_magnetic_species", "bulk_modulus", "shear_modulus", "universal_anisotropy", "homogeneous_poisson", "e_total", "e_ionic", "e_electronic", "n", "e_ij_max", "weighted_surface_energy_EV_PER_ANG2", "weighted_surface_energy", "weighted_work_function", "surface_anisotropy", "shape_factor", "has_reconstructed", "possible_species", "has_props", "theoretical", "database_IDs"]}