{
  "builder_meta": null,
  "nsites": null,
  "elements": null,
  "nelements": null,
  "composition": null,
  "composition_reduced": null,
  "formula_pretty": "PaSe3",
  "formula_anonymous": "AB3",
  "chemsys": null,
  "volume": 172.09345616730144,
  "density": 9.029891268697176,
  "density_atomic": 21.51168202091268,
  "symmetry": null,
  "property_name": null,
  "material_id": "mp-862867",
  "deprecated": null,
  "deprecation_reasons": null,
  "last_updated": null,
  "origins": null,
  "warnings": null,
  "structure": {
    "@module": "pymatgen.core.structure",
    "@class": "Structure",
    "charge": 0,
    "lattice": {
      "matrix": [
        [6.1815842, -9.509999999999999e-6, -5e-8],
        [-3.09079982, 5.35340293, -3.0000000000000004e-8],
        [-4e-8, -6.000000000000001e-8, 5.2003793]
      ],
      "pbc": [true, true, true],
      "a": 6.181584200007315,
      "b": 6.181582844081653,
      "c": 5.200379300000001,
      "alpha": 90.00000063020231,
      "beta": 90.0000009041429,
      "gamma": 120.00017802681442,
      "volume": 172.09345616730147
    },
    "properties": {},
    "sites": [
      {
        "species": [{ "element": "Pa", "occu": 1 }],
        "abc": [0.66666698, 0.33333421, 0.25000012],
        "properties": { "magmom": -0.0 },
        "label": "Pa",
        "xyz": [3.090788743961869, 1.7844659814802484, 1.3000954057121406]
      },
      {
        "species": [{ "element": "Pa", "occu": 1 }],
        "abc": [0.33333417, 0.66666676, 0.7500000800000001],
        "properties": { "magmom": 0.0 },
        "label": "Pa",
        "xyz": [-2.9321587274480833e-7, 3.5689325713096456, 3.900284854363633]
      },
      {
        "species": [{ "element": "Se", "occu": 1 }],
        "abc": [0.823108699999999, 0.17688949, 0.75000084],
        "properties": { "magmom": -0.0 },
        "label": "Se",
        "xyz": [4.541385700950609, 0.9469528412884184, 3.9002887968564925]
      },
      {
        "species": [{ "element": "Se", "occu": 1 }],
        "abc": [0.35377549, 0.17688864, 0.75000081],
        "properties": { "magmom": -0.0 },
        "label": "Se",
        "xyz": [1.6401655726591808, 0.9469527542547568, 3.900288664311799]
      },
      {
        "species": [{ "element": "Se", "occu": 1 }],
        "abc": [0.82311029, 0.64622628, 0.75000085],
        "properties": { "magmom": -0.0 },
        "label": "Se",
        "xyz": [3.090769463618114, 3.4595017880160914, 3.9002888347801026]
      },
      {
        "species": [{ "element": "Se", "occu": 1 }],
        "abc": [0.17691686, 0.8230831, 0.25000042],
        "properties": { "magmom": -0.0 },
        "label": "Se",
        "xyz": [-1.4503586408354467, 4.406293781694118, 1.30009697562097]
      },
      {
        "species": [{ "element": "Se", "occu": 1 }],
        "abc": [0.64617181, 0.82308361, 0.25000046],
        "properties": { "magmom": -0.0 },
        "label": "Se",
        "xyz": [1.4503787675484332, 4.406292049315036, 1.300097160173379]
      },
      {
        "species": [{ "element": "Se", "occu": 1 }],
        "abc": [0.176914699999999, 0.3538269, 0.25000041],
        "properties": { "magmom": 0.0 },
        "label": "Se",
        "xyz": [4.985436559549696e-6, 1.8941762657139953, 1.300096937694971]
      }
    ]
  },
  "task_ids": null,
  "uncorrected_energy_per_atom": null,
  "energy_per_atom": -30.8980999975,
  "formation_energy_per_atom": -0.950425279296876,
  "energy_above_hull": 0.0,
  "is_stable": true,
  "equilibrium_reaction_energy_per_atom": null,
  "decomposes_to": null,
  "xas": null,
  "grain_boundaries": null,
  "band_gap": 0.0,
  "cbm": null,
  "vbm": null,
  "efermi": 8.39045402,
  "is_gap_direct": null,
  "is_metal": null,
  "es_source_calc_id": null,
  "bandstructure": null,
  "dos": null,
  "dos_energy_up": null,
  "dos_energy_down": null,
  "is_magnetic": null,
  "ordering": null,
  "total_magnetization": 0.0,
  "total_magnetization_normalized_vol": null,
  "total_magnetization_normalized_formula_units": null,
  "num_magnetic_sites": null,
  "num_unique_magnetic_sites": null,
  "types_of_magnetic_species": null,
  "bulk_modulus": null,
  "shear_modulus": null,
  "universal_anisotropy": null,
  "homogeneous_poisson": null,
  "e_total": null,
  "e_ionic": null,
  "e_electronic": null,
  "n": null,
  "e_ij_max": null,
  "weighted_surface_energy_EV_PER_ANG2": null,
  "weighted_surface_energy": null,
  "weighted_work_function": null,
  "surface_anisotropy": null,
  "shape_factor": null,
  "has_reconstructed": null,
  "possible_species": null,
  "has_props": null,
  "theoretical": null,
  "database_IDs": null,
  "fields_not_requested": [
    "builder_meta",
    "nsites",
    "elements",
    "nelements",
    "composition",
    "composition_reduced",
    "chemsys",
    "symmetry",
    "property_name",
    "deprecated",
    "deprecation_reasons",
    "last_updated",
    "origins",
    "warnings",
    "task_ids",
    "uncorrected_energy_per_atom",
    "equilibrium_reaction_energy_per_atom",
    "decomposes_to",
    "xas",
    "grain_boundaries",
    "cbm",
    "vbm",
    "is_gap_direct",
    "is_metal",
    "es_source_calc_id",
    "bandstructure",
    "dos",
    "dos_energy_up",
    "dos_energy_down",
    "is_magnetic",
    "ordering",
    "total_magnetization_normalized_vol",
    "total_magnetization_normalized_formula_units",
    "num_magnetic_sites",
    "num_unique_magnetic_sites",
    "types_of_magnetic_species",
    "bulk_modulus",
    "shear_modulus",
    "universal_anisotropy",
    "homogeneous_poisson",
    "e_total",
    "e_ionic",
    "e_electronic",
    "n",
    "e_ij_max",
    "weighted_surface_energy_EV_PER_ANG2",
    "weighted_surface_energy",
    "weighted_work_function",
    "surface_anisotropy",
    "shape_factor",
    "has_reconstructed",
    "possible_species",
    "has_props",
    "theoretical",
    "database_IDs"
  ]
}
