{
  "builder_meta": null,
  "nsites": null,
  "elements": null,
  "nelements": null,
  "composition": null,
  "composition_reduced": null,
  "formula_pretty": "PaTe3",
  "formula_anonymous": "AB3",
  "chemsys": null,
  "volume": 226.05340846728683,
  "density": 9.018209158021138,
  "density_atomic": 28.256676058410854,
  "symmetry": null,
  "property_name": null,
  "material_id": "mp-862866",
  "deprecated": null,
  "deprecation_reasons": null,
  "last_updated": null,
  "origins": null,
  "warnings": null,
  "structure": {
    "@module": "pymatgen.core.structure",
    "@class": "Structure",
    "charge": 0,
    "lattice": {
      "matrix": [
        [6.69256943, 0.00026724, 0.00015064],
        [-3.34668244, 5.79577014, 0.00016828],
        [0.00039109, 0.00060224, 5.82769763]
      ],
      "pbc": [true, true, true],
      "a": 6.692569437030905,
      "b": 6.692625411468815,
      "c": 5.827697674240834,
      "alpha": 89.99535453910309,
      "beta": 89.9948650659504,
      "gamma": 120.00136713369922,
      "volume": 226.05340846728683
    },
    "properties": {},
    "sites": [
      {
        "species": [{ "element": "Pa", "occu": 1 }],
        "abc": [0.6666672100000001, 0.33333423, 0.25000057],
        "properties": { "magmom": 1.028 },
        "label": "Pa",
        "xyz": [3.346250548160391, 1.9322572973623695, 1.4570842495203877]
      },
      {
        "species": [{ "element": "Pa", "occu": 1 }],
        "abc": [0.33333004, 0.66666894, 0.74999815],
        "properties": { "magmom": 1.028 },
        "label": "Pa",
        "xyz": [-1.4822102530663377e-6, 3.8644006937231974, 4.3709248411458335]
      },
      {
        "species": [{ "element": "Te", "occu": 1 }],
        "abc": [0.824157199999999, 0.17583546, 0.75001051],
        "properties": { "magmom": -0.047 },
        "label": "Te",
        "xyz": [4.927557157533423, 1.0197738427208347, 4.370988212233907]
      },
      {
        "species": [{ "element": "Te", "occu": 1 }],
        "abc": [0.35162528, 0.17583179000000002, 0.75002083],
        "properties": { "magmom": -0.047 },
        "label": "Te",
        "xyz": [1.7651167614028274, 1.019626299029237, 4.370977171247434]
      },
      {
        "species": [{ "element": "Te", "occu": 1 }],
        "abc": [0.82417267, 0.64837176, 0.7499796400000001],
        "properties": { "magmom": -0.047 },
        "label": "Te",
        "xyz": [3.3462317420369923, 3.7584856058699705, 4.3708878319470355]
      },
      {
        "species": [{ "element": "Te", "occu": 1 }],
        "abc": [0.17584827, 0.82414413, 0.25000138],
        "properties": { "magmom": -0.047 },
        "label": "Te",
        "xyz": [-1.5811741587399868, 4.776747494233044, 1.4570976264803186]
      },
      {
        "species": [{ "element": "Te", "occu": 1 }],
        "abc": [0.64837503, 0.8241855, 0.24997241],
        "properties": { "magmom": -0.047 },
        "label": "Te",
        "xyz": [1.5811055265105396, 4.777113525848186, 1.4569999864728476]
      },
      {
        "species": [{ "element": "Te", "occu": 1 }],
        "abc": [0.17582629, 0.35162817, 0.25001051],
        "properties": { "magmom": -0.047 },
        "label": "Te",
        "xyz": [3.960810633571598e-5, 2.038153602216126, 1.4570713150628647]
      }
    ]
  },
  "task_ids": null,
  "uncorrected_energy_per_atom": null,
  "energy_per_atom": -38.75489243375,
  "formation_energy_per_atom": -0.47796965624999604,
  "energy_above_hull": 0.0,
  "is_stable": true,
  "equilibrium_reaction_energy_per_atom": null,
  "decomposes_to": null,
  "xas": null,
  "grain_boundaries": null,
  "band_gap": 0.0,
  "cbm": null,
  "vbm": null,
  "efermi": 9.77995014,
  "is_gap_direct": null,
  "is_metal": null,
  "es_source_calc_id": null,
  "bandstructure": null,
  "dos": null,
  "dos_energy_up": null,
  "dos_energy_down": null,
  "is_magnetic": null,
  "ordering": null,
  "total_magnetization": 1.7816029,
  "total_magnetization_normalized_vol": null,
  "total_magnetization_normalized_formula_units": null,
  "num_magnetic_sites": null,
  "num_unique_magnetic_sites": null,
  "types_of_magnetic_species": null,
  "bulk_modulus": null,
  "shear_modulus": null,
  "universal_anisotropy": null,
  "homogeneous_poisson": null,
  "e_total": null,
  "e_ionic": null,
  "e_electronic": null,
  "n": null,
  "e_ij_max": null,
  "weighted_surface_energy_EV_PER_ANG2": null,
  "weighted_surface_energy": null,
  "weighted_work_function": null,
  "surface_anisotropy": null,
  "shape_factor": null,
  "has_reconstructed": null,
  "possible_species": null,
  "has_props": null,
  "theoretical": null,
  "database_IDs": null,
  "fields_not_requested": [
    "builder_meta",
    "nsites",
    "elements",
    "nelements",
    "composition",
    "composition_reduced",
    "chemsys",
    "symmetry",
    "property_name",
    "deprecated",
    "deprecation_reasons",
    "last_updated",
    "origins",
    "warnings",
    "task_ids",
    "uncorrected_energy_per_atom",
    "equilibrium_reaction_energy_per_atom",
    "decomposes_to",
    "xas",
    "grain_boundaries",
    "cbm",
    "vbm",
    "is_gap_direct",
    "is_metal",
    "es_source_calc_id",
    "bandstructure",
    "dos",
    "dos_energy_up",
    "dos_energy_down",
    "is_magnetic",
    "ordering",
    "total_magnetization_normalized_vol",
    "total_magnetization_normalized_formula_units",
    "num_magnetic_sites",
    "num_unique_magnetic_sites",
    "types_of_magnetic_species",
    "bulk_modulus",
    "shear_modulus",
    "universal_anisotropy",
    "homogeneous_poisson",
    "e_total",
    "e_ionic",
    "e_electronic",
    "n",
    "e_ij_max",
    "weighted_surface_energy_EV_PER_ANG2",
    "weighted_surface_energy",
    "weighted_work_function",
    "surface_anisotropy",
    "shape_factor",
    "has_reconstructed",
    "possible_species",
    "has_props",
    "theoretical",
    "database_IDs"
  ]
}
