{
  "builder_meta": null,
  "nsites": null,
  "elements": null,
  "nelements": null,
  "composition": null,
  "composition_reduced": null,
  "formula_pretty": "PaZn3",
  "formula_anonymous": "AB3",
  "chemsys": null,
  "volume": 147.12313920287033,
  "density": 9.644801052942539,
  "density_atomic": 18.39039240035879,
  "symmetry": null,
  "property_name": null,
  "material_id": "mp-862865",
  "deprecated": null,
  "deprecation_reasons": null,
  "last_updated": null,
  "origins": null,
  "warnings": null,
  "structure": {
    "@module": "pymatgen.core.structure",
    "@class": "Structure",
    "charge": 0,
    "lattice": {
      "matrix": [
        [6.31967734, 9.179999999999999e-6, -0.0],
        [-3.15983152, 5.47300774, 0.0],
        [0.0, 0.0, 4.25362942]
      ],
      "pbc": [true, true, true],
      "a": 6.319677340006667,
      "b": 6.319679497956002,
      "c": 4.25362942,
      "alpha": 90.0,
      "beta": 90.0,
      "gamma": 119.99983062432175,
      "volume": 147.12313920287033
    },
    "properties": {},
    "sites": [
      {
        "species": [{ "element": "Pa", "occu": 1 }],
        "abc": [0.333333, 0.666667, 0.749997999999999],
        "properties": { "magmom": 0.41100000000000003 },
        "label": "Pa",
        "xyz": [1.606830379863311e-6, 3.6486767109995197, 3.1902135577411563]
      },
      {
        "species": [{ "element": "Pa", "occu": 1 }],
        "abc": [0.666666, 0.333331999999999, 0.249999],
        "properties": { "magmom": 0.41100000000000003 },
        "label": "Pa",
        "xyz": [3.159841053323803, 1.8243347359835544, 1.06340310137058]
      },
      {
        "species": [{ "element": "Zn", "occu": 1 }],
        "abc": [0.14499902, 0.85500098, 0.249999],
        "properties": { "magmom": 0.021 },
        "label": "Zn",
        "xyz": [-1.7853120252186825, 4.6794283123385885, 1.06340310137058]
      },
      {
        "species": [{ "element": "Zn", "occu": 1 }],
        "abc": [0.85500198, 0.71000197, 0.749997999999999],
        "properties": { "magmom": 0.021 },
        "label": "Zn",
        "xyz": [3.1598500345930387, 3.885854126143424, 3.1902135577411563]
      },
      {
        "species": [{ "element": "Zn", "occu": 1 }],
        "abc": [0.28999903, 0.14500002, 0.749997999999999],
        "properties": { "magmom": 0.021 },
        "label": "Zn",
        "xyz": [1.3745246649163496, 0.7935888939512502, 3.1902135577411563]
      },
      {
        "species": [{ "element": "Zn", "occu": 1 }],
        "abc": [0.85500198, 0.14500002, 0.749997999999999],
        "properties": { "magmom": 0.021 },
        "label": "Zn",
        "xyz": [4.945161005064503, 0.7935940806783313, 3.1902135577411563]
      },
      {
        "species": [{ "element": "Zn", "occu": 1 }],
        "abc": [0.14499902, 0.28999903, 0.249999],
        "properties": { "magmom": 0.021 },
        "label": "Zn",
        "xyz": [-1.0547472186761553e-6, 1.5871682668734957, 1.06340310137058]
      },
      {
        "species": [{ "element": "Zn", "occu": 1 }],
        "abc": [0.7100009700000001, 0.85500098, 0.249999],
        "properties": { "magmom": 0.021 },
        "label": "Zn",
        "xyz": [1.785317995252131, 4.67943349905649, 1.06340310137058]
      }
    ]
  },
  "task_ids": null,
  "uncorrected_energy_per_atom": null,
  "energy_per_atom": -25.95013628,
  "formation_energy_per_atom": -0.053179781249998004,
  "energy_above_hull": 0.0,
  "is_stable": true,
  "equilibrium_reaction_energy_per_atom": null,
  "decomposes_to": null,
  "xas": null,
  "grain_boundaries": null,
  "band_gap": 0.0,
  "cbm": null,
  "vbm": null,
  "efermi": 5.71467095,
  "is_gap_direct": null,
  "is_metal": null,
  "es_source_calc_id": null,
  "bandstructure": null,
  "dos": null,
  "dos_energy_up": null,
  "dos_energy_down": null,
  "is_magnetic": null,
  "ordering": null,
  "total_magnetization": 1.1814278,
  "total_magnetization_normalized_vol": null,
  "total_magnetization_normalized_formula_units": null,
  "num_magnetic_sites": null,
  "num_unique_magnetic_sites": null,
  "types_of_magnetic_species": null,
  "bulk_modulus": null,
  "shear_modulus": null,
  "universal_anisotropy": null,
  "homogeneous_poisson": null,
  "e_total": null,
  "e_ionic": null,
  "e_electronic": null,
  "n": null,
  "e_ij_max": null,
  "weighted_surface_energy_EV_PER_ANG2": null,
  "weighted_surface_energy": null,
  "weighted_work_function": null,
  "surface_anisotropy": null,
  "shape_factor": null,
  "has_reconstructed": null,
  "possible_species": null,
  "has_props": null,
  "theoretical": null,
  "database_IDs": null,
  "fields_not_requested": [
    "builder_meta",
    "nsites",
    "elements",
    "nelements",
    "composition",
    "composition_reduced",
    "chemsys",
    "symmetry",
    "property_name",
    "deprecated",
    "deprecation_reasons",
    "last_updated",
    "origins",
    "warnings",
    "task_ids",
    "uncorrected_energy_per_atom",
    "equilibrium_reaction_energy_per_atom",
    "decomposes_to",
    "xas",
    "grain_boundaries",
    "cbm",
    "vbm",
    "is_gap_direct",
    "is_metal",
    "es_source_calc_id",
    "bandstructure",
    "dos",
    "dos_energy_up",
    "dos_energy_down",
    "is_magnetic",
    "ordering",
    "total_magnetization_normalized_vol",
    "total_magnetization_normalized_formula_units",
    "num_magnetic_sites",
    "num_unique_magnetic_sites",
    "types_of_magnetic_species",
    "bulk_modulus",
    "shear_modulus",
    "universal_anisotropy",
    "homogeneous_poisson",
    "e_total",
    "e_ionic",
    "e_electronic",
    "n",
    "e_ij_max",
    "weighted_surface_energy_EV_PER_ANG2",
    "weighted_surface_energy",
    "weighted_work_function",
    "surface_anisotropy",
    "shape_factor",
    "has_reconstructed",
    "possible_species",
    "has_props",
    "theoretical",
    "database_IDs"
  ]
}
