{
  "builder_meta": null,
  "nsites": null,
  "elements": null,
  "nelements": null,
  "composition": null,
  "composition_reduced": null,
  "formula_pretty": "Pb2Au",
  "formula_anonymous": "AB2",
  "chemsys": null,
  "volume": 157.60792771037532,
  "density": 12.882576233135435,
  "density_atomic": 26.26798795172922,
  "symmetry": null,
  "property_name": null,
  "material_id": "mp-22795",
  "deprecated": null,
  "deprecation_reasons": null,
  "last_updated": null,
  "origins": null,
  "warnings": null,
  "structure": {
    "@module": "pymatgen.core.structure",
    "@class": "Structure",
    "charge": 0,
    "lattice": {
      "matrix": [
        [5.01789216, 0.00041566, 2.73587652],
        [2.51104495, 5.25155689, 1.36488972],
        [-0.00418348, -0.0034738300000000002, 5.97888793]
      ],
      "pbc": [true, true, true],
      "a": 5.715265718656483,
      "b": 5.978889567268211,
      "c": 5.978890402783736,
      "alpha": 76.85121522777573,
      "beta": 61.43980886531586,
      "gamma": 61.43980458439352,
      "volume": 157.60792771037532
    },
    "properties": {},
    "sites": [
      {
        "species": [{ "element": "Pb", "occu": 1 }],
        "abc": [0.15949235, 0.49997576, 0.18090934],
        "properties": { "magmom": 0.0 },
        "label": "Pb",
        "xyz": [2.0550201893096847, 2.6250889935586152, 2.2003998199080756]
      },
      {
        "species": [{ "element": "Pb", "occu": 1 }],
        "abc": [0.34050765, 0.81909066, 0.50002424],
        "properties": { "magmom": 0.0 },
        "label": "Pb",
        "xyz": [3.7633122913326353, 4.299905735261807, 5.039144199340816]
      },
      {
        "species": [{ "element": "Pb", "occu": 1 }],
        "abc": [0.6594923500000001, 0.18090934, 0.49997576],
        "properties": { "magmom": 0.0 },
        "label": "Pb",
        "xyz": [3.7614413386673644, 0.9485929847381928, 5.040509970659183]
      },
      {
        "species": [{ "element": "Pb", "occu": 1 }],
        "abc": [0.84050765, 0.50002424, 0.81909066],
        "properties": { "magmom": 0.0 },
        "label": "Pb",
        "xyz": [5.469733440690316, 2.6234097264413845, 7.879254350091925]
      },
      {
        "species": [{ "element": "Au", "occu": 1 }],
        "abc": [0.25, 0.99987599, 0.00012401],
        "properties": { "magmom": -0.0 },
        "label": "Au",
        "xyz": [3.7652060765223956, 5.251009128640414, 2.0494310319180222]
      },
      {
        "species": [{ "element": "Au", "occu": 1 }],
        "abc": [0.75, 0.00012401, 0.99987599],
        "properties": { "magmom": -0.0 },
        "label": "Au",
        "xyz": [3.7595475534776046, -0.0025104086404128005, 8.030223138081979]
      }
    ]
  },
  "task_ids": null,
  "uncorrected_energy_per_atom": null,
  "energy_per_atom": -54.47428943666667,
  "formation_energy_per_atom": -0.089213313333336,
  "energy_above_hull": 0.0,
  "is_stable": true,
  "equilibrium_reaction_energy_per_atom": null,
  "decomposes_to": null,
  "xas": null,
  "grain_boundaries": null,
  "band_gap": 0.0,
  "cbm": null,
  "vbm": null,
  "efermi": 6.51740035,
  "is_gap_direct": null,
  "is_metal": null,
  "es_source_calc_id": null,
  "bandstructure": null,
  "dos": null,
  "dos_energy_up": null,
  "dos_energy_down": null,
  "is_magnetic": null,
  "ordering": null,
  "total_magnetization": 0.0,
  "total_magnetization_normalized_vol": null,
  "total_magnetization_normalized_formula_units": null,
  "num_magnetic_sites": null,
  "num_unique_magnetic_sites": null,
  "types_of_magnetic_species": null,
  "bulk_modulus": null,
  "shear_modulus": null,
  "universal_anisotropy": null,
  "homogeneous_poisson": null,
  "e_total": null,
  "e_ionic": null,
  "e_electronic": null,
  "n": null,
  "e_ij_max": null,
  "weighted_surface_energy_EV_PER_ANG2": null,
  "weighted_surface_energy": null,
  "weighted_work_function": null,
  "surface_anisotropy": null,
  "shape_factor": null,
  "has_reconstructed": null,
  "possible_species": null,
  "has_props": null,
  "theoretical": null,
  "database_IDs": null,
  "fields_not_requested": [
    "builder_meta",
    "nsites",
    "elements",
    "nelements",
    "composition",
    "composition_reduced",
    "chemsys",
    "symmetry",
    "property_name",
    "deprecated",
    "deprecation_reasons",
    "last_updated",
    "origins",
    "warnings",
    "task_ids",
    "uncorrected_energy_per_atom",
    "equilibrium_reaction_energy_per_atom",
    "decomposes_to",
    "xas",
    "grain_boundaries",
    "cbm",
    "vbm",
    "is_gap_direct",
    "is_metal",
    "es_source_calc_id",
    "bandstructure",
    "dos",
    "dos_energy_up",
    "dos_energy_down",
    "is_magnetic",
    "ordering",
    "total_magnetization_normalized_vol",
    "total_magnetization_normalized_formula_units",
    "num_magnetic_sites",
    "num_unique_magnetic_sites",
    "types_of_magnetic_species",
    "bulk_modulus",
    "shear_modulus",
    "universal_anisotropy",
    "homogeneous_poisson",
    "e_total",
    "e_ionic",
    "e_electronic",
    "n",
    "e_ij_max",
    "weighted_surface_energy_EV_PER_ANG2",
    "weighted_surface_energy",
    "weighted_work_function",
    "surface_anisotropy",
    "shape_factor",
    "has_reconstructed",
    "possible_species",
    "has_props",
    "theoretical",
    "database_IDs"
  ]
}
