{
  "builder_meta": null,
  "nsites": null,
  "elements": null,
  "nelements": null,
  "composition": null,
  "composition_reduced": null,
  "formula_pretty": "Pb2O3",
  "formula_anonymous": "A2B3",
  "chemsys": null,
  "volume": 312.20383580650474,
  "density": 9.837550822423589,
  "density_atomic": 15.610191790325237,
  "symmetry": null,
  "property_name": null,
  "material_id": "mp-20078",
  "deprecated": null,
  "deprecation_reasons": null,
  "last_updated": null,
  "origins": null,
  "warnings": null,
  "structure": {
    "@module": "pymatgen.core.structure",
    "@class": "Structure",
    "charge": 0,
    "lattice": {
      "matrix": [
        [5.68097231, 0.0, 0.0],
        [0.0, 7.6006709, -0.00333407],
        [0.0, 3.06148285, 7.22907887]
      ],
      "pbc": [true, true, true],
      "a": 5.68097231,
      "b": 7.600671631252699,
      "c": 7.850621539058205,
      "alpha": 67.07269080244893,
      "beta": 90.0,
      "gamma": 90.0,
      "volume": 312.20383580650474
    },
    "properties": {},
    "sites": [
      {
        "species": [{ "element": "Pb", "occu": 1 }],
        "abc": [0.7543568700000001, 0.08860114000000001, 0.88293811],
        "properties": { "magmom": -0.0 },
        "label": "Pb",
        "xyz": [4.28548049032827, 3.3765279878812398, 6.382533832115897]
      },
      {
        "species": [{ "element": "Pb", "occu": 1 }],
        "abc": [0.25435687, 0.91139886, 0.61706189],
        "properties": { "magmom": -0.0 },
        "label": "Pb",
        "xyz": [1.4449943353282697, 8.816367187118761, 4.457750402884105]
      },
      {
        "species": [{ "element": "Pb", "occu": 1 }],
        "abc": [0.24564313000000002, 0.91139886, 0.11706189],
        "properties": { "magmom": -0.0 },
        "label": "Pb",
        "xyz": [1.3954918196717303, 7.285625762118761, 0.8432109678841041]
      },
      {
        "species": [{ "element": "Pb", "occu": 1 }],
        "abc": [0.74564313, 0.08860114000000001, 0.38293811],
        "properties": { "magmom": -0.0 },
        "label": "Pb",
        "xyz": [4.23597797467173, 1.8457865628812398, 2.767994397115896]
      },
      {
        "species": [{ "element": "Pb", "occu": 1 }],
        "abc": [0.7416965600000001, 0.61225745, 0.8538528],
        "properties": { "magmom": -0.0 },
        "label": "Pb",
        "xyz": [4.213557619782254, 7.267623087147685, 6.170527925374015]
      },
      {
        "species": [{ "element": "Pb", "occu": 1 }],
        "abc": [0.24169656, 0.38774255, 0.646147199999999],
        "properties": { "magmom": -0.0 },
        "label": "Pb",
        "xyz": [1.3730714647822535, 4.925272087852312, 4.6697563096259795]
      },
      {
        "species": [{ "element": "Pb", "occu": 1 }],
        "abc": [0.25830344, 0.38774255, 0.1461472],
        "properties": { "magmom": -0.0 },
        "label": "Pb",
        "xyz": [1.4674146902177463, 3.394530662852315, 1.0552168746259856]
      },
      {
        "species": [{ "element": "Pb", "occu": 1 }],
        "abc": [0.75830344, 0.61225745, 0.353852799999999],
        "properties": { "magmom": -0.0 },
        "label": "Pb",
        "xyz": [4.3079008452177465, 5.736881662147682, 2.5559884903740073]
      },
      {
        "species": [{ "element": "O", "occu": 1 }],
        "abc": [0.62692466, 0.36872257, 0.73486691],
        "properties": { "magmom": 0.0 },
        "label": "O",
        "xyz": [3.5615416339161645, 5.052321349969707, 5.3111815044842325]
      },
      {
        "species": [{ "element": "O", "occu": 1 }],
        "abc": [0.12692466, 0.63127743, 0.7651330900000001],
        "properties": { "magmom": 0.0 },
        "label": "O",
        "xyz": [0.7210554789161645, 7.140573825030293, 5.529102730515769]
      },
      {
        "species": [{ "element": "O", "occu": 1 }],
        "abc": [0.37307534000000003, 0.63127743, 0.26513309],
        "properties": { "magmom": 0.0 },
        "label": "O",
        "xyz": [2.1194306760838355, 5.609832400030293, 1.9145632955157685]
      },
      {
        "species": [{ "element": "O", "occu": 1 }],
        "abc": [0.87307534, 0.36872257, 0.23486691],
        "properties": { "magmom": 0.0 },
        "label": "O",
        "xyz": [4.959916831083835, 3.5215799249697066, 1.696642069484232]
      },
      {
        "species": [{ "element": "O", "occu": 1 }],
        "abc": [0.90880329, 0.8094494, 0.05043084],
        "properties": { "magmom": -0.0 },
        "label": "O",
        "xyz": [5.1628863257269, 6.3067516513735535, 0.36186975887929285]
      },
      {
        "species": [{ "element": "O", "occu": 1 }],
        "abc": [0.40880329, 0.1905506, 0.44956916],
        "properties": { "magmom": -0.0 },
        "label": "O",
        "xyz": [2.3224001707268997, 2.824660673626446, 3.2493356061207077]
      },
      {
        "species": [{ "element": "O", "occu": 1 }],
        "abc": [0.09119671, 0.1905506, 0.94956916],
        "properties": { "magmom": -0.0 },
        "label": "O",
        "xyz": [0.5180859842731, 4.3554020986264455, 6.863875041120708]
      },
      {
        "species": [{ "element": "O", "occu": 1 }],
        "abc": [0.59119671, 0.8094494, 0.55043084],
        "properties": { "magmom": -0.0 },
        "label": "O",
        "xyz": [3.3585721392731, 7.837493076373553, 3.976409193879293]
      },
      {
        "species": [{ "element": "O", "occu": 1 }],
        "abc": [0.43250456, 0.93369731, 0.85960165],
        "properties": { "magmom": 0.0 },
        "label": "O",
        "xyz": [2.4570464293087335, 9.728381682831982, 6.211015112441784]
      },
      {
        "species": [{ "element": "O", "occu": 1 }],
        "abc": [0.93250456, 0.06630269, 0.64039835],
        "properties": { "magmom": 0.0 },
        "label": "O",
        "xyz": [5.297532584308733, 2.4645134921680185, 4.629269122558217]
      },
      {
        "species": [{ "element": "O", "occu": 1 }],
        "abc": [0.56749544, 0.06630269, 0.14039835],
        "properties": { "magmom": 0.0 },
        "label": "O",
        "xyz": [3.223925880691266, 0.9337720671680185, 1.0147296875582164]
      },
      {
        "species": [{ "element": "O", "occu": 1 }],
        "abc": [0.06749544, 0.93369731, 0.35960165],
        "properties": { "magmom": 0.0 },
        "label": "O",
        "xyz": [0.3834397256912664, 8.197640257831981, 2.596475677441784]
      }
    ]
  },
  "task_ids": null,
  "uncorrected_energy_per_atom": null,
  "energy_per_atom": -5.8471806399999995,
  "formation_energy_per_atom": -1.393345208999998,
  "energy_above_hull": 0.009435708499998,
  "is_stable": false,
  "equilibrium_reaction_energy_per_atom": null,
  "decomposes_to": null,
  "xas": null,
  "grain_boundaries": null,
  "band_gap": 1.074899999999999,
  "cbm": null,
  "vbm": null,
  "efermi": 4.8816147,
  "is_gap_direct": null,
  "is_metal": null,
  "es_source_calc_id": null,
  "bandstructure": null,
  "dos": null,
  "dos_energy_up": null,
  "dos_energy_down": null,
  "is_magnetic": null,
  "ordering": null,
  "total_magnetization": 0.0,
  "total_magnetization_normalized_vol": null,
  "total_magnetization_normalized_formula_units": null,
  "num_magnetic_sites": null,
  "num_unique_magnetic_sites": null,
  "types_of_magnetic_species": null,
  "bulk_modulus": null,
  "shear_modulus": null,
  "universal_anisotropy": null,
  "homogeneous_poisson": null,
  "e_total": null,
  "e_ionic": null,
  "e_electronic": null,
  "n": null,
  "e_ij_max": null,
  "weighted_surface_energy_EV_PER_ANG2": null,
  "weighted_surface_energy": null,
  "weighted_work_function": null,
  "surface_anisotropy": null,
  "shape_factor": null,
  "has_reconstructed": null,
  "possible_species": null,
  "has_props": null,
  "theoretical": null,
  "database_IDs": null,
  "fields_not_requested": [
    "builder_meta",
    "nsites",
    "elements",
    "nelements",
    "composition",
    "composition_reduced",
    "chemsys",
    "symmetry",
    "property_name",
    "deprecated",
    "deprecation_reasons",
    "last_updated",
    "origins",
    "warnings",
    "task_ids",
    "uncorrected_energy_per_atom",
    "equilibrium_reaction_energy_per_atom",
    "decomposes_to",
    "xas",
    "grain_boundaries",
    "cbm",
    "vbm",
    "is_gap_direct",
    "is_metal",
    "es_source_calc_id",
    "bandstructure",
    "dos",
    "dos_energy_up",
    "dos_energy_down",
    "is_magnetic",
    "ordering",
    "total_magnetization_normalized_vol",
    "total_magnetization_normalized_formula_units",
    "num_magnetic_sites",
    "num_unique_magnetic_sites",
    "types_of_magnetic_species",
    "bulk_modulus",
    "shear_modulus",
    "universal_anisotropy",
    "homogeneous_poisson",
    "e_total",
    "e_ionic",
    "e_electronic",
    "n",
    "e_ij_max",
    "weighted_surface_energy_EV_PER_ANG2",
    "weighted_surface_energy",
    "weighted_work_function",
    "surface_anisotropy",
    "shape_factor",
    "has_reconstructed",
    "possible_species",
    "has_props",
    "theoretical",
    "database_IDs"
  ]
}
