{"builder_meta": null, "nsites": null, "elements": null, "nelements": null, "composition": null, "composition_reduced": null, "formula_pretty": "Pb3Au", "formula_anonymous": "AB3", "chemsys": null, "volume": 441.1260874497698, "density": 12.325380929478587, "density_atomic": 27.57038046561061, "symmetry": null, "property_name": null, "material_id": "mp-30412", "deprecated": null, "deprecation_reasons": null, "last_updated": null, "origins": null, "warnings": null, "structure": {"@module": "pymatgen.core.structure", "@class": "Structure", "charge": 0, "lattice": {"matrix": [[5.75298702, -0.01890309, 1.97910878], [2.84823618, 8.50577462, 0.98908262], [0.05609778, -0.0006237500000000001, 9.02417725]], "pbc": [true, true, true], "a": 6.083920491112052, "b": 9.02435236748229, "c": 9.024351632632815, "alpha": 83.5984278636921, "beta": 70.6599753304222, "gamma": 70.65996322175475, "volume": 441.1260874497698}, "properties": {}, "sites": [{"species": [{"element": "Pb", "occu": 1}], "abc": [0.35673131, 0.64182437, 0.6427838300000001], "properties": {"magmom": 0.0}, "label": "Pb", "xyz": [3.9163967337802, 5.45206917637078, 7.141422612535219]}, {"species": [{"element": "Pb", "occu": 1}], "abc": [0.0, 0.64164763, 0.35835237000000003], "properties": {"magmom": -0.0}, "label": "Pb", "xyz": [1.847666766991992, 5.457486603946363, 3.868477823834773]}, {"species": [{"element": "Pb", "occu": 1}], "abc": [-0.0, 0.35739587, 0.64260413], "properties": {"magmom": -0.0}, "label": "Pb", "xyz": [1.053996512628408, 3.039527896012732, 6.152467614178821]}, {"species": [{"element": "Pb", "occu": 1}], "abc": [0.64326869, 0.35721617, 0.35817563], "properties": {"magmom": 0.0}, "label": "Pb", "xyz": [4.738245301110536, 3.0260170546491407, 4.858655389358481]}, {"species": [{"element": "Pb", "occu": 1}], "abc": [0.85135939, 0.00034083000000000003, 0.80648051], "properties": {"magmom": 0.0}, "label": "Pb", "xyz": [4.944072050586616, -0.013697342225893002, 8.963093023624216]}, {"species": [{"element": "Pb", "occu": 1}], "abc": [0.34234242, 0.80842419, 0.9996014], "properties": {"magmom": 0.0}, "label": "Pb", "xyz": [4.328149944825474, 6.86917912654673, 10.497711418053175]}, {"species": [{"element": "Pb", "occu": 1}], "abc": [0.14864061, 0.19351949000000002, 0.99965917], "properties": {"magmom": 0.0}, "label": "Pb", "xyz": [1.462395373121673, 1.6425998622815714, 9.506684240173701]}, {"species": [{"element": "Pb", "occu": 1}], "abc": [0.65765758, 0.0003986, 0.19157581], "properties": {"magmom": 0.0}, "label": "Pb", "xyz": [3.795377805928661, -0.0091608540718777, 3.0307842053962064]}, {"species": [{"element": "Pb", "occu": 1}], "abc": [0.48189015, 0.9994955, 0.59203243], "properties": {"magmom": 0.0}, "label": "Pb", "xyz": [5.652318727874048, 8.492004963600435, 7.284902240746945]}, {"species": [{"element": "Pb", "occu": 1}], "abc": [0.9247881, 0.59509732, 0.00139763], "properties": {"magmom": 0.0}, "label": "Pb", "xyz": [7.015350056935761, 5.044281456429077, 2.4314691256200143]}, {"species": [{"element": "Pb", "occu": 1}], "abc": [0.51810985, 0.40796757, 0.0005055], "properties": {"magmom": 0.0}, "label": "Pb", "xyz": [4.142695592552619, 3.460286010259012, 1.4334711077499915]}, {"species": [{"element": "Pb", "occu": 1}], "abc": [0.0752119, 0.9986023700000001, 0.40490268], "properties": {"magmom": 0.0}, "label": "Pb", "xyz": [3.299662625581335, 8.492212398856429, 4.790466333428322]}, {"species": [{"element": "Au", "occu": 1}], "abc": [0.7951268300000001, 0.70392886, 0.7045018], "properties": {"magmom": 0.0}, "label": "Au", "xyz": [6.618830966427905, 5.971990444646879, 8.62743540775303]}, {"species": [{"element": "Au", "occu": 1}], "abc": [0.5, 0.70378345, 0.29621655], "properties": {"magmom": -0.0}, "label": "Au", "xyz": [4.897652086029479, 5.976587096912977, 4.358765020222126]}, {"species": [{"element": "Au", "occu": 1}], "abc": [0.5, 0.29486059000000003, 0.70513941], "properties": {"magmom": -0.0}, "label": "Au", "xyz": [3.7558828659856562, 2.4981263471532382, 7.644498896692368]}, {"species": [{"element": "Au", "occu": 1}], "abc": [0.20487317, 0.2954982, 0.29607114], "properties": {"magmom": 0.0}, "label": "Au", "xyz": [2.0368902857971984, 2.5093836794710134, 3.369536869364281]}]}, "task_ids": null, "uncorrected_energy_per_atom": null, "energy_per_atom": -54.921916693125, "formation_energy_per_atom": -0.06182607312499701, "energy_above_hull": 0.005083911875004001, "is_stable": false, "equilibrium_reaction_energy_per_atom": null, "decomposes_to": null, "xas": null, "grain_boundaries": null, "band_gap": 0.0, "cbm": null, "vbm": null, "efermi": 6.5240288, "is_gap_direct": null, "is_metal": null, "es_source_calc_id": null, "bandstructure": null, "dos": null, "dos_energy_up": null, "dos_energy_down": null, "is_magnetic": null, "ordering": null, "total_magnetization": 3e-07, "total_magnetization_normalized_vol": null, "total_magnetization_normalized_formula_units": null, "num_magnetic_sites": null, "num_unique_magnetic_sites": null, "types_of_magnetic_species": null, "bulk_modulus": null, "shear_modulus": null, "universal_anisotropy": null, "homogeneous_poisson": null, "e_total": null, "e_ionic": null, "e_electronic": null, "n": null, "e_ij_max": null, "weighted_surface_energy_EV_PER_ANG2": null, "weighted_surface_energy": null, "weighted_work_function": null, "surface_anisotropy": null, "shape_factor": null, "has_reconstructed": null, "possible_species": null, "has_props": null, "theoretical": null, "database_IDs": null, "fields_not_requested": ["builder_meta", "nsites", "elements", "nelements", "composition", "composition_reduced", "chemsys", "symmetry", "property_name", "deprecated", "deprecation_reasons", "last_updated", "origins", "warnings", "task_ids", "uncorrected_energy_per_atom", "equilibrium_reaction_energy_per_atom", "decomposes_to", "xas", "grain_boundaries", "cbm", "vbm", "is_gap_direct", "is_metal", "es_source_calc_id", "bandstructure", "dos", "dos_energy_up", "dos_energy_down", "is_magnetic", "ordering", "total_magnetization_normalized_vol", "total_magnetization_normalized_formula_units", "num_magnetic_sites", "num_unique_magnetic_sites", "types_of_magnetic_species", "bulk_modulus", "shear_modulus", "universal_anisotropy", "homogeneous_poisson", "e_total", "e_ionic", "e_electronic", "n", "e_ij_max", "weighted_surface_energy_EV_PER_ANG2", "weighted_surface_energy", "weighted_work_function", "surface_anisotropy", "shape_factor", "has_reconstructed", "possible_species", "has_props", "theoretical", "database_IDs"]}