{
  "builder_meta": null,
  "nsites": null,
  "elements": null,
  "nelements": null,
  "composition": null,
  "composition_reduced": null,
  "formula_pretty": "Pb3N2",
  "formula_anonymous": "A2B3",
  "chemsys": null,
  "volume": 244.48311509606347,
  "density": 8.824400232817723,
  "density_atomic": 24.44831150960635,
  "symmetry": null,
  "property_name": null,
  "material_id": "mp-1080198",
  "deprecated": null,
  "deprecation_reasons": null,
  "last_updated": null,
  "origins": null,
  "warnings": null,
  "structure": {
    "@module": "pymatgen.core.structure",
    "@class": "Structure",
    "charge": 0,
    "lattice": {
      "matrix": [
        [3.637584, 0.0, 0.0],
        [0.0, 5.624108, 0.0],
        [0.0, 0.0, 11.950393]
      ],
      "pbc": [true, true, true],
      "a": 3.637584,
      "b": 5.624108,
      "c": 11.950393,
      "alpha": 90.0,
      "beta": 90.0,
      "gamma": 90.0,
      "volume": 244.48311509606347
    },
    "properties": {},
    "sites": [
      {
        "species": [{ "element": "Pb", "occu": 1 }],
        "abc": [0.5, 0.276725, 0.8182100000000001],
        "properties": { "magmom": 0.0 },
        "label": "Pb",
        "xyz": [1.818792, 1.5563312862999998, 9.77793105653]
      },
      {
        "species": [{ "element": "Pb", "occu": 1 }],
        "abc": [0.5, 0.276725, 0.18179],
        "properties": { "magmom": 0.0 },
        "label": "Pb",
        "xyz": [1.818792, 1.5563312862999998, 2.17246194347]
      },
      {
        "species": [{ "element": "Pb", "occu": 1 }],
        "abc": [0.0, 0.723275, 0.68179],
        "properties": { "magmom": 0.0 },
        "label": "Pb",
        "xyz": [0.0, 4.0677767137, 8.14765844347]
      },
      {
        "species": [{ "element": "Pb", "occu": 1 }],
        "abc": [0.0, 0.723275, 0.31821000000000005],
        "properties": { "magmom": 0.0 },
        "label": "Pb",
        "xyz": [0.0, 4.0677767137, 3.802734556530001]
      },
      {
        "species": [{ "element": "Pb", "occu": 1 }],
        "abc": [0.5, 0.227257, 0.5],
        "properties": { "magmom": 0.0 },
        "label": "Pb",
        "xyz": [1.818792, 1.2781179117559998, 5.9751965]
      },
      {
        "species": [{ "element": "Pb", "occu": 1 }],
        "abc": [0.0, 0.772743, 0.0],
        "properties": { "magmom": 0.0 },
        "label": "Pb",
        "xyz": [0.0, 4.345990088243999, 0.0]
      },
      {
        "species": [{ "element": "N", "occu": 1 }],
        "abc": [0.5, 0.476433999999999, 0.354686],
        "properties": { "magmom": -0.0 },
        "label": "N",
        "xyz": [1.818792, 2.679516270871994, 4.238637091598]
      },
      {
        "species": [{ "element": "N", "occu": 1 }],
        "abc": [0.5, 0.476433999999999, 0.645313999999999],
        "properties": { "magmom": -0.0 },
        "label": "N",
        "xyz": [1.818792, 2.679516270871994, 7.711755908401988]
      },
      {
        "species": [{ "element": "N", "occu": 1 }],
        "abc": [0.0, 0.523566, 0.145314],
        "properties": { "magmom": -0.0 },
        "label": "N",
        "xyz": [0.0, 2.9445917291279997, 1.736559408402]
      },
      {
        "species": [{ "element": "N", "occu": 1 }],
        "abc": [0.0, 0.523566, 0.854686],
        "properties": { "magmom": -0.0 },
        "label": "N",
        "xyz": [0.0, 2.9445917291279997, 10.213833591598]
      }
    ]
  },
  "task_ids": null,
  "uncorrected_energy_per_atom": null,
  "energy_per_atom": -37.075145910500005,
  "formation_energy_per_atom": 0.34743482399999803,
  "energy_above_hull": 0.34743482399999603,
  "is_stable": false,
  "equilibrium_reaction_energy_per_atom": null,
  "decomposes_to": null,
  "xas": null,
  "grain_boundaries": null,
  "band_gap": 0.0,
  "cbm": null,
  "vbm": null,
  "efermi": 5.11663634,
  "is_gap_direct": null,
  "is_metal": null,
  "es_source_calc_id": null,
  "bandstructure": null,
  "dos": null,
  "dos_energy_up": null,
  "dos_energy_down": null,
  "is_magnetic": null,
  "ordering": null,
  "total_magnetization": 0.0017966999999990002,
  "total_magnetization_normalized_vol": null,
  "total_magnetization_normalized_formula_units": null,
  "num_magnetic_sites": null,
  "num_unique_magnetic_sites": null,
  "types_of_magnetic_species": null,
  "bulk_modulus": null,
  "shear_modulus": null,
  "universal_anisotropy": null,
  "homogeneous_poisson": null,
  "e_total": null,
  "e_ionic": null,
  "e_electronic": null,
  "n": null,
  "e_ij_max": null,
  "weighted_surface_energy_EV_PER_ANG2": null,
  "weighted_surface_energy": null,
  "weighted_work_function": null,
  "surface_anisotropy": null,
  "shape_factor": null,
  "has_reconstructed": null,
  "possible_species": null,
  "has_props": null,
  "theoretical": null,
  "database_IDs": null,
  "fields_not_requested": [
    "builder_meta",
    "nsites",
    "elements",
    "nelements",
    "composition",
    "composition_reduced",
    "chemsys",
    "symmetry",
    "property_name",
    "deprecated",
    "deprecation_reasons",
    "last_updated",
    "origins",
    "warnings",
    "task_ids",
    "uncorrected_energy_per_atom",
    "equilibrium_reaction_energy_per_atom",
    "decomposes_to",
    "xas",
    "grain_boundaries",
    "cbm",
    "vbm",
    "is_gap_direct",
    "is_metal",
    "es_source_calc_id",
    "bandstructure",
    "dos",
    "dos_energy_up",
    "dos_energy_down",
    "is_magnetic",
    "ordering",
    "total_magnetization_normalized_vol",
    "total_magnetization_normalized_formula_units",
    "num_magnetic_sites",
    "num_unique_magnetic_sites",
    "types_of_magnetic_species",
    "bulk_modulus",
    "shear_modulus",
    "universal_anisotropy",
    "homogeneous_poisson",
    "e_total",
    "e_ionic",
    "e_electronic",
    "n",
    "e_ij_max",
    "weighted_surface_energy_EV_PER_ANG2",
    "weighted_surface_energy",
    "weighted_work_function",
    "surface_anisotropy",
    "shape_factor",
    "has_reconstructed",
    "possible_species",
    "has_props",
    "theoretical",
    "database_IDs"
  ]
}
