{"builder_meta": null, "nsites": null, "elements": null, "nelements": null, "composition": null, "composition_reduced": null, "formula_pretty": "Pb3N4", "formula_anonymous": "A3B4", "chemsys": null, "volume": 142.03434477614678, "density": 7.922209066747599, "density_atomic": 20.290620682306685, "symmetry": null, "property_name": null, "material_id": "mp-1080242", "deprecated": null, "deprecation_reasons": null, "last_updated": null, "origins": null, "warnings": null, "structure": {"@module": "pymatgen.core.structure", "@class": "Structure", "charge": 0, "lattice": {"matrix": [[3.443693, -4.010716, 0.0], [3.443693, 4.010716, 0.0], [-1.227408, 0.0, 5.141822]], "pbc": [true, true, true], "a": 5.286290221970886, "b": 5.286290221970886, "c": 5.286290181038874, "alpha": 98.69969566200017, "beta": 98.69969566200017, "gamma": 98.69970599957394, "volume": 142.03434477614678}, "properties": {}, "sites": [{"species": [{"element": "Pb", "occu": 1}], "abc": [0.071404, 0.616328, 0.071404], "properties": {"magmom": -0.0}, "label": "Pb", "xyz": [2.2806960334440003, 2.1855354055840004, 0.367146658088]}, {"species": [{"element": "Pb", "occu": 1}], "abc": [0.616328, 0.071404, 0.071404], "properties": {"magmom": -0.0}, "label": "Pb", "xyz": [2.2806960334440003, -2.1855354055840004, 0.367146658088]}, {"species": [{"element": "Pb", "occu": 1}], "abc": [0.071404, 0.071404, 0.616328], "properties": {"magmom": -0.0}, "label": "Pb", "xyz": [-0.26469900788, 0.0, 3.169048869616]}, {"species": [{"element": "N", "occu": 1}], "abc": [0.487708, 0.198757, 0.487708], "properties": {"magmom": 0.0}, "label": "N", "xyz": [1.765358014381, -1.158900398916, 2.507707723976]}, {"species": [{"element": "N", "occu": 1}], "abc": [0.198757, 0.487708, 0.487708], "properties": {"magmom": 0.0}, "label": "N", "xyz": [1.765358014381, 1.158900398916, 2.507707723976]}, {"species": [{"element": "N", "occu": 1}], "abc": [0.487708, 0.487708, 0.198757], "properties": {"magmom": 0.0}, "label": "N", "xyz": [3.115077319432, 0.0, 1.021973115254]}, {"species": [{"element": "N", "occu": 1}], "abc": [0.40169000000000005, 0.40169000000000005, 0.40169000000000005], "properties": {"magmom": -0.0}, "label": "N", "xyz": [2.2735565628200005, 0.0, 2.0654184791800003]}]}, "task_ids": null, "uncorrected_energy_per_atom": null, "energy_per_atom": -28.857579110714287, "formation_energy_per_atom": 0.481050177142857, "energy_above_hull": 0.481050177142858, "is_stable": false, "equilibrium_reaction_energy_per_atom": null, "decomposes_to": null, "xas": null, "grain_boundaries": null, "band_gap": 0.0, "cbm": null, "vbm": null, "efermi": 5.37458757, "is_gap_direct": null, "is_metal": null, "es_source_calc_id": null, "bandstructure": null, "dos": null, "dos_energy_up": null, "dos_energy_down": null, "is_magnetic": null, "ordering": null, "total_magnetization": 0.0001437, "total_magnetization_normalized_vol": null, "total_magnetization_normalized_formula_units": null, "num_magnetic_sites": null, "num_unique_magnetic_sites": null, "types_of_magnetic_species": null, "bulk_modulus": null, "shear_modulus": null, "universal_anisotropy": null, "homogeneous_poisson": null, "e_total": null, "e_ionic": null, "e_electronic": null, "n": null, "e_ij_max": null, "weighted_surface_energy_EV_PER_ANG2": null, "weighted_surface_energy": null, "weighted_work_function": null, "surface_anisotropy": null, "shape_factor": null, "has_reconstructed": null, "possible_species": null, "has_props": null, "theoretical": null, "database_IDs": null, "fields_not_requested": ["builder_meta", "nsites", "elements", "nelements", "composition", "composition_reduced", "chemsys", "symmetry", "property_name", "deprecated", "deprecation_reasons", "last_updated", "origins", "warnings", "task_ids", "uncorrected_energy_per_atom", "equilibrium_reaction_energy_per_atom", "decomposes_to", "xas", "grain_boundaries", "cbm", "vbm", "is_gap_direct", "is_metal", "es_source_calc_id", "bandstructure", "dos", "dos_energy_up", "dos_energy_down", "is_magnetic", "ordering", "total_magnetization_normalized_vol", "total_magnetization_normalized_formula_units", "num_magnetic_sites", "num_unique_magnetic_sites", "types_of_magnetic_species", "bulk_modulus", "shear_modulus", "universal_anisotropy", "homogeneous_poisson", "e_total", "e_ionic", "e_electronic", "n", "e_ij_max", "weighted_surface_energy_EV_PER_ANG2", "weighted_surface_energy", "weighted_work_function", "surface_anisotropy", "shape_factor", "has_reconstructed", "possible_species", "has_props", "theoretical", "database_IDs"]}