{"builder_meta": null, "nsites": null, "elements": null, "nelements": null, "composition": null, "composition_reduced": null, "formula_pretty": "Pb3O5", "formula_anonymous": "A3B5", "chemsys": null, "volume": 1020.743280560515, "density": 9.130830442456512, "density_atomic": 15.949113758758047, "symmetry": null, "property_name": null, "material_id": "mp-651870", "deprecated": null, "deprecation_reasons": null, "last_updated": null, "origins": null, "warnings": null, "structure": {"@module": "pymatgen.core.structure", "@class": "Structure", "charge": 0, "lattice": {"matrix": [[4.008175, -11.495423, 0.0], [4.008175, 11.495423, 0.0], [0.0, 0.0, 11.076815]], "pbc": [true, true, true], "a": 12.174161851213988, "b": 12.174161851213988, "c": 11.076815, "alpha": 90.0, "beta": 90.0, "gamma": 141.5551528538526, "volume": 1020.743280560515}, "properties": {}, "sites": [{"species": [{"element": "Pb", "occu": 1}], "abc": [0.509871, 0.990128999999999, 0.75], "properties": {"magmom": -0.0}, "label": "Pb", "xyz": [6.012262499999995, 5.52076885913399, 8.30761125]}, {"species": [{"element": "Pb", "occu": 1}], "abc": [0.490129, 0.009871, 0.25], "properties": {"magmom": -0.0}, "label": "Pb", "xyz": [2.0040875, -5.520768859134001, 2.76920375]}, {"species": [{"element": "Pb", "occu": 1}], "abc": [0.669625999999999, 0.830374, 0.25], "properties": {"magmom": 0.0}, "label": "Pb", "xyz": [6.012262499999995, 1.8478662564040107, 2.76920375]}, {"species": [{"element": "Pb", "occu": 1}], "abc": [0.336244, 0.663756, 0.499631999999999], "properties": {"magmom": 0.0}, "label": "Pb", "xyz": [4.008175, 3.764888977576, 5.534331232079989]}, {"species": [{"element": "Pb", "occu": 1}], "abc": [0.836244, 0.163755999999999, 0.000368], "properties": {"magmom": 0.0}, "label": "Pb", "xyz": [4.008174999999996, -7.7305340224240116, 0.0040762679199999995]}, {"species": [{"element": "Pb", "occu": 1}], "abc": [0.5, 0.5, 0.5], "properties": {"magmom": -0.0}, "label": "Pb", "xyz": [4.008175, 0.0, 5.5384075]}, {"species": [{"element": "Pb", "occu": 1}], "abc": [0.831214999999999, 0.668785, 0.25], "properties": {"magmom": 0.0}, "label": "Pb", "xyz": [6.012262499999995, -1.867201557889989, 2.76920375]}, {"species": [{"element": "Pb", "occu": 1}], "abc": [0.163755999999999, 0.836244, 0.999632], "properties": {"magmom": 0.0}, "label": "Pb", "xyz": [4.008174999999996, 7.7305340224240116, 11.07273873208]}, {"species": [{"element": "Pb", "occu": 1}], "abc": [0.169626, 0.330374, 0.25], "properties": {"magmom": 0.0}, "label": "Pb", "xyz": [2.0040875, 1.847866256404, 2.76920375]}, {"species": [{"element": "Pb", "occu": 1}], "abc": [0.668785, 0.831214999999999, 0.75], "properties": {"magmom": 0.0}, "label": "Pb", "xyz": [6.012262499999995, 1.867201557889989, 8.30761125]}, {"species": [{"element": "Pb", "occu": 1}], "abc": [0.663756, 0.336244, 0.500367999999999], "properties": {"magmom": 0.0}, "label": "Pb", "xyz": [4.008175, -3.764888977576, 5.54248376791999]}, {"species": [{"element": "Pb", "occu": 1}], "abc": [0.326472, 0.673528, 0.993290999999999], "properties": {"magmom": -0.0}, "label": "Pb", "xyz": [4.008175, 3.989555524688001, 11.00250064816499]}, {"species": [{"element": "Pb", "occu": 1}], "abc": [0.330374, 0.169626, 0.75], "properties": {"magmom": 0.0}, "label": "Pb", "xyz": [2.0040875, -1.847866256404, 8.30761125]}, {"species": [{"element": "Pb", "occu": 1}], "abc": [0.173528, 0.826472, 0.493291], "properties": {"magmom": -0.0}, "label": "Pb", "xyz": [4.008175, 7.505867475312, 5.4640931481649995]}, {"species": [{"element": "Pb", "occu": 1}], "abc": [0.826472, 0.173528, 0.506709], "properties": {"magmom": -0.0}, "label": "Pb", "xyz": [4.008175, -7.505867475312, 5.6127218518349995]}, {"species": [{"element": "Pb", "occu": 1}], "abc": [0.830374, 0.669625999999999, 0.75], "properties": {"magmom": 0.0}, "label": "Pb", "xyz": [6.012262499999995, -1.8478662564040107, 8.30761125]}, {"species": [{"element": "Pb", "occu": 1}], "abc": [0.990128999999999, 0.509871, 0.25], "properties": {"magmom": -0.0}, "label": "Pb", "xyz": [6.012262499999995, -5.52076885913399, 2.76920375]}, {"species": [{"element": "Pb", "occu": 1}], "abc": [0.5, 0.5, 0.0], "properties": {"magmom": -0.0}, "label": "Pb", "xyz": [4.008175, 0.0, 0.0]}, {"species": [{"element": "Pb", "occu": 1}], "abc": [0.168785, 0.331215, 0.75], "properties": {"magmom": 0.0}, "label": "Pb", "xyz": [2.0040875, 1.86720155789, 8.30761125]}, {"species": [{"element": "Pb", "occu": 1}], "abc": [0.0, 0.0, 0.5], "properties": {"magmom": -0.0}, "label": "Pb", "xyz": [0.0, 0.0, 5.5384075]}, {"species": [{"element": "Pb", "occu": 1}], "abc": [0.331215, 0.168785, 0.25], "properties": {"magmom": 0.0}, "label": "Pb", "xyz": [2.0040875, -1.86720155789, 2.76920375]}, {"species": [{"element": "Pb", "occu": 1}], "abc": [0.0, 0.0, 0.0], "properties": {"magmom": 0.0}, "label": "Pb", "xyz": [0.0, 0.0, 0.0]}, {"species": [{"element": "Pb", "occu": 1}], "abc": [0.009871, 0.490129, 0.75], "properties": {"magmom": -0.0}, "label": "Pb", "xyz": [2.0040875, 5.520768859134001, 8.30761125]}, {"species": [{"element": "Pb", "occu": 1}], "abc": [0.673528, 0.326472, 0.006709], "properties": {"magmom": -0.0}, "label": "Pb", "xyz": [4.008175, -3.989555524688001, 0.074314351835]}, {"species": [{"element": "O", "occu": 1}], "abc": [0.615872, 0.930658, 0.625212], "properties": {"magmom": 0.0}, "label": "O", "xyz": [6.19876288275, 3.618598224478, 6.9253576597799995]}, {"species": [{"element": "O", "occu": 1}], "abc": [0.899455999999999, 0.507477, 0.887551], "properties": {"magmom": -0.0}, "label": "O", "xyz": [5.639233677274996, -4.50596441211699, 9.831238230064999]}, {"species": [{"element": "O", "occu": 1}], "abc": [0.007476999999999001, 0.399456, 0.387551], "properties": {"magmom": -0.0}, "label": "O", "xyz": [1.6310586772749958, 4.505964412117012, 4.292830730065]}, {"species": [{"element": "O", "occu": 1}], "abc": [0.912303, 0.087697, 0.423967999999999], "properties": {"magmom": 0.0}, "label": "O", "xyz": [4.008175, -9.479194778338, 4.696215101919989]}, {"species": [{"element": "O", "occu": 1}], "abc": [0.792991, 0.772845999999999, 0.377181999999999], "properties": {"magmom": -0.0}, "label": "O", "xyz": [6.276148717474996, -0.23157529633501106, 4.177975235329989]}, {"species": [{"element": "O", "occu": 1}], "abc": [0.384127999999999, 0.069342, 0.374788], "properties": {"magmom": -0.0}, "label": "O", "xyz": [1.817587117249996, -3.6185982244779886, 4.15145734022]}, {"species": [{"element": "O", "occu": 1}], "abc": [0.115871999999999, 0.430658, 0.874788], "properties": {"magmom": -0.0}, "label": "O", "xyz": [2.1905878827499956, 3.6185982244780117, 9.68986484022]}, {"species": [{"element": "O", "occu": 1}], "abc": [0.075354999999999, 0.924644999999999, 0.8929], "properties": {"magmom": -0.0}, "label": "O", "xyz": [4.008174999999992, 9.762947799670002, 9.8904881135]}, {"species": [{"element": "O", "occu": 1}], "abc": [0.07847000000000001, 0.9215300000000001, 0.163651], "properties": {"magmom": -0.0}, "label": "O", "xyz": [4.0081750000000005, 9.691331314380001, 1.812731851565]}, {"species": [{"element": "O", "occu": 1}], "abc": [0.227154, 0.207009, 0.377181999999999], "properties": {"magmom": -0.0}, "label": "O", "xyz": [1.7402012825249997, -0.23157529633499996, 4.177975235329989]}, {"species": [{"element": "O", "occu": 1}], "abc": [0.424645, 0.575355, 0.3929], "properties": {"magmom": -0.0}, "label": "O", "xyz": [4.008175, 1.7324752003299997, 4.3520806135]}, {"species": [{"element": "O", "occu": 1}], "abc": [0.069342, 0.384127999999999, 0.625212], "properties": {"magmom": -0.0}, "label": "O", "xyz": [1.817587117249996, 3.6185982244779886, 6.9253576597799995]}, {"species": [{"element": "O", "occu": 1}], "abc": [0.42153, 0.57847, 0.663651], "properties": {"magmom": -0.0}, "label": "O", "xyz": [4.008175, 1.8040916856200004, 7.351139351565]}, {"species": [{"element": "O", "occu": 1}], "abc": [0.25461, 0.7453900000000001, 0.834519], "properties": {"magmom": -0.0}, "label": "O", "xyz": [4.0081750000000005, 5.641723699940002, 9.243812576985]}, {"species": [{"element": "O", "occu": 1}], "abc": [0.992522999999999, 0.600544, 0.612449], "properties": {"magmom": -0.0}, "label": "O", "xyz": [6.385291322724996, -4.505964412116989, 6.783984269935]}, {"species": [{"element": "O", "occu": 1}], "abc": [0.399456, 0.007476999999999001, 0.612449], "properties": {"magmom": -0.0}, "label": "O", "xyz": [1.6310586772749958, -4.505964412117012, 6.783984269935]}, {"species": [{"element": "O", "occu": 1}], "abc": [0.707009, 0.727154, 0.877181999999999], "properties": {"magmom": 0.0}, "label": "O", "xyz": [5.748376282524999, 0.23157529633499863, 9.716382735329988]}, {"species": [{"element": "O", "occu": 1}], "abc": [0.7546100000000001, 0.24539000000000002, 0.665481], "properties": {"magmom": -0.0}, "label": "O", "xyz": [4.008175, -5.853699300060001, 7.371409923014999]}, {"species": [{"element": "O", "occu": 1}], "abc": [0.924644999999999, 0.075354999999999, 0.1071], "properties": {"magmom": -0.0}, "label": "O", "xyz": [4.008174999999992, -9.762947799670002, 1.1863268865]}, {"species": [{"element": "O", "occu": 1}], "abc": [0.587697, 0.412303, 0.923968], "properties": {"magmom": 0.0}, "label": "O", "xyz": [4.008175, -2.0162282216620007, 10.23462260192]}, {"species": [{"element": "O", "occu": 1}], "abc": [0.100544, 0.492523, 0.112449], "properties": {"magmom": -0.0}, "label": "O", "xyz": [2.3771163227249996, 4.505964412117, 1.245576769935]}, {"species": [{"element": "O", "occu": 1}], "abc": [0.272846, 0.292991, 0.877181999999999], "properties": {"magmom": 0.0}, "label": "O", "xyz": [2.267973717475, 0.23157529633499996, 9.716382735329988]}, {"species": [{"element": "O", "occu": 1}], "abc": [0.292991, 0.272846, 0.122818], "properties": {"magmom": 0.0}, "label": "O", "xyz": [2.267973717475, -0.23157529633499996, 1.36043226467]}, {"species": [{"element": "O", "occu": 1}], "abc": [0.575355, 0.424645, 0.6071000000000001], "properties": {"magmom": -0.0}, "label": "O", "xyz": [4.008175, -1.7324752003299997, 6.724734386500001]}, {"species": [{"element": "O", "occu": 1}], "abc": [0.569342, 0.884127999999999, 0.874788], "properties": {"magmom": -0.0}, "label": "O", "xyz": [5.825762117249996, 3.6185982244779895, 9.68986484022]}, {"species": [{"element": "O", "occu": 1}], "abc": [0.772845999999999, 0.792991, 0.622818], "properties": {"magmom": 0.0}, "label": "O", "xyz": [6.276148717474996, 0.23157529633501106, 6.89883976467]}, {"species": [{"element": "O", "occu": 1}], "abc": [0.57847, 0.42153, 0.336349], "properties": {"magmom": -0.0}, "label": "O", "xyz": [4.008175, -1.8040916856200004, 3.725675648435]}, {"species": [{"element": "O", "occu": 1}], "abc": [0.600544, 0.992522999999999, 0.387551], "properties": {"magmom": -0.0}, "label": "O", "xyz": [6.385291322724996, 4.505964412116989, 4.292830730065]}, {"species": [{"element": "O", "occu": 1}], "abc": [0.412303, 0.587697, 0.076032], "properties": {"magmom": 0.0}, "label": "O", "xyz": [4.008175, 2.0162282216620007, 0.84219239808]}, {"species": [{"element": "O", "occu": 1}], "abc": [0.930658, 0.615872, 0.374788], "properties": {"magmom": -0.0}, "label": "O", "xyz": [6.19876288275, -3.618598224478, 4.15145734022]}, {"species": [{"element": "O", "occu": 1}], "abc": [0.492523, 0.100544, 0.887551], "properties": {"magmom": -0.0}, "label": "O", "xyz": [2.3771163227249996, -4.505964412117, 9.831238230064999]}, {"species": [{"element": "O", "occu": 1}], "abc": [0.507477, 0.899455999999999, 0.112449], "properties": {"magmom": -0.0}, "label": "O", "xyz": [5.639233677274996, 4.50596441211699, 1.245576769935]}, {"species": [{"element": "O", "occu": 1}], "abc": [0.727154, 0.707009, 0.122818], "properties": {"magmom": -0.0}, "label": "O", "xyz": [5.748376282524999, -0.23157529633499863, 1.36043226467]}, {"species": [{"element": "O", "occu": 1}], "abc": [0.884127999999999, 0.569342, 0.125212], "properties": {"magmom": -0.0}, "label": "O", "xyz": [5.825762117249996, -3.6185982244779895, 1.3869501597799998]}, {"species": [{"element": "O", "occu": 1}], "abc": [0.7453900000000001, 0.25461, 0.165481], "properties": {"magmom": -0.0}, "label": "O", "xyz": [4.0081750000000005, -5.641723699940002, 1.833002423015]}, {"species": [{"element": "O", "occu": 1}], "abc": [0.087697, 0.912303, 0.576032], "properties": {"magmom": 0.0}, "label": "O", "xyz": [4.008175, 9.479194778338, 6.38059989808]}, {"species": [{"element": "O", "occu": 1}], "abc": [0.9215300000000001, 0.07847000000000001, 0.836349], "properties": {"magmom": -0.0}, "label": "O", "xyz": [4.0081750000000005, -9.691331314380001, 9.264083148435]}, {"species": [{"element": "O", "occu": 1}], "abc": [0.24539000000000002, 0.7546100000000001, 0.334519], "properties": {"magmom": -0.0}, "label": "O", "xyz": [4.008175, 5.853699300060001, 3.705405076985]}, {"species": [{"element": "O", "occu": 1}], "abc": [0.430658, 0.115871999999999, 0.125212], "properties": {"magmom": -0.0}, "label": "O", "xyz": [2.1905878827499956, -3.6185982244780117, 1.3869501597799998]}, {"species": [{"element": "O", "occu": 1}], "abc": [0.207009, 0.227154, 0.622818], "properties": {"magmom": -0.0}, "label": "O", "xyz": [1.7402012825249997, 0.23157529633499996, 6.89883976467]}]}, "task_ids": null, "uncorrected_energy_per_atom": null, "energy_per_atom": -5.8065469640625, "formation_energy_per_atom": -1.3218286846874991, "energy_above_hull": 0.04227702562499901, "is_stable": false, "equilibrium_reaction_energy_per_atom": null, "decomposes_to": null, "xas": null, "grain_boundaries": null, "band_gap": 0.876599999999999, "cbm": null, "vbm": null, "efermi": 4.47254886, "is_gap_direct": null, "is_metal": null, "es_source_calc_id": null, "bandstructure": null, "dos": null, "dos_energy_up": null, "dos_energy_down": null, "is_magnetic": null, "ordering": null, "total_magnetization": 6.230000000000002e-05, "total_magnetization_normalized_vol": null, "total_magnetization_normalized_formula_units": null, "num_magnetic_sites": null, "num_unique_magnetic_sites": null, "types_of_magnetic_species": null, "bulk_modulus": null, "shear_modulus": null, "universal_anisotropy": null, "homogeneous_poisson": null, "e_total": null, "e_ionic": null, "e_electronic": null, "n": null, "e_ij_max": null, "weighted_surface_energy_EV_PER_ANG2": null, "weighted_surface_energy": null, "weighted_work_function": null, "surface_anisotropy": null, "shape_factor": null, "has_reconstructed": null, "possible_species": null, "has_props": null, "theoretical": null, "database_IDs": null, "fields_not_requested": ["builder_meta", "nsites", "elements", "nelements", "composition", "composition_reduced", "chemsys", "symmetry", "property_name", "deprecated", "deprecation_reasons", "last_updated", "origins", "warnings", "task_ids", "uncorrected_energy_per_atom", "equilibrium_reaction_energy_per_atom", "decomposes_to", "xas", "grain_boundaries", "cbm", "vbm", "is_gap_direct", "is_metal", "es_source_calc_id", "bandstructure", "dos", "dos_energy_up", "dos_energy_down", "is_magnetic", "ordering", "total_magnetization_normalized_vol", "total_magnetization_normalized_formula_units", "num_magnetic_sites", "num_unique_magnetic_sites", "types_of_magnetic_species", "bulk_modulus", "shear_modulus", "universal_anisotropy", "homogeneous_poisson", "e_total", "e_ionic", "e_electronic", "n", "e_ij_max", "weighted_surface_energy_EV_PER_ANG2", "weighted_surface_energy", "weighted_work_function", "surface_anisotropy", "shape_factor", "has_reconstructed", "possible_species", "has_props", "theoretical", "database_IDs"]}