{
  "builder_meta": null,
  "nsites": null,
  "elements": null,
  "nelements": null,
  "composition": null,
  "composition_reduced": null,
  "formula_pretty": "Pb3O4",
  "formula_anonymous": "A3B4",
  "chemsys": null,
  "volume": 525.7169093310843,
  "density": 8.662164587521179,
  "density_atomic": 18.77560390468158,
  "symmetry": null,
  "property_name": null,
  "material_id": "mp-22633",
  "deprecated": null,
  "deprecation_reasons": null,
  "last_updated": null,
  "origins": null,
  "warnings": null,
  "structure": {
    "@module": "pymatgen.core.structure",
    "@class": "Structure",
    "charge": 0,
    "lattice": {
      "matrix": [
        [6.64596849, -0.0, -0.0],
        [0.0, 8.89399404, -0.0],
        [0.0, -0.0, 8.89399404]
      ],
      "pbc": [true, true, true],
      "a": 6.64596849,
      "b": 8.89399404,
      "c": 8.89399404,
      "alpha": 90.0,
      "beta": 90.0,
      "gamma": 90.0,
      "volume": 525.7169093310843
    },
    "properties": {},
    "sites": [
      {
        "species": [{ "element": "Pb", "occu": 1 }],
        "abc": [0.5, 0.16344892, 0.8555605],
        "properties": { "magmom": 0.0 },
        "label": "Pb",
        "xyz": [3.322984245, 1.453713720324437, 7.60934998785942]
      },
      {
        "species": [{ "element": "Pb", "occu": 1 }],
        "abc": [0.0, 0.8555605, 0.83655108],
        "properties": { "magmom": 0.0 },
        "label": "Pb",
        "xyz": [0.0, 7.60934998785942, 7.440280319675564]
      },
      {
        "species": [{ "element": "Pb", "occu": 1 }],
        "abc": [-0.0, 0.1444395, 0.16344892],
        "properties": { "magmom": 0.0 },
        "label": "Pb",
        "xyz": [0.0, 1.2846440521405802, 1.453713720324437]
      },
      {
        "species": [{ "element": "Pb", "occu": 1 }],
        "abc": [0.5, 0.33655108, 0.3555605],
        "properties": { "magmom": 0.0 },
        "label": "Pb",
        "xyz": [3.322984245, 2.9932832996755634, 3.1623529678594204]
      },
      {
        "species": [{ "element": "Pb", "occu": 1 }],
        "abc": [-0.0, 0.644439499999999, 0.33655108],
        "properties": { "magmom": 0.0 },
        "label": "Pb",
        "xyz": [0.0, 5.731641072140572, 2.9932832996755634]
      },
      {
        "species": [{ "element": "Pb", "occu": 1 }],
        "abc": [0.75, -0.0, 0.5],
        "properties": { "magmom": -0.0 },
        "label": "Pb",
        "xyz": [4.984476367499999, 0.0, 4.44699702]
      },
      {
        "species": [{ "element": "Pb", "occu": 1 }],
        "abc": [0.25, 0.5, -0.0],
        "properties": { "magmom": -0.0 },
        "label": "Pb",
        "xyz": [1.6614921225, 4.44699702, 0.0]
      },
      {
        "species": [{ "element": "Pb", "occu": 1 }],
        "abc": [0.0, 0.3555605, 0.66344892],
        "properties": { "magmom": 0.0 },
        "label": "Pb",
        "xyz": [0.0, 3.1623529678594204, 5.900710740324437]
      },
      {
        "species": [{ "element": "Pb", "occu": 1 }],
        "abc": [0.25, -0.0, 0.5],
        "properties": { "magmom": -0.0 },
        "label": "Pb",
        "xyz": [1.6614921225, 0.0, 4.44699702]
      },
      {
        "species": [{ "element": "Pb", "occu": 1 }],
        "abc": [0.5, 0.83655108, 0.1444395],
        "properties": { "magmom": 0.0 },
        "label": "Pb",
        "xyz": [3.322984245, 7.440280319675564, 1.2846440521405802]
      },
      {
        "species": [{ "element": "Pb", "occu": 1 }],
        "abc": [0.5, 0.66344892, 0.644439499999999],
        "properties": { "magmom": 0.0 },
        "label": "Pb",
        "xyz": [3.322984245, 5.900710740324437, 5.731641072140572]
      },
      {
        "species": [{ "element": "Pb", "occu": 1 }],
        "abc": [0.75, 0.5, -0.0],
        "properties": { "magmom": -0.0 },
        "label": "Pb",
        "xyz": [4.984476367499999, 4.44699702, 0.0]
      },
      {
        "species": [{ "element": "O", "occu": 1 }],
        "abc": [0.5, 0.8648553600000001, 0.40572737000000003],
        "properties": { "magmom": -0.0 },
        "label": "O",
        "xyz": [3.322984245, 7.692018417302056, 3.6085368106448756]
      },
      {
        "species": [{ "element": "O", "occu": 1 }],
        "abc": [0.75, 0.17141806, 0.32858194],
        "properties": { "magmom": 0.0 },
        "label": "O",
        "xyz": [4.984476367499999, 1.5245912039883627, 2.922405816011638]
      },
      {
        "species": [{ "element": "O", "occu": 1 }],
        "abc": [-0.0, 0.90572737, 0.36485536],
        "properties": { "magmom": -0.0 },
        "label": "O",
        "xyz": [0.0, 8.055533830644876, 3.2450213973020547]
      },
      {
        "species": [{ "element": "O", "occu": 1 }],
        "abc": [0.25, 0.67141806, 0.17141806],
        "properties": { "magmom": 0.0 },
        "label": "O",
        "xyz": [1.6614921225, 5.9715882239883635, 1.5245912039883627]
      },
      {
        "species": [{ "element": "O", "occu": 1 }],
        "abc": [0.25, 0.32858194, 0.8285819400000001],
        "properties": { "magmom": 0.0 },
        "label": "O",
        "xyz": [1.6614921225, 2.922405816011638, 7.369402836011639]
      },
      {
        "species": [{ "element": "O", "occu": 1 }],
        "abc": [0.5, 0.13514464, 0.59427263],
        "properties": { "magmom": -0.0 },
        "label": "O",
        "xyz": [3.322984245, 1.201975622697946, 5.285457229355125]
      },
      {
        "species": [{ "element": "O", "occu": 1 }],
        "abc": [0.0, 0.59427263, 0.8648553600000001],
        "properties": { "magmom": -0.0 },
        "label": "O",
        "xyz": [0.0, 5.285457229355125, 7.692018417302056]
      },
      {
        "species": [{ "element": "O", "occu": 1 }],
        "abc": [0.25, 0.17141806, 0.32858194],
        "properties": { "magmom": 0.0 },
        "label": "O",
        "xyz": [1.6614921225, 1.5245912039883627, 2.922405816011638]
      },
      {
        "species": [{ "element": "O", "occu": 1 }],
        "abc": [0.5, 0.36485536, 0.09427263],
        "properties": { "magmom": -0.0 },
        "label": "O",
        "xyz": [3.322984245, 3.2450213973020547, 0.8384602093551252]
      },
      {
        "species": [{ "element": "O", "occu": 1 }],
        "abc": [0.75, 0.8285819400000001, 0.67141806],
        "properties": { "magmom": 0.0 },
        "label": "O",
        "xyz": [4.984476367499999, 7.369402836011639, 5.9715882239883635]
      },
      {
        "species": [{ "element": "O", "occu": 1 }],
        "abc": [0.75, 0.32858194, 0.8285819400000001],
        "properties": { "magmom": 0.0 },
        "label": "O",
        "xyz": [4.984476367499999, 2.922405816011638, 7.369402836011639]
      },
      {
        "species": [{ "element": "O", "occu": 1 }],
        "abc": [0.0, 0.09427263, 0.63514464],
        "properties": { "magmom": -0.0 },
        "label": "O",
        "xyz": [0.0, 0.8384602093551252, 5.648972642697946]
      },
      {
        "species": [{ "element": "O", "occu": 1 }],
        "abc": [-0.0, 0.40572737000000003, 0.13514464],
        "properties": { "magmom": -0.0 },
        "label": "O",
        "xyz": [0.0, 3.6085368106448756, 1.201975622697946]
      },
      {
        "species": [{ "element": "O", "occu": 1 }],
        "abc": [0.25, 0.8285819400000001, 0.67141806],
        "properties": { "magmom": 0.0 },
        "label": "O",
        "xyz": [1.6614921225, 7.369402836011639, 5.9715882239883635]
      },
      {
        "species": [{ "element": "O", "occu": 1 }],
        "abc": [0.75, 0.67141806, 0.17141806],
        "properties": { "magmom": 0.0 },
        "label": "O",
        "xyz": [4.984476367499999, 5.9715882239883635, 1.5245912039883627]
      },
      {
        "species": [{ "element": "O", "occu": 1 }],
        "abc": [0.5, 0.63514464, 0.90572737],
        "properties": { "magmom": -0.0 },
        "label": "O",
        "xyz": [3.322984245, 5.648972642697946, 8.055533830644876]
      }
    ]
  },
  "task_ids": null,
  "uncorrected_energy_per_atom": null,
  "energy_per_atom": -5.865521901428569,
  "formation_energy_per_atom": -1.44698115428571,
  "energy_above_hull": 0.0,
  "is_stable": true,
  "equilibrium_reaction_energy_per_atom": null,
  "decomposes_to": null,
  "xas": null,
  "grain_boundaries": null,
  "band_gap": 1.133,
  "cbm": null,
  "vbm": null,
  "efermi": 3.49650984,
  "is_gap_direct": null,
  "is_metal": null,
  "es_source_calc_id": null,
  "bandstructure": null,
  "dos": null,
  "dos_energy_up": null,
  "dos_energy_down": null,
  "is_magnetic": null,
  "ordering": null,
  "total_magnetization": 0.0,
  "total_magnetization_normalized_vol": null,
  "total_magnetization_normalized_formula_units": null,
  "num_magnetic_sites": null,
  "num_unique_magnetic_sites": null,
  "types_of_magnetic_species": null,
  "bulk_modulus": null,
  "shear_modulus": null,
  "universal_anisotropy": null,
  "homogeneous_poisson": null,
  "e_total": null,
  "e_ionic": null,
  "e_electronic": null,
  "n": null,
  "e_ij_max": null,
  "weighted_surface_energy_EV_PER_ANG2": null,
  "weighted_surface_energy": null,
  "weighted_work_function": null,
  "surface_anisotropy": null,
  "shape_factor": null,
  "has_reconstructed": null,
  "possible_species": null,
  "has_props": null,
  "theoretical": null,
  "database_IDs": null,
  "fields_not_requested": [
    "builder_meta",
    "nsites",
    "elements",
    "nelements",
    "composition",
    "composition_reduced",
    "chemsys",
    "symmetry",
    "property_name",
    "deprecated",
    "deprecation_reasons",
    "last_updated",
    "origins",
    "warnings",
    "task_ids",
    "uncorrected_energy_per_atom",
    "equilibrium_reaction_energy_per_atom",
    "decomposes_to",
    "xas",
    "grain_boundaries",
    "cbm",
    "vbm",
    "is_gap_direct",
    "is_metal",
    "es_source_calc_id",
    "bandstructure",
    "dos",
    "dos_energy_up",
    "dos_energy_down",
    "is_magnetic",
    "ordering",
    "total_magnetization_normalized_vol",
    "total_magnetization_normalized_formula_units",
    "num_magnetic_sites",
    "num_unique_magnetic_sites",
    "types_of_magnetic_species",
    "bulk_modulus",
    "shear_modulus",
    "universal_anisotropy",
    "homogeneous_poisson",
    "e_total",
    "e_ionic",
    "e_electronic",
    "n",
    "e_ij_max",
    "weighted_surface_energy_EV_PER_ANG2",
    "weighted_surface_energy",
    "weighted_work_function",
    "surface_anisotropy",
    "shape_factor",
    "has_reconstructed",
    "possible_species",
    "has_props",
    "theoretical",
    "database_IDs"
  ]
}
