{"builder_meta": null, "nsites": null, "elements": null, "nelements": null, "composition": null, "composition_reduced": null, "formula_pretty": "Pb4Au", "formula_anonymous": "AB4", "chemsys": null, "volume": 343.2014198552547, "density": 9.926097984997394, "density_atomic": 34.32014198552547, "symmetry": null, "property_name": null, "material_id": "mp-1210471", "deprecated": null, "deprecation_reasons": null, "last_updated": null, "origins": null, "warnings": null, "structure": {"@module": "pymatgen.core.structure", "@class": "Structure", "charge": 0, "lattice": {"matrix": [[-5.556991, -5.556991, 0.0], [-5.556991, 0.0, -5.556991], [0.0, -5.556991, -5.556991]], "pbc": [true, true, true], "a": 7.8587720381852275, "b": 7.8587720381852275, "c": 7.8587720381852275, "alpha": 59.99999999999999, "beta": 59.99999999999999, "gamma": 59.99999999999999, "volume": 343.2014198552547}, "properties": {}, "sites": [{"species": [{"element": "Pb", "occu": 1}], "abc": [0.6033700000000001, 0.6033700000000001, 0.6033700000000001], "properties": {"magmom": -0.0}, "label": "Pb", "xyz": [-6.70584331934, -6.70584331934, -6.70584331934]}, {"species": [{"element": "Pb", "occu": 1}], "abc": [0.189891, 0.6033700000000001, 0.6033700000000001], "properties": {"magmom": 0.0}, "label": "Pb", "xyz": [-4.408144237651, -4.408144237651, -6.70584331934]}, {"species": [{"element": "Pb", "occu": 1}], "abc": [0.6033700000000001, 0.189891, 0.6033700000000001], "properties": {"magmom": 0.0}, "label": "Pb", "xyz": [-4.408144237651, -6.70584331934, -4.408144237651]}, {"species": [{"element": "Pb", "occu": 1}], "abc": [0.560109, 0.14663, 0.14663], "properties": {"magmom": 0.0}, "label": "Pb", "xyz": [-3.9273422623489997, -3.9273422623489997, -1.62964318066]}, {"species": [{"element": "Pb", "occu": 1}], "abc": [0.14663, 0.14663, 0.14663], "properties": {"magmom": -0.0}, "label": "Pb", "xyz": [-1.62964318066, -1.62964318066, -1.62964318066]}, {"species": [{"element": "Pb", "occu": 1}], "abc": [0.6033700000000001, 0.6033700000000001, 0.189891], "properties": {"magmom": 0.0}, "label": "Pb", "xyz": [-6.70584331934, -4.408144237651, -4.408144237651]}, {"species": [{"element": "Pb", "occu": 1}], "abc": [0.14663, 0.560109, 0.14663], "properties": {"magmom": 0.0}, "label": "Pb", "xyz": [-3.9273422623489997, -1.62964318066, -3.9273422623489997]}, {"species": [{"element": "Pb", "occu": 1}], "abc": [0.14663, 0.14663, 0.560109], "properties": {"magmom": 0.0}, "label": "Pb", "xyz": [-1.62964318066, -3.9273422623489997, -3.9273422623489997]}, {"species": [{"element": "Au", "occu": 1}], "abc": [0.0, 0.0, 0.0], "properties": {"magmom": 0.0}, "label": "Au", "xyz": [0.0, 0.0, 0.0]}, {"species": [{"element": "Au", "occu": 1}], "abc": [0.75, 0.75, 0.75], "properties": {"magmom": 0.0}, "label": "Au", "xyz": [-8.3354865, -8.3354865, -8.3354865]}]}, "task_ids": null, "uncorrected_energy_per_atom": null, "energy_per_atom": -54.922155426, "formation_energy_per_atom": 0.222943892, "energy_above_hull": 0.276471880000002, "is_stable": false, "equilibrium_reaction_energy_per_atom": null, "decomposes_to": null, "xas": null, "grain_boundaries": null, "band_gap": 0.0, "cbm": null, "vbm": null, "efermi": 4.94214345, "is_gap_direct": null, "is_metal": null, "es_source_calc_id": null, "bandstructure": null, "dos": null, "dos_energy_up": null, "dos_energy_down": null, "is_magnetic": null, "ordering": null, "total_magnetization": 0.0005375, "total_magnetization_normalized_vol": null, "total_magnetization_normalized_formula_units": null, "num_magnetic_sites": null, "num_unique_magnetic_sites": null, "types_of_magnetic_species": null, "bulk_modulus": null, "shear_modulus": null, "universal_anisotropy": null, "homogeneous_poisson": null, "e_total": null, "e_ionic": null, "e_electronic": null, "n": null, "e_ij_max": null, "weighted_surface_energy_EV_PER_ANG2": null, "weighted_surface_energy": null, "weighted_work_function": null, "surface_anisotropy": null, "shape_factor": null, "has_reconstructed": null, "possible_species": null, "has_props": null, "theoretical": null, "database_IDs": null, "fields_not_requested": ["builder_meta", "nsites", "elements", "nelements", "composition", "composition_reduced", "chemsys", "symmetry", "property_name", "deprecated", "deprecation_reasons", "last_updated", "origins", "warnings", "task_ids", "uncorrected_energy_per_atom", "equilibrium_reaction_energy_per_atom", "decomposes_to", "xas", "grain_boundaries", "cbm", "vbm", "is_gap_direct", "is_metal", "es_source_calc_id", "bandstructure", "dos", "dos_energy_up", "dos_energy_down", "is_magnetic", "ordering", "total_magnetization_normalized_vol", "total_magnetization_normalized_formula_units", "num_magnetic_sites", "num_unique_magnetic_sites", "types_of_magnetic_species", "bulk_modulus", "shear_modulus", "universal_anisotropy", "homogeneous_poisson", "e_total", "e_ionic", "e_electronic", "n", "e_ij_max", "weighted_surface_energy_EV_PER_ANG2", "weighted_surface_energy", "weighted_work_function", "surface_anisotropy", "shape_factor", "has_reconstructed", "possible_species", "has_props", "theoretical", "database_IDs"]}