{"builder_meta": null, "nsites": null, "elements": null, "nelements": null, "composition": null, "composition_reduced": null, "formula_pretty": "Pb5F8", "formula_anonymous": "A5B8", "chemsys": null, "volume": 522.8340671042436, "density": 7.546176972194992, "density_atomic": 20.109002580932444, "symmetry": null, "property_name": null, "material_id": "mp-1173571", "deprecated": null, "deprecation_reasons": null, "last_updated": null, "origins": null, "warnings": null, "structure": {"@module": "pymatgen.core.structure", "@class": "Structure", "charge": 0, "lattice": {"matrix": [[2.09059, 10.798817, 0.0], [-2.09059, 10.798817, 0.0], [0.0, 3.479777, 11.579474]], "pbc": [true, true, true], "a": 10.999318849255575, "b": 10.999318849255575, "c": 12.091032465691464, "alpha": 73.58742356531396, "beta": 73.58742356531396, "gamma": 21.91320245363869, "volume": 522.8340671042436}, "properties": {}, "sites": [{"species": [{"element": "Pb", "occu": 1}], "abc": [0.996721, 0.996721, 0.997404], "properties": {"magmom": 0.012}, "label": "Pb", "xyz": [0.0, 24.997558857022, 11.549413685495999]}, {"species": [{"element": "Pb", "occu": 1}], "abc": [0.602659, 0.602659, 0.200408], "properties": {"magmom": -0.006}, "label": "Pb", "xyz": [0.0, 13.713383657821998, 2.320619225392]}, {"species": [{"element": "Pb", "occu": 1}], "abc": [0.202367, 0.202367, 0.408976], "properties": {"magmom": 0.06}, "label": "Pb", "xyz": [0.0, 5.79379367803, 4.735726958623999]}, {"species": [{"element": "Pb", "occu": 1}], "abc": [0.59845, 0.59845, 0.700885], "properties": {"magmom": 0.02}, "label": "Pb", "xyz": [0.0, 15.364027569945002, 8.11587963449]}, {"species": [{"element": "Pb", "occu": 1}], "abc": [0.801935, 0.801935, 0.608665999999999], "properties": {"magmom": 0.017}, "label": "Pb", "xyz": [0.0, 19.437920569271995, 7.048032121683988]}, {"species": [{"element": "Pb", "occu": 1}], "abc": [0.402018999999999, 0.402018999999999, 0.800785], "properties": {"magmom": 0.108}, "label": "Pb", "xyz": [0.0, 11.46921244799098, 9.27266908709]}, {"species": [{"element": "Pb", "occu": 1}], "abc": [0.401428, 0.401428, 0.294004], "properties": {"magmom": 0.004}, "label": "Pb", "xyz": [0.0, 9.69296337846, 3.4044116738959995]}, {"species": [{"element": "Pb", "occu": 1}], "abc": [0.19581, 0.19581, 0.919079], "properties": {"magmom": 0.06}, "label": "Pb", "xyz": [0.0, 7.427222678923, 10.642451384446]}, {"species": [{"element": "Pb", "occu": 1}], "abc": [0.787625999999999, 0.787625999999999, 0.102452], "properties": {"magmom": 0.013000000000000001}, "label": "Pb", "xyz": [0.0, 17.367368190087976, 1.186340270248]}, {"species": [{"element": "Pb", "occu": 1}], "abc": [0.002954, 0.002954, 0.479321999999999], "properties": {"magmom": 0.059000000000000004}, "label": "Pb", "xyz": [0.0, 1.7317330820299965, 5.550296636627988]}, {"species": [{"element": "F", "occu": 1}], "abc": [0.117648999999999, 0.117648999999999, 0.313656999999999], "properties": {"magmom": 0.002}, "label": "F", "xyz": [0.0, 3.632396456954975, 3.6319830764179883]}, {"species": [{"element": "F", "occu": 1}], "abc": [0.10110000000000001, 0.10110000000000001, 0.826205], "properties": {"magmom": 0.002}, "label": "F", "xyz": [0.0, 5.0585299536849995, 9.567019316169999]}, {"species": [{"element": "F", "occu": 1}], "abc": [0.301726, 0.301726, 0.731526999999999], "properties": {"magmom": 0.005}, "label": "F", "xyz": [0.0, 9.062118545762996, 8.470697876797988]}, {"species": [{"element": "F", "occu": 1}], "abc": [0.098366, 0.098366, 0.576911], "properties": {"magmom": 0.004}, "label": "F", "xyz": [0.0, 4.131994494891, 6.6803259248139994]}, {"species": [{"element": "F", "occu": 1}], "abc": [0.699889, 0.699889, 0.774905], "properties": {"magmom": 0.013000000000000001}, "label": "F", "xyz": [0.0, 17.812443058811, 8.972992299969999]}, {"species": [{"element": "F", "occu": 1}], "abc": [0.494177, 0.494177, 0.109384], "properties": {"magmom": 0.001}, "label": "F", "xyz": [0.0, 11.053685904585999, 1.2666091840159999]}, {"species": [{"element": "F", "occu": 1}], "abc": [0.086010999999999, 0.086010999999999, 0.079622], "properties": {"magmom": 0.003}, "label": "F", "xyz": [0.0, 2.1347009022679786, 0.921980878828]}, {"species": [{"element": "F", "occu": 1}], "abc": [0.298432, 0.298432, 0.983223], "properties": {"magmom": 0.013000000000000001}, "label": "F", "xyz": [0.0, 9.866821891158999, 11.385205164701999]}, {"species": [{"element": "F", "occu": 1}], "abc": [0.296253, 0.296253, 0.231610999999999], "properties": {"magmom": 0.004}, "label": "F", "xyz": [0.0, 7.204318496148996, 2.6819335526139882]}, {"species": [{"element": "F", "occu": 1}], "abc": [0.90322, 0.90322, 0.413323], "properties": {"magmom": 0.003}, "label": "F", "xyz": [0.0, 20.945686850451, 4.786062932101999]}, {"species": [{"element": "F", "occu": 1}], "abc": [0.70562, 0.70562, 0.295471], "properties": {"magmom": 0.013000000000000001}, "label": "F", "xyz": [0.0, 16.267895693047, 3.4213987622539994]}, {"species": [{"element": "F", "occu": 1}], "abc": [0.89831, 0.89831, 0.174259], "properties": {"magmom": 0.002}, "label": "F", "xyz": [0.0, 20.007753058783003, 2.017827559766]}, {"species": [{"element": "F", "occu": 1}], "abc": [0.498725, 0.498725, 0.636083], "properties": {"magmom": 0.012}, "label": "F", "xyz": [0.0, 12.984707010141, 7.365506560341999]}, {"species": [{"element": "F", "occu": 1}], "abc": [0.302106, 0.302106, 0.481191], "properties": {"magmom": 0.004}, "label": "F", "xyz": [0.0, 8.199212191611, 5.5719386735339995]}, {"species": [{"element": "F", "occu": 1}], "abc": [0.902320999999999, 0.902320999999999, 0.644759], "properties": {"magmom": 0.018000000000000002}, "label": "F", "xyz": [0.0, 21.731616247256976, 7.465970076765999]}, {"species": [{"element": "F", "occu": 1}], "abc": [0.504126, 0.504126, 0.865887], "properties": {"magmom": 0.006}, "label": "F", "xyz": [0.0, 13.901022505082999, 10.026516003438]}]}, "task_ids": null, "uncorrected_energy_per_atom": null, "energy_per_atom": -25.73965164115385, "formation_energy_per_atom": -2.167813629615387, "energy_above_hull": 0.180503573461535, "is_stable": false, "equilibrium_reaction_energy_per_atom": null, "decomposes_to": null, "xas": null, "grain_boundaries": null, "band_gap": 0.0, "cbm": null, "vbm": null, "efermi": 4.94009354, "is_gap_direct": null, "is_metal": null, "es_source_calc_id": null, "bandstructure": null, "dos": null, "dos_energy_up": null, "dos_energy_down": null, "is_magnetic": null, "ordering": null, "total_magnetization": 1.161120299999999, "total_magnetization_normalized_vol": null, "total_magnetization_normalized_formula_units": null, "num_magnetic_sites": null, "num_unique_magnetic_sites": null, "types_of_magnetic_species": null, "bulk_modulus": null, "shear_modulus": null, "universal_anisotropy": null, "homogeneous_poisson": null, "e_total": null, "e_ionic": null, "e_electronic": null, "n": null, "e_ij_max": null, "weighted_surface_energy_EV_PER_ANG2": null, "weighted_surface_energy": null, "weighted_work_function": null, "surface_anisotropy": null, "shape_factor": null, "has_reconstructed": null, "possible_species": null, "has_props": null, "theoretical": null, "database_IDs": null, "fields_not_requested": ["builder_meta", "nsites", "elements", "nelements", "composition", "composition_reduced", "chemsys", "symmetry", "property_name", "deprecated", "deprecation_reasons", "last_updated", "origins", "warnings", "task_ids", "uncorrected_energy_per_atom", "equilibrium_reaction_energy_per_atom", "decomposes_to", "xas", "grain_boundaries", "cbm", "vbm", "is_gap_direct", "is_metal", "es_source_calc_id", "bandstructure", "dos", "dos_energy_up", "dos_energy_down", "is_magnetic", "ordering", "total_magnetization_normalized_vol", "total_magnetization_normalized_formula_units", "num_magnetic_sites", "num_unique_magnetic_sites", "types_of_magnetic_species", "bulk_modulus", "shear_modulus", "universal_anisotropy", "homogeneous_poisson", "e_total", "e_ionic", "e_electronic", "n", "e_ij_max", "weighted_surface_energy_EV_PER_ANG2", "weighted_surface_energy", "weighted_work_function", "surface_anisotropy", "shape_factor", "has_reconstructed", "possible_species", "has_props", "theoretical", "database_IDs"]}