{
  "builder_meta": null,
  "nsites": null,
  "elements": null,
  "nelements": null,
  "composition": null,
  "composition_reduced": null,
  "formula_pretty": "PbAu2",
  "formula_anonymous": "AB2",
  "chemsys": null,
  "volume": 519.8873958574036,
  "density": 15.360327145159559,
  "density_atomic": 21.661974827391816,
  "symmetry": null,
  "property_name": null,
  "material_id": "mp-1190478",
  "deprecated": null,
  "deprecation_reasons": null,
  "last_updated": null,
  "origins": null,
  "warnings": null,
  "structure": {
    "@module": "pymatgen.core.structure",
    "@class": "Structure",
    "charge": 0,
    "lattice": {
      "matrix": [
        [-0.0, -5.69126265, 0.0],
        [-7.99194602, 0.0, 0.0],
        [0.0, 0.0, -11.43004968]
      ],
      "pbc": [true, true, true],
      "a": 5.69126265,
      "b": 7.99194602,
      "c": 11.43004968,
      "alpha": 90.0,
      "beta": 90.0,
      "gamma": 90.0,
      "volume": 519.8873958574036
    },
    "properties": {},
    "sites": [
      {
        "species": [{ "element": "Pb", "occu": 1 }],
        "abc": [0.98723602, 0.62648173, 0.37516947],
        "properties": { "magmom": 0.0 },
        "label": "Pb",
        "xyz": [-5.006808168676215, -5.618619487360653, -4.28820568051927]
      },
      {
        "species": [{ "element": "Pb", "occu": 1 }],
        "abc": [0.51276398, 0.87351827, 0.87516847],
        "properties": { "magmom": 0.0 },
        "label": "Pb",
        "xyz": [-6.981110861323786, -2.918274487639347, -10.003219090469589]
      },
      {
        "species": [{ "element": "Pb", "occu": 1 }],
        "abc": [0.51276398, 0.12648173000000001, 0.62483153],
        "properties": { "magmom": 0.0 },
        "label": "Pb",
        "xyz": [-1.0108351586762148, -2.918274487639347, -7.141855429530411]
      },
      {
        "species": [{ "element": "Pb", "occu": 1 }],
        "abc": [0.98723602, 0.37351827, 0.12483053000000001],
        "properties": { "magmom": 0.0 },
        "label": "Pb",
        "xyz": [-2.9851378513237856, -5.618619487360653, -1.4268191594807305]
      },
      {
        "species": [{ "element": "Pb", "occu": 1 }],
        "abc": [0.01276398, 0.37351827, 0.62483153],
        "properties": { "magmom": 0.0 },
        "label": "Pb",
        "xyz": [-2.9851378513237856, -0.07264316263934699, -7.141855429530411]
      },
      {
        "species": [{ "element": "Pb", "occu": 1 }],
        "abc": [0.48723602, 0.12648173000000001, 0.12483053000000001],
        "properties": { "magmom": 0.0 },
        "label": "Pb",
        "xyz": [-1.0108351586762148, -2.7729881623606527, -1.4268191594807305]
      },
      {
        "species": [{ "element": "Pb", "occu": 1 }],
        "abc": [0.48723602, 0.87351827, 0.37516947],
        "properties": { "magmom": 0.0 },
        "label": "Pb",
        "xyz": [-6.981110861323786, -2.7729881623606527, -4.28820568051927]
      },
      {
        "species": [{ "element": "Pb", "occu": 1 }],
        "abc": [0.01276398, 0.62648173, 0.87516847],
        "properties": { "magmom": 0.0 },
        "label": "Pb",
        "xyz": [-5.006808168676215, -0.07264316263934699, -10.003219090469589]
      },
      {
        "species": [{ "element": "Au", "occu": 1 }],
        "abc": [0.03023242, -0.0, 0.25],
        "properties": { "magmom": 0.0 },
        "label": "Au",
        "xyz": [0.0, -0.172060642765113, -2.85751242]
      },
      {
        "species": [{ "element": "Au", "occu": 1 }],
        "abc": [0.46976758, 0.5, 0.75],
        "properties": { "magmom": 0.0 },
        "label": "Au",
        "xyz": [-3.99597301, -2.673570682234887, -8.57253726]
      },
      {
        "species": [{ "element": "Au", "occu": 1 }],
        "abc": [0.9697675800000001, -0.0, 0.75],
        "properties": { "magmom": 0.0 },
        "label": "Au",
        "xyz": [0.0, -5.519202007234887, -8.57253726]
      },
      {
        "species": [{ "element": "Au", "occu": 1 }],
        "abc": [0.53023242, 0.5, 0.25],
        "properties": { "magmom": 0.0 },
        "label": "Au",
        "xyz": [-3.99597301, -3.017691967765113, -2.85751242]
      },
      {
        "species": [{ "element": "Au", "occu": 1 }],
        "abc": [0.21120497, 0.72135905, 0.12670799],
        "properties": { "magmom": 0.0 },
        "label": "Au",
        "xyz": [-5.765062588638481, -1.2020229572553705, -1.448278620552943]
      },
      {
        "species": [{ "element": "Au", "occu": 1 }],
        "abc": [0.28879503, 0.77864095, 0.62670799],
        "properties": { "magmom": 0.0 },
        "label": "Au",
        "xyz": [-6.222856441361519, -1.6436083677446294, -7.163303460552943]
      },
      {
        "species": [{ "element": "Au", "occu": 1 }],
        "abc": [0.28879503, 0.22135905, 0.87329201],
        "properties": { "magmom": 0.0 },
        "label": "Au",
        "xyz": [-1.769089578638481, -1.6436083677446294, -9.981771059447057]
      },
      {
        "species": [{ "element": "Au", "occu": 1 }],
        "abc": [0.21120497, 0.27864095, 0.37329201],
        "properties": { "magmom": 0.0 },
        "label": "Au",
        "xyz": [-2.226883431361519, -1.2020229572553705, -4.2667462194470565]
      },
      {
        "species": [{ "element": "Au", "occu": 1 }],
        "abc": [0.7887950300000001, 0.27864095, 0.87329201],
        "properties": { "magmom": 0.0 },
        "label": "Au",
        "xyz": [-2.226883431361519, -4.489239692744629, -9.981771059447057]
      },
      {
        "species": [{ "element": "Au", "occu": 1 }],
        "abc": [0.71120497, 0.22135905, 0.37329201],
        "properties": { "magmom": 0.0 },
        "label": "Au",
        "xyz": [-1.769089578638481, -4.047654282255371, -4.2667462194470565]
      },
      {
        "species": [{ "element": "Au", "occu": 1 }],
        "abc": [0.71120497, 0.77864095, 0.12670799],
        "properties": { "magmom": 0.0 },
        "label": "Au",
        "xyz": [-6.222856441361519, -4.047654282255371, -1.448278620552943]
      },
      {
        "species": [{ "element": "Au", "occu": 1 }],
        "abc": [0.7887950300000001, 0.72135905, 0.62670799],
        "properties": { "magmom": 0.0 },
        "label": "Au",
        "xyz": [-5.765062588638481, -4.489239692744629, -7.163303460552943]
      },
      {
        "species": [{ "element": "Au", "occu": 1 }],
        "abc": [0.0, 0.0, 0.5],
        "properties": { "magmom": -0.0 },
        "label": "Au",
        "xyz": [0.0, 0.0, -5.71502484]
      },
      {
        "species": [{ "element": "Au", "occu": 1 }],
        "abc": [0.5, 0.5, -0.0],
        "properties": { "magmom": -0.0 },
        "label": "Au",
        "xyz": [-3.99597301, -2.845631325, 0.0]
      },
      {
        "species": [{ "element": "Au", "occu": 1 }],
        "abc": [0.5, 0.5, 0.5],
        "properties": { "magmom": -0.0 },
        "label": "Au",
        "xyz": [-3.99597301, -2.845631325, -5.71502484]
      },
      {
        "species": [{ "element": "Au", "occu": 1 }],
        "abc": [0.0, -0.0, 0.0],
        "properties": { "magmom": -0.0 },
        "label": "Au",
        "xyz": [0.0, 0.0, 0.0]
      }
    ]
  },
  "task_ids": null,
  "uncorrected_energy_per_atom": null,
  "energy_per_atom": -52.55534477875,
  "formation_energy_per_atom": -0.07032664208333,
  "energy_above_hull": 0.0,
  "is_stable": true,
  "equilibrium_reaction_energy_per_atom": null,
  "decomposes_to": null,
  "xas": null,
  "grain_boundaries": null,
  "band_gap": 0.0,
  "cbm": null,
  "vbm": null,
  "efermi": 5.73442656,
  "is_gap_direct": null,
  "is_metal": null,
  "es_source_calc_id": null,
  "bandstructure": null,
  "dos": null,
  "dos_energy_up": null,
  "dos_energy_down": null,
  "is_magnetic": null,
  "ordering": null,
  "total_magnetization": 0.0,
  "total_magnetization_normalized_vol": null,
  "total_magnetization_normalized_formula_units": null,
  "num_magnetic_sites": null,
  "num_unique_magnetic_sites": null,
  "types_of_magnetic_species": null,
  "bulk_modulus": null,
  "shear_modulus": null,
  "universal_anisotropy": null,
  "homogeneous_poisson": null,
  "e_total": null,
  "e_ionic": null,
  "e_electronic": null,
  "n": null,
  "e_ij_max": null,
  "weighted_surface_energy_EV_PER_ANG2": null,
  "weighted_surface_energy": null,
  "weighted_work_function": null,
  "surface_anisotropy": null,
  "shape_factor": null,
  "has_reconstructed": null,
  "possible_species": null,
  "has_props": null,
  "theoretical": null,
  "database_IDs": null,
  "fields_not_requested": [
    "builder_meta",
    "nsites",
    "elements",
    "nelements",
    "composition",
    "composition_reduced",
    "chemsys",
    "symmetry",
    "property_name",
    "deprecated",
    "deprecation_reasons",
    "last_updated",
    "origins",
    "warnings",
    "task_ids",
    "uncorrected_energy_per_atom",
    "equilibrium_reaction_energy_per_atom",
    "decomposes_to",
    "xas",
    "grain_boundaries",
    "cbm",
    "vbm",
    "is_gap_direct",
    "is_metal",
    "es_source_calc_id",
    "bandstructure",
    "dos",
    "dos_energy_up",
    "dos_energy_down",
    "is_magnetic",
    "ordering",
    "total_magnetization_normalized_vol",
    "total_magnetization_normalized_formula_units",
    "num_magnetic_sites",
    "num_unique_magnetic_sites",
    "types_of_magnetic_species",
    "bulk_modulus",
    "shear_modulus",
    "universal_anisotropy",
    "homogeneous_poisson",
    "e_total",
    "e_ionic",
    "e_electronic",
    "n",
    "e_ij_max",
    "weighted_surface_energy_EV_PER_ANG2",
    "weighted_surface_energy",
    "weighted_work_function",
    "surface_anisotropy",
    "shape_factor",
    "has_reconstructed",
    "possible_species",
    "has_props",
    "theoretical",
    "database_IDs"
  ]
}
