{"builder_meta": null, "nsites": null, "elements": null, "nelements": null, "composition": null, "composition_reduced": null, "formula_pretty": "PbCl4", "formula_anonymous": "AB4", "chemsys": null, "volume": 323.84042695138817, "density": 3.579219964400524, "density_atomic": 32.38404269513882, "symmetry": null, "property_name": null, "material_id": "mp-570355", "deprecated": null, "deprecation_reasons": null, "last_updated": null, "origins": null, "warnings": null, "structure": {"@module": "pymatgen.core.structure", "@class": "Structure", "charge": 0, "lattice": {"matrix": [[5.28136758, -0.00236234, 1.4833334200000001], [2.40870384, 6.06498164, 1.55823116], [0.00901954, -0.0068471, 10.10983654]], "pbc": [true, true, true], "a": 5.4857202927796305, "b": 6.709242940180568, "c": 10.109842882082757, "alpha": 76.58754692968553, "beta": 74.26085709978346, "gamma": 65.91759112313932, "volume": 323.8404269513882}, "properties": {}, "sites": [{"species": [{"element": "Pb", "occu": 1}], "abc": [0.25848088, 0.75044612, 0.25005813], "properties": {"magmom": 0.0}, "label": "Pb", "xyz": [3.1749903999448312, 4.549119146865254, 4.080828675618179]}, {"species": [{"element": "Pb", "occu": 1}], "abc": [0.74151912, 0.24955388, 0.74994187], "properties": {"magmom": 0.0}, "label": "Pb", "xyz": [4.524100560055168, 1.5066530531347455, 9.07057244438182]}, {"species": [{"element": "Cl", "occu": 1}], "abc": [0.13689472, 0.43064811000000003, 0.31151102], "properties": {"magmom": -0.0}, "label": "Cl", "xyz": [1.7631047784322509, 2.609416541472814, 4.023435309803321]}, {"species": [{"element": "Cl", "occu": 1}], "abc": [0.86310528, 0.56935189, 0.68848898], "properties": {"magmom": -0.0}, "label": "Cl", "xyz": [5.935986181567749, 3.446355658527186, 9.12796581019668]}, {"species": [{"element": "Cl", "occu": 1}], "abc": [0.61895771, 0.18657676, 0.55707385], "properties": {"magmom": 0.0}, "label": "Cl", "xyz": [3.7233758911248294, 1.1263080949357098, 6.840775942181988]}, {"species": [{"element": "Cl", "occu": 1}], "abc": [0.36365432000000003, 0.31318965, 0.94277544], "properties": {"magmom": -0.0}, "label": "Cl", "xyz": [2.683476649370299, 1.892175124226493, 10.558748070129445]}, {"species": [{"element": "Cl", "occu": 1}], "abc": [0.87904764, 0.06975493, 0.18835922], "properties": {"magmom": 0.0}, "label": "Cl", "xyz": [4.812291588440602, 0.41969604593234566, 3.3168959726756464]}, {"species": [{"element": "Cl", "occu": 1}], "abc": [0.12095236000000001, 0.93024507, 0.8116407800000001], "properties": {"magmom": 0.0}, "label": "Cl", "xyz": [2.8867993715593987, 5.636076154067655, 9.834505147324355]}, {"species": [{"element": "Cl", "occu": 1}], "abc": [0.38104229, 0.81342324, 0.44292615], "properties": {"magmom": 0.0}, "label": "Cl", "xyz": [3.975715068875171, 4.929464105064289, 6.310625177818011]}, {"species": [{"element": "Cl", "occu": 1}], "abc": [0.63634468, 0.68681035, 0.05722556], "properties": {"magmom": -0.0}, "label": "Cl", "xyz": [5.015609038281661, 4.163597071288748, 2.592661676373674]}]}, "task_ids": null, "uncorrected_energy_per_atom": null, "energy_per_atom": -16.872847313, "formation_energy_per_atom": -0.6938693730000011, "energy_above_hull": 0.091373464499994, "is_stable": false, "equilibrium_reaction_energy_per_atom": null, "decomposes_to": null, "xas": null, "grain_boundaries": null, "band_gap": 2.0991, "cbm": null, "vbm": null, "efermi": -2.25332382, "is_gap_direct": null, "is_metal": null, "es_source_calc_id": null, "bandstructure": null, "dos": null, "dos_energy_up": null, "dos_energy_down": null, "is_magnetic": null, "ordering": null, "total_magnetization": 0.0, "total_magnetization_normalized_vol": null, "total_magnetization_normalized_formula_units": null, "num_magnetic_sites": null, "num_unique_magnetic_sites": null, "types_of_magnetic_species": null, "bulk_modulus": null, "shear_modulus": null, "universal_anisotropy": null, "homogeneous_poisson": null, "e_total": null, "e_ionic": null, "e_electronic": null, "n": null, "e_ij_max": null, "weighted_surface_energy_EV_PER_ANG2": null, "weighted_surface_energy": null, "weighted_work_function": null, "surface_anisotropy": null, "shape_factor": null, "has_reconstructed": null, "possible_species": null, "has_props": null, "theoretical": null, "database_IDs": null, "fields_not_requested": ["builder_meta", "nsites", "elements", "nelements", "composition", "composition_reduced", "chemsys", "symmetry", "property_name", "deprecated", "deprecation_reasons", "last_updated", "origins", "warnings", "task_ids", "uncorrected_energy_per_atom", "equilibrium_reaction_energy_per_atom", "decomposes_to", "xas", "grain_boundaries", "cbm", "vbm", "is_gap_direct", "is_metal", "es_source_calc_id", "bandstructure", "dos", "dos_energy_up", "dos_energy_down", "is_magnetic", "ordering", "total_magnetization_normalized_vol", "total_magnetization_normalized_formula_units", "num_magnetic_sites", "num_unique_magnetic_sites", "types_of_magnetic_species", "bulk_modulus", "shear_modulus", "universal_anisotropy", "homogeneous_poisson", "e_total", "e_ionic", "e_electronic", "n", "e_ij_max", "weighted_surface_energy_EV_PER_ANG2", "weighted_surface_energy", "weighted_work_function", "surface_anisotropy", "shape_factor", "has_reconstructed", "possible_species", "has_props", "theoretical", "database_IDs"]}