{
  "builder_meta": null,
  "nsites": null,
  "elements": null,
  "nelements": null,
  "composition": null,
  "composition_reduced": null,
  "formula_pretty": "PbCl2",
  "formula_anonymous": "AB2",
  "chemsys": null,
  "volume": 319.9822095088894,
  "density": 5.772894416406985,
  "density_atomic": 26.665184125740783,
  "symmetry": null,
  "property_name": null,
  "material_id": "mp-23291",
  "deprecated": null,
  "deprecation_reasons": null,
  "last_updated": null,
  "origins": null,
  "warnings": null,
  "structure": {
    "@module": "pymatgen.core.structure",
    "@class": "Structure",
    "charge": 0,
    "lattice": {
      "matrix": [
        [4.54802648, 0.0, 0.0],
        [-0.0, 7.67151188, 0.0],
        [0.0, 0.0, 9.17110966]
      ],
      "pbc": [true, true, true],
      "a": 4.54802648,
      "b": 7.67151188,
      "c": 9.17110966,
      "alpha": 90.0,
      "beta": 90.0,
      "gamma": 90.0,
      "volume": 319.9822095088894
    },
    "properties": {},
    "sites": [
      {
        "species": [{ "element": "Pb", "occu": 1 }],
        "abc": [0.25, 0.76365269, 0.40944598],
        "properties": { "magmom": -0.0 },
        "label": "Pb",
        "xyz": [1.13700662, 5.858370683528957, 3.755073982426167]
      },
      {
        "species": [{ "element": "Pb", "occu": 1 }],
        "abc": [0.75, 0.23634731, 0.59055402],
        "properties": { "magmom": -0.0 },
        "label": "Pb",
        "xyz": [3.4110198599999997, 1.8131411964710429, 5.416035677573833]
      },
      {
        "species": [{ "element": "Pb", "occu": 1 }],
        "abc": [0.25, 0.26365269, 0.09055402],
        "properties": { "magmom": -0.0 },
        "label": "Pb",
        "xyz": [1.13700662, 2.0226147435289574, 0.8304808475738332]
      },
      {
        "species": [{ "element": "Pb", "occu": 1 }],
        "abc": [0.75, 0.73634731, 0.90944598],
        "properties": { "magmom": -0.0 },
        "label": "Pb",
        "xyz": [3.4110198599999997, 5.648897136471042, 8.340628812426168]
      },
      {
        "species": [{ "element": "Cl", "occu": 1 }],
        "abc": [0.25, 0.9827689900000001, 0.65764769],
        "properties": { "magmom": -0.0 },
        "label": "Cl",
        "xyz": [1.13700662, 7.539323982080601, 6.031359082635686]
      },
      {
        "species": [{ "element": "Cl", "occu": 1 }],
        "abc": [0.75, 0.01723101, 0.34235231],
        "properties": { "magmom": -0.0 },
        "label": "Cl",
        "xyz": [3.4110198599999997, 0.1321878979193988, 3.139750577364315]
      },
      {
        "species": [{ "element": "Cl", "occu": 1 }],
        "abc": [0.25, 0.48276899, 0.84235231],
        "properties": { "magmom": -0.0 },
        "label": "Cl",
        "xyz": [1.13700662, 3.703568042080601, 7.725305407364315]
      },
      {
        "species": [{ "element": "Cl", "occu": 1 }],
        "abc": [0.75, 0.51723101, 0.15764769],
        "properties": { "magmom": -0.0 },
        "label": "Cl",
        "xyz": [3.4110198599999997, 3.967943837919399, 1.4458042526356856]
      },
      {
        "species": [{ "element": "Cl", "occu": 1 }],
        "abc": [0.75, 0.14146135, 0.9226266200000001],
        "properties": { "magmom": 0.0 },
        "label": "Cl",
        "xyz": [3.4110198599999997, 1.0852224270858382, 8.46150990725515]
      },
      {
        "species": [{ "element": "Cl", "occu": 1 }],
        "abc": [0.25, 0.8585386500000001, 0.07737338],
        "properties": { "magmom": 0.0 },
        "label": "Cl",
        "xyz": [1.13700662, 6.586289452914162, 0.7095997527448509]
      },
      {
        "species": [{ "element": "Cl", "occu": 1 }],
        "abc": [0.75, 0.64146135, 0.57737338],
        "properties": { "magmom": 0.0 },
        "label": "Cl",
        "xyz": [3.4110198599999997, 4.920978367085838, 5.295154582744852]
      },
      {
        "species": [{ "element": "Cl", "occu": 1 }],
        "abc": [0.25, 0.35853865, 0.42262662],
        "properties": { "magmom": 0.0 },
        "label": "Cl",
        "xyz": [1.13700662, 2.750533512914162, 3.8759550772551497]
      }
    ]
  },
  "task_ids": null,
  "uncorrected_energy_per_atom": null,
  "energy_per_atom": -24.17207536416667,
  "formation_energy_per_atom": -1.308738062500002,
  "energy_above_hull": 0.0,
  "is_stable": true,
  "equilibrium_reaction_energy_per_atom": null,
  "decomposes_to": null,
  "xas": null,
  "grain_boundaries": null,
  "band_gap": 3.7939,
  "cbm": null,
  "vbm": null,
  "efermi": 1.85044846,
  "is_gap_direct": null,
  "is_metal": null,
  "es_source_calc_id": null,
  "bandstructure": null,
  "dos": null,
  "dos_energy_up": null,
  "dos_energy_down": null,
  "is_magnetic": null,
  "ordering": null,
  "total_magnetization": 0.0,
  "total_magnetization_normalized_vol": null,
  "total_magnetization_normalized_formula_units": null,
  "num_magnetic_sites": null,
  "num_unique_magnetic_sites": null,
  "types_of_magnetic_species": null,
  "bulk_modulus": null,
  "shear_modulus": null,
  "universal_anisotropy": null,
  "homogeneous_poisson": null,
  "e_total": null,
  "e_ionic": null,
  "e_electronic": null,
  "n": null,
  "e_ij_max": null,
  "weighted_surface_energy_EV_PER_ANG2": null,
  "weighted_surface_energy": null,
  "weighted_work_function": null,
  "surface_anisotropy": null,
  "shape_factor": null,
  "has_reconstructed": null,
  "possible_species": null,
  "has_props": null,
  "theoretical": null,
  "database_IDs": null,
  "fields_not_requested": [
    "builder_meta",
    "nsites",
    "elements",
    "nelements",
    "composition",
    "composition_reduced",
    "chemsys",
    "symmetry",
    "property_name",
    "deprecated",
    "deprecation_reasons",
    "last_updated",
    "origins",
    "warnings",
    "task_ids",
    "uncorrected_energy_per_atom",
    "equilibrium_reaction_energy_per_atom",
    "decomposes_to",
    "xas",
    "grain_boundaries",
    "cbm",
    "vbm",
    "is_gap_direct",
    "is_metal",
    "es_source_calc_id",
    "bandstructure",
    "dos",
    "dos_energy_up",
    "dos_energy_down",
    "is_magnetic",
    "ordering",
    "total_magnetization_normalized_vol",
    "total_magnetization_normalized_formula_units",
    "num_magnetic_sites",
    "num_unique_magnetic_sites",
    "types_of_magnetic_species",
    "bulk_modulus",
    "shear_modulus",
    "universal_anisotropy",
    "homogeneous_poisson",
    "e_total",
    "e_ionic",
    "e_electronic",
    "n",
    "e_ij_max",
    "weighted_surface_energy_EV_PER_ANG2",
    "weighted_surface_energy",
    "weighted_work_function",
    "surface_anisotropy",
    "shape_factor",
    "has_reconstructed",
    "possible_species",
    "has_props",
    "theoretical",
    "database_IDs"
  ]
}
