{"builder_meta": null, "nsites": null, "elements": null, "nelements": null, "composition": null, "composition_reduced": null, "formula_pretty": "PbF3", "formula_anonymous": "AB3", "chemsys": null, "volume": 253.37151531377546, "density": 6.925900351601574, "density_atomic": 15.835719707110966, "symmetry": null, "property_name": null, "material_id": "mp-20652", "deprecated": null, "deprecation_reasons": null, "last_updated": null, "origins": null, "warnings": null, "structure": {"@module": "pymatgen.core.structure", "@class": "Structure", "charge": 0, "lattice": {"matrix": [[5.34222739, 0.0, 0.0], [0.0, 5.34222739, -0.0], [0.0, -0.0, 8.87795725]], "pbc": [true, true, true], "a": 5.34222739, "b": 5.34222739, "c": 8.87795725, "alpha": 90.0, "beta": 90.0, "gamma": 90.0, "volume": 253.37151531377546}, "properties": {}, "sites": [{"species": [{"element": "Pb", "occu": 1}], "abc": [0.5, 0.5, 0.5], "properties": {"magmom": 0.0}, "label": "Pb", "xyz": [2.671113695, 2.671113695, 4.438978625]}, {"species": [{"element": "Pb", "occu": 1}], "abc": [0.5, 0.5, 0.0], "properties": {"magmom": 0.0}, "label": "Pb", "xyz": [2.671113695, 2.671113695, 0.0]}, {"species": [{"element": "Pb", "occu": 1}], "abc": [-0.0, 0.0, 0.75], "properties": {"magmom": 0.0}, "label": "Pb", "xyz": [0.0, 0.0, 6.658467937499999]}, {"species": [{"element": "Pb", "occu": 1}], "abc": [-0.0, 0.0, 0.25], "properties": {"magmom": 0.0}, "label": "Pb", "xyz": [0.0, 0.0, 2.2194893125]}, {"species": [{"element": "F", "occu": 1}], "abc": [0.20328131, 0.79705109, 0.59249262], "properties": {"magmom": -0.0}, "label": "F", "xyz": [1.0859749821570808, 4.258028164227355, 5.260124151300495]}, {"species": [{"element": "F", "occu": 1}], "abc": [0.7967186900000001, 0.20294891, 0.59249262], "properties": {"magmom": -0.0}, "label": "F", "xyz": [4.256252407842919, 1.084199225772645, 5.260124151300495]}, {"species": [{"element": "F", "occu": 1}], "abc": [0.79705109, 0.7967186900000001, 0.40750738000000003], "properties": {"magmom": -0.0}, "label": "F", "xyz": [4.258028164227355, 4.256252407842919, 3.617833098699505]}, {"species": [{"element": "F", "occu": 1}], "abc": [0.20294891, 0.20328131, 0.40750738000000003], "properties": {"magmom": -0.0}, "label": "F", "xyz": [1.084199225772645, 1.0859749821570808, 3.617833098699505]}, {"species": [{"element": "F", "occu": 1}], "abc": [0.28052603, 0.71947497, 0.25], "properties": {"magmom": -0.0}, "label": "F", "xyz": [1.4986338410739615, 3.8435988911534285, 2.2194893125]}, {"species": [{"element": "F", "occu": 1}], "abc": [0.71947497, 0.71947497, 0.75], "properties": {"magmom": -0.0}, "label": "F", "xyz": [3.8435988911534285, 3.8435988911534285, 6.658467937499999]}, {"species": [{"element": "F", "occu": 1}], "abc": [0.28052603, 0.28052603, 0.75], "properties": {"magmom": -0.0}, "label": "F", "xyz": [1.4986338410739615, 1.4986338410739615, 6.658467937499999]}, {"species": [{"element": "F", "occu": 1}], "abc": [0.71947497, 0.28052603, 0.25], "properties": {"magmom": -0.0}, "label": "F", "xyz": [3.8435988911534285, 1.4986338410739615, 2.2194893125]}, {"species": [{"element": "F", "occu": 1}], "abc": [0.20328131, 0.20294891, 0.09249262], "properties": {"magmom": -0.0}, "label": "F", "xyz": [1.0859749821570808, 1.084199225772645, 0.821145526300495]}, {"species": [{"element": "F", "occu": 1}], "abc": [0.20294891, 0.7967186900000001, 0.90750738], "properties": {"magmom": -0.0}, "label": "F", "xyz": [1.084199225772645, 4.256252407842919, 8.056811723699505]}, {"species": [{"element": "F", "occu": 1}], "abc": [0.79705109, 0.20328131, 0.90750738], "properties": {"magmom": -0.0}, "label": "F", "xyz": [4.258028164227355, 1.0859749821570808, 8.056811723699505]}, {"species": [{"element": "F", "occu": 1}], "abc": [0.7967186900000001, 0.79705109, 0.09249262], "properties": {"magmom": -0.0}, "label": "F", "xyz": [4.256252407842919, 4.258028164227355, 0.821145526300495]}]}, "task_ids": null, "uncorrected_energy_per_atom": null, "energy_per_atom": -18.68023273375, "formation_energy_per_atom": -2.26442824375, "energy_above_hull": 0.0, "is_stable": true, "equilibrium_reaction_energy_per_atom": null, "decomposes_to": null, "xas": null, "grain_boundaries": null, "band_gap": 1.9078, "cbm": null, "vbm": null, "efermi": 0.27437861, "is_gap_direct": null, "is_metal": null, "es_source_calc_id": null, "bandstructure": null, "dos": null, "dos_energy_up": null, "dos_energy_down": null, "is_magnetic": null, "ordering": null, "total_magnetization": 0.0, "total_magnetization_normalized_vol": null, "total_magnetization_normalized_formula_units": null, "num_magnetic_sites": null, "num_unique_magnetic_sites": null, "types_of_magnetic_species": null, "bulk_modulus": null, "shear_modulus": null, "universal_anisotropy": null, "homogeneous_poisson": null, "e_total": null, "e_ionic": null, "e_electronic": null, "n": null, "e_ij_max": null, "weighted_surface_energy_EV_PER_ANG2": null, "weighted_surface_energy": null, "weighted_work_function": null, "surface_anisotropy": null, "shape_factor": null, "has_reconstructed": null, "possible_species": null, "has_props": null, "theoretical": null, "database_IDs": null, "fields_not_requested": ["builder_meta", "nsites", "elements", "nelements", "composition", "composition_reduced", "chemsys", "symmetry", "property_name", "deprecated", "deprecation_reasons", "last_updated", "origins", "warnings", "task_ids", "uncorrected_energy_per_atom", "equilibrium_reaction_energy_per_atom", "decomposes_to", "xas", "grain_boundaries", "cbm", "vbm", "is_gap_direct", "is_metal", "es_source_calc_id", "bandstructure", "dos", "dos_energy_up", "dos_energy_down", "is_magnetic", "ordering", "total_magnetization_normalized_vol", "total_magnetization_normalized_formula_units", "num_magnetic_sites", "num_unique_magnetic_sites", "types_of_magnetic_species", "bulk_modulus", "shear_modulus", "universal_anisotropy", "homogeneous_poisson", "e_total", "e_ionic", "e_electronic", "n", "e_ij_max", "weighted_surface_energy_EV_PER_ANG2", "weighted_surface_energy", "weighted_work_function", "surface_anisotropy", "shape_factor", "has_reconstructed", "possible_species", "has_props", "theoretical", "database_IDs"]}