{
  "builder_meta": null,
  "nsites": null,
  "elements": null,
  "nelements": null,
  "composition": null,
  "composition_reduced": null,
  "formula_pretty": "PbF4",
  "formula_anonymous": "AB4",
  "chemsys": null,
  "volume": 72.5019564660598,
  "density": 6.486087829728194,
  "density_atomic": 14.500391293211958,
  "symmetry": null,
  "property_name": null,
  "material_id": "mp-341",
  "deprecated": null,
  "deprecation_reasons": null,
  "last_updated": null,
  "origins": null,
  "warnings": null,
  "structure": {
    "@module": "pymatgen.core.structure",
    "@class": "Structure",
    "charge": 0,
    "lattice": {
      "matrix": [
        [3.88573111, -0.0, -1.8262700600000001],
        [-0.85833452, 3.7897465500000003, -1.82627005],
        [-0.03704863, -0.04637855, 4.96811847]
      ],
      "pbc": [true, true, true],
      "a": 4.293503067574802,
      "b": 4.293504321296013,
      "c": 4.968473075587722,
      "alpha": 115.59930369564992,
      "beta": 115.59930644597804,
      "gamma": 89.9999839414233,
      "volume": 72.50195646605981
    },
    "properties": {},
    "sites": [
      {
        "species": [{ "element": "Pb", "occu": 1 }],
        "abc": [0.0, 0.0, 0.0],
        "properties": { "magmom": -0.0 },
        "label": "Pb",
        "xyz": [0.0, 0.0, 0.0]
      },
      {
        "species": [{ "element": "F", "occu": 1 }],
        "abc": [0.74815332, 0.74815332, 0.49630563],
        "properties": { "magmom": 0.0 },
        "label": "F",
        "xyz": [2.246569366112392, 2.81229352786481, -0.2669548425616788]
      },
      {
        "species": [{ "element": "F", "occu": 1 }],
        "abc": [0.0, 0.5, 0.0],
        "properties": { "magmom": -0.0 },
        "label": "F",
        "xyz": [-0.42916726, 1.8948732750000001, -0.913135025]
      },
      {
        "species": [{ "element": "F", "occu": 1 }],
        "abc": [0.5, 0.0, 0.0],
        "properties": { "magmom": -0.0 },
        "label": "F",
        "xyz": [1.942865555, 0.0, -0.9131350300000001]
      },
      {
        "species": [{ "element": "F", "occu": 1 }],
        "abc": [0.25184668, 0.25184668, 0.5036943700000001],
        "properties": { "magmom": 0.0 },
        "label": "F",
        "xyz": [0.743778593887608, 0.9310744721351906, 1.5825332025616796]
      }
    ]
  },
  "task_ids": null,
  "uncorrected_energy_per_atom": null,
  "energy_per_atom": -15.748754199999999,
  "formation_energy_per_atom": -1.990905017999998,
  "energy_above_hull": 0.0,
  "is_stable": true,
  "equilibrium_reaction_energy_per_atom": null,
  "decomposes_to": null,
  "xas": null,
  "grain_boundaries": null,
  "band_gap": 1.9022000000000001,
  "cbm": null,
  "vbm": null,
  "efermi": -1.93674298,
  "is_gap_direct": null,
  "is_metal": null,
  "es_source_calc_id": null,
  "bandstructure": null,
  "dos": null,
  "dos_energy_up": null,
  "dos_energy_down": null,
  "is_magnetic": null,
  "ordering": null,
  "total_magnetization": 0.0,
  "total_magnetization_normalized_vol": null,
  "total_magnetization_normalized_formula_units": null,
  "num_magnetic_sites": null,
  "num_unique_magnetic_sites": null,
  "types_of_magnetic_species": null,
  "bulk_modulus": null,
  "shear_modulus": null,
  "universal_anisotropy": null,
  "homogeneous_poisson": null,
  "e_total": null,
  "e_ionic": null,
  "e_electronic": null,
  "n": null,
  "e_ij_max": null,
  "weighted_surface_energy_EV_PER_ANG2": null,
  "weighted_surface_energy": null,
  "weighted_work_function": null,
  "surface_anisotropy": null,
  "shape_factor": null,
  "has_reconstructed": null,
  "possible_species": null,
  "has_props": null,
  "theoretical": null,
  "database_IDs": null,
  "fields_not_requested": [
    "builder_meta",
    "nsites",
    "elements",
    "nelements",
    "composition",
    "composition_reduced",
    "chemsys",
    "symmetry",
    "property_name",
    "deprecated",
    "deprecation_reasons",
    "last_updated",
    "origins",
    "warnings",
    "task_ids",
    "uncorrected_energy_per_atom",
    "equilibrium_reaction_energy_per_atom",
    "decomposes_to",
    "xas",
    "grain_boundaries",
    "cbm",
    "vbm",
    "is_gap_direct",
    "is_metal",
    "es_source_calc_id",
    "bandstructure",
    "dos",
    "dos_energy_up",
    "dos_energy_down",
    "is_magnetic",
    "ordering",
    "total_magnetization_normalized_vol",
    "total_magnetization_normalized_formula_units",
    "num_magnetic_sites",
    "num_unique_magnetic_sites",
    "types_of_magnetic_species",
    "bulk_modulus",
    "shear_modulus",
    "universal_anisotropy",
    "homogeneous_poisson",
    "e_total",
    "e_ionic",
    "e_electronic",
    "n",
    "e_ij_max",
    "weighted_surface_energy_EV_PER_ANG2",
    "weighted_surface_energy",
    "weighted_work_function",
    "surface_anisotropy",
    "shape_factor",
    "has_reconstructed",
    "possible_species",
    "has_props",
    "theoretical",
    "database_IDs"
  ]
}
