{
  "builder_meta": null,
  "nsites": null,
  "elements": null,
  "nelements": null,
  "composition": null,
  "composition_reduced": null,
  "formula_pretty": "PbI6",
  "formula_anonymous": "AB6",
  "chemsys": null,
  "volume": 7062.869306423033,
  "density": 0.227732187271792,
  "density_atomic": 1008.9813294890047,
  "symmetry": null,
  "property_name": null,
  "material_id": "mp-1207336",
  "deprecated": null,
  "deprecation_reasons": null,
  "last_updated": null,
  "origins": null,
  "warnings": null,
  "structure": {
    "@module": "pymatgen.core.structure",
    "@class": "Structure",
    "charge": 0,
    "lattice": {
      "matrix": [
        [-6.20636258, -10.74973473, 0.0],
        [-6.17112873, 10.72939245, 0.0],
        [0.0, 0.0, -53.13284574]
      ],
      "pbc": [true, true, true],
      "a": 12.412724650123858,
      "b": 12.377507509525026,
      "c": 53.13284574,
      "alpha": 90.0,
      "beta": 90.0,
      "gamma": 120.0941621734287,
      "volume": 7062.869306423033
    },
    "properties": {},
    "sites": [
      {
        "species": [{ "element": "Pb", "occu": 1 }],
        "abc": [0.0, 0.0, -0.0],
        "properties": { "magmom": -0.013000000000000001 },
        "label": "Pb",
        "xyz": [0.0, 0.0, 0.0]
      },
      {
        "species": [{ "element": "I", "occu": 1 }],
        "abc": [0.0, 0.0, 0.75000834],
        "properties": { "magmom": 0.547 },
        "label": "I",
        "xyz": [0.0, 0.0, -39.850077432933475]
      },
      {
        "species": [{ "element": "I", "occu": 1 }],
        "abc": [0.0, 0.0, 0.24999166],
        "properties": { "magmom": 0.547 },
        "label": "I",
        "xyz": [0.0, 0.0, -13.28276830706653]
      },
      {
        "species": [{ "element": "I", "occu": 1 }],
        "abc": [0.74523266, 0.74805267, -0.0],
        "properties": { "magmom": 0.309 },
        "label": "I",
        "xyz": [-9.241513417808072, 0.015097262568058767, 0.0]
      },
      {
        "species": [{ "element": "I", "occu": 1 }],
        "abc": [0.25476734, 0.25194733, -0.0],
        "properties": { "magmom": 0.309 },
        "label": "I",
        "xyz": [-3.135977892191929, -0.03543954256805959, 0.0]
      },
      {
        "species": [{ "element": "I", "occu": 1 }],
        "abc": [0.99717999, 0.25194733, -0.0],
        "properties": { "magmom": 0.309 },
        "label": "I",
        "xyz": [-7.743659982070566, -8.016178590264396, 0.0]
      },
      {
        "species": [{ "element": "I", "occu": 1 }],
        "abc": [0.00282001, 0.74805267, -0.0],
        "properties": { "magmom": 0.309 },
        "label": "I",
        "xyz": [-4.633831327929435, 7.9958363102643935, 0.0]
      }
    ]
  },
  "task_ids": null,
  "uncorrected_energy_per_atom": null,
  "energy_per_atom": -1.750808481428571,
  "formation_energy_per_atom": 0.085866198571428,
  "energy_above_hull": 0.48095185499999904,
  "is_stable": false,
  "equilibrium_reaction_energy_per_atom": null,
  "decomposes_to": null,
  "xas": null,
  "grain_boundaries": null,
  "band_gap": 0.09729999999999901,
  "cbm": null,
  "vbm": null,
  "efermi": -5.96943057,
  "is_gap_direct": null,
  "is_metal": null,
  "es_source_calc_id": null,
  "bandstructure": null,
  "dos": null,
  "dos_energy_up": null,
  "dos_energy_down": null,
  "is_magnetic": null,
  "ordering": null,
  "total_magnetization": 3.8325449,
  "total_magnetization_normalized_vol": null,
  "total_magnetization_normalized_formula_units": null,
  "num_magnetic_sites": null,
  "num_unique_magnetic_sites": null,
  "types_of_magnetic_species": null,
  "bulk_modulus": null,
  "shear_modulus": null,
  "universal_anisotropy": null,
  "homogeneous_poisson": null,
  "e_total": null,
  "e_ionic": null,
  "e_electronic": null,
  "n": null,
  "e_ij_max": null,
  "weighted_surface_energy_EV_PER_ANG2": null,
  "weighted_surface_energy": null,
  "weighted_work_function": null,
  "surface_anisotropy": null,
  "shape_factor": null,
  "has_reconstructed": null,
  "possible_species": null,
  "has_props": null,
  "theoretical": null,
  "database_IDs": null,
  "fields_not_requested": [
    "builder_meta",
    "nsites",
    "elements",
    "nelements",
    "composition",
    "composition_reduced",
    "chemsys",
    "symmetry",
    "property_name",
    "deprecated",
    "deprecation_reasons",
    "last_updated",
    "origins",
    "warnings",
    "task_ids",
    "uncorrected_energy_per_atom",
    "equilibrium_reaction_energy_per_atom",
    "decomposes_to",
    "xas",
    "grain_boundaries",
    "cbm",
    "vbm",
    "is_gap_direct",
    "is_metal",
    "es_source_calc_id",
    "bandstructure",
    "dos",
    "dos_energy_up",
    "dos_energy_down",
    "is_magnetic",
    "ordering",
    "total_magnetization_normalized_vol",
    "total_magnetization_normalized_formula_units",
    "num_magnetic_sites",
    "num_unique_magnetic_sites",
    "types_of_magnetic_species",
    "bulk_modulus",
    "shear_modulus",
    "universal_anisotropy",
    "homogeneous_poisson",
    "e_total",
    "e_ionic",
    "e_electronic",
    "n",
    "e_ij_max",
    "weighted_surface_energy_EV_PER_ANG2",
    "weighted_surface_energy",
    "weighted_work_function",
    "surface_anisotropy",
    "shape_factor",
    "has_reconstructed",
    "possible_species",
    "has_props",
    "theoretical",
    "database_IDs"
  ]
}
