{"builder_meta": null, "nsites": null, "elements": null, "nelements": null, "composition": null, "composition_reduced": null, "formula_pretty": "PbN6", "formula_anonymous": "AB6", "chemsys": null, "volume": 1281.3062466794674, "density": 4.529275318381045, "density_atomic": 15.253645793803184, "symmetry": null, "property_name": null, "material_id": "mp-667338", "deprecated": null, "deprecation_reasons": null, "last_updated": null, "origins": null, "warnings": null, "structure": {"@module": "pymatgen.core.structure", "@class": "Structure", "charge": 0, "lattice": {"matrix": [[6.730475, 0.0, 0.0], [0.0, 11.543127, 0.0], [0.0, 0.0, 16.492396]], "pbc": [true, true, true], "a": 6.730475, "b": 11.543127, "c": 16.492396, "alpha": 90.0, "beta": 90.0, "gamma": 90.0, "volume": 1281.3062466794674}, "properties": {}, "sites": [{"species": [{"element": "Pb", "occu": 1}], "abc": [0.44154000000000004, 0.636451, 0.75], "properties": {"magmom": -0.0}, "label": "Pb", "xyz": [2.9717739315000005, 7.346634722277, 12.369297]}, {"species": [{"element": "Pb", "occu": 1}], "abc": [0.058460000000000005, 0.136451, 0.25], "properties": {"magmom": -0.0}, "label": "Pb", "xyz": [0.3934635685, 1.5750712222769998, 4.123099]}, {"species": [{"element": "Pb", "occu": 1}], "abc": [0.340630999999999, 0.876792999999999, 0.411006999999999], "properties": {"magmom": 0.0}, "label": "Pb", "xyz": [2.2926084297249933, 10.120932951710989, 6.778490202771984]}, {"species": [{"element": "Pb", "occu": 1}], "abc": [0.840631, 0.623207, 0.088993], "properties": {"magmom": 0.0}, "label": "Pb", "xyz": [5.657845929725, 7.193757548289, 1.467707797228]}, {"species": [{"element": "Pb", "occu": 1}], "abc": [0.659369, 0.123207, 0.911007], "properties": {"magmom": 0.0}, "label": "Pb", "xyz": [4.437866570275, 1.422194048289, 15.024688202772]}, {"species": [{"element": "Pb", "occu": 1}], "abc": [0.159368999999999, 0.376793, 0.588993], "properties": {"magmom": 0.0}, "label": "Pb", "xyz": [1.0726290702749934, 4.3493694517109995, 9.713905797228]}, {"species": [{"element": "Pb", "occu": 1}], "abc": [0.659369, 0.123207, 0.588993], "properties": {"magmom": 0.0}, "label": "Pb", "xyz": [4.437866570275, 1.422194048289, 9.713905797228]}, {"species": [{"element": "Pb", "occu": 1}], "abc": [0.94154, 0.863549, 0.75], "properties": {"magmom": -0.0}, "label": "Pb", "xyz": [6.337011431500001, 9.968055777723, 12.369297]}, {"species": [{"element": "Pb", "occu": 1}], "abc": [0.159368999999999, 0.376793, 0.911007], "properties": {"magmom": 0.0}, "label": "Pb", "xyz": [1.0726290702749934, 4.3493694517109995, 15.024688202772]}, {"species": [{"element": "Pb", "occu": 1}], "abc": [0.840631, 0.623207, 0.411006999999999], "properties": {"magmom": 0.0}, "label": "Pb", "xyz": [5.657845929725, 7.193757548289, 6.778490202771984]}, {"species": [{"element": "Pb", "occu": 1}], "abc": [0.5584600000000001, 0.363549, 0.25], "properties": {"magmom": -0.0}, "label": "Pb", "xyz": [3.7587010685000006, 4.196492277723, 4.123099]}, {"species": [{"element": "Pb", "occu": 1}], "abc": [0.340630999999999, 0.876792999999999, 0.088993], "properties": {"magmom": 0.0}, "label": "Pb", "xyz": [2.2926084297249933, 10.120932951710989, 1.467707797228]}, {"species": [{"element": "N", "occu": 1}], "abc": [0.148855, 0.713953, 0.865992], "properties": {"magmom": -0.0}, "label": "N", "xyz": [1.0018648561249999, 8.241250151031, 14.282282996831999]}, {"species": [{"element": "N", "occu": 1}], "abc": [0.934329, 0.236572999999999, 0.998697], "properties": {"magmom": -0.0}, "label": "N", "xyz": [6.288477976275, 2.7307921837709888, 16.470906408012]}, {"species": [{"element": "N", "occu": 1}], "abc": [0.157974, 0.001153999999999, 0.9096700000000001], "properties": {"magmom": 0.0}, "label": "N", "xyz": [1.06324005765, 0.013320768557988458, 15.00263786932]}, {"species": [{"element": "N", "occu": 1}], "abc": [0.148855, 0.713953, 0.634008], "properties": {"magmom": -0.0}, "label": "N", "xyz": [1.0018648561249999, 8.241250151031, 10.456311003168]}, {"species": [{"element": "N", "occu": 1}], "abc": [0.007558, 0.005866, 0.627973], "properties": {"magmom": -0.0}, "label": "N", "xyz": [0.05086893005, 0.067711982982, 10.356779393307999]}, {"species": [{"element": "N", "occu": 1}], "abc": [0.109452, 0.738062999999999, 0.933391], "properties": {"magmom": 0.0}, "label": "N", "xyz": [0.7366639496999999, 8.519554943000989, 15.393853994835998]}, {"species": [{"element": "N", "occu": 1}], "abc": [0.065671, 0.763427, 0.001303], "properties": {"magmom": -0.0}, "label": "N", "xyz": [0.441997023725, 8.812334816228999, 0.021489591987999997]}, {"species": [{"element": "N", "occu": 1}], "abc": [0.851144999999999, 0.286047, 0.134008], "properties": {"magmom": -0.0}, "label": "N", "xyz": [5.7286101438749935, 3.301876848969, 2.210113003168]}, {"species": [{"element": "N", "occu": 1}], "abc": [0.657974, 0.498845999999999, 0.9096700000000001], "properties": {"magmom": 0.0}, "label": "N", "xyz": [4.42847755765, 5.758242731441989, 15.00263786932]}, {"species": [{"element": "N", "occu": 1}], "abc": [0.652552, 0.780411, 0.321802], "properties": {"magmom": -0.0}, "label": "N", "xyz": [4.391984922200001, 9.008383285197, 5.307286017591999]}, {"species": [{"element": "N", "occu": 1}], "abc": [0.163466, 0.407476, 0.25], "properties": {"magmom": -0.0}, "label": "N", "xyz": [1.10020382635, 4.703547217452, 4.123099]}, {"species": [{"element": "N", "occu": 1}], "abc": [0.346462999999999, 0.221461, 0.75], "properties": {"magmom": 0.0}, "label": "N", "xyz": [2.3318605599249933, 2.556352448547, 12.369297]}, {"species": [{"element": "N", "occu": 1}], "abc": [0.8082600000000001, 0.503321, 0.946531], "properties": {"magmom": -0.0}, "label": "N", "xyz": [5.4399737235000005, 5.809898224767, 15.610564078276]}, {"species": [{"element": "N", "occu": 1}], "abc": [0.836534, 0.592523999999999, 0.75], "properties": {"magmom": -0.0}, "label": "N", "xyz": [5.63027117365, 6.839579782547989, 12.369297]}, {"species": [{"element": "N", "occu": 1}], "abc": [0.30826000000000003, 0.996679, 0.946531], "properties": {"magmom": -0.0}, "label": "N", "xyz": [2.0747362235000004, 11.504792275233, 15.610564078276]}, {"species": [{"element": "N", "occu": 1}], "abc": [0.890548, 0.261937, 0.433390999999999], "properties": {"magmom": 0.0}, "label": "N", "xyz": [5.993811050300001, 3.023572056999, 7.147655994835984]}, {"species": [{"element": "N", "occu": 1}], "abc": [0.390548, 0.238063, 0.066609], "properties": {"magmom": 0.0}, "label": "N", "xyz": [2.6285735503, 2.747991443001, 1.098542005164]}, {"species": [{"element": "N", "occu": 1}], "abc": [0.351145, 0.213952999999999, 0.365992], "properties": {"magmom": -0.0}, "label": "N", "xyz": [2.363372643875, 2.4696866510309885, 6.036084996832]}, {"species": [{"element": "N", "occu": 1}], "abc": [0.36189000000000004, 0.986099, 0.25], "properties": {"magmom": -0.0}, "label": "N", "xyz": [2.4356915977500004, 11.382665991572999, 4.123099]}, {"species": [{"element": "N", "occu": 1}], "abc": [0.152552, 0.719588999999999, 0.321802], "properties": {"magmom": -0.0}, "label": "N", "xyz": [1.0267474222, 8.306307214802988, 5.307286017591999]}, {"species": [{"element": "N", "occu": 1}], "abc": [0.851144999999999, 0.286047, 0.365992], "properties": {"magmom": -0.0}, "label": "N", "xyz": [5.7286101438749935, 3.301876848969, 6.036084996832]}, {"species": [{"element": "N", "occu": 1}], "abc": [0.19174000000000002, 0.496679, 0.446530999999999], "properties": {"magmom": -0.0}, "label": "N", "xyz": [1.2905012765000001, 5.733228775233, 7.364366078275983]}, {"species": [{"element": "N", "occu": 1}], "abc": [0.8082600000000001, 0.503321, 0.553469], "properties": {"magmom": -0.0}, "label": "N", "xyz": [5.4399737235000005, 5.809898224767, 9.128029921724]}, {"species": [{"element": "N", "occu": 1}], "abc": [0.016186, 0.460976999999999, 0.25], "properties": {"magmom": -0.0}, "label": "N", "xyz": [0.10893946835, 5.321116055078988, 4.123099]}, {"species": [{"element": "N", "occu": 1}], "abc": [0.507558, 0.494133999999999, 0.627973], "properties": {"magmom": -0.0}, "label": "N", "xyz": [3.4161064300499997, 5.703851517017989, 10.356779393307999]}, {"species": [{"element": "N", "occu": 1}], "abc": [0.492442, 0.505865999999999, 0.127973], "properties": {"magmom": -0.0}, "label": "N", "xyz": [3.31436856995, 5.839275482981989, 2.1105813933079998]}, {"species": [{"element": "N", "occu": 1}], "abc": [0.342026, 0.501154, 0.40967000000000003], "properties": {"magmom": 0.0}, "label": "N", "xyz": [2.3019974423500003, 5.784884268558, 6.75643986932]}, {"species": [{"element": "N", "occu": 1}], "abc": [0.890548, 0.261937, 0.066609], "properties": {"magmom": 0.0}, "label": "N", "xyz": [5.993811050300001, 3.023572056999, 1.098542005164]}, {"species": [{"element": "N", "occu": 1}], "abc": [0.347448, 0.219588999999999, 0.678198], "properties": {"magmom": -0.0}, "label": "N", "xyz": [2.3384900778, 2.5347437148029885, 11.185109982408]}, {"species": [{"element": "N", "occu": 1}], "abc": [0.663466, 0.092524, 0.25], "properties": {"magmom": -0.0}, "label": "N", "xyz": [4.465441326350001, 1.068016282548, 4.123099]}, {"species": [{"element": "N", "occu": 1}], "abc": [0.347448, 0.219588999999999, 0.821801999999999], "properties": {"magmom": -0.0}, "label": "N", "xyz": [2.3384900778, 2.5347437148029885, 13.553484017591984]}, {"species": [{"element": "N", "occu": 1}], "abc": [0.842025999999999, 0.9988459999999991, 0.09033000000000001], "properties": {"magmom": 0.0}, "label": "N", "xyz": [5.667234942349994, 11.52980623144199, 1.48975813068]}, {"species": [{"element": "N", "occu": 1}], "abc": [0.565670999999999, 0.736572999999999, 0.001303], "properties": {"magmom": -0.0}, "label": "N", "xyz": [3.807234523724994, 8.50235568377099, 0.021489591987999997]}, {"species": [{"element": "N", "occu": 1}], "abc": [0.609452, 0.761937, 0.933391], "properties": {"magmom": 0.0}, "label": "N", "xyz": [4.1019014497, 8.795135556999, 15.393853994835998]}, {"species": [{"element": "N", "occu": 1}], "abc": [0.657974, 0.498845999999999, 0.59033], "properties": {"magmom": 0.0}, "label": "N", "xyz": [4.42847755765, 5.758242731441989, 9.73595613068]}, {"species": [{"element": "N", "occu": 1}], "abc": [0.109452, 0.738062999999999, 0.566609], "properties": {"magmom": 0.0}, "label": "N", "xyz": [0.7366639496999999, 8.519554943000989, 9.344740005164]}, {"species": [{"element": "N", "occu": 1}], "abc": [0.983814, 0.539023, 0.75], "properties": {"magmom": -0.0}, "label": "N", "xyz": [6.62153553165, 6.222010944921, 12.369297]}, {"species": [{"element": "N", "occu": 1}], "abc": [0.342026, 0.501154, 0.09033000000000001], "properties": {"magmom": 0.0}, "label": "N", "xyz": [2.3019974423500003, 5.784884268558, 1.48975813068]}, {"species": [{"element": "N", "occu": 1}], "abc": [0.336534, 0.907476, 0.75], "properties": {"magmom": -0.0}, "label": "N", "xyz": [2.26503367365, 10.475110717451999, 12.369297]}, {"species": [{"element": "N", "occu": 1}], "abc": [0.492442, 0.505865999999999, 0.372027], "properties": {"magmom": -0.0}, "label": "N", "xyz": [3.31436856995, 5.839275482981989, 6.1356166066919995]}, {"species": [{"element": "N", "occu": 1}], "abc": [0.992441999999999, 0.994134, 0.127973], "properties": {"magmom": -0.0}, "label": "N", "xyz": [6.679606069949994, 11.475415017018, 2.1105813933079998]}, {"species": [{"element": "N", "occu": 1}], "abc": [0.69174, 0.003320999999999, 0.446530999999999], "properties": {"magmom": -0.0}, "label": "N", "xyz": [4.655738776500001, 0.03833472476698846, 7.364366078275983]}, {"species": [{"element": "N", "occu": 1}], "abc": [0.69174, 0.003320999999999, 0.053468999999999], "properties": {"magmom": -0.0}, "label": "N", "xyz": [4.655738776500001, 0.03833472476698846, 0.8818319217239835]}, {"species": [{"element": "N", "occu": 1}], "abc": [0.157974, 0.001153999999999, 0.59033], "properties": {"magmom": 0.0}, "label": "N", "xyz": [1.06324005765, 0.013320768557988458, 9.73595613068]}, {"species": [{"element": "N", "occu": 1}], "abc": [0.6381100000000001, 0.013901, 0.75], "properties": {"magmom": -0.0}, "label": "N", "xyz": [4.29478340225, 0.160461008427, 12.369297]}, {"species": [{"element": "N", "occu": 1}], "abc": [0.007558, 0.005866, 0.872027], "properties": {"magmom": -0.0}, "label": "N", "xyz": [0.05086893005, 0.067711982982, 14.381814606692]}, {"species": [{"element": "N", "occu": 1}], "abc": [0.516185999999999, 0.039022999999999, 0.25], "properties": {"magmom": -0.0}, "label": "N", "xyz": [3.4741769683499935, 0.4504474449209885, 4.123099]}, {"species": [{"element": "N", "occu": 1}], "abc": [0.19174000000000002, 0.496679, 0.053468999999999], "properties": {"magmom": -0.0}, "label": "N", "xyz": [1.2905012765000001, 5.733228775233, 0.8818319217239835]}, {"species": [{"element": "N", "occu": 1}], "abc": [0.609452, 0.761937, 0.566609], "properties": {"magmom": 0.0}, "label": "N", "xyz": [4.1019014497, 8.795135556999, 9.344740005164]}, {"species": [{"element": "N", "occu": 1}], "abc": [0.152552, 0.719588999999999, 0.178198], "properties": {"magmom": -0.0}, "label": "N", "xyz": [1.0267474222, 8.306307214802988, 2.938911982408]}, {"species": [{"element": "N", "occu": 1}], "abc": [0.351145, 0.213952999999999, 0.134008], "properties": {"magmom": -0.0}, "label": "N", "xyz": [2.363372643875, 2.4696866510309885, 2.210113003168]}, {"species": [{"element": "N", "occu": 1}], "abc": [0.86189, 0.513900999999999, 0.25], "properties": {"magmom": -0.0}, "label": "N", "xyz": [5.80092909775, 5.932024508426989, 4.123099]}, {"species": [{"element": "N", "occu": 1}], "abc": [0.390548, 0.238063, 0.433390999999999], "properties": {"magmom": 0.0}, "label": "N", "xyz": [2.6285735503, 2.747991443001, 7.147655994835984]}, {"species": [{"element": "N", "occu": 1}], "abc": [0.847448, 0.280410999999999, 0.821801999999999], "properties": {"magmom": -0.0}, "label": "N", "xyz": [5.7037275778, 3.236819785196989, 13.553484017591984]}, {"species": [{"element": "N", "occu": 1}], "abc": [0.847448, 0.280410999999999, 0.678198], "properties": {"magmom": -0.0}, "label": "N", "xyz": [5.7037275778, 3.236819785196989, 11.185109982408]}, {"species": [{"element": "N", "occu": 1}], "abc": [0.13811, 0.486099, 0.75], "properties": {"magmom": -0.0}, "label": "N", "xyz": [0.9295459022500001, 5.611102491573, 12.369297]}, {"species": [{"element": "N", "occu": 1}], "abc": [0.30826000000000003, 0.996679, 0.553469], "properties": {"magmom": -0.0}, "label": "N", "xyz": [2.0747362235000004, 11.504792275233, 9.128029921724]}, {"species": [{"element": "N", "occu": 1}], "abc": [0.153537, 0.721461, 0.25], "properties": {"magmom": 0.0}, "label": "N", "xyz": [1.0333769400750001, 8.327915948547, 4.123099]}, {"species": [{"element": "N", "occu": 1}], "abc": [0.652552, 0.780411, 0.178198], "properties": {"magmom": -0.0}, "label": "N", "xyz": [4.391984922200001, 9.008383285197, 2.938911982408]}, {"species": [{"element": "N", "occu": 1}], "abc": [0.434328999999999, 0.263426999999999, 0.501302999999999], "properties": {"magmom": -0.0}, "label": "N", "xyz": [2.9232404762749935, 3.0407713162289887, 8.267687591987984]}, {"species": [{"element": "N", "occu": 1}], "abc": [0.846463, 0.278539, 0.75], "properties": {"magmom": 0.0}, "label": "N", "xyz": [5.697098059925, 3.2152110514529997, 12.369297]}, {"species": [{"element": "N", "occu": 1}], "abc": [0.434328999999999, 0.263426999999999, 0.998697], "properties": {"magmom": -0.0}, "label": "N", "xyz": [2.9232404762749935, 3.0407713162289887, 16.470906408012]}, {"species": [{"element": "N", "occu": 1}], "abc": [0.065671, 0.763427, 0.498697], "properties": {"magmom": -0.0}, "label": "N", "xyz": [0.441997023725, 8.812334816228999, 8.224708408011999]}, {"species": [{"element": "N", "occu": 1}], "abc": [0.565670999999999, 0.736572999999999, 0.498697], "properties": {"magmom": -0.0}, "label": "N", "xyz": [3.807234523724994, 8.50235568377099, 8.224708408011999]}, {"species": [{"element": "N", "occu": 1}], "abc": [0.507558, 0.494133999999999, 0.872027], "properties": {"magmom": -0.0}, "label": "N", "xyz": [3.4161064300499997, 5.703851517017989, 14.381814606692]}, {"species": [{"element": "N", "occu": 1}], "abc": [0.842025999999999, 0.9988459999999991, 0.40967000000000003], "properties": {"magmom": 0.0}, "label": "N", "xyz": [5.667234942349994, 11.52980623144199, 6.75643986932]}, {"species": [{"element": "N", "occu": 1}], "abc": [0.648855, 0.786046999999999, 0.634008], "properties": {"magmom": -0.0}, "label": "N", "xyz": [4.367102356125, 9.073440348968989, 10.456311003168]}, {"species": [{"element": "N", "occu": 1}], "abc": [0.483813999999999, 0.960977, 0.75], "properties": {"magmom": -0.0}, "label": "N", "xyz": [3.2562980316499934, 11.092679555079, 12.369297]}, {"species": [{"element": "N", "occu": 1}], "abc": [0.648855, 0.786046999999999, 0.865992], "properties": {"magmom": -0.0}, "label": "N", "xyz": [4.367102356125, 9.073440348968989, 14.282282996831999]}, {"species": [{"element": "N", "occu": 1}], "abc": [0.992441999999999, 0.994134, 0.372027], "properties": {"magmom": -0.0}, "label": "N", "xyz": [6.679606069949994, 11.475415017018, 6.1356166066919995]}, {"species": [{"element": "N", "occu": 1}], "abc": [0.653536999999999, 0.778539, 0.25], "properties": {"magmom": 0.0}, "label": "N", "xyz": [4.398614440074994, 8.986774551453, 4.123099]}, {"species": [{"element": "N", "occu": 1}], "abc": [0.934329, 0.236572999999999, 0.501302999999999], "properties": {"magmom": -0.0}, "label": "N", "xyz": [6.288477976275, 2.7307921837709888, 8.267687591987984]}]}, "task_ids": null, "uncorrected_energy_per_atom": null, "energy_per_atom": -15.44663747416667, "formation_energy_per_atom": 0.418739402619045, "energy_above_hull": 0.418739402619047, "is_stable": false, "equilibrium_reaction_energy_per_atom": null, "decomposes_to": null, "xas": null, "grain_boundaries": null, "band_gap": 2.5064, "cbm": null, "vbm": null, "efermi": 2.80404153, "is_gap_direct": null, "is_metal": null, "es_source_calc_id": null, "bandstructure": null, "dos": null, "dos_energy_up": null, "dos_energy_down": null, "is_magnetic": null, "ordering": null, "total_magnetization": 0.0008506, "total_magnetization_normalized_vol": null, "total_magnetization_normalized_formula_units": null, "num_magnetic_sites": null, "num_unique_magnetic_sites": null, "types_of_magnetic_species": null, "bulk_modulus": null, "shear_modulus": null, "universal_anisotropy": null, "homogeneous_poisson": null, "e_total": null, "e_ionic": null, "e_electronic": null, "n": null, "e_ij_max": null, "weighted_surface_energy_EV_PER_ANG2": null, "weighted_surface_energy": null, "weighted_work_function": null, "surface_anisotropy": null, "shape_factor": null, "has_reconstructed": null, "possible_species": null, "has_props": null, "theoretical": null, "database_IDs": null, "fields_not_requested": ["builder_meta", "nsites", "elements", "nelements", "composition", "composition_reduced", "chemsys", "symmetry", "property_name", "deprecated", "deprecation_reasons", "last_updated", "origins", "warnings", "task_ids", "uncorrected_energy_per_atom", "equilibrium_reaction_energy_per_atom", "decomposes_to", "xas", "grain_boundaries", "cbm", "vbm", "is_gap_direct", "is_metal", "es_source_calc_id", "bandstructure", "dos", "dos_energy_up", "dos_energy_down", "is_magnetic", "ordering", "total_magnetization_normalized_vol", "total_magnetization_normalized_formula_units", "num_magnetic_sites", "num_unique_magnetic_sites", "types_of_magnetic_species", "bulk_modulus", "shear_modulus", "universal_anisotropy", "homogeneous_poisson", "e_total", "e_ionic", "e_electronic", "n", "e_ij_max", "weighted_surface_energy_EV_PER_ANG2", "weighted_surface_energy", "weighted_work_function", "surface_anisotropy", "shape_factor", "has_reconstructed", "possible_species", "has_props", "theoretical", "database_IDs"]}