{
  "builder_meta": null,
  "nsites": null,
  "elements": null,
  "nelements": null,
  "composition": null,
  "composition_reduced": null,
  "formula_pretty": "PBr",
  "formula_anonymous": "AB",
  "chemsys": null,
  "volume": 159.90390209490207,
  "density": 2.302843808138023,
  "density_atomic": 39.975975523725516,
  "symmetry": null,
  "property_name": null,
  "material_id": "mp-1179985",
  "deprecated": null,
  "deprecation_reasons": null,
  "last_updated": null,
  "origins": null,
  "warnings": null,
  "structure": {
    "@module": "pymatgen.core.structure",
    "@class": "Structure",
    "charge": 0,
    "lattice": {
      "matrix": [
        [4.938563, 0.0, 0.0],
        [-2.06239, 5.194497, 0.0],
        [-0.696781, -0.653764999999999, 6.233256]
      ],
      "pbc": [true, true, true],
      "a": 4.938563,
      "b": 5.588940113752249,
      "c": 6.3060600059563345,
      "alpha": 93.18626173528679,
      "beta": 96.34378601726355,
      "gamma": 111.65474212654625,
      "volume": 159.90390209490207
    },
    "properties": {},
    "sites": [
      {
        "species": [{ "element": "P", "occu": 1 }],
        "abc": [0.35928000000000004, 0.500243, 0.368129],
        "properties": { "magmom": 0.0 },
        "label": "P",
        "xyz": [0.48612546112100014, 2.3578409070860005, 2.2946422980239998]
      },
      {
        "species": [{ "element": "P", "occu": 1 }],
        "abc": [0.6407200000000001, 0.49975699999999906, 0.631871],
        "properties": { "magmom": 0.0 },
        "label": "P",
        "xyz": [1.6932665388790025, 2.1828910929139957, 3.9386137019759997]
      },
      {
        "species": [{ "element": "Br", "occu": 1 }],
        "abc": [0.334202, 0.144987, 0.757243999999999],
        "properties": { "magmom": 0.0 },
        "label": "Br",
        "xyz": [0.8238246612320008, 0.2580749128790015, 4.720095706463994]
      },
      {
        "species": [{ "element": "Br", "occu": 1 }],
        "abc": [0.665798, 0.855012999999999, 0.242756],
        "properties": { "magmom": 0.0 },
        "label": "Br",
        "xyz": [1.3555673387680023, 4.282657087120995, 1.513160293536]
      }
    ]
  },
  "task_ids": null,
  "uncorrected_energy_per_atom": null,
  "energy_per_atom": -3.798160135,
  "formation_energy_per_atom": -0.271950104821427,
  "energy_above_hull": 0.25304988470238104,
  "is_stable": false,
  "equilibrium_reaction_energy_per_atom": null,
  "decomposes_to": null,
  "xas": null,
  "grain_boundaries": null,
  "band_gap": 1.3982,
  "cbm": null,
  "vbm": null,
  "efermi": -0.5706954,
  "is_gap_direct": null,
  "is_metal": null,
  "es_source_calc_id": null,
  "bandstructure": null,
  "dos": null,
  "dos_energy_up": null,
  "dos_energy_down": null,
  "is_magnetic": null,
  "ordering": null,
  "total_magnetization": 0.0005531,
  "total_magnetization_normalized_vol": null,
  "total_magnetization_normalized_formula_units": null,
  "num_magnetic_sites": null,
  "num_unique_magnetic_sites": null,
  "types_of_magnetic_species": null,
  "bulk_modulus": null,
  "shear_modulus": null,
  "universal_anisotropy": null,
  "homogeneous_poisson": null,
  "e_total": null,
  "e_ionic": null,
  "e_electronic": null,
  "n": null,
  "e_ij_max": null,
  "weighted_surface_energy_EV_PER_ANG2": null,
  "weighted_surface_energy": null,
  "weighted_work_function": null,
  "surface_anisotropy": null,
  "shape_factor": null,
  "has_reconstructed": null,
  "possible_species": null,
  "has_props": null,
  "theoretical": null,
  "database_IDs": null,
  "fields_not_requested": [
    "builder_meta",
    "nsites",
    "elements",
    "nelements",
    "composition",
    "composition_reduced",
    "chemsys",
    "symmetry",
    "property_name",
    "deprecated",
    "deprecation_reasons",
    "last_updated",
    "origins",
    "warnings",
    "task_ids",
    "uncorrected_energy_per_atom",
    "equilibrium_reaction_energy_per_atom",
    "decomposes_to",
    "xas",
    "grain_boundaries",
    "cbm",
    "vbm",
    "is_gap_direct",
    "is_metal",
    "es_source_calc_id",
    "bandstructure",
    "dos",
    "dos_energy_up",
    "dos_energy_down",
    "is_magnetic",
    "ordering",
    "total_magnetization_normalized_vol",
    "total_magnetization_normalized_formula_units",
    "num_magnetic_sites",
    "num_unique_magnetic_sites",
    "types_of_magnetic_species",
    "bulk_modulus",
    "shear_modulus",
    "universal_anisotropy",
    "homogeneous_poisson",
    "e_total",
    "e_ionic",
    "e_electronic",
    "n",
    "e_ij_max",
    "weighted_surface_energy_EV_PER_ANG2",
    "weighted_surface_energy",
    "weighted_work_function",
    "surface_anisotropy",
    "shape_factor",
    "has_reconstructed",
    "possible_species",
    "has_props",
    "theoretical",
    "database_IDs"
  ]
}
