{
  "builder_meta": null,
  "nsites": null,
  "elements": null,
  "nelements": null,
  "composition": null,
  "composition_reduced": null,
  "formula_pretty": "PBr5",
  "formula_anonymous": "AB5",
  "chemsys": null,
  "volume": 848.3977810485536,
  "density": 3.370361053255473,
  "density_atomic": 35.34990754368973,
  "symmetry": null,
  "property_name": null,
  "material_id": "mp-22874",
  "deprecated": null,
  "deprecation_reasons": null,
  "last_updated": null,
  "origins": null,
  "warnings": null,
  "structure": {
    "@module": "pymatgen.core.structure",
    "@class": "Structure",
    "charge": 0,
    "lattice": {
      "matrix": [
        [5.76484501, -0.0, 0.0],
        [-0.0, 8.45586079, 0.0],
        [0.0, 0.0, 17.40419994]
      ],
      "pbc": [true, true, true],
      "a": 5.76484501,
      "b": 8.45586079,
      "c": 17.40419994,
      "alpha": 90.0,
      "beta": 90.0,
      "gamma": 90.0,
      "volume": 848.3977810485536
    },
    "properties": {},
    "sites": [
      {
        "species": [{ "element": "P", "occu": 1 }],
        "abc": [0.02324049, 0.75, 0.36476877],
        "properties": { "magmom": -0.0 },
        "label": "P",
        "xyz": [0.1339778228064549, 6.341895592499999, 6.348508604947875]
      },
      {
        "species": [{ "element": "P", "occu": 1 }],
        "abc": [0.02324049, 0.25, 0.13523123],
        "properties": { "magmom": -0.0 },
        "label": "P",
        "xyz": [0.1339778228064549, 2.1139651975, 2.3535913650521265]
      },
      {
        "species": [{ "element": "P", "occu": 1 }],
        "abc": [0.97675951, 0.25, 0.63523123],
        "properties": { "magmom": -0.0 },
        "label": "P",
        "xyz": [5.630867187193545, 2.1139651975, 11.055691335052128]
      },
      {
        "species": [{ "element": "P", "occu": 1 }],
        "abc": [0.97675951, 0.75, 0.86476877],
        "properties": { "magmom": -0.0 },
        "label": "P",
        "xyz": [5.630867187193545, 6.341895592499999, 15.050608574947875]
      },
      {
        "species": [{ "element": "Br", "occu": 1 }],
        "abc": [0.17523487000000001, 0.75, 0.757684799999999],
        "properties": { "magmom": -0.0 },
        "label": "Br",
        "xyz": [1.0102018658974987, 6.341895592499999, 13.186897750698897]
      },
      {
        "species": [{ "element": "Br", "occu": 1 }],
        "abc": [0.17523487000000001, 0.25, 0.7423152],
        "properties": { "magmom": -0.0 },
        "label": "Br",
        "xyz": [1.0102018658974987, 2.1139651975, 12.919402159301088]
      },
      {
        "species": [{ "element": "Br", "occu": 1 }],
        "abc": [0.8247651300000001, 0.25, 0.242316199999999],
        "properties": { "magmom": -0.0 },
        "label": "Br",
        "xyz": [4.754643144102502, 2.1139651975, 4.217319593501011]
      },
      {
        "species": [{ "element": "Br", "occu": 1 }],
        "abc": [0.8247651300000001, 0.75, 0.257683799999999],
        "properties": { "magmom": -0.0 },
        "label": "Br",
        "xyz": [4.754643144102502, 6.341895592499999, 4.484780376498955]
      },
      {
        "species": [{ "element": "Br", "occu": 1 }],
        "abc": [0.75793926, 0.9602948, 0.87086297],
        "properties": { "magmom": 0.0 },
        "label": "Br",
        "xyz": [4.369402360894092, 8.12011914616089, 15.156673250222223]
      },
      {
        "species": [{ "element": "Br", "occu": 1 }],
        "abc": [0.75793926, 0.039705199999999004, 0.62913703],
        "properties": { "magmom": 0.0 },
        "label": "Br",
        "xyz": [4.369402360894092, 0.33574164383909955, 10.94962665977778]
      },
      {
        "species": [{ "element": "Br", "occu": 1 }],
        "abc": [0.24206074, 0.4602948, 0.12913703],
        "properties": { "magmom": 0.0 },
        "label": "Br",
        "xyz": [1.3954426491059073, 3.8921887511608917, 2.2475266897777786]
      },
      {
        "species": [{ "element": "Br", "occu": 1 }],
        "abc": [0.24206074, 0.5397052, 0.37086297],
        "properties": { "magmom": 0.0 },
        "label": "Br",
        "xyz": [1.3954426491059073, 4.563672038839107, 6.454573280222222]
      },
      {
        "species": [{ "element": "Br", "occu": 1 }],
        "abc": [0.24206074, 0.039705199999999004, 0.12913703],
        "properties": { "magmom": 0.0 },
        "label": "Br",
        "xyz": [1.3954426491059073, 0.33574164383909955, 2.2475266897777786]
      },
      {
        "species": [{ "element": "Br", "occu": 1 }],
        "abc": [0.24206074, 0.9602948, 0.37086297],
        "properties": { "magmom": 0.0 },
        "label": "Br",
        "xyz": [1.3954426491059073, 8.12011914616089, 6.454573280222222]
      },
      {
        "species": [{ "element": "Br", "occu": 1 }],
        "abc": [0.75793926, 0.5397052, 0.87086297],
        "properties": { "magmom": 0.0 },
        "label": "Br",
        "xyz": [4.369402360894092, 4.563672038839107, 15.156673250222223]
      },
      {
        "species": [{ "element": "Br", "occu": 1 }],
        "abc": [0.75793926, 0.4602948, 0.62913703],
        "properties": { "magmom": 0.0 },
        "label": "Br",
        "xyz": [4.369402360894092, 3.8921887511608917, 10.94962665977778]
      },
      {
        "species": [{ "element": "Br", "occu": 1 }],
        "abc": [0.43850756, 0.75, 0.60308571],
        "properties": { "magmom": -0.0 },
        "label": "Br",
        "xyz": [2.527928119113276, 6.341895592499999, 10.496224277796859]
      },
      {
        "species": [{ "element": "Br", "occu": 1 }],
        "abc": [0.43850756, 0.25, 0.89691429],
        "properties": { "magmom": -0.0 },
        "label": "Br",
        "xyz": [2.527928119113276, 2.1139651975, 15.610075632203143]
      },
      {
        "species": [{ "element": "Br", "occu": 1 }],
        "abc": [0.56149244, 0.25, 0.39691429],
        "properties": { "magmom": -0.0 },
        "label": "Br",
        "xyz": [3.2369168908867243, 2.1139651975, 6.907975662203143]
      },
      {
        "species": [{ "element": "Br", "occu": 1 }],
        "abc": [0.56149244, 0.75, 0.10308571],
        "properties": { "magmom": -0.0 },
        "label": "Br",
        "xyz": [3.2369168908867243, 6.341895592499999, 1.7941243077968576]
      },
      {
        "species": [{ "element": "Br", "occu": 1 }],
        "abc": [0.78555179, 0.75, 0.46150229000000004],
        "properties": { "magmom": 0.0 },
        "label": "Br",
        "xyz": [4.528584316678068, 6.341895592499999, 8.032078127927864]
      },
      {
        "species": [{ "element": "Br", "occu": 1 }],
        "abc": [0.78555179, 0.25, 0.03849771],
        "properties": { "magmom": 0.0 },
        "label": "Br",
        "xyz": [4.528584316678068, 2.1139651975, 0.6700218420721374]
      },
      {
        "species": [{ "element": "Br", "occu": 1 }],
        "abc": [0.21444821, 0.25, 0.53849771],
        "properties": { "magmom": 0.0 },
        "label": "Br",
        "xyz": [1.2362606933219322, 2.1139651975, 9.37212181207214]
      },
      {
        "species": [{ "element": "Br", "occu": 1 }],
        "abc": [0.21444821, 0.75, 0.96150229],
        "properties": { "magmom": 0.0 },
        "label": "Br",
        "xyz": [1.2362606933219322, 6.341895592499999, 16.734178097927863]
      }
    ]
  },
  "task_ids": null,
  "uncorrected_energy_per_atom": null,
  "energy_per_atom": -3.048089240833333,
  "formation_energy_per_atom": -0.7813882074404751,
  "energy_above_hull": 0.0,
  "is_stable": true,
  "equilibrium_reaction_energy_per_atom": null,
  "decomposes_to": null,
  "xas": null,
  "grain_boundaries": null,
  "band_gap": 1.6183,
  "cbm": null,
  "vbm": null,
  "efermi": -0.9011425,
  "is_gap_direct": null,
  "is_metal": null,
  "es_source_calc_id": null,
  "bandstructure": null,
  "dos": null,
  "dos_energy_up": null,
  "dos_energy_down": null,
  "is_magnetic": null,
  "ordering": null,
  "total_magnetization": 0.0,
  "total_magnetization_normalized_vol": null,
  "total_magnetization_normalized_formula_units": null,
  "num_magnetic_sites": null,
  "num_unique_magnetic_sites": null,
  "types_of_magnetic_species": null,
  "bulk_modulus": null,
  "shear_modulus": null,
  "universal_anisotropy": null,
  "homogeneous_poisson": null,
  "e_total": null,
  "e_ionic": null,
  "e_electronic": null,
  "n": null,
  "e_ij_max": null,
  "weighted_surface_energy_EV_PER_ANG2": null,
  "weighted_surface_energy": null,
  "weighted_work_function": null,
  "surface_anisotropy": null,
  "shape_factor": null,
  "has_reconstructed": null,
  "possible_species": null,
  "has_props": null,
  "theoretical": null,
  "database_IDs": null,
  "fields_not_requested": [
    "builder_meta",
    "nsites",
    "elements",
    "nelements",
    "composition",
    "composition_reduced",
    "chemsys",
    "symmetry",
    "property_name",
    "deprecated",
    "deprecation_reasons",
    "last_updated",
    "origins",
    "warnings",
    "task_ids",
    "uncorrected_energy_per_atom",
    "equilibrium_reaction_energy_per_atom",
    "decomposes_to",
    "xas",
    "grain_boundaries",
    "cbm",
    "vbm",
    "is_gap_direct",
    "is_metal",
    "es_source_calc_id",
    "bandstructure",
    "dos",
    "dos_energy_up",
    "dos_energy_down",
    "is_magnetic",
    "ordering",
    "total_magnetization_normalized_vol",
    "total_magnetization_normalized_formula_units",
    "num_magnetic_sites",
    "num_unique_magnetic_sites",
    "types_of_magnetic_species",
    "bulk_modulus",
    "shear_modulus",
    "universal_anisotropy",
    "homogeneous_poisson",
    "e_total",
    "e_ionic",
    "e_electronic",
    "n",
    "e_ij_max",
    "weighted_surface_energy_EV_PER_ANG2",
    "weighted_surface_energy",
    "weighted_work_function",
    "surface_anisotropy",
    "shape_factor",
    "has_reconstructed",
    "possible_species",
    "has_props",
    "theoretical",
    "database_IDs"
  ]
}
