{"builder_meta": null, "nsites": null, "elements": null, "nelements": null, "composition": null, "composition_reduced": null, "formula_pretty": "PBr7", "formula_anonymous": "AB7", "chemsys": null, "volume": 1116.6876060858342, "density": 3.5111668887223972, "density_atomic": 34.89648769018232, "symmetry": null, "property_name": null, "material_id": "mp-647343", "deprecated": null, "deprecation_reasons": null, "last_updated": null, "origins": null, "warnings": null, "structure": {"@module": "pymatgen.core.structure", "@class": "Structure", "charge": 0, "lattice": {"matrix": [[8.1133892, 0.0, 0.0], [0.0, 9.38915746, 0.0], [0.0, 0.0, 14.65894664]], "pbc": [true, true, true], "a": 8.1133892, "b": 9.38915746, "c": 14.65894664, "alpha": 90.0, "beta": 90.0, "gamma": 90.0, "volume": 1116.6876060858342}, "properties": {}, "sites": [{"species": [{"element": "P", "occu": 1}], "abc": [0.75, 0.38456015, 0.64659845], "properties": {"magmom": 0.0}, "label": "P", "xyz": [6.0850419, 3.610695801191219, 9.478452176056708]}, {"species": [{"element": "P", "occu": 1}], "abc": [0.75, 0.88456015, 0.8534015500000001], "properties": {"magmom": 0.0}, "label": "P", "xyz": [6.0850419, 8.305274531191218, 12.509967783943292]}, {"species": [{"element": "P", "occu": 1}], "abc": [0.25, 0.11543985, 0.14659845], "properties": {"magmom": 0.0}, "label": "P", "xyz": [2.0283473, 1.083882928808781, 2.148978856056708]}, {"species": [{"element": "P", "occu": 1}], "abc": [0.25, 0.61543985, 0.35340155], "properties": {"magmom": 0.0}, "label": "P", "xyz": [2.0283473, 5.778461658808781, 5.180494463943292]}, {"species": [{"element": "Br", "occu": 1}], "abc": [0.25, 0.83760146, 0.62431322], "properties": {"magmom": 0.0}, "label": "Br", "xyz": [2.0283473, 7.864371996665891, 9.151774178626582]}, {"species": [{"element": "Br", "occu": 1}], "abc": [0.75, 0.38757169, 0.29692639], "properties": {"magmom": 0.0}, "label": "Br", "xyz": [6.0850419, 3.6389716244483075, 4.352628107017829]}, {"species": [{"element": "Br", "occu": 1}], "abc": [0.75, 0.42213329, 0.79228993], "properties": {"magmom": 0.0}, "label": "Br", "xyz": [6.0850419, 3.9634759289178434, 11.614135807279336]}, {"species": [{"element": "Br", "occu": 1}], "abc": [0.96614172, 0.26478843, 0.6070627200000001], "properties": {"magmom": -0.0}, "label": "Br", "xyz": [7.838683796717424, 2.4861402628561877, 8.898900019613261]}, {"species": [{"element": "Br", "occu": 1}], "abc": [0.25, 0.11242831, 0.79692639], "properties": {"magmom": 0.0}, "label": "Br", "xyz": [2.0283473, 1.0556071055516927, 11.682101427017828]}, {"species": [{"element": "Br", "occu": 1}], "abc": [0.03385828, 0.23521157, 0.10706272], "properties": {"magmom": -0.0}, "label": "Br", "xyz": [0.274705403282576, 2.208438467143812, 1.5694266996132609]}, {"species": [{"element": "Br", "occu": 1}], "abc": [0.25, 0.07786671, 0.29228993000000003], "properties": {"magmom": 0.0}, "label": "Br", "xyz": [2.0283473, 0.7311028010821566, 4.284662487279336]}, {"species": [{"element": "Br", "occu": 1}], "abc": [0.25, 0.59027589, 0.9810884400000001], "properties": {"magmom": -0.0}, "label": "Br", "xyz": [2.0283473, 5.5421932760516395, 14.381723091080842]}, {"species": [{"element": "Br", "occu": 1}], "abc": [0.75, 0.0870596, 0.9237116200000001], "properties": {"magmom": -0.0}, "label": "Br", "xyz": [6.0850419, 0.817416292804616, 13.540639348327957]}, {"species": [{"element": "Br", "occu": 1}], "abc": [0.03385828, 0.73521157, 0.39293728], "properties": {"magmom": -0.0}, "label": "Br", "xyz": [0.274705403282576, 6.903017197143813, 5.760046620386739]}, {"species": [{"element": "Br", "occu": 1}], "abc": [0.25, 0.4129404, 0.42371162], "properties": {"magmom": -0.0}, "label": "Br", "xyz": [2.0283473, 3.8771624371953837, 6.211166028327957]}, {"species": [{"element": "Br", "occu": 1}], "abc": [0.75, 0.92213329, 0.70771007], "properties": {"magmom": 0.0}, "label": "Br", "xyz": [6.0850419, 8.658054658917843, 10.374284152720664]}, {"species": [{"element": "Br", "occu": 1}], "abc": [0.96614172, 0.76478843, 0.89293728], "properties": {"magmom": -0.0}, "label": "Br", "xyz": [7.838683796717424, 7.180718992856187, 13.08951994038674]}, {"species": [{"element": "Br", "occu": 1}], "abc": [0.75, 0.66239854, 0.12431322], "properties": {"magmom": 0.0}, "label": "Br", "xyz": [6.0850419, 6.219364193334108, 1.8223008586265808]}, {"species": [{"element": "Br", "occu": 1}], "abc": [0.25, 0.33760146, 0.87568678], "properties": {"magmom": 0.0}, "label": "Br", "xyz": [2.0283473, 3.169793266665892, 12.836645781373418]}, {"species": [{"element": "Br", "occu": 1}], "abc": [0.53385828, 0.76478843, 0.89293728], "properties": {"magmom": -0.0}, "label": "Br", "xyz": [4.331400003282576, 7.180718992856187, 13.08951994038674]}, {"species": [{"element": "Br", "occu": 1}], "abc": [0.75, 0.40972411000000003, 0.01891156], "properties": {"magmom": -0.0}, "label": "Br", "xyz": [6.0850419, 3.846964183948361, 0.2772235489191584]}, {"species": [{"element": "Br", "occu": 1}], "abc": [0.53385828, 0.26478843, 0.6070627200000001], "properties": {"magmom": -0.0}, "label": "Br", "xyz": [4.331400003282576, 2.4861402628561877, 8.898900019613261]}, {"species": [{"element": "Br", "occu": 1}], "abc": [0.25, 0.61242831, 0.70307361], "properties": {"magmom": 0.0}, "label": "Br", "xyz": [2.0283473, 5.750185835551692, 10.306318532982171]}, {"species": [{"element": "Br", "occu": 1}], "abc": [0.75, 0.5870596, 0.57628838], "properties": {"magmom": -0.0}, "label": "Br", "xyz": [6.0850419, 5.511995022804616, 8.447780611672044]}, {"species": [{"element": "Br", "occu": 1}], "abc": [0.75, 0.16239854, 0.37568678], "properties": {"magmom": 0.0}, "label": "Br", "xyz": [6.0850419, 1.5247854633341085, 5.507172461373419]}, {"species": [{"element": "Br", "occu": 1}], "abc": [0.75, 0.88757169, 0.20307361000000002], "properties": {"magmom": 0.0}, "label": "Br", "xyz": [6.0850419, 8.333550354448308, 2.9768452129821705]}, {"species": [{"element": "Br", "occu": 1}], "abc": [0.25, 0.09027589, 0.51891156], "properties": {"magmom": -0.0}, "label": "Br", "xyz": [2.0283473, 0.8476145460516393, 7.606696868919159]}, {"species": [{"element": "Br", "occu": 1}], "abc": [0.46614172000000004, 0.23521157, 0.10706272], "properties": {"magmom": -0.0}, "label": "Br", "xyz": [3.7819891967174244, 2.208438467143812, 1.5694266996132609]}, {"species": [{"element": "Br", "occu": 1}], "abc": [0.75, 0.90972411, 0.48108844], "properties": {"magmom": -0.0}, "label": "Br", "xyz": [6.0850419, 8.54154291394836, 7.052249771080842]}, {"species": [{"element": "Br", "occu": 1}], "abc": [0.25, 0.9129404, 0.07628838], "properties": {"magmom": -0.0}, "label": "Br", "xyz": [2.0283473, 8.571741167195384, 1.1183072916720433]}, {"species": [{"element": "Br", "occu": 1}], "abc": [0.25, 0.57786671, 0.20771007], "properties": {"magmom": 0.0}, "label": "Br", "xyz": [2.0283473, 5.425681531082157, 3.044810832720665]}, {"species": [{"element": "Br", "occu": 1}], "abc": [0.46614172000000004, 0.73521157, 0.39293728], "properties": {"magmom": -0.0}, "label": "Br", "xyz": [3.7819891967174244, 6.903017197143813, 5.760046620386739]}]}, "task_ids": null, "uncorrected_energy_per_atom": null, "energy_per_atom": -2.829829503124999, "formation_energy_per_atom": -0.720567094330356, "energy_above_hull": 0.0, "is_stable": true, "equilibrium_reaction_energy_per_atom": null, "decomposes_to": null, "xas": null, "grain_boundaries": null, "band_gap": 1.2227000000000001, "cbm": null, "vbm": null, "efermi": -0.44943105, "is_gap_direct": null, "is_metal": null, "es_source_calc_id": null, "bandstructure": null, "dos": null, "dos_energy_up": null, "dos_energy_down": null, "is_magnetic": null, "ordering": null, "total_magnetization": 0.0, "total_magnetization_normalized_vol": null, "total_magnetization_normalized_formula_units": null, "num_magnetic_sites": null, "num_unique_magnetic_sites": null, "types_of_magnetic_species": null, "bulk_modulus": null, "shear_modulus": null, "universal_anisotropy": null, "homogeneous_poisson": null, "e_total": null, "e_ionic": null, "e_electronic": null, "n": null, "e_ij_max": null, "weighted_surface_energy_EV_PER_ANG2": null, "weighted_surface_energy": null, "weighted_work_function": null, "surface_anisotropy": null, "shape_factor": null, "has_reconstructed": null, "possible_species": null, "has_props": null, "theoretical": null, "database_IDs": null, "fields_not_requested": ["builder_meta", "nsites", "elements", "nelements", "composition", "composition_reduced", "chemsys", "symmetry", "property_name", "deprecated", "deprecation_reasons", "last_updated", "origins", "warnings", "task_ids", "uncorrected_energy_per_atom", "equilibrium_reaction_energy_per_atom", "decomposes_to", "xas", "grain_boundaries", "cbm", "vbm", "is_gap_direct", "is_metal", "es_source_calc_id", "bandstructure", "dos", "dos_energy_up", "dos_energy_down", "is_magnetic", "ordering", "total_magnetization_normalized_vol", "total_magnetization_normalized_formula_units", "num_magnetic_sites", "num_unique_magnetic_sites", "types_of_magnetic_species", "bulk_modulus", "shear_modulus", "universal_anisotropy", "homogeneous_poisson", "e_total", "e_ionic", "e_electronic", "n", "e_ij_max", "weighted_surface_energy_EV_PER_ANG2", "weighted_surface_energy", "weighted_work_function", "surface_anisotropy", "shape_factor", "has_reconstructed", "possible_species", "has_props", "theoretical", "database_IDs"]}