{"builder_meta": null, "nsites": null, "elements": null, "nelements": null, "composition": null, "composition_reduced": null, "formula_pretty": "PbS", "formula_anonymous": "AB", "chemsys": null, "volume": 213.4355962686329, "density": 7.445972212994699, "density_atomic": 26.679449533579113, "symmetry": null, "property_name": null, "material_id": "mp-21276", "deprecated": null, "deprecation_reasons": null, "last_updated": null, "origins": null, "warnings": null, "structure": {"@module": "pymatgen.core.structure", "@class": "Structure", "charge": 0, "lattice": {"matrix": [[4.23050716, 0.0, 0.0], [0.0, 5.9824948, 0.0], [0.0, 0.0, 8.43319393]], "pbc": [true, true, true], "a": 4.23050716, "b": 5.9824948, "c": 8.43319393, "alpha": 90.0, "beta": 90.0, "gamma": 90.0, "volume": 213.4355962686329}, "properties": {}, "sites": [{"species": [{"element": "Pb", "occu": 1}], "abc": [0.75, 0.75008876, 0.12376494], "properties": {"magmom": 0.0}, "label": "Pb", "xyz": [3.17288037, 4.487402106238448, 1.0437337407548142]}, {"species": [{"element": "Pb", "occu": 1}], "abc": [0.75, 0.74991124, 0.62376494], "properties": {"magmom": 0.0}, "label": "Pb", "xyz": [3.17288037, 4.486340093761552, 5.260330705754814]}, {"species": [{"element": "Pb", "occu": 1}], "abc": [0.25, 0.24991124, 0.8762350600000001], "properties": {"magmom": 0.0}, "label": "Pb", "xyz": [1.05762679, 1.4950926937615518, 7.389460189245186]}, {"species": [{"element": "Pb", "occu": 1}], "abc": [0.25, 0.25008876, 0.37623506], "properties": {"magmom": 0.0}, "label": "Pb", "xyz": [1.05762679, 1.496154706238448, 3.172863224245186]}, {"species": [{"element": "S", "occu": 1}], "abc": [0.25, 0.75094903, 0.87475634], "properties": {"magmom": -0.0}, "label": "S", "xyz": [1.05762679, 4.492548667040044, 7.3769898567170165]}, {"species": [{"element": "S", "occu": 1}], "abc": [0.25, 0.74905097, 0.37475634], "properties": {"magmom": -0.0}, "label": "S", "xyz": [1.05762679, 4.4811935329599555, 3.1603928917170165]}, {"species": [{"element": "S", "occu": 1}], "abc": [0.75, 0.24905097, 0.12524366], "properties": {"magmom": -0.0}, "label": "S", "xyz": [3.17288037, 1.489946132959956, 1.0562040732829838]}, {"species": [{"element": "S", "occu": 1}], "abc": [0.75, 0.25094903, 0.62524366], "properties": {"magmom": -0.0}, "label": "S", "xyz": [3.17288037, 1.501301267040044, 5.272801038282983]}]}, "task_ids": null, "uncorrected_energy_per_atom": null, "energy_per_atom": -4.709072695, "formation_energy_per_atom": -0.783569376249997, "energy_above_hull": 0.0, "is_stable": true, "equilibrium_reaction_energy_per_atom": null, "decomposes_to": null, "xas": null, "grain_boundaries": null, "band_gap": 0.46669999999999906, "cbm": null, "vbm": null, "efermi": 5.39026956, "is_gap_direct": null, "is_metal": null, "es_source_calc_id": null, "bandstructure": null, "dos": null, "dos_energy_up": null, "dos_energy_down": null, "is_magnetic": null, "ordering": null, "total_magnetization": 0.0, "total_magnetization_normalized_vol": null, "total_magnetization_normalized_formula_units": null, "num_magnetic_sites": null, "num_unique_magnetic_sites": null, "types_of_magnetic_species": null, "bulk_modulus": null, "shear_modulus": null, "universal_anisotropy": null, "homogeneous_poisson": null, "e_total": null, "e_ionic": null, "e_electronic": null, "n": null, "e_ij_max": null, "weighted_surface_energy_EV_PER_ANG2": null, "weighted_surface_energy": null, "weighted_work_function": null, "surface_anisotropy": null, "shape_factor": null, "has_reconstructed": null, "possible_species": null, "has_props": null, "theoretical": null, "database_IDs": null, "fields_not_requested": ["builder_meta", "nsites", "elements", "nelements", "composition", "composition_reduced", "chemsys", "symmetry", "property_name", "deprecated", "deprecation_reasons", "last_updated", "origins", "warnings", "task_ids", "uncorrected_energy_per_atom", "equilibrium_reaction_energy_per_atom", "decomposes_to", "xas", "grain_boundaries", "cbm", "vbm", "is_gap_direct", "is_metal", "es_source_calc_id", "bandstructure", "dos", "dos_energy_up", "dos_energy_down", "is_magnetic", "ordering", "total_magnetization_normalized_vol", "total_magnetization_normalized_formula_units", "num_magnetic_sites", "num_unique_magnetic_sites", "types_of_magnetic_species", "bulk_modulus", "shear_modulus", "universal_anisotropy", "homogeneous_poisson", "e_total", "e_ionic", "e_electronic", "n", "e_ij_max", "weighted_surface_energy_EV_PER_ANG2", "weighted_surface_energy", "weighted_work_function", "surface_anisotropy", "shape_factor", "has_reconstructed", "possible_species", "has_props", "theoretical", "database_IDs"]}