{"builder_meta": null, "nsites": null, "elements": null, "nelements": null, "composition": null, "composition_reduced": null, "formula_pretty": "PbS2", "formula_anonymous": "AB2", "chemsys": null, "volume": 142.83734106035055, "density": 6.308631364822357, "density_atomic": 23.806223510058427, "symmetry": null, "property_name": null, "material_id": "mp-1025039", "deprecated": null, "deprecation_reasons": null, "last_updated": null, "origins": null, "warnings": null, "structure": {"@module": "pymatgen.core.structure", "@class": "Structure", "charge": 0, "lattice": {"matrix": [[-3.07496717, -3.07496717, 3.77659835], [-3.07496717, 3.07496717, -3.77659835], [3.07496717, -3.07496717, -3.77659835]], "pbc": [true, true, true], "a": 5.759647670680763, "b": 5.759647670680763, "c": 5.759647670680763, "alpha": 98.05457125291113, "beta": 115.46387250178147, "gamma": 115.46387250178147, "volume": 142.83734106035058}, "properties": {}, "sites": [{"species": [{"element": "Pb", "occu": 1}], "abc": [0.0, 0.75, 0.75], "properties": {"magmom": -0.0}, "label": "Pb", "xyz": [0.0, 0.0, -5.664897525]}, {"species": [{"element": "Pb", "occu": 1}], "abc": [0.0, 0.25, 0.25], "properties": {"magmom": -0.0}, "label": "Pb", "xyz": [0.0, 0.0, -1.888299175]}, {"species": [{"element": "S", "occu": 1}], "abc": [0.26193605000000003, 0.88096703, 0.38096703], "properties": {"magmom": 0.0}, "label": "S", "xyz": [-2.342928339389478, 0.7320388306105212, -3.776590834569283]}, {"species": [{"element": "S", "occu": 1}], "abc": [0.73806395, 0.11903297, 0.61903297], "properties": {"magmom": 0.0}, "label": "S", "xyz": [-0.7320388306105217, -3.8070060006105213, -7.515430716420468e-06]}, {"species": [{"element": "S", "occu": 1}], "abc": [0.5, 0.61903297, 0.88096703], "properties": {"magmom": 0.0}, "label": "S", "xyz": [-0.7320449497951902, -2.3429222202048097, -3.7765983499999995]}, {"species": [{"element": "S", "occu": 1}], "abc": [0.5, 0.38096703, 0.11903297], "properties": {"magmom": 0.0}, "label": "S", "xyz": [-2.3429222202048097, -0.7320449497951897, 0.0]}]}, "task_ids": null, "uncorrected_energy_per_atom": null, "energy_per_atom": -4.617746995000002, "formation_energy_per_atom": -0.6212915933333331, "energy_above_hull": 0.0, "is_stable": true, "equilibrium_reaction_energy_per_atom": null, "decomposes_to": null, "xas": null, "grain_boundaries": null, "band_gap": 0.083, "cbm": null, "vbm": null, "efermi": 5.85994157, "is_gap_direct": null, "is_metal": null, "es_source_calc_id": null, "bandstructure": null, "dos": null, "dos_energy_up": null, "dos_energy_down": null, "is_magnetic": null, "ordering": null, "total_magnetization": 0.0, "total_magnetization_normalized_vol": null, "total_magnetization_normalized_formula_units": null, "num_magnetic_sites": null, "num_unique_magnetic_sites": null, "types_of_magnetic_species": null, "bulk_modulus": null, "shear_modulus": null, "universal_anisotropy": null, "homogeneous_poisson": null, "e_total": null, "e_ionic": null, "e_electronic": null, "n": null, "e_ij_max": null, "weighted_surface_energy_EV_PER_ANG2": null, "weighted_surface_energy": null, "weighted_work_function": null, "surface_anisotropy": null, "shape_factor": null, "has_reconstructed": null, "possible_species": null, "has_props": null, "theoretical": null, "database_IDs": null, "fields_not_requested": ["builder_meta", "nsites", "elements", "nelements", "composition", "composition_reduced", "chemsys", "symmetry", "property_name", "deprecated", "deprecation_reasons", "last_updated", "origins", "warnings", "task_ids", "uncorrected_energy_per_atom", "equilibrium_reaction_energy_per_atom", "decomposes_to", "xas", "grain_boundaries", "cbm", "vbm", "is_gap_direct", "is_metal", "es_source_calc_id", "bandstructure", "dos", "dos_energy_up", "dos_energy_down", "is_magnetic", "ordering", "total_magnetization_normalized_vol", "total_magnetization_normalized_formula_units", "num_magnetic_sites", "num_unique_magnetic_sites", "types_of_magnetic_species", "bulk_modulus", "shear_modulus", "universal_anisotropy", "homogeneous_poisson", "e_total", "e_ionic", "e_electronic", "n", "e_ij_max", "weighted_surface_energy_EV_PER_ANG2", "weighted_surface_energy", "weighted_work_function", "surface_anisotropy", "shape_factor", "has_reconstructed", "possible_species", "has_props", "theoretical", "database_IDs"]}