{
  "builder_meta": null,
  "nsites": null,
  "elements": null,
  "nelements": null,
  "composition": null,
  "composition_reduced": null,
  "formula_pretty": "PCl3",
  "formula_anonymous": "AB3",
  "chemsys": null,
  "volume": 484.5099147924765,
  "density": 1.8826976246523741,
  "density_atomic": 30.28186967452978,
  "symmetry": null,
  "property_name": null,
  "material_id": "mp-23230",
  "deprecated": null,
  "deprecation_reasons": null,
  "last_updated": null,
  "origins": null,
  "warnings": null,
  "structure": {
    "@module": "pymatgen.core.structure",
    "@class": "Structure",
    "charge": 0,
    "lattice": {
      "matrix": [
        [6.22185524, 0.0, 0.0],
        [0.0, 8.17878846, 0.0],
        [0.0, 0.0, 9.521246099999999]
      ],
      "pbc": [true, true, true],
      "a": 6.22185524,
      "b": 8.17878846,
      "c": 9.521246099999999,
      "alpha": 90.0,
      "beta": 90.0,
      "gamma": 90.0,
      "volume": 484.50991479247637
    },
    "properties": {},
    "sites": [
      {
        "species": [{ "element": "P", "occu": 1 }],
        "abc": [0.92623871, 0.9806585, 0.75],
        "properties": { "magmom": 0.0 },
        "label": "P",
        "xyz": [5.76292317130434, 8.02059842300091, 7.140934574999999]
      },
      {
        "species": [{ "element": "P", "occu": 1 }],
        "abc": [0.42623871, 0.5193415, 0.25],
        "properties": { "magmom": 0.0 },
        "label": "P",
        "xyz": [2.6519955513043407, 4.24758426699909, 2.3803115249999998]
      },
      {
        "species": [{ "element": "P", "occu": 1 }],
        "abc": [0.57376129, 0.4806585, 0.75],
        "properties": { "magmom": 0.0 },
        "label": "P",
        "xyz": [3.5698596886956593, 3.9312041930009096, 7.140934574999999]
      },
      {
        "species": [{ "element": "P", "occu": 1 }],
        "abc": [0.07376129000000001, 0.019341499999999002, 0.25],
        "properties": { "magmom": 0.0 },
        "label": "P",
        "xyz": [0.45893206869565967, 0.15819003699908182, 2.3803115249999998]
      },
      {
        "species": [{ "element": "Cl", "occu": 1 }],
        "abc": [0.74103728, 0.90308886, 0.91567275],
        "properties": { "magmom": 0.0 },
        "label": "Cl",
        "xyz": [4.610626683603347, 7.386172746522555, 8.718345599813775]
      },
      {
        "species": [{ "element": "Cl", "occu": 1 }],
        "abc": [0.24103728, 0.59691114, 0.08432725],
        "properties": { "magmom": 0.0 },
        "label": "Cl",
        "xyz": [1.4996990636033471, 4.882009943477445, 0.8029005001862249]
      },
      {
        "species": [{ "element": "Cl", "occu": 1 }],
        "abc": [0.75896272, 0.40308886, 0.58432725],
        "properties": { "magmom": 0.0 },
        "label": "Cl",
        "xyz": [4.722156176396653, 3.2967785165225556, 5.563523550186224]
      },
      {
        "species": [{ "element": "Cl", "occu": 1 }],
        "abc": [0.25896272, 0.09691114, 0.41567275000000004],
        "properties": { "magmom": 0.0 },
        "label": "Cl",
        "xyz": [1.6112285563966526, 0.7926157134774444, 3.957722549813775]
      },
      {
        "species": [{ "element": "Cl", "occu": 1 }],
        "abc": [0.83895313, 0.19567029, 0.25],
        "properties": { "magmom": -0.0 },
        "label": "Cl",
        "xyz": [5.2198449280049015, 1.6003459098168533, 2.3803115249999998]
      },
      {
        "species": [{ "element": "Cl", "occu": 1 }],
        "abc": [0.33895313, 0.30432971000000003, 0.75],
        "properties": { "magmom": -0.0 },
        "label": "Cl",
        "xyz": [2.108917308004901, 2.4890483201831466, 7.140934574999999]
      },
      {
        "species": [{ "element": "Cl", "occu": 1 }],
        "abc": [0.6610468700000001, 0.69567029, 0.25],
        "properties": { "magmom": -0.0 },
        "label": "Cl",
        "xyz": [4.112937931995099, 5.689740139816854, 2.3803115249999998]
      },
      {
        "species": [{ "element": "Cl", "occu": 1 }],
        "abc": [0.16104687, 0.80432971, 0.75],
        "properties": { "magmom": -0.0 },
        "label": "Cl",
        "xyz": [1.002010311995099, 6.578442550183146, 7.140934574999999]
      },
      {
        "species": [{ "element": "Cl", "occu": 1 }],
        "abc": [0.74103728, 0.90308886, 0.58432725],
        "properties": { "magmom": 0.0 },
        "label": "Cl",
        "xyz": [4.610626683603347, 7.386172746522555, 5.563523550186224]
      },
      {
        "species": [{ "element": "Cl", "occu": 1 }],
        "abc": [0.24103728, 0.59691114, 0.41567275000000004],
        "properties": { "magmom": 0.0 },
        "label": "Cl",
        "xyz": [1.4996990636033471, 4.882009943477445, 3.957722549813775]
      },
      {
        "species": [{ "element": "Cl", "occu": 1 }],
        "abc": [0.75896272, 0.40308886, 0.91567275],
        "properties": { "magmom": 0.0 },
        "label": "Cl",
        "xyz": [4.722156176396653, 3.2967785165225556, 8.718345599813775]
      },
      {
        "species": [{ "element": "Cl", "occu": 1 }],
        "abc": [0.25896272, 0.09691114, 0.08432725],
        "properties": { "magmom": 0.0 },
        "label": "Cl",
        "xyz": [1.6112285563966526, 0.7926157134774444, 0.8029005001862249]
      }
    ]
  },
  "task_ids": null,
  "uncorrected_energy_per_atom": null,
  "energy_per_atom": -7.59514276875,
  "formation_energy_per_atom": -0.7302945176190471,
  "energy_above_hull": 0.0,
  "is_stable": true,
  "equilibrium_reaction_energy_per_atom": null,
  "decomposes_to": null,
  "xas": null,
  "grain_boundaries": null,
  "band_gap": 4.051,
  "cbm": null,
  "vbm": null,
  "efermi": -1.61479298,
  "is_gap_direct": null,
  "is_metal": null,
  "es_source_calc_id": null,
  "bandstructure": null,
  "dos": null,
  "dos_energy_up": null,
  "dos_energy_down": null,
  "is_magnetic": null,
  "ordering": null,
  "total_magnetization": 0.0,
  "total_magnetization_normalized_vol": null,
  "total_magnetization_normalized_formula_units": null,
  "num_magnetic_sites": null,
  "num_unique_magnetic_sites": null,
  "types_of_magnetic_species": null,
  "bulk_modulus": null,
  "shear_modulus": null,
  "universal_anisotropy": null,
  "homogeneous_poisson": null,
  "e_total": null,
  "e_ionic": null,
  "e_electronic": null,
  "n": null,
  "e_ij_max": null,
  "weighted_surface_energy_EV_PER_ANG2": null,
  "weighted_surface_energy": null,
  "weighted_work_function": null,
  "surface_anisotropy": null,
  "shape_factor": null,
  "has_reconstructed": null,
  "possible_species": null,
  "has_props": null,
  "theoretical": null,
  "database_IDs": null,
  "fields_not_requested": [
    "builder_meta",
    "nsites",
    "elements",
    "nelements",
    "composition",
    "composition_reduced",
    "chemsys",
    "symmetry",
    "property_name",
    "deprecated",
    "deprecation_reasons",
    "last_updated",
    "origins",
    "warnings",
    "task_ids",
    "uncorrected_energy_per_atom",
    "equilibrium_reaction_energy_per_atom",
    "decomposes_to",
    "xas",
    "grain_boundaries",
    "cbm",
    "vbm",
    "is_gap_direct",
    "is_metal",
    "es_source_calc_id",
    "bandstructure",
    "dos",
    "dos_energy_up",
    "dos_energy_down",
    "is_magnetic",
    "ordering",
    "total_magnetization_normalized_vol",
    "total_magnetization_normalized_formula_units",
    "num_magnetic_sites",
    "num_unique_magnetic_sites",
    "types_of_magnetic_species",
    "bulk_modulus",
    "shear_modulus",
    "universal_anisotropy",
    "homogeneous_poisson",
    "e_total",
    "e_ionic",
    "e_electronic",
    "n",
    "e_ij_max",
    "weighted_surface_energy_EV_PER_ANG2",
    "weighted_surface_energy",
    "weighted_work_function",
    "surface_anisotropy",
    "shape_factor",
    "has_reconstructed",
    "possible_species",
    "has_props",
    "theoretical",
    "database_IDs"
  ]
}
