{"builder_meta": null, "nsites": null, "elements": null, "nelements": null, "composition": null, "composition_reduced": null, "formula_pretty": "PCl5", "formula_anonymous": "AB5", "chemsys": null, "volume": 472.63025157637736, "density": 2.194878120865734, "density_atomic": 26.257236198687632, "symmetry": null, "property_name": null, "material_id": "mp-569410", "deprecated": null, "deprecation_reasons": null, "last_updated": null, "origins": null, "warnings": null, "structure": {"@module": "pymatgen.core.structure", "@class": "Structure", "charge": 0, "lattice": {"matrix": [[8.34539622, 0.0005647100000000001, 0.00189145], [-4.17324232, 6.18191546, -4.11858203], [0.00177283, 0.16856625, 9.04849055]], "pbc": [true, true, true], "a": 8.345396453450894, "b": 8.520255169527783, "c": 9.050060715652938, "alpha": 118.02683672306729, "beta": 89.97572042813302, "gamma": 119.33157421208794, "volume": 472.63025157637736}, "properties": {}, "sites": [{"species": [{"element": "P", "occu": 1}], "abc": [0.2651091, 0.53058092, 0.78814235], "properties": {"magmom": 0.0}, "label": "P", "xyz": [-0.0004050260985821799, 3.413010302294572, 4.946759004064121]}, {"species": [{"element": "P", "occu": 1}], "abc": [0.7348909, 0.46941908, 0.21185765], "properties": {"magmom": 0.0}, "label": "P", "xyz": [4.174331756098582, 2.938036117705428, -0.014959034064119692]}, {"species": [{"element": "P", "occu": 1}], "abc": [0.5, 0.0, 0.5], "properties": {"magmom": -0.0}, "label": "P", "xyz": [4.173584525, 0.08456548, 4.525191]}, {"species": [{"element": "Cl", "occu": 1}], "abc": [0.337922599999999, 0.6761562600000001, 0.43784877], "properties": {"magmom": -0.0}, "label": "Cl", "xyz": [-0.0008896990374409776, 4.253938190567238, 1.1777045994678859]}, {"species": [{"element": "Cl", "occu": 1}], "abc": [0.64098796, 0.91738476, 0.30506448], "properties": {"magmom": 0.0}, "label": "Cl", "xyz": [1.5213704217565462, 5.722980578325081, -1.016738926034256]}, {"species": [{"element": "Cl", "occu": 1}], "abc": [0.14866926, 0.29734646, 0.54229453], "properties": {"magmom": -0.0}, "label": "Cl", "xyz": [0.0007664458716300756, 1.9296671883856986, 3.6825823436534053]}, {"species": [{"element": "Cl", "occu": 1}], "abc": [0.54441874, 0.70608068, 0.84056812], "properties": {"magmom": -0.0}, "label": "Cl", "xyz": [1.598234504162964, 4.506929926263927, 4.6988512308988595]}, {"species": [{"element": "Cl", "occu": 1}], "abc": [0.6620764, 0.32384374, 0.56215123], "properties": {"magmom": -0.0}, "label": "Cl", "xyz": [4.174808083641212, 2.0971082288680516, 3.754095368640664]}, {"species": [{"element": "Cl", "occu": 1}], "abc": [0.72347176, 0.08232906, 0.69472579], "properties": {"magmom": 0.0}, "label": "Cl", "xyz": [5.695311004545213, 0.6264671617574447, 5.948509169253946]}, {"species": [{"element": "Cl", "occu": 1}], "abc": [0.27652724, 0.91767094, 0.30527421], "properties": {"magmom": 0.0}, "label": "Cl", "xyz": [-1.521392619941434, 5.7245792576778465, -1.0167092011453946]}, {"species": [{"element": "Cl", "occu": 1}], "abc": [0.7966361, 0.5927591600000001, 0.06817619], "properties": {"magmom": 0.0}, "label": "Cl", "xyz": [4.174637150370806, 3.676329088320232, -1.8229288161925452]}, {"species": [{"element": "Cl", "occu": 1}], "abc": [0.45558126, 0.29391932, 0.15943188], "properties": {"magmom": -0.0}, "label": "Cl", "xyz": [2.575692225837035, 1.8441164937360717, 0.23294873910114133]}, {"species": [{"element": "Cl", "occu": 1}], "abc": [0.2033639, 0.40724084, 0.93182381], "properties": {"magmom": 0.0}, "label": "Cl", "xyz": [-0.0007104203708086683, 2.674717331679768, 6.754728786192546]}, {"species": [{"element": "Cl", "occu": 1}], "abc": [0.8513297400000001, 0.70265454, 0.45770547], "properties": {"magmom": -0.0}, "label": "Cl", "xyz": [4.17314776548983, 4.421385412965051, 1.249213505873116]}, {"species": [{"element": "Cl", "occu": 1}], "abc": [0.35901104, 0.08261424, 0.69493452], "properties": {"magmom": 0.0}, "label": "Cl", "xyz": [2.652552134316723, 0.6280594906284989, 5.9485339642342865]}, {"species": [{"element": "Cl", "occu": 1}], "abc": [0.16130167, 0.70604034, 0.84045445], "properties": {"magmom": -0.0}, "label": "Cl", "xyz": [-1.5988610965549077, 4.506445036828035, 4.697264185795079]}, {"species": [{"element": "Cl", "occu": 1}], "abc": [0.0, 0.0, -0.0], "properties": {"magmom": 0.0}, "label": "Cl", "xyz": [0.0, 0.0, 0.0]}, {"species": [{"element": "Cl", "occu": 1}], "abc": [0.83869833, 0.29395966, 0.15954555], "properties": {"magmom": -0.0}, "label": "Cl", "xyz": [5.772787826554908, 1.8446013831719652, 0.23453578420492138]}]}, "task_ids": null, "uncorrected_energy_per_atom": null, "energy_per_atom": -7.278189656666667, "formation_energy_per_atom": -0.650811190079366, "energy_above_hull": 0.0, "is_stable": true, "equilibrium_reaction_energy_per_atom": null, "decomposes_to": null, "xas": null, "grain_boundaries": null, "band_gap": 1.7516, "cbm": null, "vbm": null, "efermi": 0.53427451, "is_gap_direct": null, "is_metal": null, "es_source_calc_id": null, "bandstructure": null, "dos": null, "dos_energy_up": null, "dos_energy_down": null, "is_magnetic": null, "ordering": null, "total_magnetization": 0.0, "total_magnetization_normalized_vol": null, "total_magnetization_normalized_formula_units": null, "num_magnetic_sites": null, "num_unique_magnetic_sites": null, "types_of_magnetic_species": null, "bulk_modulus": null, "shear_modulus": null, "universal_anisotropy": null, "homogeneous_poisson": null, "e_total": null, "e_ionic": null, "e_electronic": null, "n": null, "e_ij_max": null, "weighted_surface_energy_EV_PER_ANG2": null, "weighted_surface_energy": null, "weighted_work_function": null, "surface_anisotropy": null, "shape_factor": null, "has_reconstructed": null, "possible_species": null, "has_props": null, "theoretical": null, "database_IDs": null, "fields_not_requested": ["builder_meta", "nsites", "elements", "nelements", "composition", "composition_reduced", "chemsys", "symmetry", "property_name", "deprecated", "deprecation_reasons", "last_updated", "origins", "warnings", "task_ids", "uncorrected_energy_per_atom", "equilibrium_reaction_energy_per_atom", "decomposes_to", "xas", "grain_boundaries", "cbm", "vbm", "is_gap_direct", "is_metal", "es_source_calc_id", "bandstructure", "dos", "dos_energy_up", "dos_energy_down", "is_magnetic", "ordering", "total_magnetization_normalized_vol", "total_magnetization_normalized_formula_units", "num_magnetic_sites", "num_unique_magnetic_sites", "types_of_magnetic_species", "bulk_modulus", "shear_modulus", "universal_anisotropy", "homogeneous_poisson", "e_total", "e_ionic", "e_electronic", "n", "e_ij_max", "weighted_surface_energy_EV_PER_ANG2", "weighted_surface_energy", "weighted_work_function", "surface_anisotropy", "shape_factor", "has_reconstructed", "possible_species", "has_props", "theoretical", "database_IDs"]}