{"builder_meta": null, "nsites": null, "elements": null, "nelements": null, "composition": null, "composition_reduced": null, "formula_pretty": "Pd2N", "formula_anonymous": "AB2", "chemsys": null, "volume": 112.37483819377786, "density": 6.704130809598748, "density_atomic": 18.729139698962978, "symmetry": null, "property_name": null, "material_id": "mp-1019238", "deprecated": null, "deprecation_reasons": null, "last_updated": null, "origins": null, "warnings": null, "structure": {"@module": "pymatgen.core.structure", "@class": "Structure", "charge": 0, "lattice": {"matrix": [[2.663547, 0.0, 0.0], [0.0, 2.663547, 0.0], [0.0, 0.0, 15.839751]], "pbc": [true, true, true], "a": 2.663547, "b": 2.663547, "c": 15.839751, "alpha": 90.0, "beta": 90.0, "gamma": 90.0, "volume": 112.37483819377786}, "properties": {}, "sites": [{"species": [{"element": "Pd", "occu": 1}], "abc": [0.0, 0.0, 0.581406], "properties": {"magmom": 0.017}, "label": "Pd", "xyz": [0.0, 0.0, 9.209326269905999]}, {"species": [{"element": "Pd", "occu": 1}], "abc": [0.0, 0.0, 0.418593999999999], "properties": {"magmom": 0.017}, "label": "Pd", "xyz": [0.0, 0.0, 6.630424730093984]}, {"species": [{"element": "Pd", "occu": 1}], "abc": [0.0, 0.0, 0.256083], "properties": {"magmom": 0.03}, "label": "Pd", "xyz": [0.0, 0.0, 4.056290955333]}, {"species": [{"element": "Pd", "occu": 1}], "abc": [0.0, 0.0, 0.743916999999999], "properties": {"magmom": 0.03}, "label": "Pd", "xyz": [0.0, 0.0, 11.783460044666985]}, {"species": [{"element": "N", "occu": 1}], "abc": [0.5, 0.5, 0.964926], "properties": {"magmom": -0.001}, "label": "N", "xyz": [1.3317735, 1.3317735, 15.284187573426]}, {"species": [{"element": "N", "occu": 1}], "abc": [0.5, 0.5, 0.035074], "properties": {"magmom": -0.001}, "label": "N", "xyz": [1.3317735, 1.3317735, 0.555563426574]}]}, "task_ids": null, "uncorrected_energy_per_atom": null, "energy_per_atom": -17.91209738041667, "formation_energy_per_atom": 0.43778858333333104, "energy_above_hull": 0.43778858333333304, "is_stable": false, "equilibrium_reaction_energy_per_atom": null, "decomposes_to": null, "xas": null, "grain_boundaries": null, "band_gap": 0.0, "cbm": null, "vbm": null, "efermi": 1.59995078, "is_gap_direct": null, "is_metal": null, "es_source_calc_id": null, "bandstructure": null, "dos": null, "dos_energy_up": null, "dos_energy_down": null, "is_magnetic": null, "ordering": null, "total_magnetization": 0.1032898, "total_magnetization_normalized_vol": null, "total_magnetization_normalized_formula_units": null, "num_magnetic_sites": null, "num_unique_magnetic_sites": null, "types_of_magnetic_species": null, "bulk_modulus": null, "shear_modulus": null, "universal_anisotropy": null, "homogeneous_poisson": null, "e_total": null, "e_ionic": null, "e_electronic": null, "n": null, "e_ij_max": null, "weighted_surface_energy_EV_PER_ANG2": null, "weighted_surface_energy": null, "weighted_work_function": null, "surface_anisotropy": null, "shape_factor": null, "has_reconstructed": null, "possible_species": null, "has_props": null, "theoretical": null, "database_IDs": null, "fields_not_requested": ["builder_meta", "nsites", "elements", "nelements", "composition", "composition_reduced", "chemsys", "symmetry", "property_name", "deprecated", "deprecation_reasons", "last_updated", "origins", "warnings", "task_ids", "uncorrected_energy_per_atom", "equilibrium_reaction_energy_per_atom", "decomposes_to", "xas", "grain_boundaries", "cbm", "vbm", "is_gap_direct", "is_metal", "es_source_calc_id", "bandstructure", "dos", "dos_energy_up", "dos_energy_down", "is_magnetic", "ordering", "total_magnetization_normalized_vol", "total_magnetization_normalized_formula_units", "num_magnetic_sites", "num_unique_magnetic_sites", "types_of_magnetic_species", "bulk_modulus", "shear_modulus", "universal_anisotropy", "homogeneous_poisson", "e_total", "e_ionic", "e_electronic", "n", "e_ij_max", "weighted_surface_energy_EV_PER_ANG2", "weighted_surface_energy", "weighted_work_function", "surface_anisotropy", "shape_factor", "has_reconstructed", "possible_species", "has_props", "theoretical", "database_IDs"]}