{"builder_meta": null, "nsites": null, "elements": null, "nelements": null, "composition": null, "composition_reduced": null, "formula_pretty": "Pd3N2", "formula_anonymous": "A2B3", "chemsys": null, "volume": 64.27546719908631, "density": 8.971713044183142, "density_atomic": 12.855093439817262, "symmetry": null, "property_name": null, "material_id": "mp-1080191", "deprecated": null, "deprecation_reasons": null, "last_updated": null, "origins": null, "warnings": null, "structure": {"@module": "pymatgen.core.structure", "@class": "Structure", "charge": 0, "lattice": {"matrix": [[2.953219, 0.0, 0.0], [0.0, 2.953219, 0.0], [0.0, 0.0, 7.36977]], "pbc": [true, true, true], "a": 2.953219, "b": 2.953219, "c": 7.36977, "alpha": 90.0, "beta": 90.0, "gamma": 90.0, "volume": 64.27546719908631}, "properties": {}, "sites": [{"species": [{"element": "Pd", "occu": 1}], "abc": [0.5, 0.5, 0.315996], "properties": {"magmom": -0.0}, "label": "Pd", "xyz": [1.4766095, 1.4766095, 2.3288178409199998]}, {"species": [{"element": "Pd", "occu": 1}], "abc": [0.5, 0.5, 0.684004], "properties": {"magmom": -0.0}, "label": "Pd", "xyz": [1.4766095, 1.4766095, 5.04095215908]}, {"species": [{"element": "Pd", "occu": 1}], "abc": [0.0, 0.0, 0.0], "properties": {"magmom": 0.0}, "label": "Pd", "xyz": [0.0, 0.0, 0.0]}, {"species": [{"element": "N", "occu": 1}], "abc": [0.0, 0.0, 0.726092], "properties": {"magmom": 0.0}, "label": "N", "xyz": [0.0, 0.0, 5.351131038839999]}, {"species": [{"element": "N", "occu": 1}], "abc": [0.0, 0.0, 0.273908], "properties": {"magmom": 0.0}, "label": "N", "xyz": [0.0, 0.0, 2.0186389611599997]}]}, "task_ids": null, "uncorrected_energy_per_atom": null, "energy_per_atom": -16.8935872605, "formation_energy_per_atom": 0.5341851740000031, "energy_above_hull": 0.5341851740000011, "is_stable": false, "equilibrium_reaction_energy_per_atom": null, "decomposes_to": null, "xas": null, "grain_boundaries": null, "band_gap": 0.0, "cbm": null, "vbm": null, "efermi": 4.19431513, "is_gap_direct": null, "is_metal": null, "es_source_calc_id": null, "bandstructure": null, "dos": null, "dos_energy_up": null, "dos_energy_down": null, "is_magnetic": null, "ordering": null, "total_magnetization": 0.001548, "total_magnetization_normalized_vol": null, "total_magnetization_normalized_formula_units": null, "num_magnetic_sites": null, "num_unique_magnetic_sites": null, "types_of_magnetic_species": null, "bulk_modulus": null, "shear_modulus": null, "universal_anisotropy": null, "homogeneous_poisson": null, "e_total": null, "e_ionic": null, "e_electronic": null, "n": null, "e_ij_max": null, "weighted_surface_energy_EV_PER_ANG2": null, "weighted_surface_energy": null, "weighted_work_function": null, "surface_anisotropy": null, "shape_factor": null, "has_reconstructed": null, "possible_species": null, "has_props": null, "theoretical": null, "database_IDs": null, "fields_not_requested": ["builder_meta", "nsites", "elements", "nelements", "composition", "composition_reduced", "chemsys", "symmetry", "property_name", "deprecated", "deprecation_reasons", "last_updated", "origins", "warnings", "task_ids", "uncorrected_energy_per_atom", "equilibrium_reaction_energy_per_atom", "decomposes_to", "xas", "grain_boundaries", "cbm", "vbm", "is_gap_direct", "is_metal", "es_source_calc_id", "bandstructure", "dos", "dos_energy_up", "dos_energy_down", "is_magnetic", "ordering", "total_magnetization_normalized_vol", "total_magnetization_normalized_formula_units", "num_magnetic_sites", "num_unique_magnetic_sites", "types_of_magnetic_species", "bulk_modulus", "shear_modulus", "universal_anisotropy", "homogeneous_poisson", "e_total", "e_ionic", "e_electronic", "n", "e_ij_max", "weighted_surface_energy_EV_PER_ANG2", "weighted_surface_energy", "weighted_work_function", "surface_anisotropy", "shape_factor", "has_reconstructed", "possible_species", "has_props", "theoretical", "database_IDs"]}