{"builder_meta": null, "nsites": null, "elements": null, "nelements": null, "composition": null, "composition_reduced": null, "formula_pretty": "Pd3N", "formula_anonymous": "AB3", "chemsys": null, "volume": 109.51022282111359, "density": 10.106862367559097, "density_atomic": 13.688777852639198, "symmetry": null, "property_name": null, "material_id": "mp-1079760", "deprecated": null, "deprecation_reasons": null, "last_updated": null, "origins": null, "warnings": null, "structure": {"@module": "pymatgen.core.structure", "@class": "Structure", "charge": 0, "lattice": {"matrix": [[2.568413999999999, -4.448624, 0.0], [2.568413999999999, 4.448624, 0.0], [0.0, 0.0, 4.792189]], "pbc": [true, true, true], "a": 5.136828395885149, "b": 5.136828395885149, "c": 4.792189, "alpha": 90.0, "beta": 90.0, "gamma": 120.00000509877854, "volume": 109.51022282111352}, "properties": {}, "sites": [{"species": [{"element": "Pd", "occu": 1}], "abc": [0.331387999999999, 0.331387999999999, 0.0], "properties": {"magmom": 0.0}, "label": "Pd", "xyz": [1.7022831572639943, 0.0, 0.0]}, {"species": [{"element": "Pd", "occu": 1}], "abc": [0.668612, 0.0, 0.0], "properties": {"magmom": 0.0}, "label": "Pd", "xyz": [1.7172724213679993, -2.974403389888, 0.0]}, {"species": [{"element": "Pd", "occu": 1}], "abc": [0.0, 0.668612, 0.0], "properties": {"magmom": 0.0}, "label": "Pd", "xyz": [1.7172724213679993, 2.974403389888, 0.0]}, {"species": [{"element": "Pd", "occu": 1}], "abc": [0.668612, 0.668612, 0.5], "properties": {"magmom": 0.0}, "label": "Pd", "xyz": [3.4345448427359986, 0.0, 2.3960945]}, {"species": [{"element": "Pd", "occu": 1}], "abc": [0.331387999999999, 0.0, 0.5], "properties": {"magmom": 0.0}, "label": "Pd", "xyz": [0.8511415786319971, -1.4742206101119955, 2.3960945]}, {"species": [{"element": "Pd", "occu": 1}], "abc": [0.0, 0.331387999999999, 0.5], "properties": {"magmom": 0.0}, "label": "Pd", "xyz": [0.8511415786319971, 1.4742206101119955, 2.3960945]}, {"species": [{"element": "N", "occu": 1}], "abc": [0.333333, 0.666667, 0.75], "properties": {"magmom": -0.0}, "label": "N", "xyz": [2.568413999999999, 1.4828776324159998, 3.5941417499999995]}, {"species": [{"element": "N", "occu": 1}], "abc": [0.666667, 0.333333, 0.25], "properties": {"magmom": -0.0}, "label": "N", "xyz": [2.568413999999999, -1.4828776324159998, 1.19804725]}]}, "task_ids": null, "uncorrected_energy_per_atom": null, "energy_per_atom": -19.2717425278125, "formation_energy_per_atom": 0.230785347500003, "energy_above_hull": 0.230785347500003, "is_stable": false, "equilibrium_reaction_energy_per_atom": null, "decomposes_to": null, "xas": null, "grain_boundaries": null, "band_gap": 0.0, "cbm": null, "vbm": null, "efermi": 4.65606629, "is_gap_direct": null, "is_metal": null, "es_source_calc_id": null, "bandstructure": null, "dos": null, "dos_energy_up": null, "dos_energy_down": null, "is_magnetic": null, "ordering": null, "total_magnetization": 0.0015312, "total_magnetization_normalized_vol": null, "total_magnetization_normalized_formula_units": null, "num_magnetic_sites": null, "num_unique_magnetic_sites": null, "types_of_magnetic_species": null, "bulk_modulus": null, "shear_modulus": null, "universal_anisotropy": null, "homogeneous_poisson": null, "e_total": null, "e_ionic": null, "e_electronic": null, "n": null, "e_ij_max": null, "weighted_surface_energy_EV_PER_ANG2": null, "weighted_surface_energy": null, "weighted_work_function": null, "surface_anisotropy": null, "shape_factor": null, "has_reconstructed": null, "possible_species": null, "has_props": null, "theoretical": null, "database_IDs": null, "fields_not_requested": ["builder_meta", "nsites", "elements", "nelements", "composition", "composition_reduced", "chemsys", "symmetry", "property_name", "deprecated", "deprecation_reasons", "last_updated", "origins", "warnings", "task_ids", "uncorrected_energy_per_atom", "equilibrium_reaction_energy_per_atom", "decomposes_to", "xas", "grain_boundaries", "cbm", "vbm", "is_gap_direct", "is_metal", "es_source_calc_id", "bandstructure", "dos", "dos_energy_up", "dos_energy_down", "is_magnetic", "ordering", "total_magnetization_normalized_vol", "total_magnetization_normalized_formula_units", "num_magnetic_sites", "num_unique_magnetic_sites", "types_of_magnetic_species", "bulk_modulus", "shear_modulus", "universal_anisotropy", "homogeneous_poisson", "e_total", "e_ionic", "e_electronic", "n", "e_ij_max", "weighted_surface_energy_EV_PER_ANG2", "weighted_surface_energy", "weighted_work_function", "surface_anisotropy", "shape_factor", "has_reconstructed", "possible_species", "has_props", "theoretical", "database_IDs"]}