{"builder_meta": null, "nsites": null, "elements": null, "nelements": null, "composition": null, "composition_reduced": null, "formula_pretty": "Pd3W", "formula_anonymous": "AB3", "chemsys": null, "volume": 59.35328669510545, "density": 14.075331812675376, "density_atomic": 14.838321673776363, "symmetry": null, "property_name": null, "material_id": "mp-1186437", "deprecated": null, "deprecation_reasons": null, "last_updated": null, "origins": null, "warnings": null, "structure": {"@module": "pymatgen.core.structure", "@class": "Structure", "charge": 0, "lattice": {"matrix": [[-1.9268312600000002, 1.9268312600000002, 3.99666194], [1.9268312600000002, -1.9268312600000002, 3.99666194], [1.9268312600000002, 1.9268312600000002, -3.99666194]], "pbc": [true, true, true], "a": 4.837216562411791, "b": 4.837216562411791, "c": 4.837216562411791, "alpha": 133.05177119169207, "beta": 133.05177119169207, "gamma": 68.57285600588281, "volume": 59.35328669510547}, "properties": {}, "sites": [{"species": [{"element": "Pd", "occu": 1}], "abc": [0.749999, 0.25, 0.499998999999999], "properties": {"magmom": 0.0}, "label": "Pd", "xyz": [-1.7763568394002505e-15, 1.9268274063374782, 1.9983309700000038]}, {"species": [{"element": "Pd", "occu": 1}], "abc": [0.25, 0.749999, 0.499998999999999], "properties": {"magmom": 0.0}, "label": "Pd", "xyz": [1.9268274063374782, -1.7763568394002505e-15, 1.9983309700000038]}, {"species": [{"element": "Pd", "occu": 1}], "abc": [0.499998999999999, 0.499998999999999, 0.0], "properties": {"magmom": 0.0}, "label": "Pd", "xyz": [0.0, 0.0, 3.9966539466761124]}, {"species": [{"element": "W", "occu": 1}], "abc": [0.0, 0.0, -0.0], "properties": {"magmom": 0.0}, "label": "W", "xyz": [0.0, 0.0, 0.0]}]}, "task_ids": null, "uncorrected_energy_per_atom": null, "energy_per_atom": -30.0509503275, "formation_energy_per_atom": 0.011338474999998, "energy_above_hull": 0.011338474999998, "is_stable": false, "equilibrium_reaction_energy_per_atom": null, "decomposes_to": null, "xas": null, "grain_boundaries": null, "band_gap": 0.0, "cbm": null, "vbm": null, "efermi": 6.24699659, "is_gap_direct": null, "is_metal": null, "es_source_calc_id": null, "bandstructure": null, "dos": null, "dos_energy_up": null, "dos_energy_down": null, "is_magnetic": null, "ordering": null, "total_magnetization": 3.59e-05, "total_magnetization_normalized_vol": null, "total_magnetization_normalized_formula_units": null, "num_magnetic_sites": null, "num_unique_magnetic_sites": null, "types_of_magnetic_species": null, "bulk_modulus": null, "shear_modulus": null, "universal_anisotropy": null, "homogeneous_poisson": null, "e_total": null, "e_ionic": null, "e_electronic": null, "n": null, "e_ij_max": null, "weighted_surface_energy_EV_PER_ANG2": null, "weighted_surface_energy": null, "weighted_work_function": null, "surface_anisotropy": null, "shape_factor": null, "has_reconstructed": null, "possible_species": null, "has_props": null, "theoretical": null, "database_IDs": null, "fields_not_requested": ["builder_meta", "nsites", "elements", "nelements", "composition", "composition_reduced", "chemsys", "symmetry", "property_name", "deprecated", "deprecation_reasons", "last_updated", "origins", "warnings", "task_ids", "uncorrected_energy_per_atom", "equilibrium_reaction_energy_per_atom", "decomposes_to", "xas", "grain_boundaries", "cbm", "vbm", "is_gap_direct", "is_metal", "es_source_calc_id", "bandstructure", "dos", "dos_energy_up", "dos_energy_down", "is_magnetic", "ordering", "total_magnetization_normalized_vol", "total_magnetization_normalized_formula_units", "num_magnetic_sites", "num_unique_magnetic_sites", "types_of_magnetic_species", "bulk_modulus", "shear_modulus", "universal_anisotropy", "homogeneous_poisson", "e_total", "e_ionic", "e_electronic", "n", "e_ij_max", "weighted_surface_energy_EV_PER_ANG2", "weighted_surface_energy", "weighted_work_function", "surface_anisotropy", "shape_factor", "has_reconstructed", "possible_species", "has_props", "theoretical", "database_IDs"]}