{"builder_meta": null, "nsites": null, "elements": null, "nelements": null, "composition": null, "composition_reduced": null, "formula_pretty": "Pd4Se", "formula_anonymous": "AB4", "chemsys": null, "volume": 158.63463387824663, "density": 10.564835863171924, "density_atomic": 15.863463387824662, "symmetry": null, "property_name": null, "material_id": "mp-7818", "deprecated": null, "deprecation_reasons": null, "last_updated": null, "origins": null, "warnings": null, "structure": {"@module": "pymatgen.core.structure", "@class": "Structure", "charge": 0, "lattice": {"matrix": [[5.28074265, 0.0, 0.0], [0.0, 5.28074265, 0.0], [0.0, 0.0, 5.68863415]], "pbc": [true, true, true], "a": 5.28074265, "b": 5.28074265, "c": 5.68863415, "alpha": 90.0, "beta": 90.0, "gamma": 90.0, "volume": 158.63463387824663}, "properties": {}, "sites": [{"species": [{"element": "Pd", "occu": 1}], "abc": [0.76834982, 0.3708275, 0.84445054], "properties": {"magmom": 0.0}, "label": "Pd", "xyz": [4.057457664593823, 1.9582445950428748, 4.803770179829941]}, {"species": [{"element": "Pd", "occu": 1}], "abc": [0.8708275, 0.26834982, 0.34445054], "properties": {"magmom": 0.0}, "label": "Pd", "xyz": [4.5986159200428744, 1.417086339593823, 1.9594531048299413]}, {"species": [{"element": "Pd", "occu": 1}], "abc": [0.1291725, 0.73165018, 0.34445054], "properties": {"magmom": 0.0}, "label": "Pd", "xyz": [0.682126729957125, 3.863656310406177, 1.9594531048299413]}, {"species": [{"element": "Pd", "occu": 1}], "abc": [0.6291725, 0.76834982, 0.15554946], "properties": {"magmom": 0.0}, "label": "Pd", "xyz": [3.322498054957125, 4.057457664593823, 0.884863970170059]}, {"species": [{"element": "Pd", "occu": 1}], "abc": [0.26834982, 0.1291725, 0.65554946], "properties": {"magmom": 0.0}, "label": "Pd", "xyz": [1.417086339593823, 0.682126729957125, 3.7291810451700593]}, {"species": [{"element": "Pd", "occu": 1}], "abc": [0.73165018, 0.8708275, 0.65554946], "properties": {"magmom": 0.0}, "label": "Pd", "xyz": [3.863656310406177, 4.5986159200428744, 3.7291810451700593]}, {"species": [{"element": "Pd", "occu": 1}], "abc": [0.23165018, 0.6291725, 0.84445054], "properties": {"magmom": 0.0}, "label": "Pd", "xyz": [1.223284985406177, 3.322498054957125, 4.803770179829941]}, {"species": [{"element": "Pd", "occu": 1}], "abc": [0.3708275, 0.23165018, 0.15554946], "properties": {"magmom": 0.0}, "label": "Pd", "xyz": [1.9582445950428748, 1.223284985406177, 0.884863970170059]}, {"species": [{"element": "Se", "occu": 1}], "abc": [0.5, 0.5, 0.5], "properties": {"magmom": -0.0}, "label": "Se", "xyz": [2.640371325, 2.640371325, 2.844317075]}, {"species": [{"element": "Se", "occu": 1}], "abc": [-0.0, -0.0, -0.0], "properties": {"magmom": -0.0}, "label": "Se", "xyz": [0.0, 0.0, 0.0]}]}, "task_ids": null, "uncorrected_energy_per_atom": null, "energy_per_atom": -21.398502299, "formation_energy_per_atom": -0.16782736481249802, "energy_above_hull": 0.0, "is_stable": true, "equilibrium_reaction_energy_per_atom": null, "decomposes_to": null, "xas": null, "grain_boundaries": null, "band_gap": 0.0, "cbm": null, "vbm": null, "efermi": 4.49321604, "is_gap_direct": null, "is_metal": null, "es_source_calc_id": null, "bandstructure": null, "dos": null, "dos_energy_up": null, "dos_energy_down": null, "is_magnetic": null, "ordering": null, "total_magnetization": 1e-07, "total_magnetization_normalized_vol": null, "total_magnetization_normalized_formula_units": null, "num_magnetic_sites": null, "num_unique_magnetic_sites": null, "types_of_magnetic_species": null, "bulk_modulus": null, "shear_modulus": null, "universal_anisotropy": null, "homogeneous_poisson": null, "e_total": null, "e_ionic": null, "e_electronic": null, "n": null, "e_ij_max": null, "weighted_surface_energy_EV_PER_ANG2": null, "weighted_surface_energy": null, "weighted_work_function": null, "surface_anisotropy": null, "shape_factor": null, "has_reconstructed": null, "possible_species": null, "has_props": null, "theoretical": null, "database_IDs": null, "fields_not_requested": ["builder_meta", "nsites", "elements", "nelements", "composition", "composition_reduced", "chemsys", "symmetry", "property_name", "deprecated", "deprecation_reasons", "last_updated", "origins", "warnings", "task_ids", "uncorrected_energy_per_atom", "equilibrium_reaction_energy_per_atom", "decomposes_to", "xas", "grain_boundaries", "cbm", "vbm", "is_gap_direct", "is_metal", "es_source_calc_id", "bandstructure", "dos", "dos_energy_up", "dos_energy_down", "is_magnetic", "ordering", "total_magnetization_normalized_vol", "total_magnetization_normalized_formula_units", "num_magnetic_sites", "num_unique_magnetic_sites", "types_of_magnetic_species", "bulk_modulus", "shear_modulus", "universal_anisotropy", "homogeneous_poisson", "e_total", "e_ionic", "e_electronic", "n", "e_ij_max", "weighted_surface_energy_EV_PER_ANG2", "weighted_surface_energy", "weighted_work_function", "surface_anisotropy", "shape_factor", "has_reconstructed", "possible_species", "has_props", "theoretical", "database_IDs"]}