{
  "builder_meta": null,
  "nsites": null,
  "elements": null,
  "nelements": null,
  "composition": null,
  "composition_reduced": null,
  "formula_pretty": "Pd4W",
  "formula_anonymous": "AB4",
  "chemsys": null,
  "volume": 75.45354841203091,
  "density": 13.413971816766798,
  "density_atomic": 15.090709682406182,
  "symmetry": null,
  "property_name": null,
  "material_id": "mp-1219940",
  "deprecated": null,
  "deprecation_reasons": null,
  "last_updated": null,
  "origins": null,
  "warnings": null,
  "structure": {
    "@module": "pymatgen.core.structure",
    "@class": "Structure",
    "charge": 0,
    "lattice": {
      "matrix": [
        [-1.96174935, -1.96174935, -0.0],
        [0.0, 1.96174935, -1.96174935],
        [7.84322026, -5.88147193, -5.88147193]
      ],
      "pbc": [true, true, true],
      "a": 2.774332536746604,
      "b": 2.774332536746604,
      "c": 11.432389434131007,
      "alpha": 90.0,
      "beta": 96.96923916604645,
      "gamma": 119.99999999999999,
      "volume": 75.4535484120309
    },
    "properties": {},
    "sites": [
      {
        "species": [{ "element": "Pd", "occu": 1 }],
        "abc": [0.79705299, 0.3985255, 0.19557949],
        "properties": { "magmom": 0.0 },
        "label": "Pd",
        "xyz": [-0.02964516663958916, -1.932106324983347, -1.9321024211021407]
      },
      {
        "species": [{ "element": "Pd", "occu": 1 }],
        "abc": [0.59908019, 0.799540599999999, 0.39862179000000003],
        "properties": { "magmom": -0.0 },
        "label": "Pd",
        "xyz": [1.951233326075089, -1.9512297895531234, -3.912981120919963]
      },
      {
        "species": [{ "element": "Pd", "occu": 1 }],
        "abc": [0.40091981, 0.200459399999999, 0.60137821],
        "properties": { "magmom": -0.0 },
        "label": "Pd",
        "xyz": [3.930237583924911, -3.930242140446881, -3.9302401590800335]
      },
      {
        "species": [{ "element": "Pd", "occu": 1 }],
        "abc": [0.20294701, 0.6014745, 0.80442051],
        "properties": { "magmom": 0.0 },
        "label": "Pd",
        "xyz": [5.911116076639589, -3.949365605016653, -5.91111885889786]
      },
      {
        "species": [{ "element": "W", "occu": 1 }],
        "abc": [-0.0, -0.0, 0.0],
        "properties": { "magmom": 0.0 },
        "label": "W",
        "xyz": [0.0, 0.0, 0.0]
      }
    ]
  },
  "task_ids": null,
  "uncorrected_energy_per_atom": null,
  "energy_per_atom": -28.634990956000003,
  "formation_energy_per_atom": 0.006930807999998001,
  "energy_above_hull": 0.006930807999999001,
  "is_stable": false,
  "equilibrium_reaction_energy_per_atom": null,
  "decomposes_to": null,
  "xas": null,
  "grain_boundaries": null,
  "band_gap": 0.0,
  "cbm": null,
  "vbm": null,
  "efermi": 4.71310111,
  "is_gap_direct": null,
  "is_metal": null,
  "es_source_calc_id": null,
  "bandstructure": null,
  "dos": null,
  "dos_energy_up": null,
  "dos_energy_down": null,
  "is_magnetic": null,
  "ordering": null,
  "total_magnetization": 0.0,
  "total_magnetization_normalized_vol": null,
  "total_magnetization_normalized_formula_units": null,
  "num_magnetic_sites": null,
  "num_unique_magnetic_sites": null,
  "types_of_magnetic_species": null,
  "bulk_modulus": null,
  "shear_modulus": null,
  "universal_anisotropy": null,
  "homogeneous_poisson": null,
  "e_total": null,
  "e_ionic": null,
  "e_electronic": null,
  "n": null,
  "e_ij_max": null,
  "weighted_surface_energy_EV_PER_ANG2": null,
  "weighted_surface_energy": null,
  "weighted_work_function": null,
  "surface_anisotropy": null,
  "shape_factor": null,
  "has_reconstructed": null,
  "possible_species": null,
  "has_props": null,
  "theoretical": null,
  "database_IDs": null,
  "fields_not_requested": [
    "builder_meta",
    "nsites",
    "elements",
    "nelements",
    "composition",
    "composition_reduced",
    "chemsys",
    "symmetry",
    "property_name",
    "deprecated",
    "deprecation_reasons",
    "last_updated",
    "origins",
    "warnings",
    "task_ids",
    "uncorrected_energy_per_atom",
    "equilibrium_reaction_energy_per_atom",
    "decomposes_to",
    "xas",
    "grain_boundaries",
    "cbm",
    "vbm",
    "is_gap_direct",
    "is_metal",
    "es_source_calc_id",
    "bandstructure",
    "dos",
    "dos_energy_up",
    "dos_energy_down",
    "is_magnetic",
    "ordering",
    "total_magnetization_normalized_vol",
    "total_magnetization_normalized_formula_units",
    "num_magnetic_sites",
    "num_unique_magnetic_sites",
    "types_of_magnetic_species",
    "bulk_modulus",
    "shear_modulus",
    "universal_anisotropy",
    "homogeneous_poisson",
    "e_total",
    "e_ionic",
    "e_electronic",
    "n",
    "e_ij_max",
    "weighted_surface_energy_EV_PER_ANG2",
    "weighted_surface_energy",
    "weighted_work_function",
    "surface_anisotropy",
    "shape_factor",
    "has_reconstructed",
    "possible_species",
    "has_props",
    "theoretical",
    "database_IDs"
  ]
}
