{"builder_meta": null, "nsites": null, "elements": null, "nelements": null, "composition": null, "composition_reduced": null, "formula_pretty": "Pd5Pb3", "formula_anonymous": "A3B5", "chemsys": null, "volume": 304.91973855721227, "density": 12.565693058778244, "density_atomic": 19.057483659825767, "symmetry": null, "property_name": null, "material_id": "mp-2019077", "deprecated": null, "deprecation_reasons": null, "last_updated": null, "origins": null, "warnings": null, "structure": {"@module": "pymatgen.core.structure", "@class": "Structure", "charge": 0, "lattice": {"matrix": [[3.8825187100000003, 6.21040401, -0.006228], [-3.8825187100000003, 6.21040401, -0.006228], [0.0, 3.83769509, 6.31913615]], "pbc": [true, true, true], "a": 7.324145567157179, "b": 7.324145567157179, "c": 7.393198582890015, "alpha": 63.93289762206573, "beta": 63.93289762206573, "gamma": 64.02422305239338, "volume": 304.91973855721227}, "properties": {}, "sites": [{"species": [{"element": "Pd", "occu": 1}], "abc": [0.37883835, 0.9637038800000001, 0.65768152], "properties": {"magmom": -0.0}, "label": "Pd", "xyz": [-2.270751363059067, 10.861710788874081, 4.147617715210508]}, {"species": [{"element": "Pd", "occu": 1}], "abc": [0.03629612, 0.62116165, 0.34231848], "properties": {"magmom": -0.0}, "label": "Pd", "xyz": [-2.270751363059066, 5.396792321125922, 2.159062434789492]}, {"species": [{"element": "Pd", "occu": 1}], "abc": [0.7950628200000001, 0.04741795, 0.40742899], "properties": {"magmom": 0.0}, "label": "Pd", "xyz": [2.9027451962105184, 6.795734186802547, 2.5693522890314284]}, {"species": [{"element": "Pd", "occu": 1}], "abc": [0.9525820500000001, 0.20493718, 0.59257101], "properties": {"magmom": 0.0}, "label": "Pd", "xyz": [2.902745196210518, 9.462768923197455, 3.737327860968572]}, {"species": [{"element": "Pd", "occu": 1}], "abc": [0.44770852, 0.71101423, 0.09151622], "properties": {"magmom": 0.0}, "label": "Pd", "xyz": [-1.0222893455248339, 7.547347761227588, 0.571086928826353]}, {"species": [{"element": "Pd", "occu": 1}], "abc": [0.28898577000000003, 0.5522914800000001, 0.9084837800000001], "properties": {"magmom": 0.0}, "label": "Pd", "xyz": [-1.0222893455248343, 8.711155348772413, 5.735593221173648]}, {"species": [{"element": "Pd", "occu": 1}], "abc": [0.62243087, 0.878605899999999, 0.24895941], "properties": {"magmom": -0.0}, "label": "Pd", "xyz": [-0.9946043470098074, 10.27747508093174, 1.5638599506101114]}, {"species": [{"element": "Pd", "occu": 1}], "abc": [0.121394099999999, 0.37756913000000003, 0.75104059], "properties": {"magmom": -0.0}, "label": "Pd", "xyz": [-0.9946043470098154, 5.981028029068249, 4.742820199389889]}, {"species": [{"element": "Pd", "occu": 1}], "abc": [0.20688827, 0.13543673, 0.16019939], "properties": {"magmom": -0.0}, "label": "Pd", "xyz": [0.27741194090831345, 2.7407729651472454, 1.0101897564569484]}, {"species": [{"element": "Pd", "occu": 1}], "abc": [0.86456327, 0.79311173, 0.8398006100000001], "properties": {"magmom": -0.0}, "label": "Pd", "xyz": [0.27741194090831334, 13.517730144852756, 5.296490393543053]}, {"species": [{"element": "Pb", "occu": 1}], "abc": [0.40996789, 0.2945221, 0.28784459], "properties": {"magmom": 0.0}, "label": "Pb", "xyz": [0.4482204396657308, 5.479827228626923, 1.8145415905932087]}, {"species": [{"element": "Pb", "occu": 1}], "abc": [0.7054779, 0.59003211, 0.71215541], "properties": {"magmom": 0.0}, "label": "Pb", "xyz": [0.448220439665731, 10.77867588137308, 4.492138559406792]}, {"species": [{"element": "Pb", "occu": 1}], "abc": [0.01173664, 0.98826336, 0.0], "properties": {"magmom": 0.0}, "label": "Pb", "xyz": [-3.7913832612149316, 6.21040401, -0.006228]}, {"species": [{"element": "Pb", "occu": 1}], "abc": [0.23309646, 0.76690354, 0.5], "properties": {"magmom": 0.0}, "label": "Pb", "xyz": [-2.072515975630467, 8.129251555, 3.153340075]}, {"species": [{"element": "Pb", "occu": 1}], "abc": [0.83431259, 0.46334263000000003, 0.21125738], "properties": {"magmom": 0.0}, "label": "Pb", "xyz": [1.4402978105479516, 8.869704591837698, 1.326882350202127]}, {"species": [{"element": "Pb", "occu": 1}], "abc": [0.53665737, 0.16568741, 0.7887426200000001], "properties": {"magmom": 0.0}, "label": "Pb", "xyz": [1.4402978105479516, 7.388798518162305, 4.979797799797873]}]}, "task_ids": null, "uncorrected_energy_per_atom": null, "energy_per_atom": -35.7348947525, "formation_energy_per_atom": -0.27768595499999504, "energy_above_hull": 0.007401696250006, "is_stable": false, "equilibrium_reaction_energy_per_atom": null, "decomposes_to": null, "xas": null, "grain_boundaries": null, "band_gap": 0.0, "cbm": null, "vbm": null, "efermi": 9.71994834, "is_gap_direct": null, "is_metal": null, "es_source_calc_id": null, "bandstructure": null, "dos": null, "dos_energy_up": null, "dos_energy_down": null, "is_magnetic": null, "ordering": null, "total_magnetization": 1e-07, "total_magnetization_normalized_vol": null, "total_magnetization_normalized_formula_units": null, "num_magnetic_sites": null, "num_unique_magnetic_sites": null, "types_of_magnetic_species": null, "bulk_modulus": null, "shear_modulus": null, "universal_anisotropy": null, "homogeneous_poisson": null, "e_total": null, "e_ionic": null, "e_electronic": null, "n": null, "e_ij_max": null, "weighted_surface_energy_EV_PER_ANG2": null, "weighted_surface_energy": null, "weighted_work_function": null, "surface_anisotropy": null, "shape_factor": null, "has_reconstructed": null, "possible_species": null, "has_props": null, "theoretical": null, "database_IDs": null, "fields_not_requested": ["builder_meta", "nsites", "elements", "nelements", "composition", "composition_reduced", "chemsys", "symmetry", "property_name", "deprecated", "deprecation_reasons", "last_updated", "origins", "warnings", "task_ids", "uncorrected_energy_per_atom", "equilibrium_reaction_energy_per_atom", "decomposes_to", "xas", "grain_boundaries", "cbm", "vbm", "is_gap_direct", "is_metal", "es_source_calc_id", "bandstructure", "dos", "dos_energy_up", "dos_energy_down", "is_magnetic", "ordering", "total_magnetization_normalized_vol", "total_magnetization_normalized_formula_units", "num_magnetic_sites", "num_unique_magnetic_sites", "types_of_magnetic_species", "bulk_modulus", "shear_modulus", "universal_anisotropy", "homogeneous_poisson", "e_total", "e_ionic", "e_electronic", "n", "e_ij_max", "weighted_surface_energy_EV_PER_ANG2", "weighted_surface_energy", "weighted_work_function", "surface_anisotropy", "shape_factor", "has_reconstructed", "possible_species", "has_props", "theoretical", "database_IDs"]}