{
  "builder_meta": null,
  "nsites": null,
  "elements": null,
  "nelements": null,
  "composition": null,
  "composition_reduced": null,
  "formula_pretty": "Pd7Se4",
  "formula_anonymous": "A4B7",
  "chemsys": null,
  "volume": 387.265781811258,
  "density": 9.096939176136326,
  "density_atomic": 17.60299008232991,
  "symmetry": null,
  "property_name": null,
  "material_id": "mp-2503",
  "deprecated": null,
  "deprecation_reasons": null,
  "last_updated": null,
  "origins": null,
  "warnings": null,
  "structure": {
    "@module": "pymatgen.core.structure",
    "@class": "Structure",
    "charge": 0,
    "lattice": {
      "matrix": [
        [5.30869759, 4.71e-6, 2.26e-5],
        [6.92e-6, 7.03737506, -7.607000000000002e-5],
        [9.681000000000003e-5, -9.851e-5, 10.36598178]
      ],
      "pbc": [true, true, true],
      "a": 5.308697590050196,
      "b": 7.037375060414538,
      "c": 10.365981780920144,
      "alpha": 90.00116382734771,
      "beta": 89.999220986042,
      "gamma": 89.99989282833421,
      "volume": 387.265781811258
    },
    "properties": {},
    "sites": [
      {
        "species": [{ "element": "Pd", "occu": 1 }],
        "abc": [0.66127711, 0.87427095, 0.63246191],
        "properties": { "magmom": -0.0 },
        "label": "Pd",
        "xyz": [3.5105874787716465, 6.15251339000494, 6.556037074675519]
      },
      {
        "species": [{ "element": "Pd", "occu": 1 }],
        "abc": [0.66129081, 0.12572777000000002, 0.36748842],
        "properties": { "magmom": 0.0 },
        "label": "Pd",
        "xyz": [3.510629375926257, 0.8847603863428772, 3.80938364714183]
      },
      {
        "species": [{ "element": "Pd", "occu": 1 }],
        "abc": [0.33873991000000003, 0.37426937, 0.86751221],
        "properties": { "magmom": -0.0 },
        "label": "Pd",
        "xyz": [1.7983543176549077, 2.633790066997081, 8.992594947638523]
      },
      {
        "species": [{ "element": "Pd", "occu": 1 }],
        "abc": [0.33868533, 0.62570804, 0.13252643],
        "properties": { "magmom": -0.0 },
        "label": "Pd",
        "xyz": [1.79799515492268, 4.403330695566767, 1.3737266154263006]
      },
      {
        "species": [{ "element": "Pd", "occu": 1 }],
        "abc": [0.32282553, 1.5280000000000003e-5, -8.089999999999999e-6],
        "properties": { "magmom": -0.0 },
        "label": "Pd",
        "xyz": [1.7137831124240177, 0.00010905239610900002, -7.65660979718e-5]
      },
      {
        "species": [{ "element": "Pd", "occu": 1 }],
        "abc": [0.67717911, 0.5000061100000001, 0.49999526],
        "properties": { "magmom": 0.0 },
        "label": "Pd",
        "xyz": [3.5949909738387467, 3.518684463342162, 5.182919024029461]
      },
      {
        "species": [{ "element": "Pd", "occu": 1 }],
        "abc": [0.00630812, 0.9138099, 0.22596000000000002],
        "properties": { "magmom": 0.0 },
        "label": "Pd",
        "xyz": [0.0335161001935388, 6.4308007702327386, 2.3422278720532197]
      },
      {
        "species": [{ "element": "Pd", "occu": 1 }],
        "abc": [0.0064408700000000004, 0.08619411, 0.77394554],
        "properties": { "magmom": -0.0 },
        "label": "Pd",
        "xyz": [0.0342681531774719, 0.6065040689942488, 8.022698955129977]
      },
      {
        "species": [{ "element": "Pd", "occu": 1 }],
        "abc": [0.99366974, 0.41379102, 0.27406703],
        "properties": { "magmom": -0.0 },
        "label": "Pd",
        "xyz": [5.2751215498569595, 2.9119802860413113, 2.840964819331946]
      },
      {
        "species": [{ "element": "Pd", "occu": 1 }],
        "abc": [0.99357077, 0.58620236, 0.72604726],
        "properties": { "magmom": 0.0 },
        "label": "Pd",
        "xyz": [5.274641097349017, 4.1252590251798855, 7.5261705308648]
      },
      {
        "species": [{ "element": "Pd", "occu": 1 }],
        "abc": [0.35092425, 0.81037646, 0.41705436],
        "properties": { "magmom": -0.0 },
        "label": "Pd",
        "xyz": [1.8629967030852526, 5.7028836576433015, 4.323124182580299]
      },
      {
        "species": [{ "element": "Pd", "occu": 1 }],
        "abc": [0.35091547, 0.18963348, 0.58287241],
        "properties": { "magmom": -0.0 },
        "label": "Pd",
        "xyz": [1.8629618500244112, 1.3344661567437632, 6.0420382873954885]
      },
      {
        "species": [{ "element": "Pd", "occu": 1 }],
        "abc": [0.6490761700000001, 0.31040021, 0.08294787],
        "properties": { "magmom": -0.0 },
        "label": "Pd",
        "xyz": [3.445759277558179, 2.1843975824268496, 0.8598271660872759]
      },
      {
        "species": [{ "element": "Pd", "occu": 1 }],
        "abc": [0.64906074, 0.68958644, 0.91713123],
        "properties": { "magmom": -0.0 },
        "label": "Pd",
        "xyz": [3.445760745614158, 4.852791125048805, 9.506927831981223]
      },
      {
        "species": [{ "element": "Se", "occu": 1 }],
        "abc": [9.11e-5, 6.0099999999999975e-6, 0.49995106],
        "properties": { "magmom": -0.0 },
        "label": "Se",
        "xyz": [0.0005320226541568001, -6.955125729000023e-6, 5.182483580453367]
      },
      {
        "species": [{ "element": "Se", "occu": 1 }],
        "abc": [0.9999524, 0.49999078, 2.6920000000000003e-5],
        "properties": { "magmom": 0.0 },
        "label": "Se",
        "xyz": [5.3084483585370394, 3.5186273525258613, 0.000263616855123]
      },
      {
        "species": [{ "element": "Se", "occu": 1 }],
        "abc": [0.16921048, 0.50004771, 0.50003052],
        "properties": { "magmom": 0.0 },
        "label": "Se",
        "xyz": [0.8983391356635376, 3.5189748221389485, 5.183273045291474]
      },
      {
        "species": [{ "element": "Se", "occu": 1 }],
        "abc": [0.83076211, 4.35e-5, 0.999979],
        "properties": { "magmom": -0.0 },
        "label": "Se",
        "xyz": [4.4103616194883255, 0.00021153077335809997, 10.36578286629726]
      },
      {
        "species": [{ "element": "Se", "occu": 1 }],
        "abc": [0.68393501, 0.67491634, 0.28009429],
        "properties": { "magmom": 0.0 },
        "label": "Se",
        "xyz": [3.630835925652914, 4.749615047947869, 2.9034164228672785]
      },
      {
        "species": [{ "element": "Se", "occu": 1 }],
        "abc": [0.68396581, 0.32502056, 0.71987768],
        "properties": { "magmom": 0.0 },
        "label": "Se",
        "xyz": [3.631039587689874, 2.2872238892599417, 7.462229648021976]
      },
      {
        "species": [{ "element": "Se", "occu": 1 }],
        "abc": [0.31604574, 0.17495256, 0.21991489],
        "properties": { "magmom": -0.0 },
        "label": "Se",
        "xyz": [1.6778137588999829, 1.231186607186775, 2.279627576883189]
      },
      {
        "species": [{ "element": "Se", "occu": 1 }],
        "abc": [0.31607441000000003, 0.82503204, 0.7801228],
        "properties": { "magmom": 0.0 },
        "label": "Se",
        "xyz": [1.6780246915376569, 5.805984540810365, 8.086683114056969]
      }
    ]
  },
  "task_ids": null,
  "uncorrected_energy_per_atom": null,
  "energy_per_atom": -20.116090216818183,
  "formation_energy_per_atom": -0.300688744659088,
  "energy_above_hull": 0.0,
  "is_stable": true,
  "equilibrium_reaction_energy_per_atom": null,
  "decomposes_to": null,
  "xas": null,
  "grain_boundaries": null,
  "band_gap": 0.0,
  "cbm": null,
  "vbm": null,
  "efermi": 4.28983637,
  "is_gap_direct": null,
  "is_metal": null,
  "es_source_calc_id": null,
  "bandstructure": null,
  "dos": null,
  "dos_energy_up": null,
  "dos_energy_down": null,
  "is_magnetic": null,
  "ordering": null,
  "total_magnetization": 0.0,
  "total_magnetization_normalized_vol": null,
  "total_magnetization_normalized_formula_units": null,
  "num_magnetic_sites": null,
  "num_unique_magnetic_sites": null,
  "types_of_magnetic_species": null,
  "bulk_modulus": null,
  "shear_modulus": null,
  "universal_anisotropy": null,
  "homogeneous_poisson": null,
  "e_total": null,
  "e_ionic": null,
  "e_electronic": null,
  "n": null,
  "e_ij_max": null,
  "weighted_surface_energy_EV_PER_ANG2": null,
  "weighted_surface_energy": null,
  "weighted_work_function": null,
  "surface_anisotropy": null,
  "shape_factor": null,
  "has_reconstructed": null,
  "possible_species": null,
  "has_props": null,
  "theoretical": null,
  "database_IDs": null,
  "fields_not_requested": [
    "builder_meta",
    "nsites",
    "elements",
    "nelements",
    "composition",
    "composition_reduced",
    "chemsys",
    "symmetry",
    "property_name",
    "deprecated",
    "deprecation_reasons",
    "last_updated",
    "origins",
    "warnings",
    "task_ids",
    "uncorrected_energy_per_atom",
    "equilibrium_reaction_energy_per_atom",
    "decomposes_to",
    "xas",
    "grain_boundaries",
    "cbm",
    "vbm",
    "is_gap_direct",
    "is_metal",
    "es_source_calc_id",
    "bandstructure",
    "dos",
    "dos_energy_up",
    "dos_energy_down",
    "is_magnetic",
    "ordering",
    "total_magnetization_normalized_vol",
    "total_magnetization_normalized_formula_units",
    "num_magnetic_sites",
    "num_unique_magnetic_sites",
    "types_of_magnetic_species",
    "bulk_modulus",
    "shear_modulus",
    "universal_anisotropy",
    "homogeneous_poisson",
    "e_total",
    "e_ionic",
    "e_electronic",
    "n",
    "e_ij_max",
    "weighted_surface_energy_EV_PER_ANG2",
    "weighted_surface_energy",
    "weighted_work_function",
    "surface_anisotropy",
    "shape_factor",
    "has_reconstructed",
    "possible_species",
    "has_props",
    "theoretical",
    "database_IDs"
  ]
}
