{"builder_meta": null, "nsites": null, "elements": null, "nelements": null, "composition": null, "composition_reduced": null, "formula_pretty": "Pd7Se2", "formula_anonymous": "A2B7", "chemsys": null, "volume": 285.45736723698457, "density": 10.504085539511214, "density_atomic": 15.858742624276921, "symmetry": null, "property_name": null, "material_id": "mp-618", "deprecated": null, "deprecation_reasons": null, "last_updated": null, "origins": null, "warnings": null, "structure": {"@module": "pymatgen.core.structure", "@class": "Structure", "charge": 0, "lattice": {"matrix": [[5.38263049, 0.0, 0.0], [0.0, 5.58959817, -0.3523331], [0.0, 0.00421615, 9.4875469]], "pbc": [true, true, true], "a": 5.38263049, "b": 5.600691592600236, "c": 9.487547836802744, "alpha": 93.58133205889851, "beta": 90.0, "gamma": 90.0, "volume": 285.45736723698457}, "properties": {}, "sites": [{"species": [{"element": "Pd", "occu": 1}], "abc": [0.07992032, 0.79531652, 0.57375398], "properties": {"magmom": 0.0}, "label": "Pd", "xyz": [0.43018155120255686, 4.447918797605546, 5.163301459338849]}, {"species": [{"element": "Pd", "occu": 1}], "abc": [0.57992032, 0.20468348, 0.92624602], "properties": {"magmom": 0.0}, "label": "Pd", "xyz": [3.1214967962025573, 1.1480035973944547, 8.71568579066115]}, {"species": [{"element": "Pd", "occu": 1}], "abc": [0.40328868, 0.03037871, 0.35033879], "properties": {"magmom": -0.0}, "label": "Pd", "xyz": [2.1707539452398534, 0.17128186271241921, 3.31315227594595]}, {"species": [{"element": "Pd", "occu": 1}], "abc": [0.9032886800000001, 0.96962129, 0.14966121000000002], "properties": {"magmom": -0.0}, "label": "Pd", "xyz": [4.862069190239854, 5.420424382287581, 1.0782880740540501]}, {"species": [{"element": "Pd", "occu": 1}], "abc": [0.59671132, 0.96962129, 0.64966121], "properties": {"magmom": -0.0}, "label": "Pd", "xyz": [3.2118765447601474, 5.422532457287581, 5.82206152405405]}, {"species": [{"element": "Pd", "occu": 1}], "abc": [0.09671132, 0.03037871, 0.85033879], "properties": {"magmom": -0.0}, "label": "Pd", "xyz": [0.5205612997601469, 0.17338993771241923, 8.056925725945948]}, {"species": [{"element": "Pd", "occu": 1}], "abc": [0.65613446, 0.42864655, 0.20763808], "properties": {"magmom": -0.0}, "label": "Pd", "xyz": [3.5317293499356857, 2.396837404747806, 1.818949654460147]}, {"species": [{"element": "Pd", "occu": 1}], "abc": [0.15613446, 0.57135345, 0.29236192], "properties": {"magmom": -0.0}, "label": "Pd", "xyz": [0.8404141049356855, 3.194868840252195, 2.572490695539853]}, {"species": [{"element": "Pd", "occu": 1}], "abc": [0.34386554, 0.57135345, 0.79236192], "properties": {"magmom": -0.0}, "label": "Pd", "xyz": [1.850901140064315, 3.1969769152521947, 7.316264145539853]}, {"species": [{"element": "Pd", "occu": 1}], "abc": [0.84386554, 0.42864655, 0.7076380800000001], "properties": {"magmom": -0.0}, "label": "Pd", "xyz": [4.542216385064315, 2.398945479747806, 6.562723104460147]}, {"species": [{"element": "Pd", "occu": 1}], "abc": [0.42007968, 0.79531652, 0.07375398], "properties": {"magmom": 0.0}, "label": "Pd", "xyz": [2.2611336937974436, 4.445810722605546, 0.41952800933885]}, {"species": [{"element": "Pd", "occu": 1}], "abc": [0.9200796800000001, 0.20468348, 0.42624602], "properties": {"magmom": 0.0}, "label": "Pd", "xyz": [4.952448938797444, 1.1458955223944547, 3.97191234066115]}, {"species": [{"element": "Pd", "occu": 1}], "abc": [0.5, 0.5, 0.5], "properties": {"magmom": -0.0}, "label": "Pd", "xyz": [2.691315245, 2.7969071600000004, 4.5676069]}, {"species": [{"element": "Pd", "occu": 1}], "abc": [-0.0, 0.5, 0.0], "properties": {"magmom": -0.0}, "label": "Pd", "xyz": [0.0, 2.794799085, -0.17616655]}, {"species": [{"element": "Se", "occu": 1}], "abc": [0.22738949, 0.22716593000000002, 0.6217010900000001], "properties": {"magmom": 0.0}, "label": "Se", "xyz": [1.2239536019795503, 1.2723874516649518, 5.818380172824839]}, {"species": [{"element": "Se", "occu": 1}], "abc": [0.72738949, 0.77283407, 0.87829891], "properties": {"magmom": 0.0}, "label": "Se", "xyz": [3.9152688469795502, 4.323534943335049, 8.060607077175163]}, {"species": [{"element": "Se", "occu": 1}], "abc": [0.77261051, 0.77283407, 0.37829891], "properties": {"magmom": 0.0}, "label": "Se", "xyz": [4.158676888020451, 4.321426868335049, 3.316833627175162]}, {"species": [{"element": "Se", "occu": 1}], "abc": [0.27261051000000003, 0.22716593000000002, 0.12170109], "properties": {"magmom": 0.0}, "label": "Se", "xyz": [1.4673616430204501, 1.2702793766649518, 1.074606722824838]}]}, "task_ids": null, "uncorrected_energy_per_atom": null, "energy_per_atom": -21.206055941666666, "formation_energy_per_atom": -0.16757863812499801, "energy_above_hull": 0.018291630123457, "is_stable": false, "equilibrium_reaction_energy_per_atom": null, "decomposes_to": null, "xas": null, "grain_boundaries": null, "band_gap": 0.0, "cbm": null, "vbm": null, "efermi": 4.8681334, "is_gap_direct": null, "is_metal": null, "es_source_calc_id": null, "bandstructure": null, "dos": null, "dos_energy_up": null, "dos_energy_down": null, "is_magnetic": null, "ordering": null, "total_magnetization": 0.0, "total_magnetization_normalized_vol": null, "total_magnetization_normalized_formula_units": null, "num_magnetic_sites": null, "num_unique_magnetic_sites": null, "types_of_magnetic_species": null, "bulk_modulus": null, "shear_modulus": null, "universal_anisotropy": null, "homogeneous_poisson": null, "e_total": null, "e_ionic": null, "e_electronic": null, "n": null, "e_ij_max": null, "weighted_surface_energy_EV_PER_ANG2": null, "weighted_surface_energy": null, "weighted_work_function": null, "surface_anisotropy": null, "shape_factor": null, "has_reconstructed": null, "possible_species": null, "has_props": null, "theoretical": null, "database_IDs": null, "fields_not_requested": ["builder_meta", "nsites", "elements", "nelements", "composition", "composition_reduced", "chemsys", "symmetry", "property_name", "deprecated", "deprecation_reasons", "last_updated", "origins", "warnings", "task_ids", "uncorrected_energy_per_atom", "equilibrium_reaction_energy_per_atom", "decomposes_to", "xas", "grain_boundaries", "cbm", "vbm", "is_gap_direct", "is_metal", "es_source_calc_id", "bandstructure", "dos", "dos_energy_up", "dos_energy_down", "is_magnetic", "ordering", "total_magnetization_normalized_vol", "total_magnetization_normalized_formula_units", "num_magnetic_sites", "num_unique_magnetic_sites", "types_of_magnetic_species", "bulk_modulus", "shear_modulus", "universal_anisotropy", "homogeneous_poisson", "e_total", "e_ionic", "e_electronic", "n", "e_ij_max", "weighted_surface_energy_EV_PER_ANG2", "weighted_surface_energy", "weighted_work_function", "surface_anisotropy", "shape_factor", "has_reconstructed", "possible_species", "has_props", "theoretical", "database_IDs"]}