{"builder_meta": null, "nsites": null, "elements": null, "nelements": null, "composition": null, "composition_reduced": null, "formula_pretty": "PdCl2", "formula_anonymous": "AB2", "chemsys": null, "volume": 444.38834770947574, "density": 3.9756679315509373, "density_atomic": 24.68824153941532, "symmetry": null, "property_name": null, "material_id": "mp-29487", "deprecated": null, "deprecation_reasons": null, "last_updated": null, "origins": null, "warnings": null, "structure": {"@module": "pymatgen.core.structure", "@class": "Structure", "charge": 0, "lattice": {"matrix": [[7.76340786, 0.05691524, -2.47688215], [-3.42172744, 6.95990108, -2.50204363], [0.02685914, 0.07322239, 8.14877899]], "pbc": [true, true, true], "a": 8.149152479260813, "b": 8.149151124102294, "c": 8.149152223370494, "alpha": 107.50127692974505, "beta": 107.50126910068391, "gamma": 107.50126679768269, "volume": 444.38834770947574}, "properties": {}, "sites": [{"species": [{"element": "Pd", "occu": 1}], "abc": [0.67993737, 0.9468405400000001, 0.91343663], "properties": {"magmom": 0.0}, "label": "Pd", "xyz": [2.063334987869608, 6.6954993086944485, 3.390232142636698]}, {"species": [{"element": "Pd", "occu": 1}], "abc": [0.9468405400000001, 0.91343663, 0.67993737], "properties": {"magmom": 0.0}, "label": "Pd", "xyz": [4.24344064184258, 6.461104883506104, 0.9099886212493278]}, {"species": [{"element": "Pd", "occu": 1}], "abc": [0.91343663, 0.67993737, 0.9468405400000001], "properties": {"magmom": 0.0}, "label": "Pd", "xyz": [4.790252079165015, 4.853615228104291, 3.7518864498216478]}, {"species": [{"element": "Pd", "occu": 1}], "abc": [0.32006263, 0.05315946, 0.08656337], "properties": {"magmom": 0.0}, "label": "Pd", "xyz": [2.3052045721303913, 0.3945394013055523, -0.22037893263669805]}, {"species": [{"element": "Pd", "occu": 1}], "abc": [0.05315946, 0.08656337, 0.32006263], "properties": {"magmom": 0.0}, "label": "Pd", "xyz": [0.12509891815742094, 0.6289338264938957, 2.259864588750672]}, {"species": [{"element": "Pd", "occu": 1}], "abc": [0.08656337, 0.32006263, 0.05315946], "properties": {"magmom": 0.0}, "label": "Pd", "xyz": [-0.4217125191650146, 2.2364234818957085, -0.582033239821647]}, {"species": [{"element": "Cl", "occu": 1}], "abc": [0.73627441, 0.034032480000000004, 0.23149063], "properties": {"magmom": -0.0}, "label": "Cl", "xyz": [5.605766310283469, 0.29571822624929256, -0.022449711302020114]}, {"species": [{"element": "Cl", "occu": 1}], "abc": [0.034032480000000004, 0.23149063, 0.73627441], "properties": {"magmom": -0.0}, "label": "Cl", "xyz": [-0.508114120589987, 1.6670006245099154, 5.3362433446542274]}, {"species": [{"element": "Cl", "occu": 1}], "abc": [0.23149063, 0.73627441, 0.034032480000000004], "properties": {"magmom": -0.0}, "label": "Cl", "xyz": [-0.7212600924635918, 5.1400643456227915, -2.1382425488101675]}, {"species": [{"element": "Cl", "occu": 1}], "abc": [0.26372559, 0.96596752, 0.76850937], "properties": {"magmom": -0.0}, "label": "Cl", "xyz": [-1.2372267502834697, 6.794320483750707, 3.1923029213020206]}, {"species": [{"element": "Cl", "occu": 1}], "abc": [0.96596752, 0.76850937, 0.26372559], "properties": {"magmom": -0.0}, "label": "Cl", "xyz": [4.876653680589987, 5.4230380854900835, -2.1663901346542267]}, {"species": [{"element": "Cl", "occu": 1}], "abc": [0.76850937, 0.26372559, 0.96596752], "properties": {"magmom": -0.0}, "label": "Cl", "xyz": [5.089799652463591, 1.9499743643772087, 5.308095758810167]}, {"species": [{"element": "Cl", "occu": 1}], "abc": [0.13659936, 0.40125756, 0.36822728], "properties": {"magmom": 0.0}, "label": "Cl", "xyz": [-0.30262719039913777, 2.8274499920652105, 1.6582982843360803]}, {"species": [{"element": "Cl", "occu": 1}], "abc": [0.36822728, 0.13659936, 0.40125756], "properties": {"magmom": 0.0}, "label": "Cl", "xyz": [2.402070214400081, 1.0010568147558243, 2.015926038981536]}, {"species": [{"element": "Cl", "occu": 1}], "abc": [0.40125756, 0.36822728, 0.13659936], "properties": {"magmom": 0.0}, "label": "Cl", "xyz": [1.8588216483900089, 2.5956652456983473, -0.8020704134173342]}, {"species": [{"element": "Cl", "occu": 1}], "abc": [0.86340064, 0.59874244, 0.6317727200000001], "properties": {"magmom": 0.0}, "label": "Cl", "xyz": [4.671166750399137, 4.26258871793479, 1.51155492566392]}, {"species": [{"element": "Cl", "occu": 1}], "abc": [0.6317727200000001, 0.86340064, 0.59874244], "properties": {"magmom": 0.0}, "label": "Cl", "xyz": [1.9664693455999194, 6.088981895244175, 1.1539271710184642]}, {"species": [{"element": "Cl", "occu": 1}], "abc": [0.59874244, 0.6317727200000001, 0.86340064], "properties": {"magmom": 0.0}, "label": "Cl", "xyz": [2.509717911609991, 4.4943734643016535, 3.971923623417335]}]}, "task_ids": null, "uncorrected_energy_per_atom": null, "energy_per_atom": -12.341778116666667, "formation_energy_per_atom": -0.5866676483333321, "energy_above_hull": 0.0, "is_stable": true, "equilibrium_reaction_energy_per_atom": null, "decomposes_to": null, "xas": null, "grain_boundaries": null, "band_gap": 1.5592000000000001, "cbm": null, "vbm": null, "efermi": -0.7029499100000001, "is_gap_direct": null, "is_metal": null, "es_source_calc_id": null, "bandstructure": null, "dos": null, "dos_energy_up": null, "dos_energy_down": null, "is_magnetic": null, "ordering": null, "total_magnetization": 0.0, "total_magnetization_normalized_vol": null, "total_magnetization_normalized_formula_units": null, "num_magnetic_sites": null, "num_unique_magnetic_sites": null, "types_of_magnetic_species": null, "bulk_modulus": null, "shear_modulus": null, "universal_anisotropy": null, "homogeneous_poisson": null, "e_total": null, "e_ionic": null, "e_electronic": null, "n": null, "e_ij_max": null, "weighted_surface_energy_EV_PER_ANG2": null, "weighted_surface_energy": null, "weighted_work_function": null, "surface_anisotropy": null, "shape_factor": null, "has_reconstructed": null, "possible_species": null, "has_props": null, "theoretical": null, "database_IDs": null, "fields_not_requested": ["builder_meta", "nsites", "elements", "nelements", "composition", "composition_reduced", "chemsys", "symmetry", "property_name", "deprecated", "deprecation_reasons", "last_updated", "origins", "warnings", "task_ids", "uncorrected_energy_per_atom", "equilibrium_reaction_energy_per_atom", "decomposes_to", "xas", "grain_boundaries", "cbm", "vbm", "is_gap_direct", "is_metal", "es_source_calc_id", "bandstructure", "dos", "dos_energy_up", "dos_energy_down", "is_magnetic", "ordering", "total_magnetization_normalized_vol", "total_magnetization_normalized_formula_units", "num_magnetic_sites", "num_unique_magnetic_sites", "types_of_magnetic_species", "bulk_modulus", "shear_modulus", "universal_anisotropy", "homogeneous_poisson", "e_total", "e_ionic", "e_electronic", "n", "e_ij_max", "weighted_surface_energy_EV_PER_ANG2", "weighted_surface_energy", "weighted_work_function", "surface_anisotropy", "shape_factor", "has_reconstructed", "possible_species", "has_props", "theoretical", "database_IDs"]}