{
  "builder_meta": null,
  "nsites": null,
  "elements": null,
  "nelements": null,
  "composition": null,
  "composition_reduced": null,
  "formula_pretty": "PdF2",
  "formula_anonymous": "AB2",
  "chemsys": null,
  "volume": 151.5315320784177,
  "density": 6.330292992133336,
  "density_atomic": 12.627627673201475,
  "symmetry": null,
  "property_name": null,
  "material_id": "mp-20284",
  "deprecated": null,
  "deprecation_reasons": null,
  "last_updated": null,
  "origins": null,
  "warnings": null,
  "structure": {
    "@module": "pymatgen.core.structure",
    "@class": "Structure",
    "charge": 0,
    "lattice": {
      "matrix": [
        [5.33131952, 0.00494343, -0.00494281],
        [0.00494281, 5.33131952, 0.00494447],
        [-0.00494343, 0.0049438500000000005, 5.33131952]
      ],
      "pbc": [true, true, true],
      "a": 5.331324103185239,
      "b": 5.331324104149672,
      "c": 5.331324104149552,
      "alpha": 89.89377943798073,
      "beta": 90.10619819788023,
      "gamma": 89.89380180211847,
      "volume": 151.5315320784177
    },
    "properties": {},
    "sites": [
      {
        "species": [{ "element": "Pd", "occu": 1 }],
        "abc": [0.0, 0.5, 0.5],
        "properties": { "magmom": -1.436 },
        "label": "Pd",
        "xyz": [-3.100000000003274e-7, 2.668131685, 2.668131995]
      },
      {
        "species": [{ "element": "Pd", "occu": 1 }],
        "abc": [0.5, 0.5, 0.0],
        "properties": { "magmom": 1.544 },
        "label": "Pd",
        "xyz": [2.668131165, 2.668131475, 8.30000000000275e-7]
      },
      {
        "species": [{ "element": "Pd", "occu": 1 }],
        "abc": [0.5, -0.0, 0.5],
        "properties": { "magmom": 1.544 },
        "label": "Pd",
        "xyz": [2.663188045, 0.004943640000000001, 2.663188355]
      },
      {
        "species": [{ "element": "Pd", "occu": 1 }],
        "abc": [0.0, -0.0, 0.0],
        "properties": { "magmom": 1.544 },
        "label": "Pd",
        "xyz": [0.0, 0.0, 0.0]
      },
      {
        "species": [{ "element": "F", "occu": 1 }],
        "abc": [0.34251229, 0.15748971, 0.84251429],
        "properties": { "magmom": 0.19 },
        "label": "F",
        "xyz": [1.8226559888137712, 0.8454864149245105, 4.490798610130209]
      },
      {
        "species": [{ "element": "F", "occu": 1 }],
        "abc": [0.15613928, 0.84055053, 0.34400292],
        "properties": { "magmom": 0.068 },
        "label": "F",
        "xyz": [0.8348825185131192, 4.483716010572318, 1.8373737924174907]
      },
      {
        "species": [{ "element": "F", "occu": 1 }],
        "abc": [0.84400292, 0.34386072, 0.15944747],
        "properties": { "magmom": 0.068 },
        "label": "F",
        "xyz": [4.500560663131799, 1.8381919224266297, 0.8475938721668277]
      },
      {
        "species": [{ "element": "F", "occu": 1 }],
        "abc": [0.65944747, 0.65599408, 0.65614228],
        "properties": { "magmom": 0.068 },
        "label": "F",
        "xyz": [3.515724029892959, 3.503817845126042, 3.498088164760852]
      },
      {
        "species": [{ "element": "F", "occu": 1 }],
        "abc": [0.34055253, 0.34400592, 0.34385772000000003],
        "properties": { "magmom": 0.068 },
        "label": "F",
        "xyz": [1.8155948701070412, 1.8373889548739584, 1.8332330152391476]
      },
      {
        "species": [{ "element": "F", "occu": 1 }],
        "abc": [0.15599708, 0.65613928, 0.84055253],
        "properties": { "magmom": 0.068 },
        "label": "F",
        "xyz": [0.8307582368682005, 3.5030148775733707, 4.483727307833172]
      },
      {
        "species": [{ "element": "F", "occu": 1 }],
        "abc": [0.84386072, 0.15944947, 0.65599708],
        "properties": { "magmom": 0.068 },
        "label": "F",
        "xyz": [4.49643638148688, 0.8574907894276821, 3.4939473875825096]
      },
      {
        "species": [{ "element": "F", "occu": 1 }],
        "abc": [0.6574877100000001, 0.84251029, 0.15748571],
        "properties": { "magmom": 0.19 },
        "label": "F",
        "xyz": [3.5086629111862293, 4.495720385075489, 0.8405225698697905]
      }
    ]
  },
  "task_ids": null,
  "uncorrected_energy_per_atom": null,
  "energy_per_atom": -11.116665384166666,
  "formation_energy_per_atom": -1.379162214166664,
  "energy_above_hull": 0.0,
  "is_stable": true,
  "equilibrium_reaction_energy_per_atom": null,
  "decomposes_to": null,
  "xas": null,
  "grain_boundaries": null,
  "band_gap": 0.0,
  "cbm": null,
  "vbm": null,
  "efermi": 1.55749971,
  "is_gap_direct": null,
  "is_metal": null,
  "es_source_calc_id": null,
  "bandstructure": null,
  "dos": null,
  "dos_energy_up": null,
  "dos_energy_down": null,
  "is_magnetic": null,
  "ordering": null,
  "total_magnetization": 4.0000007,
  "total_magnetization_normalized_vol": null,
  "total_magnetization_normalized_formula_units": null,
  "num_magnetic_sites": null,
  "num_unique_magnetic_sites": null,
  "types_of_magnetic_species": null,
  "bulk_modulus": null,
  "shear_modulus": null,
  "universal_anisotropy": null,
  "homogeneous_poisson": null,
  "e_total": null,
  "e_ionic": null,
  "e_electronic": null,
  "n": null,
  "e_ij_max": null,
  "weighted_surface_energy_EV_PER_ANG2": null,
  "weighted_surface_energy": null,
  "weighted_work_function": null,
  "surface_anisotropy": null,
  "shape_factor": null,
  "has_reconstructed": null,
  "possible_species": null,
  "has_props": null,
  "theoretical": null,
  "database_IDs": null,
  "fields_not_requested": [
    "builder_meta",
    "nsites",
    "elements",
    "nelements",
    "composition",
    "composition_reduced",
    "chemsys",
    "symmetry",
    "property_name",
    "deprecated",
    "deprecation_reasons",
    "last_updated",
    "origins",
    "warnings",
    "task_ids",
    "uncorrected_energy_per_atom",
    "equilibrium_reaction_energy_per_atom",
    "decomposes_to",
    "xas",
    "grain_boundaries",
    "cbm",
    "vbm",
    "is_gap_direct",
    "is_metal",
    "es_source_calc_id",
    "bandstructure",
    "dos",
    "dos_energy_up",
    "dos_energy_down",
    "is_magnetic",
    "ordering",
    "total_magnetization_normalized_vol",
    "total_magnetization_normalized_formula_units",
    "num_magnetic_sites",
    "num_unique_magnetic_sites",
    "types_of_magnetic_species",
    "bulk_modulus",
    "shear_modulus",
    "universal_anisotropy",
    "homogeneous_poisson",
    "e_total",
    "e_ionic",
    "e_electronic",
    "n",
    "e_ij_max",
    "weighted_surface_energy_EV_PER_ANG2",
    "weighted_surface_energy",
    "weighted_work_function",
    "surface_anisotropy",
    "shape_factor",
    "has_reconstructed",
    "possible_species",
    "has_props",
    "theoretical",
    "database_IDs"
  ]
}
