{"builder_meta": null, "nsites": null, "elements": null, "nelements": null, "composition": null, "composition_reduced": null, "formula_pretty": "PdF3", "formula_anonymous": "AB3", "chemsys": null, "volume": 101.98757516599757, "density": 5.321380357867303, "density_atomic": 12.748446895749696, "symmetry": null, "property_name": null, "material_id": "mp-1524446", "deprecated": null, "deprecation_reasons": null, "last_updated": null, "origins": null, "warnings": null, "structure": {"@module": "pymatgen.core.structure", "@class": "Structure", "charge": 0, "lattice": {"matrix": [[4.48163541, 0.01615762, 3.2363374], [1.67742962, 4.15289454, 3.23964647], [0.03772181, 0.02294794, 5.52612808]], "pbc": [true, true, true], "a": 5.528037335572969, "b": 5.527713129405199, "c": 5.526304470391078, "alpha": 53.754527539268636, "beta": 53.77428143539272, "gamma": 53.74900077422692, "volume": 101.98757516599755}, "properties": {}, "sites": [{"species": [{"element": "Pd", "occu": 1}], "abc": [0.500001, 0.5, 0.5], "properties": {"magmom": -0.181}, "label": "Pd", "xyz": [3.09839790163541, 2.09600006615762, 6.001059211337401]}, {"species": [{"element": "Pd", "occu": 1}], "abc": [0.999999, 0.0, 1e-06], "properties": {"magmom": -1.3860000000000001}, "label": "Pd", "xyz": [4.481630966086399, 0.016157626790320002, 3.2363396897906798]}, {"species": [{"element": "F", "occu": 1}], "abc": [0.7346464500000001, 0.10239387, 0.42254746], "properties": {"magmom": -0.068}, "label": "F", "xyz": [3.4801153095973265, 0.4467976755851512, 5.044335105246047]}, {"species": [{"element": "F", "occu": 1}], "abc": [0.10263277, 0.42251333, 0.73423773], "properties": {"magmom": -0.068}, "label": "F", "xyz": [1.1963958069911116, 1.7731608459052017, 5.758439827227502]}, {"species": [{"element": "F", "occu": 1}], "abc": [0.57731758, 0.26560167, 0.89763646], "properties": {"magmom": -0.068}, "label": "F", "xyz": [3.0667154897161657, 1.1329427108607337, 7.689304035710894]}, {"species": [{"element": "F", "occu": 1}], "abc": [0.8973672300000001, 0.57748667, 0.26576227], "properties": {"magmom": -0.068}, "label": "F", "xyz": [5.0003910330088885, 2.4188392540947983, 6.243672122772499]}, {"species": [{"element": "F", "occu": 1}], "abc": [0.26535355, 0.89760613, 0.57745154], "properties": {"magmom": -0.068}, "label": "F", "xyz": [2.7166714926808635, 3.7452024014669085, 6.957771318625875]}, {"species": [{"element": "F", "occu": 1}], "abc": [0.42268242, 0.73439833, 0.10236354], "properties": {"magmom": -0.068}, "label": "F", "xyz": [3.1300713502838344, 3.0590573891392663, 4.312807914289106]}]}, "task_ids": null, "uncorrected_energy_per_atom": null, "energy_per_atom": -9.53671028375, "formation_energy_per_atom": -1.452075918750001, "energy_above_hull": 0.0, "is_stable": true, "equilibrium_reaction_energy_per_atom": null, "decomposes_to": null, "xas": null, "grain_boundaries": null, "band_gap": 1.0487, "cbm": null, "vbm": null, "efermi": 0.91935012, "is_gap_direct": null, "is_metal": null, "es_source_calc_id": null, "bandstructure": null, "dos": null, "dos_energy_up": null, "dos_energy_down": null, "is_magnetic": null, "ordering": null, "total_magnetization": 2.0000699, "total_magnetization_normalized_vol": null, "total_magnetization_normalized_formula_units": null, "num_magnetic_sites": null, "num_unique_magnetic_sites": null, "types_of_magnetic_species": null, "bulk_modulus": null, "shear_modulus": null, "universal_anisotropy": null, "homogeneous_poisson": null, "e_total": null, "e_ionic": null, "e_electronic": null, "n": null, "e_ij_max": null, "weighted_surface_energy_EV_PER_ANG2": null, "weighted_surface_energy": null, "weighted_work_function": null, "surface_anisotropy": null, "shape_factor": null, "has_reconstructed": null, "possible_species": null, "has_props": null, "theoretical": null, "database_IDs": null, "fields_not_requested": ["builder_meta", "nsites", "elements", "nelements", "composition", "composition_reduced", "chemsys", "symmetry", "property_name", "deprecated", "deprecation_reasons", "last_updated", "origins", "warnings", "task_ids", "uncorrected_energy_per_atom", "equilibrium_reaction_energy_per_atom", "decomposes_to", "xas", "grain_boundaries", "cbm", "vbm", "is_gap_direct", "is_metal", "es_source_calc_id", "bandstructure", "dos", "dos_energy_up", "dos_energy_down", "is_magnetic", "ordering", "total_magnetization_normalized_vol", "total_magnetization_normalized_formula_units", "num_magnetic_sites", "num_unique_magnetic_sites", "types_of_magnetic_species", "bulk_modulus", "shear_modulus", "universal_anisotropy", "homogeneous_poisson", "e_total", "e_ionic", "e_electronic", "n", "e_ij_max", "weighted_surface_energy_EV_PER_ANG2", "weighted_surface_energy", "weighted_work_function", "surface_anisotropy", "shape_factor", "has_reconstructed", "possible_species", "has_props", "theoretical", "database_IDs"]}