{"builder_meta": null, "nsites": null, "elements": null, "nelements": null, "composition": null, "composition_reduced": null, "formula_pretty": "PdF4", "formula_anonymous": "AB4", "chemsys": null, "volume": 123.87576309118403, "density": 4.890463199182551, "density_atomic": 12.387576309118403, "symmetry": null, "property_name": null, "material_id": "mp-13868", "deprecated": null, "deprecation_reasons": null, "last_updated": null, "origins": null, "warnings": null, "structure": {"@module": "pymatgen.core.structure", "@class": "Structure", "charge": 0, "lattice": {"matrix": [[5.19880088, -0.02828415, -1.51508628], [-2.90792747, 4.30955737, -1.51508628], [0.03049209, 0.05698355, 5.50909026]], "pbc": [true, true, true], "a": 5.415146998824153, "b": 5.415146658396813, "c": 5.509469337908147, "alpha": 105.93271602411896, "beta": 105.93270404875292, "gamma": 116.19456822892523, "volume": 123.87576309118403}, "properties": {}, "sites": [{"species": [{"element": "Pd", "occu": 1}], "abc": [0.73969768, 0.23969768, 0.5], "properties": {"magmom": 0.0}, "label": "Pd", "xyz": [3.163763526550689, 1.0405609582801296, 1.2706766573683392]}, {"species": [{"element": "Pd", "occu": 1}], "abc": [0.98969768, 0.98969768, -0.0], "properties": {"magmom": 0.0}, "label": "Pd", "xyz": [2.267272099050689, 4.23716617328013, -2.998954752631661]}, {"species": [{"element": "F", "occu": 1}], "abc": [0.97117078, 0.74863568, 0.18518604], "properties": {"magmom": 0.0}, "label": "F", "xyz": [2.8775919561985805, 3.209372230141467, -1.5854485625493988]}, {"species": [{"element": "F", "occu": 1}], "abc": [0.56345065, 0.78598575, 0.8148139600000001], "properties": {"magmom": 0.0}, "label": "F", "xyz": [0.6685235622045961, 3.417744950955638, 2.4443710753754377]}, {"species": [{"element": "F", "occu": 1}], "abc": [0.01913268, 0.29580748, 0.31226028], "properties": {"magmom": -0.0}, "label": "F", "xyz": [-0.7511982347415321, 1.2920518532224996, 1.243108551695868]}, {"species": [{"element": "F", "occu": 1}], "abc": [0.9835472, 0.7068744100000001, 0.68773972], "properties": {"magmom": -0.0}, "label": "F", "xyz": [3.0786971556413083, 3.0576868774646284, 1.2276856041406168]}, {"species": [{"element": "F", "occu": 1}], "abc": [0.04580748, 0.26913268, 0.8122602800000001], "properties": {"magmom": -0.0}, "label": "F", "xyz": [-0.519706832350952, 1.2048325732448038, 3.9976536816958683]}, {"species": [{"element": "F", "occu": 1}], "abc": [0.45687441, 0.233547199999999, 0.18773972], "properties": {"magmom": -0.0}, "label": "F", "xyz": [1.7017853427747145, 1.0042608283808643, -0.01177324585938222]}, {"species": [{"element": "F", "occu": 1}], "abc": [0.53598575, 0.81345065, 0.31481396], "properties": {"magmom": 0.0}, "label": "F", "xyz": [0.4306270337446811, 3.5083915595182864, -0.3101740546245628]}, {"species": [{"element": "F", "occu": 1}], "abc": [0.49863568, 0.22117078, 0.68518604], "properties": {"magmom": 0.0}, "label": "F", "xyz": [1.9700517796584955, 0.9780890115788188, 2.684182847450602]}]}, "task_ids": null, "uncorrected_energy_per_atom": null, "energy_per_atom": -8.413561939000001, "formation_energy_per_atom": -1.320648856999999, "energy_above_hull": 0.0, "is_stable": true, "equilibrium_reaction_energy_per_atom": null, "decomposes_to": null, "xas": null, "grain_boundaries": null, "band_gap": 0.6178, "cbm": null, "vbm": null, "efermi": -2.03416089, "is_gap_direct": null, "is_metal": null, "es_source_calc_id": null, "bandstructure": null, "dos": null, "dos_energy_up": null, "dos_energy_down": null, "is_magnetic": null, "ordering": null, "total_magnetization": 0.0, "total_magnetization_normalized_vol": null, "total_magnetization_normalized_formula_units": null, "num_magnetic_sites": null, "num_unique_magnetic_sites": null, "types_of_magnetic_species": null, "bulk_modulus": null, "shear_modulus": null, "universal_anisotropy": null, "homogeneous_poisson": null, "e_total": null, "e_ionic": null, "e_electronic": null, "n": null, "e_ij_max": null, "weighted_surface_energy_EV_PER_ANG2": null, "weighted_surface_energy": null, "weighted_work_function": null, "surface_anisotropy": null, "shape_factor": null, "has_reconstructed": null, "possible_species": null, "has_props": null, "theoretical": null, "database_IDs": null, "fields_not_requested": ["builder_meta", "nsites", "elements", "nelements", "composition", "composition_reduced", "chemsys", "symmetry", "property_name", "deprecated", "deprecation_reasons", "last_updated", "origins", "warnings", "task_ids", "uncorrected_energy_per_atom", "equilibrium_reaction_energy_per_atom", "decomposes_to", "xas", "grain_boundaries", "cbm", "vbm", "is_gap_direct", "is_metal", "es_source_calc_id", "bandstructure", "dos", "dos_energy_up", "dos_energy_down", "is_magnetic", "ordering", "total_magnetization_normalized_vol", "total_magnetization_normalized_formula_units", "num_magnetic_sites", "num_unique_magnetic_sites", "types_of_magnetic_species", "bulk_modulus", "shear_modulus", "universal_anisotropy", "homogeneous_poisson", "e_total", "e_ionic", "e_electronic", "n", "e_ij_max", "weighted_surface_energy_EV_PER_ANG2", "weighted_surface_energy", "weighted_work_function", "surface_anisotropy", "shape_factor", "has_reconstructed", "possible_species", "has_props", "theoretical", "database_IDs"]}