{
  "builder_meta": null,
  "nsites": null,
  "elements": null,
  "nelements": null,
  "composition": null,
  "composition_reduced": null,
  "formula_pretty": "PdI2",
  "formula_anonymous": "AB2",
  "chemsys": null,
  "volume": 409.99532760531173,
  "density": 5.835912631333681,
  "density_atomic": 34.166277300442644,
  "symmetry": null,
  "property_name": null,
  "material_id": "mp-27747",
  "deprecated": null,
  "deprecation_reasons": null,
  "last_updated": null,
  "origins": null,
  "warnings": null,
  "structure": {
    "@module": "pymatgen.core.structure",
    "@class": "Structure",
    "charge": 0,
    "lattice": {
      "matrix": [
        [6.92550133, -0.08024789, 0.0],
        [-1.73681664, 6.79775063, 0.0],
        [0.0, 0.0, 8.73474268]
      ],
      "pbc": [true, true, true],
      "a": 6.925966242747739,
      "b": 7.016120414349107,
      "c": 8.73474268,
      "alpha": 90.0,
      "beta": 90.0,
      "gamma": 104.9962529228475,
      "volume": 409.99532760531173
    },
    "properties": {},
    "sites": [
      {
        "species": [{ "element": "Pd", "occu": 1 }],
        "abc": [0.76991401, 0.99731082, 0.37119097],
        "properties": { "magmom": 0.0 },
        "label": "Pd",
        "xyz": [3.599894472812589, 6.717686280176879, 3.2422576080895995]
      },
      {
        "species": [{ "element": "Pd", "occu": 1 }],
        "abc": [0.23008599000000002, 0.50268918, 0.87119097],
        "properties": { "magmom": 0.0 },
        "label": "Pd",
        "xyz": [0.7203818971874117, 3.398691774823122, 7.6096289480895996]
      },
      {
        "species": [{ "element": "Pd", "occu": 1 }],
        "abc": [0.23008599000000002, 0.00268918, 0.62880903],
        "properties": { "magmom": 0.0 },
        "label": "Pd",
        "xyz": [1.5887902171874118, -0.00018354017687769938, 5.492485071910401]
      },
      {
        "species": [{ "element": "Pd", "occu": 1 }],
        "abc": [0.76991401, 0.49731082, 0.12880903],
        "properties": { "magmom": 0.0 },
        "label": "Pd",
        "xyz": [4.468302792812589, 3.3188109651768776, 1.1251137319104003]
      },
      {
        "species": [{ "element": "I", "occu": 1 }],
        "abc": [0.98363691, 0.72486585, 0.91622358],
        "properties": { "magmom": -0.0 },
        "label": "I",
        "xyz": [5.553219658394346, 4.8485225019493665, 8.002977208648394]
      },
      {
        "species": [{ "element": "I", "occu": 1 }],
        "abc": [0.01636309, 0.77513415, 0.41622358],
        "properties": { "magmom": -0.0 },
        "label": "I",
        "xyz": [-1.2329432883943463, 5.267855553050635, 3.635605868648394]
      },
      {
        "species": [{ "element": "I", "occu": 1 }],
        "abc": [0.01636309, 0.27513415, 0.08377642],
        "properties": { "magmom": -0.0 },
        "label": "I",
        "xyz": [-0.3645349683943463, 1.8689802380506346, 0.7317654713516056]
      },
      {
        "species": [{ "element": "I", "occu": 1 }],
        "abc": [0.98363691, 0.22486585, 0.58377642],
        "properties": { "magmom": -0.0 },
        "label": "I",
        "xyz": [6.421627978394346, 1.4496471869493657, 5.099136811351605]
      },
      {
        "species": [{ "element": "I", "occu": 1 }],
        "abc": [0.44827942, 0.7484597900000001, 0.66869532],
        "properties": { "magmom": 0.0 },
        "label": "I",
        "xyz": [1.8046223017787228, 5.051869531416744, 5.8408815515202575]
      },
      {
        "species": [{ "element": "I", "occu": 1 }],
        "abc": [0.55172058, 0.75154021, 0.16869532],
        "properties": { "magmom": 0.0 },
        "label": "I",
        "xyz": [2.515654068221277, 5.064508523583257, 1.4735102115202576]
      },
      {
        "species": [{ "element": "I", "occu": 1 }],
        "abc": [0.55172058, 0.25154021, 0.33130468],
        "properties": { "magmom": 0.0 },
        "label": "I",
        "xyz": [3.3840623882212775, 1.6656332085832561, 2.8938611284797426]
      },
      {
        "species": [{ "element": "I", "occu": 1 }],
        "abc": [0.44827942, 0.24845979, 0.83130468],
        "properties": { "magmom": 0.0 },
        "label": "I",
        "xyz": [2.673030621778723, 1.6529942164167442, 7.261232468479743]
      }
    ]
  },
  "task_ids": null,
  "uncorrected_energy_per_atom": null,
  "energy_per_atom": -3.245639969999999,
  "formation_energy_per_atom": -0.503004289999998,
  "energy_above_hull": 0.0,
  "is_stable": true,
  "equilibrium_reaction_energy_per_atom": null,
  "decomposes_to": null,
  "xas": null,
  "grain_boundaries": null,
  "band_gap": 0.9294000000000001,
  "cbm": null,
  "vbm": null,
  "efermi": 1.96854934,
  "is_gap_direct": null,
  "is_metal": null,
  "es_source_calc_id": null,
  "bandstructure": null,
  "dos": null,
  "dos_energy_up": null,
  "dos_energy_down": null,
  "is_magnetic": null,
  "ordering": null,
  "total_magnetization": 0.0,
  "total_magnetization_normalized_vol": null,
  "total_magnetization_normalized_formula_units": null,
  "num_magnetic_sites": null,
  "num_unique_magnetic_sites": null,
  "types_of_magnetic_species": null,
  "bulk_modulus": null,
  "shear_modulus": null,
  "universal_anisotropy": null,
  "homogeneous_poisson": null,
  "e_total": null,
  "e_ionic": null,
  "e_electronic": null,
  "n": null,
  "e_ij_max": null,
  "weighted_surface_energy_EV_PER_ANG2": null,
  "weighted_surface_energy": null,
  "weighted_work_function": null,
  "surface_anisotropy": null,
  "shape_factor": null,
  "has_reconstructed": null,
  "possible_species": null,
  "has_props": null,
  "theoretical": null,
  "database_IDs": null,
  "fields_not_requested": [
    "builder_meta",
    "nsites",
    "elements",
    "nelements",
    "composition",
    "composition_reduced",
    "chemsys",
    "symmetry",
    "property_name",
    "deprecated",
    "deprecation_reasons",
    "last_updated",
    "origins",
    "warnings",
    "task_ids",
    "uncorrected_energy_per_atom",
    "equilibrium_reaction_energy_per_atom",
    "decomposes_to",
    "xas",
    "grain_boundaries",
    "cbm",
    "vbm",
    "is_gap_direct",
    "is_metal",
    "es_source_calc_id",
    "bandstructure",
    "dos",
    "dos_energy_up",
    "dos_energy_down",
    "is_magnetic",
    "ordering",
    "total_magnetization_normalized_vol",
    "total_magnetization_normalized_formula_units",
    "num_magnetic_sites",
    "num_unique_magnetic_sites",
    "types_of_magnetic_species",
    "bulk_modulus",
    "shear_modulus",
    "universal_anisotropy",
    "homogeneous_poisson",
    "e_total",
    "e_ionic",
    "e_electronic",
    "n",
    "e_ij_max",
    "weighted_surface_energy_EV_PER_ANG2",
    "weighted_surface_energy",
    "weighted_work_function",
    "surface_anisotropy",
    "shape_factor",
    "has_reconstructed",
    "possible_species",
    "has_props",
    "theoretical",
    "database_IDs"
  ]
}
