{"builder_meta": null, "nsites": null, "elements": null, "nelements": null, "composition": null, "composition_reduced": null, "formula_pretty": "PdO2", "formula_anonymous": "AB2", "chemsys": null, "volume": 64.3430838656573, "density": 7.144507572307173, "density_atomic": 10.723847310942885, "symmetry": null, "property_name": null, "material_id": "mp-1018886", "deprecated": null, "deprecation_reasons": null, "last_updated": null, "origins": null, "warnings": null, "structure": {"@module": "pymatgen.core.structure", "@class": "Structure", "charge": 0, "lattice": {"matrix": [[4.52223046, -5.059999999999996e-06, 0.0], [-5.059999999999996e-06, 4.52223046, 0.0], [0.0, 0.0, 3.14627363]], "pbc": [true, true, true], "a": 4.522230460002831, "b": 4.522230460002831, "c": 3.14627363, "alpha": 90.0, "beta": 90.0, "gamma": 90.00012821842978, "volume": 64.3430838656573}, "properties": {}, "sites": [{"species": [{"element": "Pd", "occu": 1}], "abc": [0.5, 0.5, 0.5], "properties": {"magmom": -0.0}, "label": "Pd", "xyz": [2.2611127, 2.2611127, 1.573136815]}, {"species": [{"element": "Pd", "occu": 1}], "abc": [-0.0, -0.0, 0.0], "properties": {"magmom": -0.0}, "label": "Pd", "xyz": [0.0, 0.0, 0.0]}, {"species": [{"element": "O", "occu": 1}], "abc": [0.19184808, 0.80815192, 0.5], "properties": {"magmom": -0.0}, "label": "O", "xyz": [0.8675771418198017, 3.654648258180199, 1.573136815]}, {"species": [{"element": "O", "occu": 1}], "abc": [0.80815192, 0.19184808, 0.5], "properties": {"magmom": -0.0}, "label": "O", "xyz": [3.654648258180199, 0.8675771418198017, 1.573136815]}, {"species": [{"element": "O", "occu": 1}], "abc": [0.30815292, 0.30815292, 0.0], "properties": {"magmom": -0.0}, "label": "O", "xyz": [1.3935369619081681, 1.3935369619081681, 0.0]}, {"species": [{"element": "O", "occu": 1}], "abc": [0.6918470800000001, 0.6918470800000001, -0.0], "properties": {"magmom": -0.0}, "label": "O", "xyz": [3.1286884380918325, 3.1286884380918325, 0.0]}]}, "task_ids": null, "uncorrected_energy_per_atom": null, "energy_per_atom": -5.7527946750000005, "formation_energy_per_atom": -0.7275267350000001, "energy_above_hull": 0.0, "is_stable": true, "equilibrium_reaction_energy_per_atom": null, "decomposes_to": null, "xas": null, "grain_boundaries": null, "band_gap": 0.0, "cbm": null, "vbm": null, "efermi": 2.48131596, "is_gap_direct": null, "is_metal": null, "es_source_calc_id": null, "bandstructure": null, "dos": null, "dos_energy_up": null, "dos_energy_down": null, "is_magnetic": null, "ordering": null, "total_magnetization": 0.00023789999999900002, "total_magnetization_normalized_vol": null, "total_magnetization_normalized_formula_units": null, "num_magnetic_sites": null, "num_unique_magnetic_sites": null, "types_of_magnetic_species": null, "bulk_modulus": null, "shear_modulus": null, "universal_anisotropy": null, "homogeneous_poisson": null, "e_total": null, "e_ionic": null, "e_electronic": null, "n": null, "e_ij_max": null, "weighted_surface_energy_EV_PER_ANG2": null, "weighted_surface_energy": null, "weighted_work_function": null, "surface_anisotropy": null, "shape_factor": null, "has_reconstructed": null, "possible_species": null, "has_props": null, "theoretical": null, "database_IDs": null, "fields_not_requested": ["builder_meta", "nsites", "elements", "nelements", "composition", "composition_reduced", "chemsys", "symmetry", "property_name", "deprecated", "deprecation_reasons", "last_updated", "origins", "warnings", "task_ids", "uncorrected_energy_per_atom", "equilibrium_reaction_energy_per_atom", "decomposes_to", "xas", "grain_boundaries", "cbm", "vbm", "is_gap_direct", "is_metal", "es_source_calc_id", "bandstructure", "dos", "dos_energy_up", "dos_energy_down", "is_magnetic", "ordering", "total_magnetization_normalized_vol", "total_magnetization_normalized_formula_units", "num_magnetic_sites", "num_unique_magnetic_sites", "types_of_magnetic_species", "bulk_modulus", "shear_modulus", "universal_anisotropy", "homogeneous_poisson", "e_total", "e_ionic", "e_electronic", "n", "e_ij_max", "weighted_surface_energy_EV_PER_ANG2", "weighted_surface_energy", "weighted_work_function", "surface_anisotropy", "shape_factor", "has_reconstructed", "possible_species", "has_props", "theoretical", "database_IDs"]}