{
  "builder_meta": null,
  "nsites": null,
  "elements": null,
  "nelements": null,
  "composition": null,
  "composition_reduced": null,
  "formula_pretty": "PdPb2",
  "formula_anonymous": "AB2",
  "chemsys": null,
  "volume": 142.18832821338725,
  "density": 12.164739082784793,
  "density_atomic": 23.698054702231207,
  "symmetry": null,
  "property_name": null,
  "material_id": "mp-20599",
  "deprecated": null,
  "deprecation_reasons": null,
  "last_updated": null,
  "origins": null,
  "warnings": null,
  "structure": {
    "@module": "pymatgen.core.structure",
    "@class": "Structure",
    "charge": 0,
    "lattice": {
      "matrix": [
        [5.5197799, -0.004105399999999, -1.52054079],
        [-3.20310212, 4.49915883, -1.52244753],
        [0.00334029, 0.00410541, 5.72538259]
      ],
      "pbc": [true, true, true],
      "a": 5.72538481613306,
      "b": 5.728886440689723,
      "c": 5.725385036292638,
      "alpha": 105.39739254341137,
      "beta": 105.36794675165483,
      "gamma": 117.97080566908419,
      "volume": 142.18832821338728
    },
    "properties": {},
    "sites": [
      {
        "species": [{ "element": "Pd", "occu": 1 }],
        "abc": [0.74993369, 0.75, 0.99993369],
        "properties": { "magmom": 0.0 },
        "label": "Pd",
        "xyz": [1.7404823869002006, 3.3753954824993375, 3.4428625269402415]
      },
      {
        "species": [{ "element": "Pd", "occu": 1 }],
        "abc": [0.25006631, 0.25, 6.631000000000002e-5],
        "properties": { "magmom": 0.0 },
        "label": "Pd",
        "xyz": [0.5795356830997989, 1.1237633575006634, -0.760468256940242]
      },
      {
        "species": [{ "element": "Pb", "occu": 1 }],
        "abc": [0.8371489, 0.6633006300000001, 0.49999334],
        "properties": { "magmom": -0.0 },
        "label": "Pb",
        "xyz": [2.4979281401304423, 2.9829107329729734, 0.5798937084073756]
      },
      {
        "species": [{ "element": "Pb", "occu": 1 }],
        "abc": [0.3366927, 0.83669937, 0.17384927],
        "properties": { "magmom": -0.0 },
        "label": "Pb",
        "xyz": [-0.8209832209348464, 3.7637748229119086, -0.79043228951208]
      },
      {
        "species": [{ "element": "Pb", "occu": 1 }],
        "abc": [0.1628511, 0.33669937, 0.50000666],
        "properties": { "magmom": -0.0 },
        "label": "Pb",
        "xyz": [-0.17791007013044302, 1.5162481070270277, 2.1025005615926244]
      },
      {
        "species": [{ "element": "Pb", "occu": 1 }],
        "abc": [0.663307299999999, 0.16330063, 0.82614973],
        "properties": { "magmom": -0.0 },
        "label": "Pb",
        "xyz": [3.1410012875945506, 0.7353840129826829, 3.4728208341294913]
      }
    ]
  },
  "task_ids": null,
  "uncorrected_energy_per_atom": null,
  "energy_per_atom": -45.38490246666667,
  "formation_energy_per_atom": -0.20799519000000002,
  "energy_above_hull": 0.0,
  "is_stable": true,
  "equilibrium_reaction_energy_per_atom": null,
  "decomposes_to": null,
  "xas": null,
  "grain_boundaries": null,
  "band_gap": 0.0,
  "cbm": null,
  "vbm": null,
  "efermi": 6.78273314,
  "is_gap_direct": null,
  "is_metal": null,
  "es_source_calc_id": null,
  "bandstructure": null,
  "dos": null,
  "dos_energy_up": null,
  "dos_energy_down": null,
  "is_magnetic": null,
  "ordering": null,
  "total_magnetization": 0.0,
  "total_magnetization_normalized_vol": null,
  "total_magnetization_normalized_formula_units": null,
  "num_magnetic_sites": null,
  "num_unique_magnetic_sites": null,
  "types_of_magnetic_species": null,
  "bulk_modulus": null,
  "shear_modulus": null,
  "universal_anisotropy": null,
  "homogeneous_poisson": null,
  "e_total": null,
  "e_ionic": null,
  "e_electronic": null,
  "n": null,
  "e_ij_max": null,
  "weighted_surface_energy_EV_PER_ANG2": null,
  "weighted_surface_energy": null,
  "weighted_work_function": null,
  "surface_anisotropy": null,
  "shape_factor": null,
  "has_reconstructed": null,
  "possible_species": null,
  "has_props": null,
  "theoretical": null,
  "database_IDs": null,
  "fields_not_requested": [
    "builder_meta",
    "nsites",
    "elements",
    "nelements",
    "composition",
    "composition_reduced",
    "chemsys",
    "symmetry",
    "property_name",
    "deprecated",
    "deprecation_reasons",
    "last_updated",
    "origins",
    "warnings",
    "task_ids",
    "uncorrected_energy_per_atom",
    "equilibrium_reaction_energy_per_atom",
    "decomposes_to",
    "xas",
    "grain_boundaries",
    "cbm",
    "vbm",
    "is_gap_direct",
    "is_metal",
    "es_source_calc_id",
    "bandstructure",
    "dos",
    "dos_energy_up",
    "dos_energy_down",
    "is_magnetic",
    "ordering",
    "total_magnetization_normalized_vol",
    "total_magnetization_normalized_formula_units",
    "num_magnetic_sites",
    "num_unique_magnetic_sites",
    "types_of_magnetic_species",
    "bulk_modulus",
    "shear_modulus",
    "universal_anisotropy",
    "homogeneous_poisson",
    "e_total",
    "e_ionic",
    "e_electronic",
    "n",
    "e_ij_max",
    "weighted_surface_energy_EV_PER_ANG2",
    "weighted_surface_energy",
    "weighted_work_function",
    "surface_anisotropy",
    "shape_factor",
    "has_reconstructed",
    "possible_species",
    "has_props",
    "theoretical",
    "database_IDs"
  ]
}
