{"builder_meta": null, "nsites": null, "elements": null, "nelements": null, "composition": null, "composition_reduced": null, "formula_pretty": "PdPb", "formula_anonymous": "AB", "chemsys": null, "volume": 671.0962341909492, "density": 12.416180822589165, "density_atomic": 20.971757318467162, "symmetry": null, "property_name": null, "material_id": "mp-1210215", "deprecated": null, "deprecation_reasons": null, "last_updated": null, "origins": null, "warnings": null, "structure": {"@module": "pymatgen.core.structure", "@class": "Structure", "charge": 0, "lattice": {"matrix": [[5.60530639, 0.02107627, -0.57461763], [-1.02428634, 5.5122679, -0.57428961], [0.013314340000000001, 0.00193417, 21.70300361]], "pbc": [true, true, true], "a": 5.634721763817514, "b": 5.635962070830051, "c": 21.703007780221068, "alpha": 95.84983912830988, "beta": 95.81791492586979, "gamma": 99.5984916231964, "volume": 671.0962341909492}, "properties": {}, "sites": [{"species": [{"element": "Pd", "occu": 1}], "abc": [0.47672101, 0.23723538, 0.29182433], "properties": {"magmom": -0.0}, "label": "Pd", "xyz": [2.4330558128514372, 1.318316908504091, 5.923290376680024]}, {"species": [{"element": "Pd", "occu": 1}], "abc": [0.52327899, 0.76276462, 0.70817567], "properties": {"magmom": -0.0}, "label": "Pd", "xyz": [2.161278577148563, 4.21696143149591, 14.630805993319978]}, {"species": [{"element": "Pd", "occu": 1}], "abc": [0.35778994000000003, 0.11833566000000001, 0.54218132], "properties": {"magmom": -0.0}, "label": "Pd", "xyz": [1.8915314233229612, 0.6608874082657423, 11.493411797843429]}, {"species": [{"element": "Pd", "occu": 1}], "abc": [0.64221006, 0.88166434, 0.45781868000000003], "properties": {"magmom": -0.0}, "label": "Pd", "xyz": [2.7028029666770395, 4.874390931734258, 9.06068457215657]}, {"species": [{"element": "Pd", "occu": 1}], "abc": [0.59439129, 0.35939352, 0.04433535], "properties": {"magmom": -0.0}, "label": "Pd", "xyz": [2.9642137187007456, 1.993686667181606, 0.4142665823108437]}, {"species": [{"element": "Pd", "occu": 1}], "abc": [0.40560871, 0.64060648, 0.95566565], "properties": {"magmom": -0.0}, "label": "Pd", "xyz": [1.6301206846135947, 3.5415916747525644, 20.139851490692767]}, {"species": [{"element": "Pd", "occu": 1}], "abc": [0.06786731, 0.80144811, 0.29367822], "properties": {"magmom": -0.0}, "label": "Pd", "xyz": [-0.43658515320503166, 4.419795103621181, 5.874438393484561]}, {"species": [{"element": "Pd", "occu": 1}], "abc": [0.93213269, 0.19855189, 0.70632178], "properties": {"magmom": -0.0}, "label": "Pd", "xyz": [5.030919543205031, 1.11548323637882, 14.679657976515438]}, {"species": [{"element": "Pd", "occu": 1}], "abc": [0.05250461, 0.316216599999999, 0.456113699999999], "properties": {"magmom": -0.0}, "label": "Pd", "xyz": [-0.023519065043327084, 1.7450594163988686, 9.687267295218636]}, {"species": [{"element": "Pd", "occu": 1}], "abc": [0.94749539, 0.683783399999999, 0.543886299999999], "properties": {"magmom": -0.0}, "label": "Pd", "xyz": [4.6178534550433294, 3.7902189236011212, 10.866829074781323]}, {"species": [{"element": "Pd", "occu": 1}], "abc": [0.76354203, 0.00122225, 0.20859137], "properties": {"magmom": 0.0}, "label": "Pd", "xyz": [4.281412342234753, 0.023233438591515998, 4.087612618965034]}, {"species": [{"element": "Pd", "occu": 1}], "abc": [0.23645797000000002, 0.99877775, 0.7914086300000001], "properties": {"magmom": 0.0}, "label": "Pd", "xyz": [0.31292204776524774, 5.512044901408484, 16.466483751034968]}, {"species": [{"element": "Pd", "occu": 1}], "abc": [0.172524899999999, 0.43552635, 0.20549127], "properties": {"magmom": -0.0}, "label": "Pd", "xyz": [0.5236872140248583, 2.404771555132984, 4.110523667793275]}, {"species": [{"element": "Pd", "occu": 1}], "abc": [0.827475099999999, 0.56447365, 0.79450873], "properties": {"magmom": -0.0}, "label": "Pd", "xyz": [4.07064717597513, 3.1305067848670163, 16.443572702206726]}, {"species": [{"element": "Pd", "occu": 1}], "abc": [0.18343762, 0.92128179, 0.041193020000000004], "properties": {"magmom": 0.0}, "label": "Pd", "xyz": [0.08511616863855011, 5.082297892982312, 0.2595232114303597]}, {"species": [{"element": "Pd", "occu": 1}], "abc": [0.81656238, 0.07871821, 0.95880698], "properties": {"magmom": 0.0}, "label": "Pd", "xyz": [4.50921822136145, 0.4529804470176882, 20.294573158569637]}, {"species": [{"element": "Pb", "occu": 1}], "abc": [0.43514784, 0.23324794000000001, 0.67970356], "properties": {"magmom": -0.0}, "label": "Pb", "xyz": [2.209274093668608, 1.2962110880035282, 14.367613327393528]}, {"species": [{"element": "Pb", "occu": 1}], "abc": [0.56485216, 0.7667520600000001, 0.32029644], "properties": {"magmom": -0.0}, "label": "Pb", "xyz": [2.3850602963313916, 4.239067251996472, 6.186483042606471]}, {"species": [{"element": "Pb", "occu": 1}], "abc": [0.31546062, 0.11196765, 0.92678043], "properties": {"magmom": -0.0}, "label": "Pb", "xyz": [1.6659059644128271, 0.6256369670392156, 19.868347926093506]}, {"species": [{"element": "Pb", "occu": 1}], "abc": [0.68453938, 0.88803235, 0.07321957], "properties": {"magmom": -0.0}, "label": "Pb", "xyz": [2.9284284255871733, 4.9096413729607855, 0.6857484439064947]}, {"species": [{"element": "Pb", "occu": 1}], "abc": [0.004005199999999, 0.29871915, 0.32254162000000003], "properties": {"magmom": 0.0}, "label": "Pb", "xyz": [-0.2792291428953578, 1.6473282466620445, 6.826269180550542]}, {"species": [{"element": "Pb", "occu": 1}], "abc": [0.9959948, 0.7012808500000001, 0.67745838], "properties": {"magmom": 0.0}, "label": "Pb", "xyz": [4.873563532895353, 3.887950093337956, 13.727827189449458]}, {"species": [{"element": "Pb", "occu": 1}], "abc": [0.55586088, 0.35347774, 0.42983483], "properties": {"magmom": 0.0}, "label": "Pb", "xyz": [2.759431089109414, 1.9610108471890046, 8.80630081227014]}, {"species": [{"element": "Pb", "occu": 1}], "abc": [0.44413912, 0.64652226, 0.57016517], "properties": {"magmom": 0.0}, "label": "Pb", "xyz": [1.8349033008905862, 3.574267492810996, 11.747795557729859]}, {"species": [{"element": "Pb", "occu": 1}], "abc": [0.11605216, 0.82062839, 0.4276388], "properties": {"magmom": 0.0}, "label": "Pb", "xyz": [-0.18435680769149815, 4.526796604821721, 8.74308244499246]}, {"species": [{"element": "Pb", "occu": 1}], "abc": [0.88394784, 0.17937161000000001, 0.572362199999999], "properties": {"magmom": 0.0}, "label": "Pb", "xyz": [4.778691211005839, 1.00848173711245, 11.81103562801113]}, {"species": [{"element": "Pb", "occu": 1}], "abc": [0.23488113, 0.93792986, 0.17684545000000002], "properties": {"magmom": 0.0}, "label": "Pb", "xyz": [0.35822653585206127, 5.175413127007306, 3.1644672280029984]}, {"species": [{"element": "Pb", "occu": 1}], "abc": [0.76511887, 0.06207014, 0.82315455], "properties": {"magmom": 0.0}, "label": "Pb", "xyz": [4.236107854147939, 0.3598652129926944, 17.389629141997002]}, {"species": [{"element": "Pb", "occu": 1}], "abc": [0.67472479, 0.47084175, 0.18055759], "properties": {"magmom": 0.0}, "label": "Pb", "xyz": [3.302166409194554, 2.609975775428409, 3.2605337428716346]}, {"species": [{"element": "Pb", "occu": 1}], "abc": [0.32527521, 0.52915825, 0.8194424100000001], "properties": {"magmom": 0.0}, "label": "Pb", "xyz": [1.2921679808054458, 2.9253025645715915, 17.293562627128367]}, {"species": [{"element": "Pb", "occu": 1}], "abc": [0.12047417, 0.41705714, 0.06966247], "properties": {"magmom": -0.0}, "label": "Pb", "xyz": [0.24903621324029857, 2.301604570482352, 1.2031466735715843]}, {"species": [{"element": "Pb", "occu": 1}], "abc": [0.8795258300000001, 0.5829428600000001, 0.93033753], "properties": {"magmom": -0.0}, "label": "Pb", "xyz": [4.345298176759702, 3.2336737695176483, 19.350949696428415]}]}, "task_ids": null, "uncorrected_energy_per_atom": null, "energy_per_atom": -39.8898588325, "formation_energy_per_atom": -0.267064972500001, "energy_above_hull": 0.0, "is_stable": true, "equilibrium_reaction_energy_per_atom": null, "decomposes_to": null, "xas": null, "grain_boundaries": null, "band_gap": 0.0, "cbm": null, "vbm": null, "efermi": 6.82869977, "is_gap_direct": null, "is_metal": null, "es_source_calc_id": null, "bandstructure": null, "dos": null, "dos_energy_up": null, "dos_energy_down": null, "is_magnetic": null, "ordering": null, "total_magnetization": 0.0, "total_magnetization_normalized_vol": null, "total_magnetization_normalized_formula_units": null, "num_magnetic_sites": null, "num_unique_magnetic_sites": null, "types_of_magnetic_species": null, "bulk_modulus": null, "shear_modulus": null, "universal_anisotropy": null, "homogeneous_poisson": null, "e_total": null, "e_ionic": null, "e_electronic": null, "n": null, "e_ij_max": null, "weighted_surface_energy_EV_PER_ANG2": null, "weighted_surface_energy": null, "weighted_work_function": null, "surface_anisotropy": null, "shape_factor": null, "has_reconstructed": null, "possible_species": null, "has_props": null, "theoretical": null, "database_IDs": null, "fields_not_requested": ["builder_meta", "nsites", "elements", "nelements", "composition", "composition_reduced", "chemsys", "symmetry", "property_name", "deprecated", "deprecation_reasons", "last_updated", "origins", "warnings", "task_ids", "uncorrected_energy_per_atom", "equilibrium_reaction_energy_per_atom", "decomposes_to", "xas", "grain_boundaries", "cbm", "vbm", "is_gap_direct", "is_metal", "es_source_calc_id", "bandstructure", "dos", "dos_energy_up", "dos_energy_down", "is_magnetic", "ordering", "total_magnetization_normalized_vol", "total_magnetization_normalized_formula_units", "num_magnetic_sites", "num_unique_magnetic_sites", "types_of_magnetic_species", "bulk_modulus", "shear_modulus", "universal_anisotropy", "homogeneous_poisson", "e_total", "e_ionic", "e_electronic", "n", "e_ij_max", "weighted_surface_energy_EV_PER_ANG2", "weighted_surface_energy", "weighted_work_function", "surface_anisotropy", "shape_factor", "has_reconstructed", "possible_species", "has_props", "theoretical", "database_IDs"]}