{"builder_meta": null, "nsites": null, "elements": null, "nelements": null, "composition": null, "composition_reduced": null, "formula_pretty": "PdPt3", "formula_anonymous": "AB3", "chemsys": null, "volume": 60.90582437580428, "density": 18.857775738926414, "density_atomic": 15.22645609395107, "symmetry": null, "property_name": null, "material_id": "mp-1186450", "deprecated": null, "deprecation_reasons": null, "last_updated": null, "origins": null, "warnings": null, "structure": {"@module": "pymatgen.core.structure", "@class": "Structure", "charge": 0, "lattice": {"matrix": [[-1.97193595, 1.97193595, 3.91573439], [1.97193595, -1.97193595, 3.91573439], [1.97193595, 1.97193595, -3.91573439]], "pbc": [true, true, true], "a": 4.807290150888906, "b": 4.807290150888906, "c": 4.807290150888906, "alpha": 131.56557998949012, "beta": 131.56557998949012, "gamma": 70.91601753121445, "volume": 60.90582437580428}, "properties": {}, "sites": [{"species": [{"element": "Pd", "occu": 1}], "abc": [-0.0, -0.0, -0.0], "properties": {"magmom": 0.28200000000000003}, "label": "Pd", "xyz": [0.0, 0.0, 0.0]}, {"species": [{"element": "Pt", "occu": 1}], "abc": [0.75, 0.25, 0.499998999999999], "properties": {"magmom": 0.35000000000000003}, "label": "Pt", "xyz": [-1.9719359520831148e-06, 1.9719339780640481, 1.9578711107343938]}, {"species": [{"element": "Pt", "occu": 1}], "abc": [0.25, 0.75, 0.499998999999999], "properties": {"magmom": 0.35000000000000003}, "label": "Pt", "xyz": [1.9719339780640481, -1.9719359520831148e-06, 1.9578711107343938]}, {"species": [{"element": "Pt", "occu": 1}], "abc": [0.5, 0.5, 0.0], "properties": {"magmom": 0.427}, "label": "Pt", "xyz": [0.0, 0.0, 3.91573439]}]}, "task_ids": null, "uncorrected_energy_per_atom": null, "energy_per_atom": -44.391205885, "formation_energy_per_atom": -0.035304807499997, "energy_above_hull": 0.0, "is_stable": true, "equilibrium_reaction_energy_per_atom": null, "decomposes_to": null, "xas": null, "grain_boundaries": null, "band_gap": 0.0, "cbm": null, "vbm": null, "efermi": 6.52724619, "is_gap_direct": null, "is_metal": null, "es_source_calc_id": null, "bandstructure": null, "dos": null, "dos_energy_up": null, "dos_energy_down": null, "is_magnetic": null, "ordering": null, "total_magnetization": 1.3932807, "total_magnetization_normalized_vol": null, "total_magnetization_normalized_formula_units": null, "num_magnetic_sites": null, "num_unique_magnetic_sites": null, "types_of_magnetic_species": null, "bulk_modulus": null, "shear_modulus": null, "universal_anisotropy": null, "homogeneous_poisson": null, "e_total": null, "e_ionic": null, "e_electronic": null, "n": null, "e_ij_max": null, "weighted_surface_energy_EV_PER_ANG2": null, "weighted_surface_energy": null, "weighted_work_function": null, "surface_anisotropy": null, "shape_factor": null, "has_reconstructed": null, "possible_species": null, "has_props": null, "theoretical": null, "database_IDs": null, "fields_not_requested": ["builder_meta", "nsites", "elements", "nelements", "composition", "composition_reduced", "chemsys", "symmetry", "property_name", "deprecated", "deprecation_reasons", "last_updated", "origins", "warnings", "task_ids", "uncorrected_energy_per_atom", "equilibrium_reaction_energy_per_atom", "decomposes_to", "xas", "grain_boundaries", "cbm", "vbm", "is_gap_direct", "is_metal", "es_source_calc_id", "bandstructure", "dos", "dos_energy_up", "dos_energy_down", "is_magnetic", "ordering", "total_magnetization_normalized_vol", "total_magnetization_normalized_formula_units", "num_magnetic_sites", "num_unique_magnetic_sites", "types_of_magnetic_species", "bulk_modulus", "shear_modulus", "universal_anisotropy", "homogeneous_poisson", "e_total", "e_ionic", "e_electronic", "n", "e_ij_max", "weighted_surface_energy_EV_PER_ANG2", "weighted_surface_energy", "weighted_work_function", "surface_anisotropy", "shape_factor", "has_reconstructed", "possible_species", "has_props", "theoretical", "database_IDs"]}