{
  "builder_meta": null,
  "nsites": null,
  "elements": null,
  "nelements": null,
  "composition": null,
  "composition_reduced": null,
  "formula_pretty": "PdS",
  "formula_anonymous": "AB",
  "chemsys": null,
  "volume": 277.9597996182735,
  "density": 6.618503911829215,
  "density_atomic": 17.372487476142094,
  "symmetry": null,
  "property_name": null,
  "material_id": "mp-20250",
  "deprecated": null,
  "deprecation_reasons": null,
  "last_updated": null,
  "origins": null,
  "warnings": null,
  "structure": {
    "@module": "pymatgen.core.structure",
    "@class": "Structure",
    "charge": 0,
    "lattice": {
      "matrix": [
        [6.47221786, -2.9300000000000004e-5, 0.0],
        [2.9300000000000004e-5, 6.47221786, 0.0],
        [0.0, 0.0, 6.6355318]
      ],
      "pbc": [true, true, true],
      "a": 6.472217860066321,
      "b": 6.472217860066321,
      "c": 6.6355318,
      "alpha": 90.0,
      "beta": 90.0,
      "gamma": 90.0,
      "volume": 277.9597996182735
    },
    "properties": {},
    "sites": [
      {
        "species": [{ "element": "Pd", "occu": 1 }],
        "abc": [0.53090766, 0.7425576700000001, 0.0],
        "properties": { "magmom": -0.0 },
        "label": "Pd",
        "xyz": [3.436171796002539, 4.805979458259548, 0.0]
      },
      {
        "species": [{ "element": "Pd", "occu": 1 }],
        "abc": [0.25744233, 0.53090766, 0.5],
        "properties": { "magmom": -0.0 },
        "label": "Pd",
        "xyz": [1.666238401740452, 3.436142496002539, 3.3177659]
      },
      {
        "species": [{ "element": "Pd", "occu": 1 }],
        "abc": [0.7425576700000001, 0.46909234, 0.5],
        "properties": { "magmom": -0.0 },
        "label": "Pd",
        "xyz": [4.806008758259549, 3.036046063997461, 3.3177659]
      },
      {
        "species": [{ "element": "Pd", "occu": 1 }],
        "abc": [0.46909234, 0.25744233, 0.0],
        "properties": { "magmom": -0.0 },
        "label": "Pd",
        "xyz": [3.036075363997461, 1.666209101740452, 0.0]
      },
      {
        "species": [{ "element": "Pd", "occu": 1 }],
        "abc": [0.0, 0.0, 0.75],
        "properties": { "magmom": 0.0 },
        "label": "Pd",
        "xyz": [0.0, 0.0, 4.97664885]
      },
      {
        "species": [{ "element": "Pd", "occu": 1 }],
        "abc": [0.0, 0.0, 0.25],
        "properties": { "magmom": 0.0 },
        "label": "Pd",
        "xyz": [0.0, 0.0, 1.65888295]
      },
      {
        "species": [{ "element": "Pd", "occu": 1 }],
        "abc": [0.5, 0.0, 0.5],
        "properties": { "magmom": -0.0 },
        "label": "Pd",
        "xyz": [3.23610893, -1.4650000000000002e-5, 3.3177659]
      },
      {
        "species": [{ "element": "Pd", "occu": 1 }],
        "abc": [0.0, 0.5, 0.0],
        "properties": { "magmom": -0.0 },
        "label": "Pd",
        "xyz": [1.4650000000000002e-5, 3.23610893, 0.0]
      },
      {
        "species": [{ "element": "S", "occu": 1 }],
        "abc": [0.19352726, 0.30752983, 0.7715631],
        "properties": { "magmom": 0.0 },
        "label": "S",
        "xyz": [1.2525595991928826, 1.9903943878600459, 5.11973148575658]
      },
      {
        "species": [{ "element": "S", "occu": 1 }],
        "abc": [0.69247017, 0.19352726, 0.2715631],
        "properties": { "magmom": 0.0 },
        "label": "S",
        "xyz": [4.481823472139954, 1.2525302991928826, 1.80196558575658]
      },
      {
        "species": [{ "element": "S", "occu": 1 }],
        "abc": [0.30752983, 0.80647274, 0.2715631],
        "properties": { "magmom": 0.0 },
        "label": "S",
        "xyz": [1.9904236878600459, 5.219658260807117, 1.80196558575658]
      },
      {
        "species": [{ "element": "S", "occu": 1 }],
        "abc": [0.80647274, 0.69247017, 0.7715631],
        "properties": { "magmom": 0.0 },
        "label": "S",
        "xyz": [5.219687560807118, 4.481794172139955, 5.11973148575658]
      },
      {
        "species": [{ "element": "S", "occu": 1 }],
        "abc": [0.80647274, 0.69247017, 0.2284369],
        "properties": { "magmom": 0.0 },
        "label": "S",
        "xyz": [5.219687560807118, 4.481794172139955, 1.51580031424342]
      },
      {
        "species": [{ "element": "S", "occu": 1 }],
        "abc": [0.30752983, 0.80647274, 0.728436899999999],
        "properties": { "magmom": 0.0 },
        "label": "S",
        "xyz": [1.9904236878600459, 5.219658260807117, 4.8335662142434135]
      },
      {
        "species": [{ "element": "S", "occu": 1 }],
        "abc": [0.69247017, 0.19352726, 0.728436899999999],
        "properties": { "magmom": 0.0 },
        "label": "S",
        "xyz": [4.481823472139954, 1.2525302991928826, 4.8335662142434135]
      },
      {
        "species": [{ "element": "S", "occu": 1 }],
        "abc": [0.19352726, 0.30752983, 0.2284369],
        "properties": { "magmom": 0.0 },
        "label": "S",
        "xyz": [1.2525595991928826, 1.9903943878600459, 1.51580031424342]
      }
    ]
  },
  "task_ids": null,
  "uncorrected_energy_per_atom": null,
  "energy_per_atom": -15.95477110875,
  "formation_energy_per_atom": -0.45704476265624905,
  "energy_above_hull": 0.0,
  "is_stable": true,
  "equilibrium_reaction_energy_per_atom": null,
  "decomposes_to": null,
  "xas": null,
  "grain_boundaries": null,
  "band_gap": 0.0,
  "cbm": null,
  "vbm": null,
  "efermi": 4.05832301,
  "is_gap_direct": null,
  "is_metal": null,
  "es_source_calc_id": null,
  "bandstructure": null,
  "dos": null,
  "dos_energy_up": null,
  "dos_energy_down": null,
  "is_magnetic": null,
  "ordering": null,
  "total_magnetization": 0.0,
  "total_magnetization_normalized_vol": null,
  "total_magnetization_normalized_formula_units": null,
  "num_magnetic_sites": null,
  "num_unique_magnetic_sites": null,
  "types_of_magnetic_species": null,
  "bulk_modulus": null,
  "shear_modulus": null,
  "universal_anisotropy": null,
  "homogeneous_poisson": null,
  "e_total": null,
  "e_ionic": null,
  "e_electronic": null,
  "n": null,
  "e_ij_max": null,
  "weighted_surface_energy_EV_PER_ANG2": null,
  "weighted_surface_energy": null,
  "weighted_work_function": null,
  "surface_anisotropy": null,
  "shape_factor": null,
  "has_reconstructed": null,
  "possible_species": null,
  "has_props": null,
  "theoretical": null,
  "database_IDs": null,
  "fields_not_requested": [
    "builder_meta",
    "nsites",
    "elements",
    "nelements",
    "composition",
    "composition_reduced",
    "chemsys",
    "symmetry",
    "property_name",
    "deprecated",
    "deprecation_reasons",
    "last_updated",
    "origins",
    "warnings",
    "task_ids",
    "uncorrected_energy_per_atom",
    "equilibrium_reaction_energy_per_atom",
    "decomposes_to",
    "xas",
    "grain_boundaries",
    "cbm",
    "vbm",
    "is_gap_direct",
    "is_metal",
    "es_source_calc_id",
    "bandstructure",
    "dos",
    "dos_energy_up",
    "dos_energy_down",
    "is_magnetic",
    "ordering",
    "total_magnetization_normalized_vol",
    "total_magnetization_normalized_formula_units",
    "num_magnetic_sites",
    "num_unique_magnetic_sites",
    "types_of_magnetic_species",
    "bulk_modulus",
    "shear_modulus",
    "universal_anisotropy",
    "homogeneous_poisson",
    "e_total",
    "e_ionic",
    "e_electronic",
    "n",
    "e_ij_max",
    "weighted_surface_energy_EV_PER_ANG2",
    "weighted_surface_energy",
    "weighted_work_function",
    "surface_anisotropy",
    "shape_factor",
    "has_reconstructed",
    "possible_species",
    "has_props",
    "theoretical",
    "database_IDs"
  ]
}
