{
  "builder_meta": null,
  "nsites": null,
  "elements": null,
  "nelements": null,
  "composition": null,
  "composition_reduced": null,
  "formula_pretty": "PdS2",
  "formula_anonymous": "AB2",
  "chemsys": null,
  "volume": 240.46269291447265,
  "density": 4.711000020437429,
  "density_atomic": 20.038557742872722,
  "symmetry": null,
  "property_name": null,
  "material_id": "mp-13682",
  "deprecated": null,
  "deprecation_reasons": null,
  "last_updated": null,
  "origins": null,
  "warnings": null,
  "structure": {
    "@module": "pymatgen.core.structure",
    "@class": "Structure",
    "charge": 0,
    "lattice": {
      "matrix": [
        [5.48297086, -0.0, 0.0],
        [-0.0, 5.56536307, 0.0],
        [0.0, 0.0, 7.88021863]
      ],
      "pbc": [true, true, true],
      "a": 5.48297086,
      "b": 5.56536307,
      "c": 7.88021863,
      "alpha": 90.0,
      "beta": 90.0,
      "gamma": 90.0,
      "volume": 240.46269291447265
    },
    "properties": {},
    "sites": [
      {
        "species": [{ "element": "Pd", "occu": 1 }],
        "abc": [0.5, 0.0, 0.5],
        "properties": { "magmom": 0.0 },
        "label": "Pd",
        "xyz": [2.74148543, 0.0, 3.940109315]
      },
      {
        "species": [{ "element": "Pd", "occu": 1 }],
        "abc": [-0.0, 0.5, 0.5],
        "properties": { "magmom": 0.0 },
        "label": "Pd",
        "xyz": [0.0, 2.782681535, 3.940109315]
      },
      {
        "species": [{ "element": "Pd", "occu": 1 }],
        "abc": [0.5, 0.5, -0.0],
        "properties": { "magmom": 0.0 },
        "label": "Pd",
        "xyz": [2.74148543, 2.782681535, 0.0]
      },
      {
        "species": [{ "element": "Pd", "occu": 1 }],
        "abc": [-0.0, 0.0, -0.0],
        "properties": { "magmom": 0.0 },
        "label": "Pd",
        "xyz": [0.0, 0.0, 0.0]
      },
      {
        "species": [{ "element": "S", "occu": 1 }],
        "abc": [0.60477143, 0.11041335000000001, 0.078295999999999],
        "properties": { "magmom": -0.0 },
        "label": "S",
        "xyz": [3.3159441276505297, 0.6144903805249845, 0.6169895978544722]
      },
      {
        "species": [{ "element": "S", "occu": 1 }],
        "abc": [0.10477143, 0.38958665000000003, 0.921704],
        "properties": { "magmom": -0.0 },
        "label": "S",
        "xyz": [0.5744586976505298, 2.1681911544750156, 7.26322903214552]
      },
      {
        "species": [{ "element": "S", "occu": 1 }],
        "abc": [0.39522857, 0.61041335, 0.421703999999999],
        "properties": { "magmom": -0.0 },
        "label": "S",
        "xyz": [2.1670267323494703, 3.3971719155249844, 3.3231197171455125]
      },
      {
        "species": [{ "element": "S", "occu": 1 }],
        "abc": [0.89522857, 0.88958665, 0.578295999999999],
        "properties": { "magmom": -0.0 },
        "label": "S",
        "xyz": [4.90851216234947, 4.950872689475016, 4.557098912854472]
      },
      {
        "species": [{ "element": "S", "occu": 1 }],
        "abc": [0.10477143, 0.11041335000000001, 0.421703999999999],
        "properties": { "magmom": -0.0 },
        "label": "S",
        "xyz": [0.5744586976505298, 0.6144903805249845, 3.3231197171455125]
      },
      {
        "species": [{ "element": "S", "occu": 1 }],
        "abc": [0.60477143, 0.38958665000000003, 0.578295999999999],
        "properties": { "magmom": -0.0 },
        "label": "S",
        "xyz": [3.3159441276505297, 2.1681911544750156, 4.557098912854472]
      },
      {
        "species": [{ "element": "S", "occu": 1 }],
        "abc": [0.89522857, 0.61041335, 0.078295999999999],
        "properties": { "magmom": -0.0 },
        "label": "S",
        "xyz": [4.90851216234947, 3.3971719155249844, 0.6169895978544722]
      },
      {
        "species": [{ "element": "S", "occu": 1 }],
        "abc": [0.39522857, 0.88958665, 0.921704],
        "properties": { "magmom": -0.0 },
        "label": "S",
        "xyz": [2.1670267323494703, 4.950872689475016, 7.26322903214552]
      }
    ]
  },
  "task_ids": null,
  "uncorrected_energy_per_atom": null,
  "energy_per_atom": -13.347824451666668,
  "formation_energy_per_atom": -0.337673860208333,
  "energy_above_hull": 0.0,
  "is_stable": true,
  "equilibrium_reaction_energy_per_atom": null,
  "decomposes_to": null,
  "xas": null,
  "grain_boundaries": null,
  "band_gap": 0.42099999999999904,
  "cbm": null,
  "vbm": null,
  "efermi": 3.08151392,
  "is_gap_direct": null,
  "is_metal": null,
  "es_source_calc_id": null,
  "bandstructure": null,
  "dos": null,
  "dos_energy_up": null,
  "dos_energy_down": null,
  "is_magnetic": null,
  "ordering": null,
  "total_magnetization": 0.0,
  "total_magnetization_normalized_vol": null,
  "total_magnetization_normalized_formula_units": null,
  "num_magnetic_sites": null,
  "num_unique_magnetic_sites": null,
  "types_of_magnetic_species": null,
  "bulk_modulus": null,
  "shear_modulus": null,
  "universal_anisotropy": null,
  "homogeneous_poisson": null,
  "e_total": null,
  "e_ionic": null,
  "e_electronic": null,
  "n": null,
  "e_ij_max": null,
  "weighted_surface_energy_EV_PER_ANG2": null,
  "weighted_surface_energy": null,
  "weighted_work_function": null,
  "surface_anisotropy": null,
  "shape_factor": null,
  "has_reconstructed": null,
  "possible_species": null,
  "has_props": null,
  "theoretical": null,
  "database_IDs": null,
  "fields_not_requested": [
    "builder_meta",
    "nsites",
    "elements",
    "nelements",
    "composition",
    "composition_reduced",
    "chemsys",
    "symmetry",
    "property_name",
    "deprecated",
    "deprecation_reasons",
    "last_updated",
    "origins",
    "warnings",
    "task_ids",
    "uncorrected_energy_per_atom",
    "equilibrium_reaction_energy_per_atom",
    "decomposes_to",
    "xas",
    "grain_boundaries",
    "cbm",
    "vbm",
    "is_gap_direct",
    "is_metal",
    "es_source_calc_id",
    "bandstructure",
    "dos",
    "dos_energy_up",
    "dos_energy_down",
    "is_magnetic",
    "ordering",
    "total_magnetization_normalized_vol",
    "total_magnetization_normalized_formula_units",
    "num_magnetic_sites",
    "num_unique_magnetic_sites",
    "types_of_magnetic_species",
    "bulk_modulus",
    "shear_modulus",
    "universal_anisotropy",
    "homogeneous_poisson",
    "e_total",
    "e_ionic",
    "e_electronic",
    "n",
    "e_ij_max",
    "weighted_surface_energy_EV_PER_ANG2",
    "weighted_surface_energy",
    "weighted_work_function",
    "surface_anisotropy",
    "shape_factor",
    "has_reconstructed",
    "possible_species",
    "has_props",
    "theoretical",
    "database_IDs"
  ]
}
