{"builder_meta": null, "nsites": null, "elements": null, "nelements": null, "composition": null, "composition_reduced": null, "formula_pretty": "PdSe2", "formula_anonymous": "AB2", "chemsys": null, "volume": 276.089714769685, "density": 6.359482057942142, "density_atomic": 23.007476230807082, "symmetry": null, "property_name": null, "material_id": "mp-2418", "deprecated": null, "deprecation_reasons": null, "last_updated": null, "origins": null, "warnings": null, "structure": {"@module": "pymatgen.core.structure", "@class": "Structure", "charge": 0, "lattice": {"matrix": [[5.75505548, 0.0, 0.0], [0.0, 5.90093471, 0.0], [0.0, 0.0, 8.12980079]], "pbc": [true, true, true], "a": 5.75505548, "b": 5.90093471, "c": 8.12980079, "alpha": 90.0, "beta": 90.0, "gamma": 90.0, "volume": 276.089714769685}, "properties": {}, "sites": [{"species": [{"element": "Pd", "occu": 1}], "abc": [0.5, -0.0, 0.5], "properties": {"magmom": 0.0}, "label": "Pd", "xyz": [2.87752774, 0.0, 4.064900395]}, {"species": [{"element": "Pd", "occu": 1}], "abc": [-0.0, 0.5, 0.5], "properties": {"magmom": 0.0}, "label": "Pd", "xyz": [0.0, 2.950467355, 4.064900395]}, {"species": [{"element": "Pd", "occu": 1}], "abc": [0.5, 0.5, -0.0], "properties": {"magmom": 0.0}, "label": "Pd", "xyz": [2.87752774, 2.950467355, 0.0]}, {"species": [{"element": "Pd", "occu": 1}], "abc": [-0.0, -0.0, -0.0], "properties": {"magmom": 0.0}, "label": "Pd", "xyz": [0.0, 0.0, 0.0]}, {"species": [{"element": "Se", "occu": 1}], "abc": [0.61050519, 0.11863445, 0.08994743000000001], "properties": {"magmom": -0.0}, "label": "Se", "xyz": [3.5134912392779416, 0.7000541438067595, 0.7312546874724698]}, {"species": [{"element": "Se", "occu": 1}], "abc": [0.11050519, 0.38136555, 0.9100525700000001], "properties": {"magmom": -0.0}, "label": "Se", "xyz": [0.6359634992779413, 2.2504132111932402, 7.398546102527532]}, {"species": [{"element": "Se", "occu": 1}], "abc": [0.38949481, 0.6186344500000001, 0.41005257], "properties": {"magmom": -0.0}, "label": "Se", "xyz": [2.241564240722059, 3.65052149880676, 3.3336457075275305]}, {"species": [{"element": "Se", "occu": 1}], "abc": [0.88949481, 0.88136555, 0.58994743], "properties": {"magmom": -0.0}, "label": "Se", "xyz": [5.119091980722059, 5.2008805661932405, 4.79615508247247]}, {"species": [{"element": "Se", "occu": 1}], "abc": [0.11050519, 0.11863445, 0.41005257], "properties": {"magmom": -0.0}, "label": "Se", "xyz": [0.6359634992779413, 0.7000541438067595, 3.3336457075275305]}, {"species": [{"element": "Se", "occu": 1}], "abc": [0.61050519, 0.38136555, 0.58994743], "properties": {"magmom": -0.0}, "label": "Se", "xyz": [3.5134912392779416, 2.2504132111932402, 4.79615508247247]}, {"species": [{"element": "Se", "occu": 1}], "abc": [0.88949481, 0.6186344500000001, 0.08994743000000001], "properties": {"magmom": -0.0}, "label": "Se", "xyz": [5.119091980722059, 3.65052149880676, 0.7312546874724698]}, {"species": [{"element": "Se", "occu": 1}], "abc": [0.38949481, 0.88136555, 0.9100525700000001], "properties": {"magmom": -0.0}, "label": "Se", "xyz": [2.241564240722059, 5.2008805661932405, 7.398546102527532]}]}, "task_ids": null, "uncorrected_energy_per_atom": null, "energy_per_atom": -17.520652720833333, "formation_energy_per_atom": -0.32612803020833003, "energy_above_hull": 0.0, "is_stable": true, "equilibrium_reaction_energy_per_atom": null, "decomposes_to": null, "xas": null, "grain_boundaries": null, "band_gap": 0.4001, "cbm": null, "vbm": null, "efermi": 2.65838362, "is_gap_direct": null, "is_metal": null, "es_source_calc_id": null, "bandstructure": null, "dos": null, "dos_energy_up": null, "dos_energy_down": null, "is_magnetic": null, "ordering": null, "total_magnetization": 0.0, "total_magnetization_normalized_vol": null, "total_magnetization_normalized_formula_units": null, "num_magnetic_sites": null, "num_unique_magnetic_sites": null, "types_of_magnetic_species": null, "bulk_modulus": null, "shear_modulus": null, "universal_anisotropy": null, "homogeneous_poisson": null, "e_total": null, "e_ionic": null, "e_electronic": null, "n": null, "e_ij_max": null, "weighted_surface_energy_EV_PER_ANG2": null, "weighted_surface_energy": null, "weighted_work_function": null, "surface_anisotropy": null, "shape_factor": null, "has_reconstructed": null, "possible_species": null, "has_props": null, "theoretical": null, "database_IDs": null, "fields_not_requested": ["builder_meta", "nsites", "elements", "nelements", "composition", "composition_reduced", "chemsys", "symmetry", "property_name", "deprecated", "deprecation_reasons", "last_updated", "origins", "warnings", "task_ids", "uncorrected_energy_per_atom", "equilibrium_reaction_energy_per_atom", "decomposes_to", "xas", "grain_boundaries", "cbm", "vbm", "is_gap_direct", "is_metal", "es_source_calc_id", "bandstructure", "dos", "dos_energy_up", "dos_energy_down", "is_magnetic", "ordering", "total_magnetization_normalized_vol", "total_magnetization_normalized_formula_units", "num_magnetic_sites", "num_unique_magnetic_sites", "types_of_magnetic_species", "bulk_modulus", "shear_modulus", "universal_anisotropy", "homogeneous_poisson", "e_total", "e_ionic", "e_electronic", "n", "e_ij_max", "weighted_surface_energy_EV_PER_ANG2", "weighted_surface_energy", "weighted_work_function", "surface_anisotropy", "shape_factor", "has_reconstructed", "possible_species", "has_props", "theoretical", "database_IDs"]}