{"builder_meta": null, "nsites": null, "elements": null, "nelements": null, "composition": null, "composition_reduced": null, "formula_pretty": "PF5", "formula_anonymous": "AB5", "chemsys": null, "volume": 154.78908665122964, "density": 2.702659469720453, "density_atomic": 12.899090554269137, "symmetry": null, "property_name": null, "material_id": "mp-8511", "deprecated": null, "deprecation_reasons": null, "last_updated": null, "origins": null, "warnings": null, "structure": {"@module": "pymatgen.core.structure", "@class": "Structure", "charge": 0, "lattice": {"matrix": [[5.44664421, 2.3130000000000004e-05, 0.0], [-2.72330255, 4.71694467, 0.0], [0.0, 0.0, 6.02489502]], "pbc": [true, true, true], "a": 5.446644210049112, "b": 5.44664518751478, "c": 6.02489502, "alpha": 90.0, "beta": 90.0, "gamma": 119.99951321699604, "volume": 154.78908665122964}, "properties": {}, "sites": [{"species": [{"element": "P", "occu": 1}], "abc": [0.6666703900000001, 0.33332908, 0.75], "properties": {"magmom": 0.0}, "label": "P", "xyz": [2.7233604861187883, 1.5723102473481243, 4.518671265]}, {"species": [{"element": "P", "occu": 1}], "abc": [0.33332949, 0.66667094, 0.25], "properties": {"magmom": -0.0}, "label": "P", "xyz": [-1.953418214428737e-05, 3.144657646987994, 1.506223755]}, {"species": [{"element": "F", "occu": 1}], "abc": [0.82961583, 0.65923955, 0.75], "properties": {"magmom": -0.0}, "label": "F", "xyz": [2.723313509417992, 3.1096156706398466, 4.518671265]}, {"species": [{"element": "F", "occu": 1}], "abc": [0.17042181, 0.82957913, 0.25], "properties": {"magmom": 0.0}, "label": "F", "xyz": [-1.3309679954615619, 3.9130827974532028, 1.506223755]}, {"species": [{"element": "F", "occu": 1}], "abc": [0.33333689, 0.66666256, 0.51494593], "properties": {"magmom": 0.0}, "label": "F", "xyz": [4.35922603787553e-05, 3.144618119162821, 3.1024951692262683]}, {"species": [{"element": "F", "occu": 1}], "abc": [0.666662699999999, 0.33333698, 0.01494593], "properties": {"magmom": -0.0}, "label": "F", "xyz": [2.7232970873346622, 1.5723475110331475, 0.09004765922626859]}, {"species": [{"element": "F", "occu": 1}], "abc": [0.666662699999999, 0.33333698, 0.48505407], "properties": {"magmom": -0.0}, "label": "F", "xyz": [2.7232970873346622, 1.5723475110331475, 2.9223998507737314]}, {"species": [{"element": "F", "occu": 1}], "abc": [0.33333689, 0.66666256, 0.98505407], "properties": {"magmom": 0.0}, "label": "F", "xyz": [4.35922603787553e-05, 3.144618119162821, 5.934847360773731]}, {"species": [{"element": "F", "occu": 1}], "abc": [0.17038364, 0.34075874, 0.25], "properties": {"magmom": 0.0}, "label": "F", "xyz": [2.9920707937280966e-05, 1.6073440633725091, 1.506223755]}, {"species": [{"element": "F", "occu": 1}], "abc": [0.8295793100000001, 0.17042191, 0.75], "properties": {"magmom": -0.0}, "label": "F", "xyz": [4.054312923468425, 0.8038899081951602, 4.518671265]}, {"species": [{"element": "F", "occu": 1}], "abc": [0.34075902, 0.17038388000000002, 0.75], "properties": {"magmom": -0.0}, "label": "F", "xyz": [1.3919862884053802, 0.8036992163760523, 4.518671265]}, {"species": [{"element": "F", "occu": 1}], "abc": [0.6592393400000001, 0.82961568, 0.25], "properties": {"magmom": -0.0}, "label": "F", "xyz": [1.3313476373512376, 3.91326650813036, 1.506223755]}]}, "task_ids": null, "uncorrected_energy_per_atom": null, "energy_per_atom": -6.832201293333333, "formation_energy_per_atom": -2.726831949662697, "energy_above_hull": 0.0, "is_stable": true, "equilibrium_reaction_energy_per_atom": null, "decomposes_to": null, "xas": null, "grain_boundaries": null, "band_gap": 7.1089, "cbm": null, "vbm": null, "efermi": -3.88758403, "is_gap_direct": null, "is_metal": null, "es_source_calc_id": null, "bandstructure": null, "dos": null, "dos_energy_up": null, "dos_energy_down": null, "is_magnetic": null, "ordering": null, "total_magnetization": 0.0, "total_magnetization_normalized_vol": null, "total_magnetization_normalized_formula_units": null, "num_magnetic_sites": null, "num_unique_magnetic_sites": null, "types_of_magnetic_species": null, "bulk_modulus": null, "shear_modulus": null, "universal_anisotropy": null, "homogeneous_poisson": null, "e_total": null, "e_ionic": null, "e_electronic": null, "n": null, "e_ij_max": null, "weighted_surface_energy_EV_PER_ANG2": null, "weighted_surface_energy": null, "weighted_work_function": null, "surface_anisotropy": null, "shape_factor": null, "has_reconstructed": null, "possible_species": null, "has_props": null, "theoretical": null, "database_IDs": null, "fields_not_requested": ["builder_meta", "nsites", "elements", "nelements", "composition", "composition_reduced", "chemsys", "symmetry", "property_name", "deprecated", "deprecation_reasons", "last_updated", "origins", "warnings", "task_ids", "uncorrected_energy_per_atom", "equilibrium_reaction_energy_per_atom", "decomposes_to", "xas", "grain_boundaries", "cbm", "vbm", "is_gap_direct", "is_metal", "es_source_calc_id", "bandstructure", "dos", "dos_energy_up", "dos_energy_down", "is_magnetic", "ordering", "total_magnetization_normalized_vol", "total_magnetization_normalized_formula_units", "num_magnetic_sites", "num_unique_magnetic_sites", "types_of_magnetic_species", "bulk_modulus", "shear_modulus", "universal_anisotropy", "homogeneous_poisson", "e_total", "e_ionic", "e_electronic", "n", "e_ij_max", "weighted_surface_energy_EV_PER_ANG2", "weighted_surface_energy", "weighted_work_function", "surface_anisotropy", "shape_factor", "has_reconstructed", "possible_species", "has_props", "theoretical", "database_IDs"]}