{
  "builder_meta": null,
  "nsites": null,
  "elements": null,
  "nelements": null,
  "composition": null,
  "composition_reduced": null,
  "formula_pretty": "PH3",
  "formula_anonymous": "AB3",
  "chemsys": null,
  "volume": 395.6718034297767,
  "density": 0.5707185863796971,
  "density_atomic": 24.729487714361042,
  "symmetry": null,
  "property_name": null,
  "material_id": "mp-696588",
  "deprecated": null,
  "deprecation_reasons": null,
  "last_updated": null,
  "origins": null,
  "warnings": null,
  "structure": {
    "@module": "pymatgen.core.structure",
    "@class": "Structure",
    "charge": 0,
    "lattice": {
      "matrix": [
        [7.318538, 0.0, 0.0],
        [-0.740834, 7.337551, 0.0],
        [-0.591337999999999, -2.581199, 7.36817]
      ],
      "pbc": [true, true, true],
      "a": 7.318538,
      "b": 7.374855232013507,
      "c": 7.8295720225785645,
      "alpha": 108.68823978477572,
      "beta": 94.33145840153487,
      "gamma": 95.76531669081801,
      "volume": 395.6718034297767
    },
    "properties": {},
    "sites": [
      {
        "species": [{ "element": "P", "occu": 1 }],
        "abc": [0.760146, 0.323984, 0.186370999999999],
        "properties": { "magmom": 0.41000000000000003 },
        "label": "P",
        "xyz": [5.212930769494, 1.8961884843550028, 1.3732132110699928]
      },
      {
        "species": [{ "element": "P", "occu": 1 }],
        "abc": [0.24588000000000002, 0.07991000000000001, 0.656296],
        "properties": { "magmom": 0.396 },
        "label": "P",
        "xyz": [1.3521893144520007, -1.1076868784939997, 4.83570049832]
      },
      {
        "species": [{ "element": "P", "occu": 1 }],
        "abc": [0.236495999999999, 0.808612999999999, 0.422591],
        "properties": { "magmom": -0.014 },
        "label": "P",
        "xyz": [0.881862842847994, 4.842447660153994, 3.11372232847]
      },
      {
        "species": [{ "element": "P", "occu": 1 }],
        "abc": [0.812228, 0.689311999999999, 0.7702800000000001],
        "properties": { "magmom": 0.004 },
        "label": "P",
        "xyz": [4.978159881816001, 3.069615989191993, 5.675553987600001]
      },
      {
        "species": [{ "element": "H", "occu": 1 }],
        "abc": [0.702517, 0.997942999999999, 0.457507999999999],
        "properties": { "magmom": 0.0 },
        "label": "H",
        "xyz": [4.131545389980001, 6.141538465500996, 3.370996720359993]
      },
      {
        "species": [{ "element": "H", "occu": 1 }],
        "abc": [0.634458, 0.449198, 0.153239],
        "properties": { "magmom": -0.008 },
        "label": "H",
        "xyz": [4.2199077874899995, 2.900472880537, 1.1290910026299998]
      },
      {
        "species": [{ "element": "H", "occu": 1 }],
        "abc": [0.148972, 0.687237, 0.512162999999999],
        "properties": { "magmom": 0.02 },
        "label": "H",
        "xyz": [0.2782672631840011, 3.7206419131500033, 3.773704051709993]
      },
      {
        "species": [{ "element": "H", "occu": 1 }],
        "abc": [0.393497999999999, 0.940449, 0.941175],
        "properties": { "magmom": 0.005 },
        "label": "H",
        "xyz": [1.6265609293079941, 4.4712325315740005, 6.93473739975]
      },
      {
        "species": [{ "element": "H", "occu": 1 }],
        "abc": [0.793078, 0.018511, 0.516894],
        "properties": { "magmom": -0.0 },
        "label": "H",
        "xyz": [5.4847988376179995, -1.1983808693449998, 3.8085628639799998]
      },
      {
        "species": [{ "element": "H", "occu": 1 }],
        "abc": [0.866012, 0.346985999999999, 0.046379],
        "properties": { "magmom": -0.008 },
        "label": "H",
        "xyz": [6.053457039030001, 2.426314042864993, 0.34172835643]
      },
      {
        "species": [{ "element": "H", "occu": 1 }],
        "abc": [0.438583, 0.138702, 0.654698999999999],
        "properties": { "magmom": -0.007 },
        "label": "H",
        "xyz": [2.719882796924001, -0.6721754052989972, 4.823933530829993]
      },
      {
        "species": [{ "element": "H", "occu": 1 }],
        "abc": [0.846642, 0.521403, 0.629296],
        "properties": { "magmom": 0.001 },
        "label": "H",
        "xyz": [5.437781941246001, 2.201482898149, 4.63675990832]
      },
      {
        "species": [{ "element": "H", "occu": 1 }],
        "abc": [0.059522, 0.828152, 0.34379000000000004],
        "properties": { "magmom": 0.014 },
        "label": "H",
        "xyz": [-0.3812052309519997, 5.189217131542, 2.5331031643000004]
      },
      {
        "species": [{ "element": "H", "occu": 1 }],
        "abc": [0.929504, 0.647373, 0.903121],
        "properties": { "magmom": 0.0 },
        "label": "H",
        "xyz": [5.788964650172002, 2.418997381444, 6.654349058569999]
      },
      {
        "species": [{ "element": "H", "occu": 1 }],
        "abc": [0.652602999999999, 0.589449, 0.81081],
        "properties": { "magmom": 0.0 },
        "label": "H",
        "xyz": [3.859953230167994, 2.232250138209, 5.974185917700001]
      },
      {
        "species": [{ "element": "H", "occu": 1 }],
        "abc": [0.479859, 0.932778, 0.995389],
        "properties": { "magmom": 0.01 },
        "label": "H",
        "xyz": [2.2322213288080013, 4.275009055267001, 7.33419536813]
      }
    ]
  },
  "task_ids": null,
  "uncorrected_energy_per_atom": null,
  "energy_per_atom": -4.812554625401786,
  "formation_energy_per_atom": 0.029298753541667003,
  "energy_above_hull": 0.029298753541667003,
  "is_stable": false,
  "equilibrium_reaction_energy_per_atom": null,
  "decomposes_to": null,
  "xas": null,
  "grain_boundaries": null,
  "band_gap": 0.0,
  "cbm": null,
  "vbm": null,
  "efermi": -2.76102908,
  "is_gap_direct": null,
  "is_metal": null,
  "es_source_calc_id": null,
  "bandstructure": null,
  "dos": null,
  "dos_energy_up": null,
  "dos_energy_down": null,
  "is_magnetic": null,
  "ordering": null,
  "total_magnetization": 2.0007378,
  "total_magnetization_normalized_vol": null,
  "total_magnetization_normalized_formula_units": null,
  "num_magnetic_sites": null,
  "num_unique_magnetic_sites": null,
  "types_of_magnetic_species": null,
  "bulk_modulus": null,
  "shear_modulus": null,
  "universal_anisotropy": null,
  "homogeneous_poisson": null,
  "e_total": null,
  "e_ionic": null,
  "e_electronic": null,
  "n": null,
  "e_ij_max": null,
  "weighted_surface_energy_EV_PER_ANG2": null,
  "weighted_surface_energy": null,
  "weighted_work_function": null,
  "surface_anisotropy": null,
  "shape_factor": null,
  "has_reconstructed": null,
  "possible_species": null,
  "has_props": null,
  "theoretical": null,
  "database_IDs": null,
  "fields_not_requested": [
    "builder_meta",
    "nsites",
    "elements",
    "nelements",
    "composition",
    "composition_reduced",
    "chemsys",
    "symmetry",
    "property_name",
    "deprecated",
    "deprecation_reasons",
    "last_updated",
    "origins",
    "warnings",
    "task_ids",
    "uncorrected_energy_per_atom",
    "equilibrium_reaction_energy_per_atom",
    "decomposes_to",
    "xas",
    "grain_boundaries",
    "cbm",
    "vbm",
    "is_gap_direct",
    "is_metal",
    "es_source_calc_id",
    "bandstructure",
    "dos",
    "dos_energy_up",
    "dos_energy_down",
    "is_magnetic",
    "ordering",
    "total_magnetization_normalized_vol",
    "total_magnetization_normalized_formula_units",
    "num_magnetic_sites",
    "num_unique_magnetic_sites",
    "types_of_magnetic_species",
    "bulk_modulus",
    "shear_modulus",
    "universal_anisotropy",
    "homogeneous_poisson",
    "e_total",
    "e_ionic",
    "e_electronic",
    "n",
    "e_ij_max",
    "weighted_surface_energy_EV_PER_ANG2",
    "weighted_surface_energy",
    "weighted_work_function",
    "surface_anisotropy",
    "shape_factor",
    "has_reconstructed",
    "possible_species",
    "has_props",
    "theoretical",
    "database_IDs"
  ]
}
