{"builder_meta": null, "nsites": null, "elements": null, "nelements": null, "composition": null, "composition_reduced": null, "formula_pretty": "PI2", "formula_anonymous": "AB2", "chemsys": null, "volume": 242.2460123090321, "density": 3.904236009133053, "density_atomic": 40.37433538483868, "symmetry": null, "property_name": null, "material_id": "mp-29443", "deprecated": null, "deprecation_reasons": null, "last_updated": null, "origins": null, "warnings": null, "structure": {"@module": "pymatgen.core.structure", "@class": "Structure", "charge": 0, "lattice": {"matrix": [[4.51155001, 0.04584001, 1.28047429], [0.84404861, 7.186213139999999, 1.19044717], [0.03155253, 0.03274918, 7.49407413]], "pbc": [true, true, true], "a": 4.689967932363589, "b": 7.33288768590605, "c": 7.49421210914632, "alpha": 80.38030172983919, "beta": 73.91209235237146, "gamma": 80.52437894627349, "volume": 242.24601230903204}, "properties": {}, "sites": [{"species": [{"element": "P", "occu": 1}], "abc": [0.59683238, 0.13507036, 0.96351476], "properties": {"magmom": -0.0}, "label": "P", "xyz": [2.837046407937866, 1.0295575164319508, 8.14567368263155]}, {"species": [{"element": "P", "occu": 1}], "abc": [0.40316762, 0.86492964, 0.03648524], "properties": {"magmom": -0.0}, "label": "P", "xyz": [2.5501047420621337, 6.235244813568048, 1.8193219073684501]}, {"species": [{"element": "I", "occu": 1}], "abc": [0.43952459, 0.22610268, 0.6680442600000001], "properties": {"magmom": 0.0}, "label": "I", "xyz": [2.1948573077359983, 1.6668477633247676, 5.838336439414201]}, {"species": [{"element": "I", "occu": 1}], "abc": [0.56047541, 0.77389732, 0.33195574], "properties": {"magmom": 0.0}, "label": "I", "xyz": [3.192293842264001, 5.597954566675231, 4.126659150585799]}, {"species": [{"element": "I", "occu": 1}], "abc": [0.19246663, 0.30122018, 0.19059665], "properties": {"magmom": 0.0}, "label": "I", "xyz": [1.1285811072511405, 2.1796969717912784, 2.033380706255498]}, {"species": [{"element": "I", "occu": 1}], "abc": [0.80753337, 0.69877982, 0.80940335], "properties": {"magmom": 0.0}, "label": "I", "xyz": [4.258570042748859, 5.085105358208722, 7.931614883744501]}]}, "task_ids": null, "uncorrected_energy_per_atom": null, "energy_per_atom": -3.134573235, "formation_energy_per_atom": -0.313406983214285, "energy_above_hull": 0.0, "is_stable": true, "equilibrium_reaction_energy_per_atom": null, "decomposes_to": null, "xas": null, "grain_boundaries": null, "band_gap": 1.926699999999999, "cbm": null, "vbm": null, "efermi": 1.06198959, "is_gap_direct": null, "is_metal": null, "es_source_calc_id": null, "bandstructure": null, "dos": null, "dos_energy_up": null, "dos_energy_down": null, "is_magnetic": null, "ordering": null, "total_magnetization": 0.0, "total_magnetization_normalized_vol": null, "total_magnetization_normalized_formula_units": null, "num_magnetic_sites": null, "num_unique_magnetic_sites": null, "types_of_magnetic_species": null, "bulk_modulus": null, "shear_modulus": null, "universal_anisotropy": null, "homogeneous_poisson": null, "e_total": null, "e_ionic": null, "e_electronic": null, "n": null, "e_ij_max": null, "weighted_surface_energy_EV_PER_ANG2": null, "weighted_surface_energy": null, "weighted_work_function": null, "surface_anisotropy": null, "shape_factor": null, "has_reconstructed": null, "possible_species": null, "has_props": null, "theoretical": null, "database_IDs": null, "fields_not_requested": ["builder_meta", "nsites", "elements", "nelements", "composition", "composition_reduced", "chemsys", "symmetry", "property_name", "deprecated", "deprecation_reasons", "last_updated", "origins", "warnings", "task_ids", "uncorrected_energy_per_atom", "equilibrium_reaction_energy_per_atom", "decomposes_to", "xas", "grain_boundaries", "cbm", "vbm", "is_gap_direct", "is_metal", "es_source_calc_id", "bandstructure", "dos", "dos_energy_up", "dos_energy_down", "is_magnetic", "ordering", "total_magnetization_normalized_vol", "total_magnetization_normalized_formula_units", "num_magnetic_sites", "num_unique_magnetic_sites", "types_of_magnetic_species", "bulk_modulus", "shear_modulus", "universal_anisotropy", "homogeneous_poisson", "e_total", "e_ionic", "e_electronic", "n", "e_ij_max", "weighted_surface_energy_EV_PER_ANG2", "weighted_surface_energy", "weighted_work_function", "surface_anisotropy", "shape_factor", "has_reconstructed", "possible_species", "has_props", "theoretical", "database_IDs"]}