{
  "builder_meta": null,
  "nsites": null,
  "elements": null,
  "nelements": null,
  "composition": null,
  "composition_reduced": null,
  "formula_pretty": "Pm2Mg",
  "formula_anonymous": "AB2",
  "chemsys": null,
  "volume": 186.32397904658842,
  "density": 5.602239003249424,
  "density_atomic": 31.053996507764737,
  "symmetry": null,
  "property_name": null,
  "material_id": "mp-1186483",
  "deprecated": null,
  "deprecation_reasons": null,
  "last_updated": null,
  "origins": null,
  "warnings": null,
  "structure": {
    "@module": "pymatgen.core.structure",
    "@class": "Structure",
    "charge": 0,
    "lattice": {
      "matrix": [
        [1.91772428, -8.72194997, -0.0],
        [1.91772428, 8.72194997, 0.0],
        [0.0, -0.0, 5.56979225]
      ],
      "pbc": [true, true, true],
      "a": 8.930289899733634,
      "b": 8.930289899733634,
      "c": 5.56979225,
      "alpha": 90.0,
      "beta": 90.0,
      "gamma": 155.19900731487837,
      "volume": 186.32397904658842
    },
    "properties": {},
    "sites": [
      {
        "species": [{ "element": "Pm", "occu": 1 }],
        "abc": [0.08737398, 0.91262602, 0.25],
        "properties": { "magmom": 0.10400000000000001 },
        "label": "Pm",
        "xyz": [1.9177242800000003, 7.19780700552044, 1.3924480625]
      },
      {
        "species": [{ "element": "Pm", "occu": 1 }],
        "abc": [0.77245065, 0.22754935, 0.25],
        "properties": { "magmom": 0.031 },
        "label": "Pm",
        "xyz": [1.91772428, -4.752601877187962, 1.3924480625]
      },
      {
        "species": [{ "element": "Pm", "occu": 1 }],
        "abc": [0.91262602, 0.08737398, 0.75],
        "properties": { "magmom": 0.10400000000000001 },
        "label": "Pm",
        "xyz": [1.9177242800000003, -7.19780700552044, 4.1773441875]
      },
      {
        "species": [{ "element": "Pm", "occu": 1 }],
        "abc": [0.22754935, 0.77245065, 0.75],
        "properties": { "magmom": 0.031 },
        "label": "Pm",
        "xyz": [1.91772428, 4.752601877187962, 4.1773441875]
      },
      {
        "species": [{ "element": "Mg", "occu": 1 }],
        "abc": [0.43111507, 0.5688849300000001, 0.25],
        "properties": { "magmom": 0.0 },
        "label": "Mg",
        "xyz": [1.9177242800000003, 1.2016218262939051, 1.3924480625]
      },
      {
        "species": [{ "element": "Mg", "occu": 1 }],
        "abc": [0.5688849300000001, 0.43111507, 0.75],
        "properties": { "magmom": 0.0 },
        "label": "Mg",
        "xyz": [1.9177242800000003, -1.2016218262939051, 4.1773441875]
      }
    ]
  },
  "task_ids": null,
  "uncorrected_energy_per_atom": null,
  "energy_per_atom": -3.757445773333335,
  "formation_energy_per_atom": -0.046927553333335,
  "energy_above_hull": 0.013122390833330002,
  "is_stable": false,
  "equilibrium_reaction_energy_per_atom": null,
  "decomposes_to": null,
  "xas": null,
  "grain_boundaries": null,
  "band_gap": 0.0,
  "cbm": null,
  "vbm": null,
  "efermi": 3.1191486,
  "is_gap_direct": null,
  "is_metal": null,
  "es_source_calc_id": null,
  "bandstructure": null,
  "dos": null,
  "dos_energy_up": null,
  "dos_energy_down": null,
  "is_magnetic": null,
  "ordering": null,
  "total_magnetization": 0.482437699999999,
  "total_magnetization_normalized_vol": null,
  "total_magnetization_normalized_formula_units": null,
  "num_magnetic_sites": null,
  "num_unique_magnetic_sites": null,
  "types_of_magnetic_species": null,
  "bulk_modulus": null,
  "shear_modulus": null,
  "universal_anisotropy": null,
  "homogeneous_poisson": null,
  "e_total": null,
  "e_ionic": null,
  "e_electronic": null,
  "n": null,
  "e_ij_max": null,
  "weighted_surface_energy_EV_PER_ANG2": null,
  "weighted_surface_energy": null,
  "weighted_work_function": null,
  "surface_anisotropy": null,
  "shape_factor": null,
  "has_reconstructed": null,
  "possible_species": null,
  "has_props": null,
  "theoretical": null,
  "database_IDs": null,
  "fields_not_requested": [
    "builder_meta",
    "nsites",
    "elements",
    "nelements",
    "composition",
    "composition_reduced",
    "chemsys",
    "symmetry",
    "property_name",
    "deprecated",
    "deprecation_reasons",
    "last_updated",
    "origins",
    "warnings",
    "task_ids",
    "uncorrected_energy_per_atom",
    "equilibrium_reaction_energy_per_atom",
    "decomposes_to",
    "xas",
    "grain_boundaries",
    "cbm",
    "vbm",
    "is_gap_direct",
    "is_metal",
    "es_source_calc_id",
    "bandstructure",
    "dos",
    "dos_energy_up",
    "dos_energy_down",
    "is_magnetic",
    "ordering",
    "total_magnetization_normalized_vol",
    "total_magnetization_normalized_formula_units",
    "num_magnetic_sites",
    "num_unique_magnetic_sites",
    "types_of_magnetic_species",
    "bulk_modulus",
    "shear_modulus",
    "universal_anisotropy",
    "homogeneous_poisson",
    "e_total",
    "e_ionic",
    "e_electronic",
    "n",
    "e_ij_max",
    "weighted_surface_energy_EV_PER_ANG2",
    "weighted_surface_energy",
    "weighted_work_function",
    "surface_anisotropy",
    "shape_factor",
    "has_reconstructed",
    "possible_species",
    "has_props",
    "theoretical",
    "database_IDs"
  ]
}
