{
  "builder_meta": null,
  "nsites": null,
  "elements": null,
  "nelements": null,
  "composition": null,
  "composition_reduced": null,
  "formula_pretty": "Pm2O3",
  "formula_anonymous": "A2B3",
  "chemsys": null,
  "volume": 667.4325651552468,
  "density": 6.727381849100269,
  "density_atomic": 16.68581412888117,
  "symmetry": null,
  "property_name": null,
  "material_id": "mp-553921",
  "deprecated": null,
  "deprecation_reasons": null,
  "last_updated": null,
  "origins": null,
  "warnings": null,
  "structure": {
    "@module": "pymatgen.core.structure",
    "@class": "Structure",
    "charge": 0,
    "lattice": {
      "matrix": [
        [8.99014747, 0.0, -3.17849733],
        [-4.49507323, 7.78569653, -3.17849733],
        [0.0, 0.0, 9.53549198]
      ],
      "pbc": [true, true, true],
      "a": 9.535491429872113,
      "b": 9.53549154879463,
      "c": 9.53549198,
      "alpha": 109.47122157178363,
      "beta": 109.47122182442162,
      "gamma": 109.47121615753514,
      "volume": 667.4325651552468
    },
    "properties": {},
    "sites": [
      {
        "species": [{ "element": "Pm", "occu": 1 }],
        "abc": [0.75, 0.28089564, 0.53089564],
        "properties": { "magmom": -0.0 },
        "label": "Pm",
        "xyz": [5.479964130712283, 2.186968209640129, 1.7856520781883258]
      },
      {
        "species": [{ "element": "Pm", "occu": 1 }],
        "abc": [0.75, 0.78089564, 0.030895640000000002],
        "properties": { "magmom": -0.0 },
        "label": "Pm",
        "xyz": [3.232427515712283, 6.079816474640129, -4.571342576811674]
      },
      {
        "species": [{ "element": "Pm", "occu": 1 }],
        "abc": [0.25, 0.21910436, 0.96910436],
        "properties": { "magmom": -0.0 },
        "label": "Pm",
        "xyz": [1.2626467242877173, 1.7058800553598708, 7.749839896811674]
      },
      {
        "species": [{ "element": "Pm", "occu": 1 }],
        "abc": [0.030895640000000002, 0.75, 0.78089564],
        "properties": { "magmom": -0.0 },
        "label": "Pm",
        "xyz": [-3.0935485627199695, 5.8392723975, 4.964149405688326]
      },
      {
        "species": [{ "element": "Pm", "occu": 1 }],
        "abc": [0.28089564, 0.53089564, 0.75],
        "properties": { "magmom": -0.0 },
        "label": "Pm",
        "xyz": [0.13887844799231353, 4.133392342140129, 4.571342569002717]
      },
      {
        "species": [{ "element": "Pm", "occu": 1 }],
        "abc": [0.53089564, 0.75, 0.28089564],
        "properties": { "magmom": -0.0 },
        "label": "Pm",
        "xyz": [1.4015251722800306, 5.8392723975, -1.3928452493116739]
      },
      {
        "species": [{ "element": "Pm", "occu": 1 }],
        "abc": [0.0, 0.0, 0.5],
        "properties": { "magmom": -0.0 },
        "label": "Pm",
        "xyz": [0.0, 0.0, 4.76774599]
      },
      {
        "species": [{ "element": "Pm", "occu": 1 }],
        "abc": [0.78089564, 0.030895640000000002, 0.75],
        "properties": { "magmom": -0.0 },
        "label": "Pm",
        "xyz": [6.881488797992314, 0.2405440771401292, 4.571342569002717]
      },
      {
        "species": [{ "element": "Pm", "occu": 1 }],
        "abc": [0.25, 0.71910436, 0.46910436],
        "properties": { "magmom": -0.0 },
        "label": "Pm",
        "xyz": [-0.984889890712283, 5.598728320359871, 1.3928452418116741]
      },
      {
        "species": [{ "element": "Pm", "occu": 1 }],
        "abc": [0.71910436, 0.46910436, 0.25],
        "properties": { "magmom": -0.0 },
        "label": "Pm",
        "xyz": [4.356195792007687, 3.6523041878598708, -1.3928452490027174]
      },
      {
        "species": [{ "element": "Pm", "occu": 1 }],
        "abc": [0.46910436, 0.25, 0.71910436],
        "properties": { "magmom": -0.0 },
        "label": "Pm",
        "xyz": [3.0935490677199695, 1.9464241325, 4.571342569311674]
      },
      {
        "species": [{ "element": "Pm", "occu": 1 }],
        "abc": [0.21910436, 0.96910436, 0.25],
        "properties": { "magmom": -0.0 },
        "label": "Pm",
        "xyz": [-2.386414557992314, 7.545152452859871, -1.3928452490027174]
      },
      {
        "species": [{ "element": "Pm", "occu": 1 }],
        "abc": [0.5, 0.5, 0.5],
        "properties": { "magmom": -0.0 },
        "label": "Pm",
        "xyz": [2.24753712, 3.892848265, 1.58924866]
      },
      {
        "species": [{ "element": "Pm", "occu": 1 }],
        "abc": [0.96910436, 0.25, 0.21910436],
        "properties": { "magmom": -0.0 },
        "label": "Pm",
        "xyz": [7.588622802719969, 1.9464241325, -1.7856520856883265]
      },
      {
        "species": [{ "element": "Pm", "occu": 1 }],
        "abc": [0.5, 0.0, 0.0],
        "properties": { "magmom": -0.0 },
        "label": "Pm",
        "xyz": [4.495073735, 0.0, -1.589248665]
      },
      {
        "species": [{ "element": "Pm", "occu": 1 }],
        "abc": [0.0, 0.5, 0.0],
        "properties": { "magmom": -0.0 },
        "label": "Pm",
        "xyz": [-2.247536615, 3.892848265, -1.589248665]
      },
      {
        "species": [{ "element": "O", "occu": 1 }],
        "abc": [0.27121437, 0.01205629, 0.04067032],
        "properties": { "magmom": 0.0 },
        "label": "O",
        "xyz": [2.384063275851027, 0.09386661521767371, -0.5125635262933042]
      },
      {
        "species": [{ "element": "O", "occu": 1 }],
        "abc": [0.9593296800000001, 0.72878563, 0.98794371],
        "properties": { "magmom": 0.0 },
        "label": "O",
        "xyz": [5.348570519726225, 5.674103750604863, 4.054859317829324]
      },
      {
        "species": [{ "element": "O", "occu": 1 }],
        "abc": [0.97138597, 0.51205629, 0.24084192000000001],
        "properties": { "magmom": 0.0 },
        "label": "O",
        "xyz": [6.431172599156881, 3.9867148802176735, -2.418571066011364]
      },
      {
        "species": [{ "element": "O", "occu": 1 }],
        "abc": [0.51205629, 0.24084192000000001, 0.97138597],
        "properties": { "magmom": 0.0 },
        "label": "O",
        "xyz": [3.520859492787284, 1.8751221008225378, 6.869558176172742]
      },
      {
        "species": [{ "element": "O", "occu": 1 }],
        "abc": [0.74084192, 0.22878563000000002, 0.26945495],
        "properties": { "magmom": 0.0 },
        "label": "O",
        "xyz": [5.631869951936258, 1.7812554856048641, -0.5125730640731403]
      },
      {
        "species": [{ "element": "O", "occu": 1 }],
        "abc": [0.76945495, 0.54067032, 0.52861403],
        "properties": { "magmom": 0.0 },
        "label": "O",
        "xyz": [4.487160790333943, 4.20949503429799, 0.87636517091995]
      },
      {
        "species": [{ "element": "O", "occu": 1 }],
        "abc": [0.98794371, 0.9593296800000001, 0.72878563],
        "properties": { "magmom": 0.0 },
        "label": "O",
        "xyz": [4.569502481646447, 7.469049760702011, 0.7599262591091982]
      },
      {
        "species": [{ "element": "O", "occu": 1 }],
        "abc": [0.52861403, 0.76945495, 0.54067032],
        "properties": { "magmom": 0.0 },
        "label": "O",
        "xyz": [1.2935617369750156, 5.990742734206323, 1.0296487130982106]
      },
      {
        "species": [{ "element": "O", "occu": 1 }],
        "abc": [0.04067032, 0.27121437, 0.01205629],
        "properties": { "magmom": 0.0 },
        "label": "O",
        "xyz": [-0.8534962797262244, 2.111592779395136, -0.8763619978293234]
      },
      {
        "species": [{ "element": "O", "occu": 1 }],
        "abc": [0.48794371000000003, 0.7591580800000001, 0.028614030000000002],
        "properties": { "magmom": 0.0 },
        "label": "O",
        "xyz": [0.9742147472127156, 5.910574429177463, -3.6910608561727414]
      },
      {
        "species": [{ "element": "O", "occu": 1 }],
        "abc": [0.73054505, 0.25915808, 0.77121437],
        "properties": { "magmom": 0.0 },
        "label": "O",
        "xyz": [5.402773185232325, 2.0177261641774624, 4.208139683798109]
      },
      {
        "species": [{ "element": "O", "occu": 1 }],
        "abc": [0.72878563, 0.98794371, 0.9593296800000001],
        "properties": { "magmom": 0.0 },
        "label": "O",
        "xyz": [2.1110109641489725, 7.691829914782327, 3.691060846293305]
      },
      {
        "species": [{ "element": "O", "occu": 1 }],
        "abc": [0.45932968, 0.47138597, 0.23054505],
        "properties": { "magmom": 0.0 },
        "label": "O",
        "xyz": [2.010527105803327, 3.670068110919684, -0.7599167332105154]
      },
      {
        "species": [{ "element": "O", "occu": 1 }],
        "abc": [0.028614030000000002, 0.48794371000000003, 0.7591580800000001],
        "properties": { "magmom": 0.0 },
        "label": "O",
        "xyz": [-1.9360983591568792, 3.7989816497823266, 5.597068386011365]
      },
      {
        "species": [{ "element": "O", "occu": 1 }],
        "abc": [0.77121437, 0.73054505, 0.25915808],
        "properties": { "magmom": 0.0 },
        "label": "O",
        "xyz": [3.649477419719133, 5.687802060793676, -2.30213851338015]
      },
      {
        "species": [{ "element": "O", "occu": 1 }],
        "abc": [0.54067032, 0.52861403, 0.76945495],
        "properties": { "magmom": 0.0 },
        "label": "O",
        "xyz": [2.4845471341966743, 4.115628419080315, 3.938414053210515]
      },
      {
        "species": [{ "element": "O", "occu": 1 }],
        "abc": [0.26945495, 0.74084192, 0.22878563000000002],
        "properties": { "magmom": 0.0 },
        "label": "O",
        "xyz": [-0.9076989452323247, 5.767970365822538, -1.0296423637981098]
      },
      {
        "species": [{ "element": "O", "occu": 1 }],
        "abc": [0.22878563000000002, 0.26945495, 0.74084192],
        "properties": { "magmom": 0.0 },
        "label": "O",
        "xyz": [0.8455968202808677, 2.0978944692063237, 5.48063583338015]
      },
      {
        "species": [{ "element": "O", "occu": 1 }],
        "abc": [0.7591580800000001, 0.028614030000000002, 0.48794371000000003],
        "properties": { "magmom": 0.0 },
        "label": "O",
        "xyz": [6.696320931986642, 0.22278015408031593, 2.1488517851129796]
      },
      {
        "species": [{ "element": "O", "occu": 1 }],
        "abc": [0.24084192000000001, 0.97138597, 0.51205629],
        "properties": { "magmom": 0.0 },
        "label": "O",
        "xyz": [-2.2012466919866407, 7.562916375919684, 1.0296455348870204]
      },
      {
        "species": [{ "element": "O", "occu": 1 }],
        "abc": [0.47138597, 0.23054505, 0.45932968],
        "properties": { "magmom": 0.0 },
        "label": "O",
        "xyz": [3.2015125030249845, 1.7949537957936765, 2.14884860690179]
      },
      {
        "species": [{ "element": "O", "occu": 1 }],
        "abc": [0.23054505, 0.45932968, 0.47138597],
        "properties": { "magmom": 0.0 },
        "label": "O",
        "xyz": [0.007913449666057115, 3.5762014957020107, 2.302132149080049]
      },
      {
        "species": [{ "element": "O", "occu": 1 }],
        "abc": [0.25915808, 0.77121437, 0.73054505],
        "properties": { "magmom": 0.0 },
        "label": "O",
        "xyz": [-1.1367957119362577, 6.004441044395136, 3.6910703840731407]
      },
      {
        "species": [{ "element": "O", "occu": 1 }],
        "abc": [0.01205629, 0.04067032, 0.27121437],
        "properties": { "magmom": 0.0 },
        "label": "O",
        "xyz": [-0.0744282416464473, 0.3166467692979896, 2.4185710608908013]
      }
    ]
  },
  "task_ids": null,
  "uncorrected_energy_per_atom": null,
  "energy_per_atom": -8.7050944295,
  "formation_energy_per_atom": -3.836100897500001,
  "energy_above_hull": 0.0,
  "is_stable": true,
  "equilibrium_reaction_energy_per_atom": null,
  "decomposes_to": null,
  "xas": null,
  "grain_boundaries": null,
  "band_gap": 3.766599999999999,
  "cbm": null,
  "vbm": null,
  "efermi": 1.3636659500000001,
  "is_gap_direct": null,
  "is_metal": null,
  "es_source_calc_id": null,
  "bandstructure": null,
  "dos": null,
  "dos_energy_up": null,
  "dos_energy_down": null,
  "is_magnetic": null,
  "ordering": null,
  "total_magnetization": 0.0,
  "total_magnetization_normalized_vol": null,
  "total_magnetization_normalized_formula_units": null,
  "num_magnetic_sites": null,
  "num_unique_magnetic_sites": null,
  "types_of_magnetic_species": null,
  "bulk_modulus": null,
  "shear_modulus": null,
  "universal_anisotropy": null,
  "homogeneous_poisson": null,
  "e_total": null,
  "e_ionic": null,
  "e_electronic": null,
  "n": null,
  "e_ij_max": null,
  "weighted_surface_energy_EV_PER_ANG2": null,
  "weighted_surface_energy": null,
  "weighted_work_function": null,
  "surface_anisotropy": null,
  "shape_factor": null,
  "has_reconstructed": null,
  "possible_species": null,
  "has_props": null,
  "theoretical": null,
  "database_IDs": null,
  "fields_not_requested": [
    "builder_meta",
    "nsites",
    "elements",
    "nelements",
    "composition",
    "composition_reduced",
    "chemsys",
    "symmetry",
    "property_name",
    "deprecated",
    "deprecation_reasons",
    "last_updated",
    "origins",
    "warnings",
    "task_ids",
    "uncorrected_energy_per_atom",
    "equilibrium_reaction_energy_per_atom",
    "decomposes_to",
    "xas",
    "grain_boundaries",
    "cbm",
    "vbm",
    "is_gap_direct",
    "is_metal",
    "es_source_calc_id",
    "bandstructure",
    "dos",
    "dos_energy_up",
    "dos_energy_down",
    "is_magnetic",
    "ordering",
    "total_magnetization_normalized_vol",
    "total_magnetization_normalized_formula_units",
    "num_magnetic_sites",
    "num_unique_magnetic_sites",
    "types_of_magnetic_species",
    "bulk_modulus",
    "shear_modulus",
    "universal_anisotropy",
    "homogeneous_poisson",
    "e_total",
    "e_ionic",
    "e_electronic",
    "n",
    "e_ij_max",
    "weighted_surface_energy_EV_PER_ANG2",
    "weighted_surface_energy",
    "weighted_work_function",
    "surface_anisotropy",
    "shape_factor",
    "has_reconstructed",
    "possible_species",
    "has_props",
    "theoretical",
    "database_IDs"
  ]
}
