{
  "builder_meta": null,
  "nsites": null,
  "elements": null,
  "nelements": null,
  "composition": null,
  "composition_reduced": null,
  "formula_pretty": "Pm2S3",
  "formula_anonymous": "A2B3",
  "chemsys": null,
  "volume": 275.6430050331894,
  "density": 4.6530611923082965,
  "density_atomic": 27.56430050331894,
  "symmetry": null,
  "property_name": null,
  "material_id": "mp-863259",
  "deprecated": null,
  "deprecation_reasons": null,
  "last_updated": null,
  "origins": null,
  "warnings": null,
  "structure": {
    "@module": "pymatgen.core.structure",
    "@class": "Structure",
    "charge": 0,
    "lattice": {
      "matrix": [
        [-7.1234005, 0.0, 4.129999999999998e-6],
        [3.56170025, -6.16904972, -3.1e-6],
        [-3.56170437, 2.05635162, 6.27251213]
      ],
      "pbc": [true, true, true],
      "a": 7.123400500001197,
      "b": 7.123403899730223,
      "c": 7.500581872451687,
      "alpha": 118.35006822591895,
      "beta": 61.6499238184744,
      "gamma": 119.99998421231143,
      "volume": 275.6430050331894
    },
    "properties": {},
    "sites": [
      {
        "species": [{ "element": "Pm", "occu": 1 }],
        "abc": [0.64682708, 0.35317392000000003, 0.05952175],
        "properties": { "magmom": 0.0 },
        "label": "Pm",
        "xyz": [-3.5617075830131073, -2.0563498252495678, 0.3733524754305159]
      },
      {
        "species": [{ "element": "Pm", "occu": 1 }],
        "abc": [0.85317292, 0.14682708, 0.44048025],
        "properties": { "magmom": 0.0 },
        "label": "Pm",
        "xyz": [-7.123398788695383, -1.2810969125531813e-6, 2.7629207795906443]
      },
      {
        "species": [{ "element": "Pm", "occu": 1 }],
        "abc": [0.14682708, 0.85317292, 0.55951975],
        "properties": { "magmom": 0.0 },
        "label": "Pm",
        "xyz": [-5.831304617620603e-6, -4.112696818903087, 3.5095923804093556]
      },
      {
        "species": [{ "element": "Pm", "occu": 1 }],
        "abc": [0.35317292, 0.64682808, 0.94048125],
        "properties": { "magmom": 0.0 },
        "label": "Pm",
        "xyz": [-3.5617005986995025, -2.056354443795013, 5.899179502099675]
      },
      {
        "species": [{ "element": "S", "occu": 1 }],
        "abc": [0.25, 0.0469817, 0.250001],
        "properties": { "magmom": 0.0 },
        "label": "S",
        "xyz": [-2.503945046568945, 0.22425751812149597, 1.56813519186886]
      },
      {
        "species": [{ "element": "S", "occu": 1 }],
        "abc": [0.9530183, 0.453019299999999, 0.250001],
        "properties": { "magmom": 0.0 },
        "label": "S",
        "xyz": [-6.065641734868699, -2.28060862446797, 1.568136836617879]
      },
      {
        "species": [{ "element": "S", "occu": 1 }],
        "abc": [0.5469807, 0.75, 0.250001],
        "properties": { "magmom": 0.0 },
        "label": "S",
        "xyz": [-2.11551705857472, -4.11269732864838, 1.5681342390424209]
      },
      {
        "species": [{ "element": "S", "occu": 1 }],
        "abc": [0.453017299999999, 0.25, 0.750000999999999],
        "properties": { "magmom": 0.0 },
        "label": "S",
        "xyz": [-5.007880438033009, 3.3413516180580416e-6, 4.704391465973573]
      },
      {
        "species": [{ "element": "S", "occu": 1 }],
        "abc": [0.046982699999999, 0.546982699999999, 0.750000999999999],
        "properties": { "magmom": 0.0 },
        "label": "S",
        "xyz": [-1.0577700085400377, -1.83209770092822, 4.704388868404305]
      },
      {
        "species": [{ "element": "S", "occu": 1 }],
        "abc": [0.75, 0.9530183, 0.750000999999999],
        "properties": { "magmom": 0.0 },
        "label": "S",
        "xyz": [-4.619466696839792, -4.3369515054182575, 4.704390513155394]
      }
    ]
  },
  "task_ids": null,
  "uncorrected_energy_per_atom": null,
  "energy_per_atom": -18.970027308,
  "formation_energy_per_atom": -2.3327828736874983,
  "energy_above_hull": 0.0,
  "is_stable": true,
  "equilibrium_reaction_energy_per_atom": null,
  "decomposes_to": null,
  "xas": null,
  "grain_boundaries": null,
  "band_gap": 2.4211,
  "cbm": null,
  "vbm": null,
  "efermi": 1.9094061,
  "is_gap_direct": null,
  "is_metal": null,
  "es_source_calc_id": null,
  "bandstructure": null,
  "dos": null,
  "dos_energy_up": null,
  "dos_energy_down": null,
  "is_magnetic": null,
  "ordering": null,
  "total_magnetization": 0.0,
  "total_magnetization_normalized_vol": null,
  "total_magnetization_normalized_formula_units": null,
  "num_magnetic_sites": null,
  "num_unique_magnetic_sites": null,
  "types_of_magnetic_species": null,
  "bulk_modulus": null,
  "shear_modulus": null,
  "universal_anisotropy": null,
  "homogeneous_poisson": null,
  "e_total": null,
  "e_ionic": null,
  "e_electronic": null,
  "n": null,
  "e_ij_max": null,
  "weighted_surface_energy_EV_PER_ANG2": null,
  "weighted_surface_energy": null,
  "weighted_work_function": null,
  "surface_anisotropy": null,
  "shape_factor": null,
  "has_reconstructed": null,
  "possible_species": null,
  "has_props": null,
  "theoretical": null,
  "database_IDs": null,
  "fields_not_requested": [
    "builder_meta",
    "nsites",
    "elements",
    "nelements",
    "composition",
    "composition_reduced",
    "chemsys",
    "symmetry",
    "property_name",
    "deprecated",
    "deprecation_reasons",
    "last_updated",
    "origins",
    "warnings",
    "task_ids",
    "uncorrected_energy_per_atom",
    "equilibrium_reaction_energy_per_atom",
    "decomposes_to",
    "xas",
    "grain_boundaries",
    "cbm",
    "vbm",
    "is_gap_direct",
    "is_metal",
    "es_source_calc_id",
    "bandstructure",
    "dos",
    "dos_energy_up",
    "dos_energy_down",
    "is_magnetic",
    "ordering",
    "total_magnetization_normalized_vol",
    "total_magnetization_normalized_formula_units",
    "num_magnetic_sites",
    "num_unique_magnetic_sites",
    "types_of_magnetic_species",
    "bulk_modulus",
    "shear_modulus",
    "universal_anisotropy",
    "homogeneous_poisson",
    "e_total",
    "e_ionic",
    "e_electronic",
    "n",
    "e_ij_max",
    "weighted_surface_energy_EV_PER_ANG2",
    "weighted_surface_energy",
    "weighted_work_function",
    "surface_anisotropy",
    "shape_factor",
    "has_reconstructed",
    "possible_species",
    "has_props",
    "theoretical",
    "database_IDs"
  ]
}
