{"builder_meta": null, "nsites": null, "elements": null, "nelements": null, "composition": null, "composition_reduced": null, "formula_pretty": "Pm2Se3", "formula_anonymous": "A2B3", "chemsys": null, "volume": 527.3635445981281, "density": 6.636066010796556, "density_atomic": 26.368177229906404, "symmetry": null, "property_name": null, "material_id": "mp-1232181", "deprecated": null, "deprecation_reasons": null, "last_updated": null, "origins": null, "warnings": null, "structure": {"@module": "pymatgen.core.structure", "@class": "Structure", "charge": 0, "lattice": {"matrix": [[4.14222663, -0.0, 0.0], [0.0, 11.15556057, 0.0], [0.0, 0.0, 11.41260667]], "pbc": [true, true, true], "a": 4.14222663, "b": 11.15556057, "c": 11.41260667, "alpha": 90.0, "beta": 90.0, "gamma": 90.0, "volume": 527.3635445981281}, "properties": {}, "sites": [{"species": [{"element": "Pm", "occu": 1}], "abc": [0.25, 0.996963199999999, 0.69327434], "properties": {"magmom": 0.0}, "label": "Pm", "xyz": [1.0355566575, 11.121683363661013, 7.912067356823848]}, {"species": [{"element": "Pm", "occu": 1}], "abc": [0.75, 0.003036799999999, 0.30672566], "properties": {"magmom": 0.0}, "label": "Pm", "xyz": [3.1066699724999998, 0.03387720633896485, 3.5005393131761524]}, {"species": [{"element": "Pm", "occu": 1}], "abc": [0.75, 0.4969632, 0.80672566], "properties": {"magmom": 0.0}, "label": "Pm", "xyz": [3.1066699724999998, 5.543903078661024, 9.206842648176153]}, {"species": [{"element": "Pm", "occu": 1}], "abc": [0.25, 0.5030368, 0.19327434000000002], "properties": {"magmom": 0.0}, "label": "Pm", "xyz": [1.0355566575, 5.611657491338976, 2.205764021823848]}, {"species": [{"element": "Pm", "occu": 1}], "abc": [0.25, 0.31294223, 0.51135517], "properties": {"magmom": 0.0}, "label": "Pm", "xyz": [1.0355566575, 3.4910460016758713, 5.8358954238809835]}, {"species": [{"element": "Pm", "occu": 1}], "abc": [0.75, 0.68705777, 0.48864483000000003], "properties": {"magmom": 0.0}, "label": "Pm", "xyz": [3.1066699724999998, 7.66451456832413, 5.576711246119017]}, {"species": [{"element": "Pm", "occu": 1}], "abc": [0.75, 0.81294223, 0.98864483], "properties": {"magmom": 0.0}, "label": "Pm", "xyz": [3.1066699724999998, 9.068826286675872, 11.283014581119017]}, {"species": [{"element": "Pm", "occu": 1}], "abc": [0.25, 0.18705777, 0.01135517], "properties": {"magmom": 0.0}, "label": "Pm", "xyz": [1.0355566575, 2.086734283324129, 0.1295920888809839]}, {"species": [{"element": "Se", "occu": 1}], "abc": [0.75, 0.055686770000000003, 0.88025463], "properties": {"magmom": -0.0}, "label": "Se", "xyz": [3.1066699724999998, 0.621217135682659, 10.045999861636384]}, {"species": [{"element": "Se", "occu": 1}], "abc": [0.25, 0.94431323, 0.11974537], "properties": {"magmom": -0.0}, "label": "Se", "xyz": [1.0355566575, 10.534343434317341, 1.366606808363618]}, {"species": [{"element": "Se", "occu": 1}], "abc": [0.25, 0.55568677, 0.61974537], "properties": {"magmom": -0.0}, "label": "Se", "xyz": [1.0355566575, 6.198997420682659, 7.072910143363618]}, {"species": [{"element": "Se", "occu": 1}], "abc": [0.75, 0.44431323, 0.38025463], "properties": {"magmom": -0.0}, "label": "Se", "xyz": [3.1066699724999998, 4.956563149317342, 4.3396965266363825]}, {"species": [{"element": "Se", "occu": 1}], "abc": [0.25, 0.8742411600000001, 0.45457716000000004], "properties": {"magmom": -0.0}, "label": "Se", "xyz": [1.0355566575, 9.752650213167062, 5.187910328245658]}, {"species": [{"element": "Se", "occu": 1}], "abc": [0.75, 0.12575884, 0.54542284], "properties": {"magmom": -0.0}, "label": "Se", "xyz": [3.1066699724999998, 1.402910356832939, 6.224696341754343]}, {"species": [{"element": "Se", "occu": 1}], "abc": [0.75, 0.37424116, 0.04542284], "properties": {"magmom": -0.0}, "label": "Se", "xyz": [3.1066699724999998, 4.174869928167062, 0.5183930067543429]}, {"species": [{"element": "Se", "occu": 1}], "abc": [0.25, 0.62575884, 0.95457716], "properties": {"magmom": -0.0}, "label": "Se", "xyz": [1.0355566575, 6.98069064183294, 10.894213663245658]}, {"species": [{"element": "Se", "occu": 1}], "abc": [0.25, 0.30197875, 0.77244526], "properties": {"magmom": -0.0}, "label": "Se", "xyz": [1.0355566575, 3.3687422364778876, 8.815613926485884]}, {"species": [{"element": "Se", "occu": 1}], "abc": [0.75, 0.69802125, 0.22755474], "properties": {"magmom": -0.0}, "label": "Se", "xyz": [3.1066699724999998, 7.786818333522113, 2.596992743514116]}, {"species": [{"element": "Se", "occu": 1}], "abc": [0.75, 0.80197875, 0.72755474], "properties": {"magmom": -0.0}, "label": "Se", "xyz": [3.1066699724999998, 8.946522521477888, 8.303296078514116]}, {"species": [{"element": "Se", "occu": 1}], "abc": [0.25, 0.19802125, 0.27244526], "properties": {"magmom": -0.0}, "label": "Se", "xyz": [1.0355566575, 2.2090380485221126, 3.1093105914858845]}]}, "task_ids": null, "uncorrected_energy_per_atom": null, "energy_per_atom": -22.616195987, "formation_energy_per_atom": -2.213014863437499, "energy_above_hull": 0.0, "is_stable": true, "equilibrium_reaction_energy_per_atom": null, "decomposes_to": null, "xas": null, "grain_boundaries": null, "band_gap": 0.48550000000000004, "cbm": null, "vbm": null, "efermi": 3.37869565, "is_gap_direct": null, "is_metal": null, "es_source_calc_id": null, "bandstructure": null, "dos": null, "dos_energy_up": null, "dos_energy_down": null, "is_magnetic": null, "ordering": null, "total_magnetization": 0.0, "total_magnetization_normalized_vol": null, "total_magnetization_normalized_formula_units": null, "num_magnetic_sites": null, "num_unique_magnetic_sites": null, "types_of_magnetic_species": null, "bulk_modulus": null, "shear_modulus": null, "universal_anisotropy": null, "homogeneous_poisson": null, "e_total": null, "e_ionic": null, "e_electronic": null, "n": null, "e_ij_max": null, "weighted_surface_energy_EV_PER_ANG2": null, "weighted_surface_energy": null, "weighted_work_function": null, "surface_anisotropy": null, "shape_factor": null, "has_reconstructed": null, "possible_species": null, "has_props": null, "theoretical": null, "database_IDs": null, "fields_not_requested": ["builder_meta", "nsites", "elements", "nelements", "composition", "composition_reduced", "chemsys", "symmetry", "property_name", "deprecated", "deprecation_reasons", "last_updated", "origins", "warnings", "task_ids", "uncorrected_energy_per_atom", "equilibrium_reaction_energy_per_atom", "decomposes_to", "xas", "grain_boundaries", "cbm", "vbm", "is_gap_direct", "is_metal", "es_source_calc_id", "bandstructure", "dos", "dos_energy_up", "dos_energy_down", "is_magnetic", "ordering", "total_magnetization_normalized_vol", "total_magnetization_normalized_formula_units", "num_magnetic_sites", "num_unique_magnetic_sites", "types_of_magnetic_species", "bulk_modulus", "shear_modulus", "universal_anisotropy", "homogeneous_poisson", "e_total", "e_ionic", "e_electronic", "n", "e_ij_max", "weighted_surface_energy_EV_PER_ANG2", "weighted_surface_energy", "weighted_work_function", "surface_anisotropy", "shape_factor", "has_reconstructed", "possible_species", "has_props", "theoretical", "database_IDs"]}