{
  "builder_meta": null,
  "nsites": null,
  "elements": null,
  "nelements": null,
  "composition": null,
  "composition_reduced": null,
  "formula_pretty": "Pm3Au",
  "formula_anonymous": "AB3",
  "chemsys": null,
  "volume": 222.77456272414534,
  "density": 9.42122981885602,
  "density_atomic": 27.846820340518168,
  "symmetry": null,
  "property_name": null,
  "material_id": "mp-1186500",
  "deprecated": null,
  "deprecation_reasons": null,
  "last_updated": null,
  "origins": null,
  "warnings": null,
  "structure": {
    "@module": "pymatgen.core.structure",
    "@class": "Structure",
    "charge": 0,
    "lattice": {
      "matrix": [
        [7.04863015, 1.4210000000000001e-5, -5e-8],
        [-3.5243037900000003, 6.10429882, 1e-7],
        [-4e-8, 6.000000000000001e-8, 5.17755339]
      ],
      "pbc": [true, true, true],
      "a": 7.048630150014324,
      "b": 7.04862974542299,
      "c": 5.177553390000001,
      "alpha": 89.99999839079625,
      "beta": 90.0000008490782,
      "gamma": 119.99978046812757,
      "volume": 222.7745627241453
    },
    "properties": {},
    "sites": [
      {
        "species": [{ "element": "Pm", "occu": 1 }],
        "abc": [0.17901967, 0.35804196, 0.24999893],
        "properties": { "magmom": -0.0 },
        "label": "Pm",
        "xyz": [-5.203201935204325e-6, 2.185597672807934, 1.2943828343710853]
      },
      {
        "species": [{ "element": "Pm", "occu": 1 }],
        "abc": [0.64195424, 0.82098331, 0.24999895],
        "properties": { "magmom": -0.0 },
        "label": "Pm",
        "xyz": [1.631503410024633, 5.011536587642382, 1.2943829610695594]
      },
      {
        "species": [{ "element": "Pm", "occu": 1 }],
        "abc": [0.17902702, 0.82098282, 0.24999896],
        "properties": { "magmom": -0.0 },
        "label": "Pm",
        "xyz": [-1.6314976232141936, 5.011527018340164, 1.2943830359914053]
      },
      {
        "species": [{ "element": "Pm", "occu": 1 }],
        "abc": [0.82097732, 0.6419527700000001, 0.74999863],
        "properties": { "magmom": -0.0 },
        "label": "Pm",
        "xyz": [3.5243288799062547, 3.9186832474943674, 3.8831579723982665]
      },
      {
        "species": [{ "element": "Pm", "occu": 1 }],
        "abc": [0.35804412, 0.179027499999999, 0.7499986],
        "properties": { "magmom": -0.0 },
        "label": "Pm",
        "xyz": [1.8927732524980525, 1.0928424898044053, 3.8831577939257977]
      },
      {
        "species": [{ "element": "Pm", "occu": 1 }],
        "abc": [0.8209849, 0.17902619, 0.74999859],
        "properties": { "magmom": -0.0 },
        "label": "Pm",
        "xyz": [5.1558762089085315, 1.0928410715614403, 3.883157719003094]
      },
      {
        "species": [{ "element": "Au", "occu": 1 }],
        "abc": [0.33333004, 0.66665934, 0.74999939],
        "properties": { "magmom": -0.0 },
        "label": "Au",
        "xyz": [1.0101243831398925e-5, 4.069492604123812, 3.8831619341918646]
      },
      {
        "species": [{ "element": "Au", "occu": 1 }],
        "abc": [0.66666369, 0.33332611, 0.24999995],
        "properties": { "magmom": -0.0 },
        "label": "Au",
        "xyz": [3.5243233024652985, 2.034731668239222, 1.294388088621757]
      }
    ]
  },
  "task_ids": null,
  "uncorrected_energy_per_atom": null,
  "energy_per_atom": -35.092499045,
  "formation_energy_per_atom": -0.290799660624998,
  "energy_above_hull": 0.0,
  "is_stable": true,
  "equilibrium_reaction_energy_per_atom": null,
  "decomposes_to": null,
  "xas": null,
  "grain_boundaries": null,
  "band_gap": 0.0,
  "cbm": null,
  "vbm": null,
  "efermi": 4.03209095,
  "is_gap_direct": null,
  "is_metal": null,
  "es_source_calc_id": null,
  "bandstructure": null,
  "dos": null,
  "dos_energy_up": null,
  "dos_energy_down": null,
  "is_magnetic": null,
  "ordering": null,
  "total_magnetization": 2.299999999999998e-6,
  "total_magnetization_normalized_vol": null,
  "total_magnetization_normalized_formula_units": null,
  "num_magnetic_sites": null,
  "num_unique_magnetic_sites": null,
  "types_of_magnetic_species": null,
  "bulk_modulus": null,
  "shear_modulus": null,
  "universal_anisotropy": null,
  "homogeneous_poisson": null,
  "e_total": null,
  "e_ionic": null,
  "e_electronic": null,
  "n": null,
  "e_ij_max": null,
  "weighted_surface_energy_EV_PER_ANG2": null,
  "weighted_surface_energy": null,
  "weighted_work_function": null,
  "surface_anisotropy": null,
  "shape_factor": null,
  "has_reconstructed": null,
  "possible_species": null,
  "has_props": null,
  "theoretical": null,
  "database_IDs": null,
  "fields_not_requested": [
    "builder_meta",
    "nsites",
    "elements",
    "nelements",
    "composition",
    "composition_reduced",
    "chemsys",
    "symmetry",
    "property_name",
    "deprecated",
    "deprecation_reasons",
    "last_updated",
    "origins",
    "warnings",
    "task_ids",
    "uncorrected_energy_per_atom",
    "equilibrium_reaction_energy_per_atom",
    "decomposes_to",
    "xas",
    "grain_boundaries",
    "cbm",
    "vbm",
    "is_gap_direct",
    "is_metal",
    "es_source_calc_id",
    "bandstructure",
    "dos",
    "dos_energy_up",
    "dos_energy_down",
    "is_magnetic",
    "ordering",
    "total_magnetization_normalized_vol",
    "total_magnetization_normalized_formula_units",
    "num_magnetic_sites",
    "num_unique_magnetic_sites",
    "types_of_magnetic_species",
    "bulk_modulus",
    "shear_modulus",
    "universal_anisotropy",
    "homogeneous_poisson",
    "e_total",
    "e_ionic",
    "e_electronic",
    "n",
    "e_ij_max",
    "weighted_surface_energy_EV_PER_ANG2",
    "weighted_surface_energy",
    "weighted_work_function",
    "surface_anisotropy",
    "shape_factor",
    "has_reconstructed",
    "possible_species",
    "has_props",
    "theoretical",
    "database_IDs"
  ]
}
