{"builder_meta": null, "nsites": null, "elements": null, "nelements": null, "composition": null, "composition_reduced": null, "formula_pretty": "Pm3Al", "formula_anonymous": "AB3", "chemsys": null, "volume": 230.1192171995572, "density": 6.667312727976306, "density_atomic": 28.76490214994465, "symmetry": null, "property_name": null, "material_id": "mp-1186496", "deprecated": null, "deprecation_reasons": null, "last_updated": null, "origins": null, "warnings": null, "structure": {"@module": "pymatgen.core.structure", "@class": "Structure", "charge": 0, "lattice": {"matrix": [[7.05963679, 2e-08, -0.0], [-3.52981735, 6.11382482, 0.0], [0.0, -0.0, 5.33159975]], "pbc": [true, true, true], "a": 7.05963679, "b": 7.059636283407882, "c": 5.33159975, "alpha": 90.0, "beta": 90.0, "gamma": 119.99999241821781, "volume": 230.1192171995572}, "properties": {}, "sites": [{"species": [{"element": "Pm", "occu": 1}], "abc": [0.35710181, 0.17855141, 0.750000999999999], "properties": {"magmom": 0.114}, "label": "Pm", "xyz": [1.8907552107666268, 1.0916320492460323, 3.9987051440997448]}, {"species": [{"element": "Pm", "occu": 1}], "abc": [0.8214495900000001, 0.64289719, 0.750000999999999], "properties": {"magmom": 0.114}, "label": "Pm", "xyz": [3.5298260911661696, 3.9305608133592473, 3.9987051440997448]}, {"species": [{"element": "Pm", "occu": 1}], "abc": [0.17855141, 0.82144859, 0.250001], "properties": {"magmom": 0.114}, "label": "Pm", "xyz": [-1.6390553821726628, 5.022192781467032, 1.3329052690997498]}, {"species": [{"element": "Pm", "occu": 1}], "abc": [0.64289719, 0.82144859, 0.250001], "properties": {"magmom": 0.114}, "label": "Pm", "xyz": [1.6390571695965832, 5.022192790753948, 1.3329052690997498]}, {"species": [{"element": "Pm", "occu": 1}], "abc": [0.17855141, 0.35710181, 0.250001], "properties": {"magmom": 0.114}, "label": "Pm", "xyz": [3.938287970406407e-06, 2.1832579128159524, 1.3329052690997498]}, {"species": [{"element": "Pm", "occu": 1}], "abc": [0.82144759, 0.17855141, 0.750000999999999], "properties": {"magmom": 0.114}, "label": "Pm", "xyz": [5.168867762535872, 1.0916320585329478, 3.9987051440997448]}, {"species": [{"element": "Al", "occu": 1}], "abc": [0.666667, 0.333333999999999, 0.250001], "properties": {"magmom": -0.009000000000000001}, "label": "Al", "xyz": [3.5298187433340336, 2.0379456958832143, 1.3329052690997498]}, {"species": [{"element": "Al", "occu": 1}], "abc": [0.333333999999999, 0.666667, 0.750000999999999], "properties": {"magmom": -0.009000000000000001}, "label": "Al", "xyz": [4.226485402991642e-06, 4.07588525794162, 3.9987051440997448]}]}, "task_ids": null, "uncorrected_energy_per_atom": null, "energy_per_atom": -24.077145525, "formation_energy_per_atom": -0.23866159562500003, "energy_above_hull": 0.0, "is_stable": true, "equilibrium_reaction_energy_per_atom": null, "decomposes_to": null, "xas": null, "grain_boundaries": null, "band_gap": 0.0, "cbm": null, "vbm": null, "efermi": 3.98129323, "is_gap_direct": null, "is_metal": null, "es_source_calc_id": null, "bandstructure": null, "dos": null, "dos_energy_up": null, "dos_energy_down": null, "is_magnetic": null, "ordering": null, "total_magnetization": 0.9230408, "total_magnetization_normalized_vol": null, "total_magnetization_normalized_formula_units": null, "num_magnetic_sites": null, "num_unique_magnetic_sites": null, "types_of_magnetic_species": null, "bulk_modulus": null, "shear_modulus": null, "universal_anisotropy": null, "homogeneous_poisson": null, "e_total": null, "e_ionic": null, "e_electronic": null, "n": null, "e_ij_max": null, "weighted_surface_energy_EV_PER_ANG2": null, "weighted_surface_energy": null, "weighted_work_function": null, "surface_anisotropy": null, "shape_factor": null, "has_reconstructed": null, "possible_species": null, "has_props": null, "theoretical": null, "database_IDs": null, "fields_not_requested": ["builder_meta", "nsites", "elements", "nelements", "composition", "composition_reduced", "chemsys", "symmetry", "property_name", "deprecated", "deprecation_reasons", "last_updated", "origins", "warnings", "task_ids", "uncorrected_energy_per_atom", "equilibrium_reaction_energy_per_atom", "decomposes_to", "xas", "grain_boundaries", "cbm", "vbm", "is_gap_direct", "is_metal", "es_source_calc_id", "bandstructure", "dos", "dos_energy_up", "dos_energy_down", "is_magnetic", "ordering", "total_magnetization_normalized_vol", "total_magnetization_normalized_formula_units", "num_magnetic_sites", "num_unique_magnetic_sites", "types_of_magnetic_species", "bulk_modulus", "shear_modulus", "universal_anisotropy", "homogeneous_poisson", "e_total", "e_ionic", "e_electronic", "n", "e_ij_max", "weighted_surface_energy_EV_PER_ANG2", "weighted_surface_energy", "weighted_work_function", "surface_anisotropy", "shape_factor", "has_reconstructed", "possible_species", "has_props", "theoretical", "database_IDs"]}