{
  "builder_meta": null,
  "nsites": null,
  "elements": null,
  "nelements": null,
  "composition": null,
  "composition_reduced": null,
  "formula_pretty": "Pm3Cd",
  "formula_anonymous": "AB3",
  "chemsys": null,
  "volume": 243.2352095890441,
  "density": 7.4742250722858845,
  "density_atomic": 30.404401198630513,
  "symmetry": null,
  "property_name": null,
  "material_id": "mp-1186498",
  "deprecated": null,
  "deprecation_reasons": null,
  "last_updated": null,
  "origins": null,
  "warnings": null,
  "structure": {
    "@module": "pymatgen.core.structure",
    "@class": "Structure",
    "charge": 0,
    "lattice": {
      "matrix": [
        [7.12875048, -5e-8, 0.0],
        [-3.56437732, 6.17367992, 0.0],
        [0.0, 0.0, 5.52673855]
      ],
      "pbc": [true, true, true],
      "a": 7.12875048,
      "b": 7.128752305554008,
      "c": 5.52673855,
      "alpha": 90.0,
      "beta": 90.0,
      "gamma": 120.00001123445482,
      "volume": 243.2352095890441
    },
    "properties": {},
    "sites": [
      {
        "species": [{ "element": "Pm", "occu": 1 }],
        "abc": [0.17533734, 0.35067568, 0.249999],
        "properties": { "magmom": 0.234 },
        "label": "Pm",
        "xyz": [-4.293780654363033e-6, 2.1649593952814787, 1.3816791107614501]
      },
      {
        "species": [{ "element": "Pm", "occu": 1 }],
        "abc": [0.64932532, 0.82466266, 0.249999],
        "properties": { "magmom": 0.234 },
        "label": "Pm",
        "xyz": [1.6894693046712819, 5.091203272349521, 1.3816791107614501]
      },
      {
        "species": [{ "element": "Pm", "occu": 1 }],
        "abc": [0.17533734, 0.82466266, 0.249999],
        "properties": { "magmom": 0.234 },
        "label": "Pm",
        "xyz": [-1.689472735267948, 5.09120329604892, 1.3816791107614501]
      },
      {
        "species": [{ "element": "Pm", "occu": 1 }],
        "abc": [0.82466366, 0.6493243200000001, 0.75],
        "properties": { "magmom": 0.234 },
        "label": "Pm",
        "xyz": [3.564384582531134, 4.008720474718472, 4.1450539125]
      },
      {
        "species": [{ "element": "Pm", "occu": 1 }],
        "abc": [0.35067468, 0.17533634, 0.75],
        "properties": { "magmom": 0.234 },
        "label": "Pm",
        "xyz": [1.8749074197060376, 1.0824704239705587, 4.1450539125]
      },
      {
        "species": [{ "element": "Pm", "occu": 1 }],
        "abc": [0.82466266, 0.17533634, 0.75],
        "properties": { "magmom": 0.234 },
        "label": "Pm",
        "xyz": [5.253849459645268, 1.0824704002711598, 4.1450539125]
      },
      {
        "species": [{ "element": "Cd", "occu": 1 }],
        "abc": [0.333333999999999, 0.666667, 0.75],
        "properties": { "magmom": -0.012 },
        "label": "Cd",
        "xyz": [2.177707872696999e-6, 4.11578865455994, 4.1450539125]
      },
      {
        "species": [{ "element": "Cd", "occu": 1 }],
        "abc": [0.666666, 0.333333, 0.249999],
        "properties": { "magmom": -0.012 },
        "label": "Cd",
        "xyz": [3.56437098229212, 2.0578912154400597, 1.3816791107614501]
      }
    ]
  },
  "task_ids": null,
  "uncorrected_energy_per_atom": null,
  "energy_per_atom": -27.3275981375,
  "formation_energy_per_atom": -0.14589186812500102,
  "energy_above_hull": 0.0,
  "is_stable": true,
  "equilibrium_reaction_energy_per_atom": null,
  "decomposes_to": null,
  "xas": null,
  "grain_boundaries": null,
  "band_gap": 0.0,
  "cbm": null,
  "vbm": null,
  "efermi": 3.20241913,
  "is_gap_direct": null,
  "is_metal": null,
  "es_source_calc_id": null,
  "bandstructure": null,
  "dos": null,
  "dos_energy_up": null,
  "dos_energy_down": null,
  "is_magnetic": null,
  "ordering": null,
  "total_magnetization": 1.9126726,
  "total_magnetization_normalized_vol": null,
  "total_magnetization_normalized_formula_units": null,
  "num_magnetic_sites": null,
  "num_unique_magnetic_sites": null,
  "types_of_magnetic_species": null,
  "bulk_modulus": null,
  "shear_modulus": null,
  "universal_anisotropy": null,
  "homogeneous_poisson": null,
  "e_total": null,
  "e_ionic": null,
  "e_electronic": null,
  "n": null,
  "e_ij_max": null,
  "weighted_surface_energy_EV_PER_ANG2": null,
  "weighted_surface_energy": null,
  "weighted_work_function": null,
  "surface_anisotropy": null,
  "shape_factor": null,
  "has_reconstructed": null,
  "possible_species": null,
  "has_props": null,
  "theoretical": null,
  "database_IDs": null,
  "fields_not_requested": [
    "builder_meta",
    "nsites",
    "elements",
    "nelements",
    "composition",
    "composition_reduced",
    "chemsys",
    "symmetry",
    "property_name",
    "deprecated",
    "deprecation_reasons",
    "last_updated",
    "origins",
    "warnings",
    "task_ids",
    "uncorrected_energy_per_atom",
    "equilibrium_reaction_energy_per_atom",
    "decomposes_to",
    "xas",
    "grain_boundaries",
    "cbm",
    "vbm",
    "is_gap_direct",
    "is_metal",
    "es_source_calc_id",
    "bandstructure",
    "dos",
    "dos_energy_up",
    "dos_energy_down",
    "is_magnetic",
    "ordering",
    "total_magnetization_normalized_vol",
    "total_magnetization_normalized_formula_units",
    "num_magnetic_sites",
    "num_unique_magnetic_sites",
    "types_of_magnetic_species",
    "bulk_modulus",
    "shear_modulus",
    "universal_anisotropy",
    "homogeneous_poisson",
    "e_total",
    "e_ionic",
    "e_electronic",
    "n",
    "e_ij_max",
    "weighted_surface_energy_EV_PER_ANG2",
    "weighted_surface_energy",
    "weighted_work_function",
    "surface_anisotropy",
    "shape_factor",
    "has_reconstructed",
    "possible_species",
    "has_props",
    "theoretical",
    "database_IDs"
  ]
}
