{"builder_meta": null, "nsites": null, "elements": null, "nelements": null, "composition": null, "composition_reduced": null, "formula_pretty": "Pm3Cr", "formula_anonymous": "AB3", "chemsys": null, "volume": 116.63061370660547, "density": 6.933651668558786, "density_atomic": 29.15765342665137, "symmetry": null, "property_name": null, "material_id": "mp-1186497", "deprecated": null, "deprecation_reasons": null, "last_updated": null, "origins": null, "warnings": null, "structure": {"@module": "pymatgen.core.structure", "@class": "Structure", "charge": 0, "lattice": {"matrix": [[-2.410908, 2.410908, 5.01639], [2.410908, -2.410908, 5.01639], [2.410908, 2.410908, -5.01639]], "pbc": [true, true, true], "a": 6.065403811868424, "b": 6.065403811868424, "c": 6.065403811868424, "alpha": 133.15788502901927, "beta": 133.15788502901927, "gamma": 68.40630760713687, "volume": 116.63061370660547}, "properties": {}, "sites": [{"species": [{"element": "Pm", "occu": 1}], "abc": [0.749999, 0.249999, 0.499998999999999], "properties": {"magmom": -0.168}, "label": "Pm", "xyz": [-2.410908002348222e-06, 2.410905589091998, 2.5081899836100052]}, {"species": [{"element": "Pm", "occu": 1}], "abc": [0.249999, 0.749999, 0.499998999999999], "properties": {"magmom": -0.168}, "label": "Pm", "xyz": [2.410905589091998, -2.410908002348222e-06, 2.5081899836100052]}, {"species": [{"element": "Pm", "occu": 1}], "abc": [0.5, 0.5, 0.0], "properties": {"magmom": -0.14100000000000001}, "label": "Pm", "xyz": [0.0, 0.0, 5.01639]}, {"species": [{"element": "Cr", "occu": 1}], "abc": [0.0, 0.0, 0.0], "properties": {"magmom": 3.626}, "label": "Cr", "xyz": [0.0, 0.0, 0.0]}]}, "task_ids": null, "uncorrected_energy_per_atom": null, "energy_per_atom": -25.562158647499995, "formation_energy_per_atom": 0.36163629687500104, "energy_above_hull": 0.36163629687500104, "is_stable": false, "equilibrium_reaction_energy_per_atom": null, "decomposes_to": null, "xas": null, "grain_boundaries": null, "band_gap": 0.0, "cbm": null, "vbm": null, "efermi": 3.49278419, "is_gap_direct": null, "is_metal": null, "es_source_calc_id": null, "bandstructure": null, "dos": null, "dos_energy_up": null, "dos_energy_down": null, "is_magnetic": null, "ordering": null, "total_magnetization": 3.4304938, "total_magnetization_normalized_vol": null, "total_magnetization_normalized_formula_units": null, "num_magnetic_sites": null, "num_unique_magnetic_sites": null, "types_of_magnetic_species": null, "bulk_modulus": null, "shear_modulus": null, "universal_anisotropy": null, "homogeneous_poisson": null, "e_total": null, "e_ionic": null, "e_electronic": null, "n": null, "e_ij_max": null, "weighted_surface_energy_EV_PER_ANG2": null, "weighted_surface_energy": null, "weighted_work_function": null, "surface_anisotropy": null, "shape_factor": null, "has_reconstructed": null, "possible_species": null, "has_props": null, "theoretical": null, "database_IDs": null, "fields_not_requested": ["builder_meta", "nsites", "elements", "nelements", "composition", "composition_reduced", "chemsys", "symmetry", "property_name", "deprecated", "deprecation_reasons", "last_updated", "origins", "warnings", "task_ids", "uncorrected_energy_per_atom", "equilibrium_reaction_energy_per_atom", "decomposes_to", "xas", "grain_boundaries", "cbm", "vbm", "is_gap_direct", "is_metal", "es_source_calc_id", "bandstructure", "dos", "dos_energy_up", "dos_energy_down", "is_magnetic", "ordering", "total_magnetization_normalized_vol", "total_magnetization_normalized_formula_units", "num_magnetic_sites", "num_unique_magnetic_sites", "types_of_magnetic_species", "bulk_modulus", "shear_modulus", "universal_anisotropy", "homogeneous_poisson", "e_total", "e_ionic", "e_electronic", "n", "e_ij_max", "weighted_surface_energy_EV_PER_ANG2", "weighted_surface_energy", "weighted_work_function", "surface_anisotropy", "shape_factor", "has_reconstructed", "possible_species", "has_props", "theoretical", "database_IDs"]}