{
  "builder_meta": null,
  "nsites": null,
  "elements": null,
  "nelements": null,
  "composition": null,
  "composition_reduced": null,
  "formula_pretty": "Pm3Dy",
  "formula_anonymous": "AB3",
  "chemsys": null,
  "volume": 274.35776929925123,
  "density": 7.232688141674635,
  "density_atomic": 34.294721162406404,
  "symmetry": null,
  "property_name": null,
  "material_id": "mp-1186504",
  "deprecated": null,
  "deprecation_reasons": null,
  "last_updated": null,
  "origins": null,
  "warnings": null,
  "structure": {
    "@module": "pymatgen.core.structure",
    "@class": "Structure",
    "charge": 0,
    "lattice": {
      "matrix": [
        [3.70024213, -6.40900742, -0.0],
        [3.70024213, 6.40900742, 0.0],
        [-0.0, 0.0, 5.78450698]
      ],
      "pbc": [true, true, true],
      "a": 7.400484303762964,
      "b": 7.400484303762964,
      "c": 5.78450698,
      "alpha": 90.0,
      "beta": 90.0,
      "gamma": 120.0000003912358,
      "volume": 274.35776929925123
    },
    "properties": {},
    "sites": [
      {
        "species": [{ "element": "Pm", "occu": 1 }],
        "abc": [0.16717391, 0.33434781, 0.25],
        "properties": { "magmom": 0.0 },
        "label": "Pm",
        "xyz": [1.8557517974540638, 1.0714187655303382, 1.446126745]
      },
      {
        "species": [{ "element": "Pm", "occu": 1 }],
        "abc": [0.66565219, 0.83282609, 0.25],
        "properties": { "magmom": 0.0 },
        "label": "Pm",
        "xyz": [5.5447324625459355, 1.0714187655303373, 1.446126745]
      },
      {
        "species": [{ "element": "Pm", "occu": 1 }],
        "abc": [0.16717391, 0.83282609, 0.25],
        "properties": { "magmom": 0.0 },
        "label": "Pm",
        "xyz": [3.7002421299999995, 4.266169760759174, 1.446126745]
      },
      {
        "species": [{ "element": "Pm", "occu": 1 }],
        "abc": [0.83282609, 0.66565219, 0.75],
        "properties": { "magmom": 0.0 },
        "label": "Pm",
        "xyz": [5.5447324625459355, -1.0714187655303373, 4.338380235]
      },
      {
        "species": [{ "element": "Pm", "occu": 1 }],
        "abc": [0.33434781, 0.16717391, 0.75],
        "properties": { "magmom": 0.0 },
        "label": "Pm",
        "xyz": [1.8557517974540638, -1.0714187655303382, 4.338380235]
      },
      {
        "species": [{ "element": "Pm", "occu": 1 }],
        "abc": [0.83282609, 0.16717391, 0.75],
        "properties": { "magmom": 0.0 },
        "label": "Pm",
        "xyz": [3.7002421299999995, -4.266169760759174, 4.338380235]
      },
      {
        "species": [{ "element": "Dy", "occu": 1 }],
        "abc": [0.333333, 0.666667, 0.75],
        "properties": { "magmom": 0.0 },
        "label": "Dy",
        "xyz": [3.7002421300000004, 2.1363400793382805, 4.338380235]
      },
      {
        "species": [{ "element": "Dy", "occu": 1 }],
        "abc": [0.666667, 0.333333, 0.25],
        "properties": { "magmom": 0.0 },
        "label": "Dy",
        "xyz": [3.7002421300000004, -2.1363400793382805, 1.446126745]
      }
    ]
  },
  "task_ids": null,
  "uncorrected_energy_per_atom": null,
  "energy_per_atom": -30.12931758625,
  "formation_energy_per_atom": 0.021592566874996003,
  "energy_above_hull": 0.021592566874996003,
  "is_stable": false,
  "equilibrium_reaction_energy_per_atom": null,
  "decomposes_to": null,
  "xas": null,
  "grain_boundaries": null,
  "band_gap": 0.0,
  "cbm": null,
  "vbm": null,
  "efermi": 3.18163756,
  "is_gap_direct": null,
  "is_metal": null,
  "es_source_calc_id": null,
  "bandstructure": null,
  "dos": null,
  "dos_energy_up": null,
  "dos_energy_down": null,
  "is_magnetic": null,
  "ordering": null,
  "total_magnetization": 0.0003031,
  "total_magnetization_normalized_vol": null,
  "total_magnetization_normalized_formula_units": null,
  "num_magnetic_sites": null,
  "num_unique_magnetic_sites": null,
  "types_of_magnetic_species": null,
  "bulk_modulus": null,
  "shear_modulus": null,
  "universal_anisotropy": null,
  "homogeneous_poisson": null,
  "e_total": null,
  "e_ionic": null,
  "e_electronic": null,
  "n": null,
  "e_ij_max": null,
  "weighted_surface_energy_EV_PER_ANG2": null,
  "weighted_surface_energy": null,
  "weighted_work_function": null,
  "surface_anisotropy": null,
  "shape_factor": null,
  "has_reconstructed": null,
  "possible_species": null,
  "has_props": null,
  "theoretical": null,
  "database_IDs": null,
  "fields_not_requested": [
    "builder_meta",
    "nsites",
    "elements",
    "nelements",
    "composition",
    "composition_reduced",
    "chemsys",
    "symmetry",
    "property_name",
    "deprecated",
    "deprecation_reasons",
    "last_updated",
    "origins",
    "warnings",
    "task_ids",
    "uncorrected_energy_per_atom",
    "equilibrium_reaction_energy_per_atom",
    "decomposes_to",
    "xas",
    "grain_boundaries",
    "cbm",
    "vbm",
    "is_gap_direct",
    "is_metal",
    "es_source_calc_id",
    "bandstructure",
    "dos",
    "dos_energy_up",
    "dos_energy_down",
    "is_magnetic",
    "ordering",
    "total_magnetization_normalized_vol",
    "total_magnetization_normalized_formula_units",
    "num_magnetic_sites",
    "num_unique_magnetic_sites",
    "types_of_magnetic_species",
    "bulk_modulus",
    "shear_modulus",
    "universal_anisotropy",
    "homogeneous_poisson",
    "e_total",
    "e_ionic",
    "e_electronic",
    "n",
    "e_ij_max",
    "weighted_surface_energy_EV_PER_ANG2",
    "weighted_surface_energy",
    "weighted_work_function",
    "surface_anisotropy",
    "shape_factor",
    "has_reconstructed",
    "possible_species",
    "has_props",
    "theoretical",
    "database_IDs"
  ]
}
