{
  "builder_meta": null,
  "nsites": null,
  "elements": null,
  "nelements": null,
  "composition": null,
  "composition_reduced": null,
  "formula_pretty": "Pm3Er",
  "formula_anonymous": "AB3",
  "chemsys": null,
  "volume": 273.87450535090534,
  "density": 7.303159499494781,
  "density_atomic": 34.23431316886317,
  "symmetry": null,
  "property_name": null,
  "material_id": "mp-977053",
  "deprecated": null,
  "deprecation_reasons": null,
  "last_updated": null,
  "origins": null,
  "warnings": null,
  "structure": {
    "@module": "pymatgen.core.structure",
    "@class": "Structure",
    "charge": 0,
    "lattice": {
      "matrix": [
        [7.4217043, -8e-8, 0.0],
        [-3.71085429, 6.427384509999999, -0.0],
        [0.0, 0.0, 5.74134547]
      ],
      "pbc": [true, true, true],
      "a": 7.4217043,
      "b": 7.421705410550821,
      "c": 5.74134547,
      "alpha": 90.0,
      "beta": 90.0,
      "gamma": 120.00001474434774,
      "volume": 273.8745053509053
    },
    "properties": {},
    "sites": [
      {
        "species": [{ "element": "Pm", "occu": 1 }],
        "abc": [0.16730827, 0.33461555, 0.25],
        "properties": { "magmom": -0.006 },
        "label": "Pm",
        "xyz": [2.9576663518326995e-6, 2.1507027894904684, 1.4353363675]
      },
      {
        "species": [{ "element": "Pm", "occu": 1 }],
        "abc": [0.66538345, 0.83269173, 0.25],
        "properties": { "magmom": -0.006 },
        "label": "Pm",
        "xyz": [1.848281533495813, 5.352029873776425, 1.4353363675]
      },
      {
        "species": [{ "element": "Pm", "occu": 1 }],
        "abc": [0.16730727, 0.83269173, 0.25],
        "properties": { "magmom": -0.006 },
        "label": "Pm",
        "xyz": [-1.8482925933377605, 5.35202991362252, 1.4353363675]
      },
      {
        "species": [{ "element": "Pm", "occu": 1 }],
        "abc": [0.83269173, 0.66538345, 0.75],
        "properties": { "magmom": -0.006 },
        "label": "Pm",
        "xyz": [3.710850763187938, 4.276675213125021, 4.3060091025]
      },
      {
        "species": [{ "element": "Pm", "occu": 1 }],
        "abc": [0.33461555, 0.16730827, 0.75],
        "properties": { "magmom": -0.006 },
        "label": "Pm",
        "xyz": [1.8625610547998868, 1.0753545562236535, 4.3060091025]
      },
      {
        "species": [{ "element": "Pm", "occu": 1 }],
        "abc": [0.83269273, 0.16730827, 0.75],
        "properties": { "magmom": -0.006 },
        "label": "Pm",
        "xyz": [5.559142603337761, 1.0753545163774791, 4.3060091025]
      },
      {
        "species": [{ "element": "Er", "occu": 1 }],
        "abc": [0.333333999999999, 0.666667999999999, 0.75],
        "properties": { "magmom": -0.008 },
        "label": "Er",
        "xyz": [-1.426669523407753e-6, 4.284931549845952, 4.3060091025]
      },
      {
        "species": [{ "element": "Er", "occu": 1 }],
        "abc": [0.666667, 0.333333, 0.25],
        "properties": { "magmom": -0.008 },
        "label": "Er",
        "xyz": [3.7108551475195295, 2.1424593075384695, 1.4353363675]
      }
    ]
  },
  "task_ids": null,
  "uncorrected_energy_per_atom": null,
  "energy_per_atom": -30.60992164875,
  "formation_energy_per_atom": 0.026896489791663,
  "energy_above_hull": 0.026896489791663,
  "is_stable": false,
  "equilibrium_reaction_energy_per_atom": null,
  "decomposes_to": null,
  "xas": null,
  "grain_boundaries": null,
  "band_gap": 0.0,
  "cbm": null,
  "vbm": null,
  "efermi": 3.13026327,
  "is_gap_direct": null,
  "is_metal": null,
  "es_source_calc_id": null,
  "bandstructure": null,
  "dos": null,
  "dos_energy_up": null,
  "dos_energy_down": null,
  "is_magnetic": null,
  "ordering": null,
  "total_magnetization": 0.0781292,
  "total_magnetization_normalized_vol": null,
  "total_magnetization_normalized_formula_units": null,
  "num_magnetic_sites": null,
  "num_unique_magnetic_sites": null,
  "types_of_magnetic_species": null,
  "bulk_modulus": null,
  "shear_modulus": null,
  "universal_anisotropy": null,
  "homogeneous_poisson": null,
  "e_total": null,
  "e_ionic": null,
  "e_electronic": null,
  "n": null,
  "e_ij_max": null,
  "weighted_surface_energy_EV_PER_ANG2": null,
  "weighted_surface_energy": null,
  "weighted_work_function": null,
  "surface_anisotropy": null,
  "shape_factor": null,
  "has_reconstructed": null,
  "possible_species": null,
  "has_props": null,
  "theoretical": null,
  "database_IDs": null,
  "fields_not_requested": [
    "builder_meta",
    "nsites",
    "elements",
    "nelements",
    "composition",
    "composition_reduced",
    "chemsys",
    "symmetry",
    "property_name",
    "deprecated",
    "deprecation_reasons",
    "last_updated",
    "origins",
    "warnings",
    "task_ids",
    "uncorrected_energy_per_atom",
    "equilibrium_reaction_energy_per_atom",
    "decomposes_to",
    "xas",
    "grain_boundaries",
    "cbm",
    "vbm",
    "is_gap_direct",
    "is_metal",
    "es_source_calc_id",
    "bandstructure",
    "dos",
    "dos_energy_up",
    "dos_energy_down",
    "is_magnetic",
    "ordering",
    "total_magnetization_normalized_vol",
    "total_magnetization_normalized_formula_units",
    "num_magnetic_sites",
    "num_unique_magnetic_sites",
    "types_of_magnetic_species",
    "bulk_modulus",
    "shear_modulus",
    "universal_anisotropy",
    "homogeneous_poisson",
    "e_total",
    "e_ionic",
    "e_electronic",
    "n",
    "e_ij_max",
    "weighted_surface_energy_EV_PER_ANG2",
    "weighted_surface_energy",
    "weighted_work_function",
    "surface_anisotropy",
    "shape_factor",
    "has_reconstructed",
    "possible_species",
    "has_props",
    "theoretical",
    "database_IDs"
  ]
}
