{"builder_meta": null, "nsites": null, "elements": null, "nelements": null, "composition": null, "composition_reduced": null, "formula_pretty": "Pm3Ge", "formula_anonymous": "AB3", "chemsys": null, "volume": 107.92612147613377, "density": 7.810491475460191, "density_atomic": 26.981530369033443, "symmetry": null, "property_name": null, "material_id": "mp-862731", "deprecated": null, "deprecation_reasons": null, "last_updated": null, "origins": null, "warnings": null, "structure": {"@module": "pymatgen.core.structure", "@class": "Structure", "charge": 0, "lattice": {"matrix": [[4.76111703, 0.0, 0.0], [0.0, 4.76111703, 0.0], [-0.0, -0.0, 4.76111703]], "pbc": [true, true, true], "a": 4.76111703, "b": 4.76111703, "c": 4.76111703, "alpha": 90.0, "beta": 90.0, "gamma": 90.0, "volume": 107.92612147613377}, "properties": {}, "sites": [{"species": [{"element": "Pm", "occu": 1}], "abc": [0.0, 0.500001, 0.500001], "properties": {"magmom": 0.0}, "label": "Pm", "xyz": [0.0, 2.38056327611703, 2.38056327611703]}, {"species": [{"element": "Pm", "occu": 1}], "abc": [0.500001, 0.0, 0.500001], "properties": {"magmom": 0.0}, "label": "Pm", "xyz": [2.38056327611703, 0.0, 2.38056327611703]}, {"species": [{"element": "Pm", "occu": 1}], "abc": [0.500001, 0.500001, 0.0], "properties": {"magmom": 0.0}, "label": "Pm", "xyz": [2.38056327611703, 2.38056327611703, 0.0]}, {"species": [{"element": "Ge", "occu": 1}], "abc": [0.0, 0.0, 0.0], "properties": {"magmom": 0.0}, "label": "Ge", "xyz": [0.0, 0.0, 0.0]}]}, "task_ids": null, "uncorrected_energy_per_atom": null, "energy_per_atom": -26.0228363675, "formation_energy_per_atom": -0.39938262562500104, "energy_above_hull": 0.0, "is_stable": true, "equilibrium_reaction_energy_per_atom": null, "decomposes_to": null, "xas": null, "grain_boundaries": null, "band_gap": 0.0, "cbm": null, "vbm": null, "efermi": 3.89606459, "is_gap_direct": null, "is_metal": null, "es_source_calc_id": null, "bandstructure": null, "dos": null, "dos_energy_up": null, "dos_energy_down": null, "is_magnetic": null, "ordering": null, "total_magnetization": 0.0001341, "total_magnetization_normalized_vol": null, "total_magnetization_normalized_formula_units": null, "num_magnetic_sites": null, "num_unique_magnetic_sites": null, "types_of_magnetic_species": null, "bulk_modulus": null, "shear_modulus": null, "universal_anisotropy": null, "homogeneous_poisson": null, "e_total": null, "e_ionic": null, "e_electronic": null, "n": null, "e_ij_max": null, "weighted_surface_energy_EV_PER_ANG2": null, "weighted_surface_energy": null, "weighted_work_function": null, "surface_anisotropy": null, "shape_factor": null, "has_reconstructed": null, "possible_species": null, "has_props": null, "theoretical": null, "database_IDs": null, "fields_not_requested": ["builder_meta", "nsites", "elements", "nelements", "composition", "composition_reduced", "chemsys", "symmetry", "property_name", "deprecated", "deprecation_reasons", "last_updated", "origins", "warnings", "task_ids", "uncorrected_energy_per_atom", "equilibrium_reaction_energy_per_atom", "decomposes_to", "xas", "grain_boundaries", "cbm", "vbm", "is_gap_direct", "is_metal", "es_source_calc_id", "bandstructure", "dos", "dos_energy_up", "dos_energy_down", "is_magnetic", "ordering", "total_magnetization_normalized_vol", "total_magnetization_normalized_formula_units", "num_magnetic_sites", "num_unique_magnetic_sites", "types_of_magnetic_species", "bulk_modulus", "shear_modulus", "universal_anisotropy", "homogeneous_poisson", "e_total", "e_ionic", "e_electronic", "n", "e_ij_max", "weighted_surface_energy_EV_PER_ANG2", "weighted_surface_energy", "weighted_work_function", "surface_anisotropy", "shape_factor", "has_reconstructed", "possible_species", "has_props", "theoretical", "database_IDs"]}