{
  "builder_meta": null,
  "nsites": null,
  "elements": null,
  "nelements": null,
  "composition": null,
  "composition_reduced": null,
  "formula_pretty": "Pm3Hg",
  "formula_anonymous": "AB3",
  "chemsys": null,
  "volume": 235.7976118849426,
  "density": 8.951931420368133,
  "density_atomic": 29.474701485617825,
  "symmetry": null,
  "property_name": null,
  "material_id": "mp-1186514",
  "deprecated": null,
  "deprecation_reasons": null,
  "last_updated": null,
  "origins": null,
  "warnings": null,
  "structure": {
    "@module": "pymatgen.core.structure",
    "@class": "Structure",
    "charge": 0,
    "lattice": {
      "matrix": [
        [7.0446596, -5.28e-6, 0.0],
        [-3.5223316000000002, 6.10084448, 0.0],
        [0.0, 0.0, 5.48642723]
      ],
      "pbc": [true, true, true],
      "a": 7.044659600001979,
      "b": 7.044652104220977,
      "c": 5.48642723,
      "alpha": 90.0,
      "beta": 90.0,
      "gamma": 120.00009504612802,
      "volume": 235.7976118849426
    },
    "properties": {},
    "sites": [
      {
        "species": [{ "element": "Pm", "occu": 1 }],
        "abc": [0.17622801, 0.35245851, 0.249999],
        "properties": { "magmom": 0.278 },
        "label": "Pm",
        "xyz": [-9.405026520026283e-6, 2.1502936246786324, 1.37160132107277]
      },
      {
        "species": [{ "element": "Pm", "occu": 1 }],
        "abc": [0.64760324, 0.82378514, 0.249999],
        "properties": { "magmom": 0.278 },
        "label": "Pm",
        "xyz": [1.6604999514246797, 5.02578160472992, 1.37160132107277]
      },
      {
        "species": [{ "element": "Pm", "occu": 1 }],
        "abc": [0.17618193000000001, 0.82378205, 0.249999],
        "properties": { "magmom": 0.278 },
        "label": "Pm",
        "xyz": [-1.6604918217067521, 5.025765242224994, 1.37160132107277]
      },
      {
        "species": [{ "element": "Pm", "occu": 1 }],
        "abc": [0.82381562, 0.64763532, 0.749999],
        "properties": { "magmom": 0.278 },
        "label": "Pm",
        "xyz": [3.52231426315084, 3.95111801732856, 4.11481493607277]
      },
      {
        "species": [{ "element": "Pm", "occu": 1 }],
        "abc": [0.35242844, 0.17619734, 0.749999],
        "properties": { "magmom": 0.278 },
        "label": "Pm",
        "xyz": [1.8621129346410799, 1.07495070830752, 4.11481493607277]
      },
      {
        "species": [{ "element": "Pm", "occu": 1 }],
        "abc": [0.82376919, 0.17619375, 0.749999],
        "properties": { "magmom": 0.278 },
        "label": "Pm",
        "xyz": [5.182560719170224, 1.074926317596677, 4.11481493607277]
      },
      {
        "species": [{ "element": "Hg", "occu": 1 }],
        "abc": [0.33331014000000003, 0.666637599999999, 0.749999],
        "properties": { "magmom": -0.009000000000000001 },
        "label": "Hg",
        "xyz": [-6.220669981260585e-5, 4.067050562242904, 4.11481493607277]
      },
      {
        "species": [{ "element": "Hg", "occu": 1 }],
        "abc": [0.66666242, 0.3333103, 0.249999],
        "properties": { "magmom": -0.009000000000000001 },
        "label": "Hg",
        "xyz": [3.522380414716752, 2.0334707839045665, 1.37160132107277]
      }
    ]
  },
  "task_ids": null,
  "uncorrected_energy_per_atom": null,
  "energy_per_atom": -34.7222459975,
  "formation_energy_per_atom": -0.22483502000000702,
  "energy_above_hull": 0.0,
  "is_stable": true,
  "equilibrium_reaction_energy_per_atom": null,
  "decomposes_to": null,
  "xas": null,
  "grain_boundaries": null,
  "band_gap": 0.0,
  "cbm": null,
  "vbm": null,
  "efermi": 3.56236984,
  "is_gap_direct": null,
  "is_metal": null,
  "es_source_calc_id": null,
  "bandstructure": null,
  "dos": null,
  "dos_energy_up": null,
  "dos_energy_down": null,
  "is_magnetic": null,
  "ordering": null,
  "total_magnetization": 2.2232633,
  "total_magnetization_normalized_vol": null,
  "total_magnetization_normalized_formula_units": null,
  "num_magnetic_sites": null,
  "num_unique_magnetic_sites": null,
  "types_of_magnetic_species": null,
  "bulk_modulus": null,
  "shear_modulus": null,
  "universal_anisotropy": null,
  "homogeneous_poisson": null,
  "e_total": null,
  "e_ionic": null,
  "e_electronic": null,
  "n": null,
  "e_ij_max": null,
  "weighted_surface_energy_EV_PER_ANG2": null,
  "weighted_surface_energy": null,
  "weighted_work_function": null,
  "surface_anisotropy": null,
  "shape_factor": null,
  "has_reconstructed": null,
  "possible_species": null,
  "has_props": null,
  "theoretical": null,
  "database_IDs": null,
  "fields_not_requested": [
    "builder_meta",
    "nsites",
    "elements",
    "nelements",
    "composition",
    "composition_reduced",
    "chemsys",
    "symmetry",
    "property_name",
    "deprecated",
    "deprecation_reasons",
    "last_updated",
    "origins",
    "warnings",
    "task_ids",
    "uncorrected_energy_per_atom",
    "equilibrium_reaction_energy_per_atom",
    "decomposes_to",
    "xas",
    "grain_boundaries",
    "cbm",
    "vbm",
    "is_gap_direct",
    "is_metal",
    "es_source_calc_id",
    "bandstructure",
    "dos",
    "dos_energy_up",
    "dos_energy_down",
    "is_magnetic",
    "ordering",
    "total_magnetization_normalized_vol",
    "total_magnetization_normalized_formula_units",
    "num_magnetic_sites",
    "num_unique_magnetic_sites",
    "types_of_magnetic_species",
    "bulk_modulus",
    "shear_modulus",
    "universal_anisotropy",
    "homogeneous_poisson",
    "e_total",
    "e_ionic",
    "e_electronic",
    "n",
    "e_ij_max",
    "weighted_surface_energy_EV_PER_ANG2",
    "weighted_surface_energy",
    "weighted_work_function",
    "surface_anisotropy",
    "shape_factor",
    "has_reconstructed",
    "possible_species",
    "has_props",
    "theoretical",
    "database_IDs"
  ]
}
