{
  "builder_meta": null,
  "nsites": null,
  "elements": null,
  "nelements": null,
  "composition": null,
  "composition_reduced": null,
  "formula_pretty": "Pm3Ho",
  "formula_anonymous": "AB3",
  "chemsys": null,
  "volume": 272.73589824450977,
  "density": 7.305292335992613,
  "density_atomic": 34.09198728056372,
  "symmetry": null,
  "property_name": null,
  "material_id": "mp-1186521",
  "deprecated": null,
  "deprecation_reasons": null,
  "last_updated": null,
  "origins": null,
  "warnings": null,
  "structure": {
    "@module": "pymatgen.core.structure",
    "@class": "Structure",
    "charge": 0,
    "lattice": {
      "matrix": [
        [3.69383625, -6.39791093, -0.0],
        [3.69383625, 6.39791093, 0.0],
        [0.0, -0.0, 5.77027459]
      ],
      "pbc": [true, true, true],
      "a": 7.3876715215301445,
      "b": 7.3876715215301445,
      "c": 5.77027459,
      "alpha": 90.0,
      "beta": 90.0,
      "gamma": 119.99999123742228,
      "volume": 272.73589824450977
    },
    "properties": {},
    "sites": [
      {
        "species": [{ "element": "Pm", "occu": 1 }],
        "abc": [0.1677099, 0.335418799999999, 0.25],
        "properties": { "magmom": 0.0 },
        "label": "Pm",
        "xyz": [1.8584750304753712, 1.0729866043682708, 1.4425686475]
      },
      {
        "species": [{ "element": "Pm", "occu": 1 }],
        "abc": [0.6645812, 0.832290099999999, 0.25],
        "properties": { "magmom": 0.0 },
        "label": "Pm",
        "xyz": [5.529197469524622, 1.0729866043682703, 1.4425686475]
      },
      {
        "species": [{ "element": "Pm", "occu": 1 }],
        "abc": [0.1677099, 0.832290099999999, 0.25],
        "properties": { "magmom": 0.0 },
        "label": "Pm",
        "xyz": [3.6938362499999964, 4.25192492544158, 1.4425686475]
      },
      {
        "species": [{ "element": "Pm", "occu": 1 }],
        "abc": [0.832290099999999, 0.6645812, 0.75],
        "properties": { "magmom": 0.0 },
        "label": "Pm",
        "xyz": [5.529197469524622, -1.0729866043682703, 4.3277059425]
      },
      {
        "species": [{ "element": "Pm", "occu": 1 }],
        "abc": [0.335418799999999, 0.1677099, 0.75],
        "properties": { "magmom": 0.0 },
        "label": "Pm",
        "xyz": [1.8584750304753712, -1.0729866043682708, 4.3277059425]
      },
      {
        "species": [{ "element": "Pm", "occu": 1 }],
        "abc": [0.832290099999999, 0.1677099, 0.75],
        "properties": { "magmom": 0.0 },
        "label": "Pm",
        "xyz": [3.6938362499999964, -4.25192492544158, 4.3277059425]
      },
      {
        "species": [{ "element": "Ho", "occu": 1 }],
        "abc": [0.333333, 0.666667, 0.75],
        "properties": { "magmom": 0.0 },
        "label": "Ho",
        "xyz": [3.69383625, 2.13264124194062, 4.3277059425]
      },
      {
        "species": [{ "element": "Ho", "occu": 1 }],
        "abc": [0.666667, 0.333333, 0.25],
        "properties": { "magmom": 0.0 },
        "label": "Ho",
        "xyz": [3.69383625, -2.13264124194062, 1.4425686475]
      }
    ]
  },
  "task_ids": null,
  "uncorrected_energy_per_atom": null,
  "energy_per_atom": -30.35473500875,
  "formation_energy_per_atom": 0.021060316874997,
  "energy_above_hull": 0.021060316874997,
  "is_stable": false,
  "equilibrium_reaction_energy_per_atom": null,
  "decomposes_to": null,
  "xas": null,
  "grain_boundaries": null,
  "band_gap": 0.0,
  "cbm": null,
  "vbm": null,
  "efermi": 3.13764557,
  "is_gap_direct": null,
  "is_metal": null,
  "es_source_calc_id": null,
  "bandstructure": null,
  "dos": null,
  "dos_energy_up": null,
  "dos_energy_down": null,
  "is_magnetic": null,
  "ordering": null,
  "total_magnetization": 1.2400000000000002e-5,
  "total_magnetization_normalized_vol": null,
  "total_magnetization_normalized_formula_units": null,
  "num_magnetic_sites": null,
  "num_unique_magnetic_sites": null,
  "types_of_magnetic_species": null,
  "bulk_modulus": null,
  "shear_modulus": null,
  "universal_anisotropy": null,
  "homogeneous_poisson": null,
  "e_total": null,
  "e_ionic": null,
  "e_electronic": null,
  "n": null,
  "e_ij_max": null,
  "weighted_surface_energy_EV_PER_ANG2": null,
  "weighted_surface_energy": null,
  "weighted_work_function": null,
  "surface_anisotropy": null,
  "shape_factor": null,
  "has_reconstructed": null,
  "possible_species": null,
  "has_props": null,
  "theoretical": null,
  "database_IDs": null,
  "fields_not_requested": [
    "builder_meta",
    "nsites",
    "elements",
    "nelements",
    "composition",
    "composition_reduced",
    "chemsys",
    "symmetry",
    "property_name",
    "deprecated",
    "deprecation_reasons",
    "last_updated",
    "origins",
    "warnings",
    "task_ids",
    "uncorrected_energy_per_atom",
    "equilibrium_reaction_energy_per_atom",
    "decomposes_to",
    "xas",
    "grain_boundaries",
    "cbm",
    "vbm",
    "is_gap_direct",
    "is_metal",
    "es_source_calc_id",
    "bandstructure",
    "dos",
    "dos_energy_up",
    "dos_energy_down",
    "is_magnetic",
    "ordering",
    "total_magnetization_normalized_vol",
    "total_magnetization_normalized_formula_units",
    "num_magnetic_sites",
    "num_unique_magnetic_sites",
    "types_of_magnetic_species",
    "bulk_modulus",
    "shear_modulus",
    "universal_anisotropy",
    "homogeneous_poisson",
    "e_total",
    "e_ionic",
    "e_electronic",
    "n",
    "e_ij_max",
    "weighted_surface_energy_EV_PER_ANG2",
    "weighted_surface_energy",
    "weighted_work_function",
    "surface_anisotropy",
    "shape_factor",
    "has_reconstructed",
    "possible_species",
    "has_props",
    "theoretical",
    "database_IDs"
  ]
}
