{"builder_meta": null, "nsites": null, "elements": null, "nelements": null, "composition": null, "composition_reduced": null, "formula_pretty": "Pm3Np", "formula_anonymous": "AB3", "chemsys": null, "volume": 255.33259387257564, "density": 8.740617371490643, "density_atomic": 31.916574234071955, "symmetry": null, "property_name": null, "material_id": "mp-1186578", "deprecated": null, "deprecation_reasons": null, "last_updated": null, "origins": null, "warnings": null, "structure": {"@module": "pymatgen.core.structure", "@class": "Structure", "charge": 0, "lattice": {"matrix": [[3.58337, -6.206579, 0.0], [3.58337, 6.206579, 0.0], [0.0, 0.0, 5.74027]], "pbc": [true, true, true], "a": 7.166740084595017, "b": 7.166740084595017, "c": 5.74027, "alpha": 90.0, "beta": 90.0, "gamma": 120.00000078093545, "volume": 255.33259387257564}, "properties": {}, "sites": [{"species": [{"element": "Pm", "occu": 1}], "abc": [0.8307800000000001, 0.16922, 0.75], "properties": {"magmom": -0.043000000000000003}, "label": "Pm", "xyz": [3.58337, -4.10602440324, 4.3052025]}, {"species": [{"element": "Pm", "occu": 1}], "abc": [0.338439, 0.16922, 0.75], "properties": {"magmom": -0.045}, "label": "Pm", "xyz": [1.8191300308299998, -1.0502710918009999, 4.3052025]}, {"species": [{"element": "Pm", "occu": 1}], "abc": [0.8307800000000001, 0.661561, 0.75], "properties": {"magmom": -0.056}, "label": "Pm", "xyz": [5.34760996917, -1.050271091801001, 4.3052025]}, {"species": [{"element": "Pm", "occu": 1}], "abc": [0.16922, 0.8307800000000001, 0.25], "properties": {"magmom": -0.065}, "label": "Pm", "xyz": [3.58337, 4.10602440324, 1.4350675]}, {"species": [{"element": "Pm", "occu": 1}], "abc": [0.661561, 0.8307800000000001, 0.25], "properties": {"magmom": -0.061}, "label": "Pm", "xyz": [5.34760996917, 1.050271091801001, 1.4350675]}, {"species": [{"element": "Pm", "occu": 1}], "abc": [0.16922, 0.338439, 0.25], "properties": {"magmom": -0.055}, "label": "Pm", "xyz": [1.8191300308299998, 1.0502710918009999, 1.4350675]}, {"species": [{"element": "Np", "occu": 1}], "abc": [0.666667, 0.333333, 0.25], "properties": {"magmom": -4.008}, "label": "Np", "xyz": [3.58337, -2.068863804386, 1.4350675]}, {"species": [{"element": "Np", "occu": 1}], "abc": [0.333333, 0.666667, 0.75], "properties": {"magmom": 4.5440000000000005}, "label": "Np", "xyz": [3.58337, 2.068863804386, 4.3052025]}]}, "task_ids": null, "uncorrected_energy_per_atom": null, "energy_per_atom": -42.52381710625, "formation_energy_per_atom": 0.387695123437502, "energy_above_hull": 0.387695123437502, "is_stable": false, "equilibrium_reaction_energy_per_atom": null, "decomposes_to": null, "xas": null, "grain_boundaries": null, "band_gap": 0.0, "cbm": null, "vbm": null, "efermi": 5.22578211, "is_gap_direct": null, "is_metal": null, "es_source_calc_id": null, "bandstructure": null, "dos": null, "dos_energy_up": null, "dos_energy_down": null, "is_magnetic": null, "ordering": null, "total_magnetization": 0.7194463, "total_magnetization_normalized_vol": null, "total_magnetization_normalized_formula_units": null, "num_magnetic_sites": null, "num_unique_magnetic_sites": null, "types_of_magnetic_species": null, "bulk_modulus": null, "shear_modulus": null, "universal_anisotropy": null, "homogeneous_poisson": null, "e_total": null, "e_ionic": null, "e_electronic": null, "n": null, "e_ij_max": null, "weighted_surface_energy_EV_PER_ANG2": null, "weighted_surface_energy": null, "weighted_work_function": null, "surface_anisotropy": null, "shape_factor": null, "has_reconstructed": null, "possible_species": null, "has_props": null, "theoretical": null, "database_IDs": null, "fields_not_requested": ["builder_meta", "nsites", "elements", "nelements", "composition", "composition_reduced", "chemsys", "symmetry", "property_name", "deprecated", "deprecation_reasons", "last_updated", "origins", "warnings", "task_ids", "uncorrected_energy_per_atom", "equilibrium_reaction_energy_per_atom", "decomposes_to", "xas", "grain_boundaries", "cbm", "vbm", "is_gap_direct", "is_metal", "es_source_calc_id", "bandstructure", "dos", "dos_energy_up", "dos_energy_down", "is_magnetic", "ordering", "total_magnetization_normalized_vol", "total_magnetization_normalized_formula_units", "num_magnetic_sites", "num_unique_magnetic_sites", "types_of_magnetic_species", "bulk_modulus", "shear_modulus", "universal_anisotropy", "homogeneous_poisson", "e_total", "e_ionic", "e_electronic", "n", "e_ij_max", "weighted_surface_energy_EV_PER_ANG2", "weighted_surface_energy", "weighted_work_function", "surface_anisotropy", "shape_factor", "has_reconstructed", "possible_species", "has_props", "theoretical", "database_IDs"]}