{
  "builder_meta": null,
  "nsites": null,
  "elements": null,
  "nelements": null,
  "composition": null,
  "composition_reduced": null,
  "formula_pretty": "Pm3Sn",
  "formula_anonymous": "AB3",
  "chemsys": null,
  "volume": 118.16921680032918,
  "density": 7.780851151114041,
  "density_atomic": 29.542304200082295,
  "symmetry": null,
  "property_name": null,
  "material_id": "mp-867164",
  "deprecated": null,
  "deprecation_reasons": null,
  "last_updated": null,
  "origins": null,
  "warnings": null,
  "structure": {
    "@module": "pymatgen.core.structure",
    "@class": "Structure",
    "charge": 0,
    "lattice": {
      "matrix": [
        [4.90953211, 0.00036648000000000003, -6.3e-6],
        [0.00035551, 4.90440146, -9.45e-6],
        [-6.3e-6, -9.460000000000001e-6, 4.90770265]
      ],
      "pbc": [true, true, true],
      "a": 4.90953212368229,
      "b": 4.904401472894199,
      "c": 4.907702650013161,
      "alpha": 90.00022084748841,
      "beta": 90.0001470816029,
      "gamma": 89.9915698098242,
      "volume": 118.1692168003292
    },
    "properties": {},
    "sites": [
      {
        "species": [{ "element": "Pm", "occu": 1 }],
        "abc": [1e-6, 0.500001, 0.5],
        "properties": { "magmom": 0.0 },
        "label": "Pm",
        "xyz": [0.00017951488762000005, 2.45220090476794, 2.45384659998425]
      },
      {
        "species": [{ "element": "Pm", "occu": 1 }],
        "abc": [0.500001, 0.0, 0.5],
        "properties": { "magmom": 0.0 },
        "label": "Pm",
        "xyz": [2.45476781453211, 0.00017851036648000004, 2.4538481749937002]
      },
      {
        "species": [{ "element": "Pm", "occu": 1 }],
        "abc": [0.500001, 0.5, 0.0],
        "properties": { "magmom": 0.0 },
        "label": "Pm",
        "xyz": [2.4549487195321102, 2.45238397036648, -7.8750063e-6]
      },
      {
        "species": [{ "element": "Sn", "occu": 1 }],
        "abc": [0.999999, 1e-6, 1e-6],
        "properties": { "magmom": -0.0 },
        "label": "Sn",
        "xyz": [4.9095272008171005, 0.00037138402552, -1.3923005e-6]
      }
    ]
  },
  "task_ids": null,
  "uncorrected_energy_per_atom": null,
  "energy_per_atom": -28.85888808,
  "formation_energy_per_atom": -0.516882788125002,
  "energy_above_hull": 0.0,
  "is_stable": true,
  "equilibrium_reaction_energy_per_atom": null,
  "decomposes_to": null,
  "xas": null,
  "grain_boundaries": null,
  "band_gap": 0.0,
  "cbm": null,
  "vbm": null,
  "efermi": 4.80927307,
  "is_gap_direct": null,
  "is_metal": null,
  "es_source_calc_id": null,
  "bandstructure": null,
  "dos": null,
  "dos_energy_up": null,
  "dos_energy_down": null,
  "is_magnetic": null,
  "ordering": null,
  "total_magnetization": 2.29e-5,
  "total_magnetization_normalized_vol": null,
  "total_magnetization_normalized_formula_units": null,
  "num_magnetic_sites": null,
  "num_unique_magnetic_sites": null,
  "types_of_magnetic_species": null,
  "bulk_modulus": null,
  "shear_modulus": null,
  "universal_anisotropy": null,
  "homogeneous_poisson": null,
  "e_total": null,
  "e_ionic": null,
  "e_electronic": null,
  "n": null,
  "e_ij_max": null,
  "weighted_surface_energy_EV_PER_ANG2": null,
  "weighted_surface_energy": null,
  "weighted_work_function": null,
  "surface_anisotropy": null,
  "shape_factor": null,
  "has_reconstructed": null,
  "possible_species": null,
  "has_props": null,
  "theoretical": null,
  "database_IDs": null,
  "fields_not_requested": [
    "builder_meta",
    "nsites",
    "elements",
    "nelements",
    "composition",
    "composition_reduced",
    "chemsys",
    "symmetry",
    "property_name",
    "deprecated",
    "deprecation_reasons",
    "last_updated",
    "origins",
    "warnings",
    "task_ids",
    "uncorrected_energy_per_atom",
    "equilibrium_reaction_energy_per_atom",
    "decomposes_to",
    "xas",
    "grain_boundaries",
    "cbm",
    "vbm",
    "is_gap_direct",
    "is_metal",
    "es_source_calc_id",
    "bandstructure",
    "dos",
    "dos_energy_up",
    "dos_energy_down",
    "is_magnetic",
    "ordering",
    "total_magnetization_normalized_vol",
    "total_magnetization_normalized_formula_units",
    "num_magnetic_sites",
    "num_unique_magnetic_sites",
    "types_of_magnetic_species",
    "bulk_modulus",
    "shear_modulus",
    "universal_anisotropy",
    "homogeneous_poisson",
    "e_total",
    "e_ionic",
    "e_electronic",
    "n",
    "e_ij_max",
    "weighted_surface_energy_EV_PER_ANG2",
    "weighted_surface_energy",
    "weighted_work_function",
    "surface_anisotropy",
    "shape_factor",
    "has_reconstructed",
    "possible_species",
    "has_props",
    "theoretical",
    "database_IDs"
  ]
}
