{
  "builder_meta": null,
  "nsites": null,
  "elements": null,
  "nelements": null,
  "composition": null,
  "composition_reduced": null,
  "formula_pretty": "Pm3Y",
  "formula_anonymous": "AB3",
  "chemsys": null,
  "volume": 277.54200492345893,
  "density": 6.269077225879379,
  "density_atomic": 34.69275061543237,
  "symmetry": null,
  "property_name": null,
  "material_id": "mp-1186543",
  "deprecated": null,
  "deprecation_reasons": null,
  "last_updated": null,
  "origins": null,
  "warnings": null,
  "structure": {
    "@module": "pymatgen.core.structure",
    "@class": "Structure",
    "charge": 0,
    "lattice": {
      "matrix": [
        [3.71276216, -6.43069312, -0.0],
        [3.7127611, 6.43069311, 0.0],
        [-0.0, -0.0, 5.81224448]
      ],
      "pbc": [true, true, true],
      "a": 7.425524685861815,
      "b": 7.425524147201642,
      "c": 5.81224448,
      "alpha": 90.0,
      "beta": 90.0,
      "gamma": 120.00001030439306,
      "volume": 277.54200492345893
    },
    "properties": {},
    "sites": [
      {
        "species": [{ "element": "Pm", "occu": 1 }],
        "abc": [0.1667097, 0.33341839, 0.25],
        "properties": { "magmom": -0.0 },
        "label": "Pm",
        "xyz": [1.856856294281581, 1.0720524224930288, 1.45306112]
      },
      {
        "species": [{ "element": "Pm", "occu": 1 }],
        "abc": [0.66658161, 0.833290299999999, 0.25],
        "properties": { "magmom": -0.0 },
        "label": "Pm",
        "xyz": [5.568666789007204, 1.0720524174943034, 1.45306112]
      },
      {
        "species": [{ "element": "Pm", "occu": 1 }],
        "abc": [0.1667097, 0.833290299999999, 0.25],
        "properties": { "magmom": -0.0 },
        "label": "Pm",
        "xyz": [3.712761276712278, 4.2865752700125626, 1.45306112]
      },
      {
        "species": [{ "element": "Pm", "occu": 1 }],
        "abc": [0.833290299999999, 0.66658161, 0.75],
        "properties": { "magmom": -0.0 },
        "label": "Pm",
        "xyz": [5.568666965718416, -1.072052432493023, 4.35918336]
      },
      {
        "species": [{ "element": "Pm", "occu": 1 }],
        "abc": [0.33341839, 0.1667097, 0.75],
        "properties": { "magmom": -0.0 },
        "label": "Pm",
        "xyz": [1.8568564709927924, -1.07205242749431, 4.35918336]
      },
      {
        "species": [{ "element": "Pm", "occu": 1 }],
        "abc": [0.833290299999999, 0.1667097, 0.75],
        "properties": { "magmom": -0.0 },
        "label": "Pm",
        "xyz": [3.712761983287715, -4.286575280012563, 4.35918336]
      },
      {
        "species": [{ "element": "Y", "occu": 1 }],
        "abc": [0.333333, 0.666667, 0.75],
        "properties": { "magmom": -0.0 },
        "label": "Y",
        "xyz": [3.7127614533329796, 2.1435686537954104, 4.35918336]
      },
      {
        "species": [{ "element": "Y", "occu": 1 }],
        "abc": [0.666667, 0.333333, 0.25],
        "properties": { "magmom": -0.0 },
        "label": "Y",
        "xyz": [3.71276180666702, -2.1435686637954103, 1.45306112]
      }
    ]
  },
  "task_ids": null,
  "uncorrected_energy_per_atom": null,
  "energy_per_atom": -27.20485258375,
  "formation_energy_per_atom": 0.029007003124998,
  "energy_above_hull": 0.029007003124998,
  "is_stable": false,
  "equilibrium_reaction_energy_per_atom": null,
  "decomposes_to": null,
  "xas": null,
  "grain_boundaries": null,
  "band_gap": 0.0,
  "cbm": null,
  "vbm": null,
  "efermi": 3.16347249,
  "is_gap_direct": null,
  "is_metal": null,
  "es_source_calc_id": null,
  "bandstructure": null,
  "dos": null,
  "dos_energy_up": null,
  "dos_energy_down": null,
  "is_magnetic": null,
  "ordering": null,
  "total_magnetization": 1.8e-6,
  "total_magnetization_normalized_vol": null,
  "total_magnetization_normalized_formula_units": null,
  "num_magnetic_sites": null,
  "num_unique_magnetic_sites": null,
  "types_of_magnetic_species": null,
  "bulk_modulus": null,
  "shear_modulus": null,
  "universal_anisotropy": null,
  "homogeneous_poisson": null,
  "e_total": null,
  "e_ionic": null,
  "e_electronic": null,
  "n": null,
  "e_ij_max": null,
  "weighted_surface_energy_EV_PER_ANG2": null,
  "weighted_surface_energy": null,
  "weighted_work_function": null,
  "surface_anisotropy": null,
  "shape_factor": null,
  "has_reconstructed": null,
  "possible_species": null,
  "has_props": null,
  "theoretical": null,
  "database_IDs": null,
  "fields_not_requested": [
    "builder_meta",
    "nsites",
    "elements",
    "nelements",
    "composition",
    "composition_reduced",
    "chemsys",
    "symmetry",
    "property_name",
    "deprecated",
    "deprecation_reasons",
    "last_updated",
    "origins",
    "warnings",
    "task_ids",
    "uncorrected_energy_per_atom",
    "equilibrium_reaction_energy_per_atom",
    "decomposes_to",
    "xas",
    "grain_boundaries",
    "cbm",
    "vbm",
    "is_gap_direct",
    "is_metal",
    "es_source_calc_id",
    "bandstructure",
    "dos",
    "dos_energy_up",
    "dos_energy_down",
    "is_magnetic",
    "ordering",
    "total_magnetization_normalized_vol",
    "total_magnetization_normalized_formula_units",
    "num_magnetic_sites",
    "num_unique_magnetic_sites",
    "types_of_magnetic_species",
    "bulk_modulus",
    "shear_modulus",
    "universal_anisotropy",
    "homogeneous_poisson",
    "e_total",
    "e_ionic",
    "e_electronic",
    "n",
    "e_ij_max",
    "weighted_surface_energy_EV_PER_ANG2",
    "weighted_surface_energy",
    "weighted_work_function",
    "surface_anisotropy",
    "shape_factor",
    "has_reconstructed",
    "possible_species",
    "has_props",
    "theoretical",
    "database_IDs"
  ]
}
