{
  "builder_meta": null,
  "nsites": null,
  "elements": null,
  "nelements": null,
  "composition": null,
  "composition_reduced": null,
  "formula_pretty": "Pm3Zn",
  "formula_anonymous": "AB3",
  "chemsys": null,
  "volume": 224.18275379978726,
  "density": 7.413136645830852,
  "density_atomic": 28.022844224973408,
  "symmetry": null,
  "property_name": null,
  "material_id": "mp-1186546",
  "deprecated": null,
  "deprecation_reasons": null,
  "last_updated": null,
  "origins": null,
  "warnings": null,
  "structure": {
    "@module": "pymatgen.core.structure",
    "@class": "Structure",
    "charge": 0,
    "lattice": {
      "matrix": [
        [3.52476037, -6.10506261, -0.0],
        [3.52476037, 6.10506261, 0.0],
        [-0.0, 0.0, 5.20897754]
      ],
      "pbc": [true, true, true],
      "a": 7.049519496954566,
      "b": 7.049519496954566,
      "c": 5.20897754,
      "alpha": 90.0,
      "beta": 90.0,
      "gamma": 119.9999883340664,
      "volume": 224.18275379978726
    },
    "properties": {},
    "sites": [
      {
        "species": [{ "element": "Pm", "occu": 1 }],
        "abc": [0.17881975, 0.3576395, 0.25],
        "properties": { "magmom": -0.0 },
        "label": "Pm",
        "xyz": [1.8908903045199223, 1.0917057696545476, 1.302244385]
      },
      {
        "species": [{ "element": "Pm", "occu": 1 }],
        "abc": [0.6423605, 0.8211802500000001, 0.25],
        "properties": { "magmom": -0.0 },
        "label": "Pm",
        "xyz": [5.158630435480077, 1.0917057696545478, 1.302244385]
      },
      {
        "species": [{ "element": "Pm", "occu": 1 }],
        "abc": [0.17881975, 0.8211802500000001, 0.25],
        "properties": { "magmom": -0.0 },
        "label": "Pm",
        "xyz": [3.5247603700000005, 3.9216510706909053, 1.302244385]
      },
      {
        "species": [{ "element": "Pm", "occu": 1 }],
        "abc": [0.8211802500000001, 0.6423605, 0.75],
        "properties": { "magmom": -0.0 },
        "label": "Pm",
        "xyz": [5.158630435480077, -1.0917057696545478, 3.9067331550000004]
      },
      {
        "species": [{ "element": "Pm", "occu": 1 }],
        "abc": [0.3576395, 0.17881975, 0.75],
        "properties": { "magmom": -0.0 },
        "label": "Pm",
        "xyz": [1.8908903045199223, -1.0917057696545476, 3.9067331550000004]
      },
      {
        "species": [{ "element": "Pm", "occu": 1 }],
        "abc": [0.8211802500000001, 0.17881975, 0.75],
        "properties": { "magmom": -0.0 },
        "label": "Pm",
        "xyz": [3.5247603700000005, -3.9216510706909053, 3.9067331550000004]
      },
      {
        "species": [{ "element": "Zn", "occu": 1 }],
        "abc": [0.333333, 0.666667, 0.75],
        "properties": { "magmom": 0.0 },
        "label": "Zn",
        "xyz": [3.52476037, 2.03502494004174, 3.9067331550000004]
      },
      {
        "species": [{ "element": "Zn", "occu": 1 }],
        "abc": [0.666667, 0.333333, 0.25],
        "properties": { "magmom": 0.0 },
        "label": "Zn",
        "xyz": [3.52476037, -2.03502494004174, 1.302244385]
      }
    ]
  },
  "task_ids": null,
  "uncorrected_energy_per_atom": null,
  "energy_per_atom": -24.46202854375,
  "formation_energy_per_atom": -0.078918545625004,
  "energy_above_hull": 0.033476431250001,
  "is_stable": false,
  "equilibrium_reaction_energy_per_atom": null,
  "decomposes_to": null,
  "xas": null,
  "grain_boundaries": null,
  "band_gap": 0.0,
  "cbm": null,
  "vbm": null,
  "efermi": 3.33111271,
  "is_gap_direct": null,
  "is_metal": null,
  "es_source_calc_id": null,
  "bandstructure": null,
  "dos": null,
  "dos_energy_up": null,
  "dos_energy_down": null,
  "is_magnetic": null,
  "ordering": null,
  "total_magnetization": 0.0003915,
  "total_magnetization_normalized_vol": null,
  "total_magnetization_normalized_formula_units": null,
  "num_magnetic_sites": null,
  "num_unique_magnetic_sites": null,
  "types_of_magnetic_species": null,
  "bulk_modulus": null,
  "shear_modulus": null,
  "universal_anisotropy": null,
  "homogeneous_poisson": null,
  "e_total": null,
  "e_ionic": null,
  "e_electronic": null,
  "n": null,
  "e_ij_max": null,
  "weighted_surface_energy_EV_PER_ANG2": null,
  "weighted_surface_energy": null,
  "weighted_work_function": null,
  "surface_anisotropy": null,
  "shape_factor": null,
  "has_reconstructed": null,
  "possible_species": null,
  "has_props": null,
  "theoretical": null,
  "database_IDs": null,
  "fields_not_requested": [
    "builder_meta",
    "nsites",
    "elements",
    "nelements",
    "composition",
    "composition_reduced",
    "chemsys",
    "symmetry",
    "property_name",
    "deprecated",
    "deprecation_reasons",
    "last_updated",
    "origins",
    "warnings",
    "task_ids",
    "uncorrected_energy_per_atom",
    "equilibrium_reaction_energy_per_atom",
    "decomposes_to",
    "xas",
    "grain_boundaries",
    "cbm",
    "vbm",
    "is_gap_direct",
    "is_metal",
    "es_source_calc_id",
    "bandstructure",
    "dos",
    "dos_energy_up",
    "dos_energy_down",
    "is_magnetic",
    "ordering",
    "total_magnetization_normalized_vol",
    "total_magnetization_normalized_formula_units",
    "num_magnetic_sites",
    "num_unique_magnetic_sites",
    "types_of_magnetic_species",
    "bulk_modulus",
    "shear_modulus",
    "universal_anisotropy",
    "homogeneous_poisson",
    "e_total",
    "e_ionic",
    "e_electronic",
    "n",
    "e_ij_max",
    "weighted_surface_energy_EV_PER_ANG2",
    "weighted_surface_energy",
    "weighted_work_function",
    "surface_anisotropy",
    "shape_factor",
    "has_reconstructed",
    "possible_species",
    "has_props",
    "theoretical",
    "database_IDs"
  ]
}
