{
  "builder_meta": null,
  "nsites": null,
  "elements": null,
  "nelements": null,
  "composition": null,
  "composition_reduced": null,
  "formula_pretty": "Pm3Zr",
  "formula_anonymous": "AB3",
  "chemsys": null,
  "volume": 251.05677264088098,
  "density": 6.961098882860649,
  "density_atomic": 31.382096580110122,
  "symmetry": null,
  "property_name": null,
  "material_id": "mp-1186544",
  "deprecated": null,
  "deprecation_reasons": null,
  "last_updated": null,
  "origins": null,
  "warnings": null,
  "structure": {
    "@module": "pymatgen.core.structure",
    "@class": "Structure",
    "charge": 0,
    "lattice": {
      "matrix": [
        [3.551745, -6.151802, 0.0],
        [3.551745, 6.151802, 0.0],
        [0.0, 0.0, 5.745103]
      ],
      "pbc": [true, true, true],
      "a": 7.103489311051929,
      "b": 7.103489311051929,
      "c": 5.745103,
      "alpha": 90.0,
      "beta": 90.0,
      "gamma": 119.99999358337344,
      "volume": 251.05677264088098
    },
    "properties": {},
    "sites": [
      {
        "species": [{ "element": "Pm", "occu": 1 }],
        "abc": [0.171898, 0.343796, 0.25],
        "properties": { "magmom": 0.001 },
        "label": "Pm",
        "xyz": [1.8316135860299998, 1.057482460196, 1.43627575]
      },
      {
        "species": [{ "element": "Pm", "occu": 1 }],
        "abc": [0.656204, 0.828102, 0.25],
        "properties": { "magmom": 0.001 },
        "label": "Pm",
        "xyz": [5.27187641397, 1.0574824601959998, 1.43627575]
      },
      {
        "species": [{ "element": "Pm", "occu": 1 }],
        "abc": [0.171898, 0.828102, 0.25],
        "properties": { "magmom": 0.001 },
        "label": "Pm",
        "xyz": [3.5517449999999995, 4.036837079608, 1.43627575]
      },
      {
        "species": [{ "element": "Pm", "occu": 1 }],
        "abc": [0.828102, 0.656204, 0.75],
        "properties": { "magmom": 0.001 },
        "label": "Pm",
        "xyz": [5.27187641397, -1.0574824601959998, 4.30882725]
      },
      {
        "species": [{ "element": "Pm", "occu": 1 }],
        "abc": [0.343796, 0.171898, 0.75],
        "properties": { "magmom": 0.001 },
        "label": "Pm",
        "xyz": [1.8316135860299998, -1.057482460196, 4.30882725]
      },
      {
        "species": [{ "element": "Pm", "occu": 1 }],
        "abc": [0.828102, 0.171898, 0.75],
        "properties": { "magmom": 0.001 },
        "label": "Pm",
        "xyz": [3.5517449999999995, -4.036837079608, 4.30882725]
      },
      {
        "species": [{ "element": "Zr", "occu": 1 }],
        "abc": [0.333333, 0.666667, 0.75],
        "properties": { "magmom": 0.001 },
        "label": "Zr",
        "xyz": [3.551745, 2.050604767868, 4.30882725]
      },
      {
        "species": [{ "element": "Zr", "occu": 1 }],
        "abc": [0.666667, 0.333333, 0.25],
        "properties": { "magmom": 0.001 },
        "label": "Zr",
        "xyz": [3.551745, -2.050604767868, 1.43627575]
      }
    ]
  },
  "task_ids": null,
  "uncorrected_energy_per_atom": null,
  "energy_per_atom": -27.711358004999997,
  "formation_energy_per_atom": 0.131549318124999,
  "energy_above_hull": 0.131549318124999,
  "is_stable": false,
  "equilibrium_reaction_energy_per_atom": null,
  "decomposes_to": null,
  "xas": null,
  "grain_boundaries": null,
  "band_gap": 0.0,
  "cbm": null,
  "vbm": null,
  "efermi": 3.42901016,
  "is_gap_direct": null,
  "is_metal": null,
  "es_source_calc_id": null,
  "bandstructure": null,
  "dos": null,
  "dos_energy_up": null,
  "dos_energy_down": null,
  "is_magnetic": null,
  "ordering": null,
  "total_magnetization": 0.0168061,
  "total_magnetization_normalized_vol": null,
  "total_magnetization_normalized_formula_units": null,
  "num_magnetic_sites": null,
  "num_unique_magnetic_sites": null,
  "types_of_magnetic_species": null,
  "bulk_modulus": null,
  "shear_modulus": null,
  "universal_anisotropy": null,
  "homogeneous_poisson": null,
  "e_total": null,
  "e_ionic": null,
  "e_electronic": null,
  "n": null,
  "e_ij_max": null,
  "weighted_surface_energy_EV_PER_ANG2": null,
  "weighted_surface_energy": null,
  "weighted_work_function": null,
  "surface_anisotropy": null,
  "shape_factor": null,
  "has_reconstructed": null,
  "possible_species": null,
  "has_props": null,
  "theoretical": null,
  "database_IDs": null,
  "fields_not_requested": [
    "builder_meta",
    "nsites",
    "elements",
    "nelements",
    "composition",
    "composition_reduced",
    "chemsys",
    "symmetry",
    "property_name",
    "deprecated",
    "deprecation_reasons",
    "last_updated",
    "origins",
    "warnings",
    "task_ids",
    "uncorrected_energy_per_atom",
    "equilibrium_reaction_energy_per_atom",
    "decomposes_to",
    "xas",
    "grain_boundaries",
    "cbm",
    "vbm",
    "is_gap_direct",
    "is_metal",
    "es_source_calc_id",
    "bandstructure",
    "dos",
    "dos_energy_up",
    "dos_energy_down",
    "is_magnetic",
    "ordering",
    "total_magnetization_normalized_vol",
    "total_magnetization_normalized_formula_units",
    "num_magnetic_sites",
    "num_unique_magnetic_sites",
    "types_of_magnetic_species",
    "bulk_modulus",
    "shear_modulus",
    "universal_anisotropy",
    "homogeneous_poisson",
    "e_total",
    "e_ionic",
    "e_electronic",
    "n",
    "e_ij_max",
    "weighted_surface_energy_EV_PER_ANG2",
    "weighted_surface_energy",
    "weighted_work_function",
    "surface_anisotropy",
    "shape_factor",
    "has_reconstructed",
    "possible_species",
    "has_props",
    "theoretical",
    "database_IDs"
  ]
}
