{"builder_meta": null, "nsites": null, "elements": null, "nelements": null, "composition": null, "composition_reduced": null, "formula_pretty": "Pm5Mg", "formula_anonymous": "AB5", "chemsys": null, "volume": 197.4217127022527, "density": 6.302499397192775, "density_atomic": 32.90361878370879, "symmetry": null, "property_name": null, "material_id": "mp-977250", "deprecated": null, "deprecation_reasons": null, "last_updated": null, "origins": null, "warnings": null, "structure": {"@module": "pymatgen.core.structure", "@class": "Structure", "charge": 0, "lattice": {"matrix": [[1.852834, -9.149745, 0.0], [1.852834, 9.149745, 0.0], [0.0, 0.0, 5.822633]], "pbc": [true, true, true], "a": 9.33546074902471, "b": 9.33546074902471, "c": 5.822633, "alpha": 90.0, "beta": 90.0, "gamma": 157.1046794962623, "volume": 197.4217127022527}, "properties": {}, "sites": [{"species": [{"element": "Pm", "occu": 1}], "abc": [0.005736, 0.994263999999999, 0.0], "properties": {"magmom": -0.012}, "label": "Pm", "xyz": [1.8528339999999983, 9.04477912535999, 0.0]}, {"species": [{"element": "Pm", "occu": 1}], "abc": [0.674682999999999, 0.325316999999999, 0.0], "properties": {"magmom": 0.028}, "label": "Pm", "xyz": [1.8528339999999965, -3.1966098116699997, 0.0]}, {"species": [{"element": "Pm", "occu": 1}], "abc": [0.334704, 0.665296, 0.0], "properties": {"magmom": 0.051000000000000004}, "label": "Pm", "xyz": [1.852834, 3.02483249904, 0.0]}, {"species": [{"element": "Pm", "occu": 1}], "abc": [0.554532999999999, 0.445467, 0.5], "properties": {"magmom": 0.002}, "label": "Pm", "xyz": [1.8528339999999983, -0.9979260881699918, 2.9113165]}, {"species": [{"element": "Pm", "occu": 1}], "abc": [0.878576999999999, 0.121422999999999, 0.5], "properties": {"magmom": 0.017}, "label": "Pm", "xyz": [1.8528339999999965, -6.92776602573, 2.9113165]}, {"species": [{"element": "Mg", "occu": 1}], "abc": [0.218433, 0.781567, 0.5], "properties": {"magmom": 0.002}, "label": "Mg", "xyz": [1.852834, 5.1525325008300005, 2.9113165]}]}, "task_ids": null, "uncorrected_energy_per_atom": null, "energy_per_atom": -4.1888848450000005, "formation_energy_per_atom": 0.041645426249999, "energy_above_hull": 0.07167039833333301, "is_stable": false, "equilibrium_reaction_energy_per_atom": null, "decomposes_to": null, "xas": null, "grain_boundaries": null, "band_gap": 0.0, "cbm": null, "vbm": null, "efermi": 3.20323176, "is_gap_direct": null, "is_metal": null, "es_source_calc_id": null, "bandstructure": null, "dos": null, "dos_energy_up": null, "dos_energy_down": null, "is_magnetic": null, "ordering": null, "total_magnetization": 0.227786799999999, "total_magnetization_normalized_vol": null, "total_magnetization_normalized_formula_units": null, "num_magnetic_sites": null, "num_unique_magnetic_sites": null, "types_of_magnetic_species": null, "bulk_modulus": null, "shear_modulus": null, "universal_anisotropy": null, "homogeneous_poisson": null, "e_total": null, "e_ionic": null, "e_electronic": null, "n": null, "e_ij_max": null, "weighted_surface_energy_EV_PER_ANG2": null, "weighted_surface_energy": null, "weighted_work_function": null, "surface_anisotropy": null, "shape_factor": null, "has_reconstructed": null, "possible_species": null, "has_props": null, "theoretical": null, "database_IDs": null, "fields_not_requested": ["builder_meta", "nsites", "elements", "nelements", "composition", "composition_reduced", "chemsys", "symmetry", "property_name", "deprecated", "deprecation_reasons", "last_updated", "origins", "warnings", "task_ids", "uncorrected_energy_per_atom", "equilibrium_reaction_energy_per_atom", "decomposes_to", "xas", "grain_boundaries", "cbm", "vbm", "is_gap_direct", "is_metal", "es_source_calc_id", "bandstructure", "dos", "dos_energy_up", "dos_energy_down", "is_magnetic", "ordering", "total_magnetization_normalized_vol", "total_magnetization_normalized_formula_units", "num_magnetic_sites", "num_unique_magnetic_sites", "types_of_magnetic_species", "bulk_modulus", "shear_modulus", "universal_anisotropy", "homogeneous_poisson", "e_total", "e_ionic", "e_electronic", "n", "e_ij_max", "weighted_surface_energy_EV_PER_ANG2", "weighted_surface_energy", "weighted_work_function", "surface_anisotropy", "shape_factor", "has_reconstructed", "possible_species", "has_props", "theoretical", "database_IDs"]}