{"builder_meta": null, "nsites": null, "elements": null, "nelements": null, "composition": null, "composition_reduced": null, "formula_pretty": "PmAg3", "formula_anonymous": "AB3", "chemsys": null, "volume": 173.51711945580726, "density": 8.968985279710667, "density_atomic": 21.689639931975908, "symmetry": null, "property_name": null, "material_id": "mp-1186539", "deprecated": null, "deprecation_reasons": null, "last_updated": null, "origins": null, "warnings": null, "structure": {"@module": "pymatgen.core.structure", "@class": "Structure", "charge": 0, "lattice": {"matrix": [[6.45486106, -1e-08, 0.0], [-3.22743104, 5.59007539, 0.0], [0.0, -0.0, 4.80881164]], "pbc": [true, true, true], "a": 6.45486106, "b": 6.454862816810217, "c": 4.80881164, "alpha": 90.0, "beta": 90.0, "gamma": 119.99999631277564, "volume": 173.51711945580726}, "properties": {}, "sites": [{"species": [{"element": "Pm", "occu": 1}], "abc": [0.666666, 0.333331999999999, 0.250001], "properties": {"magmom": -0.0}, "label": "Pm", "xyz": [3.2274303600006826, 1.8633510032328147, 1.2022077188116398]}, {"species": [{"element": "Pm", "occu": 1}], "abc": [0.333333, 0.666666, 0.75], "properties": {"magmom": -0.0}, "label": "Pm", "xyz": [-3.399996599817712e-07, 3.72671319661641, 3.60660873]}, {"species": [{"element": "Ag", "occu": 1}], "abc": [0.85015894, 0.14984106, 0.75], "properties": {"magmom": -0.0}, "label": "Ag", "xyz": [5.004056148506375, 0.8376228134159239, 3.60660873]}, {"species": [{"element": "Ag", "occu": 1}], "abc": [0.29968412, 0.14984106, 0.75], "properties": {"magmom": -0.0}, "label": "Ag", "xyz": [1.4508176683778649, 0.8376228189206721, 3.60660873]}, {"species": [{"element": "Ag", "occu": 1}], "abc": [0.85015694, 0.70031488, 0.75], "properties": {"magmom": -0.0}, "label": "Ag", "xyz": [3.227426945408881, 3.914812967437234, 3.60660873]}, {"species": [{"element": "Ag", "occu": 1}], "abc": [0.14984206, 0.85015794, 0.250001], "properties": {"magmom": -0.0}, "label": "Ag", "xyz": [-1.7766164462142742, 4.752446976508676, 1.2022077188116398]}, {"species": [{"element": "Ag", "occu": 1}], "abc": [0.70031488, 0.85015794, 0.250001], "properties": {"magmom": -0.0}, "label": "Ag", "xyz": [1.7766091241921145, 4.752446971003947, 1.2022077188116398]}, {"species": [{"element": "Ag", "occu": 1}], "abc": [0.14984206, 0.29968412, 0.250001], "properties": {"magmom": -0.0}, "label": "Ag", "xyz": [-1.5283890120176835e-07, 1.6752568224873863, 1.2022077188116398]}]}, "task_ids": null, "uncorrected_energy_per_atom": null, "energy_per_atom": -23.60619365875, "formation_energy_per_atom": -0.20413268437499701, "energy_above_hull": 0.0, "is_stable": true, "equilibrium_reaction_energy_per_atom": null, "decomposes_to": null, "xas": null, "grain_boundaries": null, "band_gap": 0.0, "cbm": null, "vbm": null, "efermi": 3.10087082, "is_gap_direct": null, "is_metal": null, "es_source_calc_id": null, "bandstructure": null, "dos": null, "dos_energy_up": null, "dos_energy_down": null, "is_magnetic": null, "ordering": null, "total_magnetization": 3e-07, "total_magnetization_normalized_vol": null, "total_magnetization_normalized_formula_units": null, "num_magnetic_sites": null, "num_unique_magnetic_sites": null, "types_of_magnetic_species": null, "bulk_modulus": null, "shear_modulus": null, "universal_anisotropy": null, "homogeneous_poisson": null, "e_total": null, "e_ionic": null, "e_electronic": null, "n": null, "e_ij_max": null, "weighted_surface_energy_EV_PER_ANG2": null, "weighted_surface_energy": null, "weighted_work_function": null, "surface_anisotropy": null, "shape_factor": null, "has_reconstructed": null, "possible_species": null, "has_props": null, "theoretical": null, "database_IDs": null, "fields_not_requested": ["builder_meta", "nsites", "elements", "nelements", "composition", "composition_reduced", "chemsys", "symmetry", "property_name", "deprecated", "deprecation_reasons", "last_updated", "origins", "warnings", "task_ids", "uncorrected_energy_per_atom", "equilibrium_reaction_energy_per_atom", "decomposes_to", "xas", "grain_boundaries", "cbm", "vbm", "is_gap_direct", "is_metal", "es_source_calc_id", "bandstructure", "dos", "dos_energy_up", "dos_energy_down", "is_magnetic", "ordering", "total_magnetization_normalized_vol", "total_magnetization_normalized_formula_units", "num_magnetic_sites", "num_unique_magnetic_sites", "types_of_magnetic_species", "bulk_modulus", "shear_modulus", "universal_anisotropy", "homogeneous_poisson", "e_total", "e_ionic", "e_electronic", "n", "e_ij_max", "weighted_surface_energy_EV_PER_ANG2", "weighted_surface_energy", "weighted_work_function", "surface_anisotropy", "shape_factor", "has_reconstructed", "possible_species", "has_props", "theoretical", "database_IDs"]}