{
  "builder_meta": null,
  "nsites": null,
  "elements": null,
  "nelements": null,
  "composition": null,
  "composition_reduced": null,
  "formula_pretty": "PmAl3",
  "formula_anonymous": "AB3",
  "chemsys": null,
  "volume": 165.46755545572697,
  "density": 4.534905473045616,
  "density_atomic": 20.68344443196587,
  "symmetry": null,
  "property_name": null,
  "material_id": "mp-862980",
  "deprecated": null,
  "deprecation_reasons": null,
  "last_updated": null,
  "origins": null,
  "warnings": null,
  "structure": {
    "@module": "pymatgen.core.structure",
    "@class": "Structure",
    "charge": 0,
    "lattice": {
      "matrix": [
        [6.45085294, 5.0670000000000015e-5, 0.0],
        [-3.22538304, 5.58662772, -0.0],
        [-0.0, 0.0, 4.59138814]
      ],
      "pbc": [true, true, true],
      "a": 6.450852940199001,
      "b": 6.450853047201745,
      "c": 4.59138814,
      "alpha": 90.0,
      "beta": 90.0,
      "gamma": 119.99910399096578,
      "volume": 165.46755545572697
    },
    "properties": {},
    "sites": [
      {
        "species": [{ "element": "Pm", "occu": 1 }],
        "abc": [0.33333224, 0.66666676, 0.749999],
        "properties": { "magmom": 0.0 },
        "label": "Pm",
        "xyz": [2.159936503476345e-5, 3.724435891363188, 3.44353651361186]
      },
      {
        "species": [{ "element": "Pm", "occu": 1 }],
        "abc": [0.66666776, 0.33333124000000003, 0.250001],
        "properties": { "magmom": 0.0 },
        "label": "Pm",
        "xyz": [3.2254547514010445, 1.862231325381372, 1.14785162638814]
      },
      {
        "species": [{ "element": "Al", "occu": 1 }],
        "abc": [0.14066801, 0.28133438, 0.250001],
        "properties": { "magmom": -0.0 },
        "label": "Al",
        "xyz": [1.7508051534220748e-5, 1.5717175735450803, 1.14785162638814]
      },
      {
        "species": [{ "element": "Al", "occu": 1 }],
        "abc": [0.71866462, 0.85933199, 0.250001],
        "properties": { "magmom": -0.0 },
        "label": "Al",
        "xyz": [1.8643249505255328, 4.800804330753059, 1.14785162638814]
      },
      {
        "species": [{ "element": "Al", "occu": 1 }],
        "abc": [0.14066663000000001, 0.8593323700000001, 0.250001],
        "properties": { "magmom": -0.0 },
        "label": "Al",
        "xyz": [-1.8642563082256127, 4.800777166513439, 1.14785162638814]
      },
      {
        "species": [{ "element": "Al", "occu": 1 }],
        "abc": [0.85933299, 0.7186636200000001, 0.749999],
        "properties": { "magmom": -0.0 },
        "label": "Al",
        "xyz": [3.2254652935674852, 4.014949643250151, 3.44353651361186]
      },
      {
        "species": [{ "element": "Al", "occu": 1 }],
        "abc": [0.28133438, 0.14066901, 0.749999],
        "properties": { "magmom": -0.0 },
        "label": "Al",
        "xyz": [1.3611352732384867, 0.7858796458239918, 3.44353651361186]
      },
      {
        "species": [{ "element": "Al", "occu": 1 }],
        "abc": [0.8593323700000001, 0.14066863000000002, 0.749999],
        "properties": { "magmom": -0.0 },
        "label": "Al",
        "xyz": [5.089716531989632, 0.7859068100636115, 3.44353651361186]
      }
    ]
  },
  "task_ids": null,
  "uncorrected_energy_per_atom": null,
  "energy_per_atom": -12.9334109475,
  "formation_energy_per_atom": -0.49918408437499906,
  "energy_above_hull": 0.0,
  "is_stable": true,
  "equilibrium_reaction_energy_per_atom": null,
  "decomposes_to": null,
  "xas": null,
  "grain_boundaries": null,
  "band_gap": 0.0,
  "cbm": null,
  "vbm": null,
  "efermi": 5.6450368300000004,
  "is_gap_direct": null,
  "is_metal": null,
  "es_source_calc_id": null,
  "bandstructure": null,
  "dos": null,
  "dos_energy_up": null,
  "dos_energy_down": null,
  "is_magnetic": null,
  "ordering": null,
  "total_magnetization": 0.0,
  "total_magnetization_normalized_vol": null,
  "total_magnetization_normalized_formula_units": null,
  "num_magnetic_sites": null,
  "num_unique_magnetic_sites": null,
  "types_of_magnetic_species": null,
  "bulk_modulus": null,
  "shear_modulus": null,
  "universal_anisotropy": null,
  "homogeneous_poisson": null,
  "e_total": null,
  "e_ionic": null,
  "e_electronic": null,
  "n": null,
  "e_ij_max": null,
  "weighted_surface_energy_EV_PER_ANG2": null,
  "weighted_surface_energy": null,
  "weighted_work_function": null,
  "surface_anisotropy": null,
  "shape_factor": null,
  "has_reconstructed": null,
  "possible_species": null,
  "has_props": null,
  "theoretical": null,
  "database_IDs": null,
  "fields_not_requested": [
    "builder_meta",
    "nsites",
    "elements",
    "nelements",
    "composition",
    "composition_reduced",
    "chemsys",
    "symmetry",
    "property_name",
    "deprecated",
    "deprecation_reasons",
    "last_updated",
    "origins",
    "warnings",
    "task_ids",
    "uncorrected_energy_per_atom",
    "equilibrium_reaction_energy_per_atom",
    "decomposes_to",
    "xas",
    "grain_boundaries",
    "cbm",
    "vbm",
    "is_gap_direct",
    "is_metal",
    "es_source_calc_id",
    "bandstructure",
    "dos",
    "dos_energy_up",
    "dos_energy_down",
    "is_magnetic",
    "ordering",
    "total_magnetization_normalized_vol",
    "total_magnetization_normalized_formula_units",
    "num_magnetic_sites",
    "num_unique_magnetic_sites",
    "types_of_magnetic_species",
    "bulk_modulus",
    "shear_modulus",
    "universal_anisotropy",
    "homogeneous_poisson",
    "e_total",
    "e_ionic",
    "e_electronic",
    "n",
    "e_ij_max",
    "weighted_surface_energy_EV_PER_ANG2",
    "weighted_surface_energy",
    "weighted_work_function",
    "surface_anisotropy",
    "shape_factor",
    "has_reconstructed",
    "possible_species",
    "has_props",
    "theoretical",
    "database_IDs"
  ]
}
