{
  "builder_meta": null,
  "nsites": null,
  "elements": null,
  "nelements": null,
  "composition": null,
  "composition_reduced": null,
  "formula_pretty": "PmB3",
  "formula_anonymous": "AB3",
  "chemsys": null,
  "volume": 93.27272309804192,
  "density": 6.317697573691253,
  "density_atomic": 11.65909038725524,
  "symmetry": null,
  "property_name": null,
  "material_id": "mp-862984",
  "deprecated": null,
  "deprecation_reasons": null,
  "last_updated": null,
  "origins": null,
  "warnings": null,
  "structure": {
    "@module": "pymatgen.core.structure",
    "@class": "Structure",
    "charge": 0,
    "lattice": {
      "matrix": [
        [5.57774899, -0.0, 0.0],
        [-2.788875, 4.83047204, -0.0],
        [0.0, 0.0, 3.46183303]
      ],
      "pbc": [true, true, true],
      "a": 5.57774899,
      "b": 5.577748998910471,
      "c": 3.46183303,
      "alpha": 90.0,
      "beta": 90.0,
      "gamma": 120.00000593712195,
      "volume": 93.27272309804192
    },
    "properties": {},
    "sites": [
      {
        "species": [{ "element": "Pm", "occu": 1 }],
        "abc": [0.666666, 0.333333, 0.250001],
        "properties": { "magmom": -0.0 },
        "label": "Pm",
        "xyz": [2.78887153779234, 1.61015573650932, 0.86546171933303]
      },
      {
        "species": [{ "element": "Pm", "occu": 1 }],
        "abc": [0.333333, 0.666666, 0.750000999999999],
        "properties": { "magmom": -0.0 },
        "label": "Pm",
        "xyz": [-3.366663299253503e-7, 3.22031147301864, 2.596378234333027]
      },
      {
        "species": [{ "element": "B", "occu": 1 }],
        "abc": [0.89324039, 0.10675861, 0.750000999999999],
        "properties": { "magmom": 0.0 },
        "label": "B",
        "xyz": [4.684534264685956, 0.5156944806342644, 2.596378234333027]
      },
      {
        "species": [{ "element": "B", "occu": 1 }],
        "abc": [0.21351821, 0.10675861, 0.750000999999999],
        "properties": { "magmom": 0.0 },
        "label": "B",
        "xyz": [0.8932145617103581, 0.5156944806342644, 2.596378234333027]
      },
      {
        "species": [{ "element": "B", "occu": 1 }],
        "abc": [0.89323939, 0.78647979, 0.750000999999999],
        "properties": { "magmom": 0.0 },
        "label": "B",
        "xyz": [2.788871281064466, 3.799068635620072, 2.596378234333027]
      },
      {
        "species": [{ "element": "B", "occu": 1 }],
        "abc": [0.10675861, 0.89324039, 0.250001],
        "properties": { "magmom": 0.0 },
        "label": "B",
        "xyz": [-1.895663063559946, 4.314772728893695, 0.86546171933303]
      },
      {
        "species": [{ "element": "B", "occu": 1 }],
        "abc": [0.78647979, 0.89324039, 0.250001],
        "properties": { "magmom": 0.0 },
        "label": "B",
        "xyz": [1.8956510616666624, 4.314772728893695, 0.86546171933303]
      },
      {
        "species": [{ "element": "B", "occu": 1 }],
        "abc": [0.10675861, 0.21351821, 0.250001],
        "properties": { "magmom": 0.0 },
        "label": "B",
        "xyz": [-2.8688124461551112e-6, 1.0313937434358484, 0.86546171933303]
      }
    ]
  },
  "task_ids": null,
  "uncorrected_energy_per_atom": null,
  "energy_per_atom": -13.0271804725,
  "formation_energy_per_atom": -0.132261708749999,
  "energy_above_hull": 0.0,
  "is_stable": true,
  "equilibrium_reaction_energy_per_atom": null,
  "decomposes_to": null,
  "xas": null,
  "grain_boundaries": null,
  "band_gap": 0.0,
  "cbm": null,
  "vbm": null,
  "efermi": 5.40482175,
  "is_gap_direct": null,
  "is_metal": null,
  "es_source_calc_id": null,
  "bandstructure": null,
  "dos": null,
  "dos_energy_up": null,
  "dos_energy_down": null,
  "is_magnetic": null,
  "ordering": null,
  "total_magnetization": 0.0,
  "total_magnetization_normalized_vol": null,
  "total_magnetization_normalized_formula_units": null,
  "num_magnetic_sites": null,
  "num_unique_magnetic_sites": null,
  "types_of_magnetic_species": null,
  "bulk_modulus": null,
  "shear_modulus": null,
  "universal_anisotropy": null,
  "homogeneous_poisson": null,
  "e_total": null,
  "e_ionic": null,
  "e_electronic": null,
  "n": null,
  "e_ij_max": null,
  "weighted_surface_energy_EV_PER_ANG2": null,
  "weighted_surface_energy": null,
  "weighted_work_function": null,
  "surface_anisotropy": null,
  "shape_factor": null,
  "has_reconstructed": null,
  "possible_species": null,
  "has_props": null,
  "theoretical": null,
  "database_IDs": null,
  "fields_not_requested": [
    "builder_meta",
    "nsites",
    "elements",
    "nelements",
    "composition",
    "composition_reduced",
    "chemsys",
    "symmetry",
    "property_name",
    "deprecated",
    "deprecation_reasons",
    "last_updated",
    "origins",
    "warnings",
    "task_ids",
    "uncorrected_energy_per_atom",
    "equilibrium_reaction_energy_per_atom",
    "decomposes_to",
    "xas",
    "grain_boundaries",
    "cbm",
    "vbm",
    "is_gap_direct",
    "is_metal",
    "es_source_calc_id",
    "bandstructure",
    "dos",
    "dos_energy_up",
    "dos_energy_down",
    "is_magnetic",
    "ordering",
    "total_magnetization_normalized_vol",
    "total_magnetization_normalized_formula_units",
    "num_magnetic_sites",
    "num_unique_magnetic_sites",
    "types_of_magnetic_species",
    "bulk_modulus",
    "shear_modulus",
    "universal_anisotropy",
    "homogeneous_poisson",
    "e_total",
    "e_ionic",
    "e_electronic",
    "n",
    "e_ij_max",
    "weighted_surface_energy_EV_PER_ANG2",
    "weighted_surface_energy",
    "weighted_work_function",
    "surface_anisotropy",
    "shape_factor",
    "has_reconstructed",
    "possible_species",
    "has_props",
    "theoretical",
    "database_IDs"
  ]
}
