{"builder_meta": null, "nsites": null, "elements": null, "nelements": null, "composition": null, "composition_reduced": null, "formula_pretty": "PmBr2", "formula_anonymous": "AB2", "chemsys": null, "volume": 205.05137996988387, "density": 4.936768451756345, "density_atomic": 34.17522999498065, "symmetry": null, "property_name": null, "material_id": "mp-1186558", "deprecated": null, "deprecation_reasons": null, "last_updated": null, "origins": null, "warnings": null, "structure": {"@module": "pymatgen.core.structure", "@class": "Structure", "charge": 0, "lattice": {"matrix": [[7.44523746, -5.15e-06, 0.0], [-5.15e-06, 7.44523746, 0.0], [0.0, 0.0, 3.69918106]], "pbc": [true, true, true], "a": 7.445237460001782, "b": 7.445237460001782, "c": 3.69918106, "alpha": 90.0, "beta": 90.0, "gamma": 90.00007926497068, "volume": 205.05137996988387}, "properties": {}, "sites": [{"species": [{"element": "Pm", "occu": 1}], "abc": [0.0, 0.0, 0.0], "properties": {"magmom": 0.138}, "label": "Pm", "xyz": [0.0, 0.0, 0.0]}, {"species": [{"element": "Pm", "occu": 1}], "abc": [0.5, 0.5, 0.5], "properties": {"magmom": 0.138}, "label": "Pm", "xyz": [3.7226161550000003, 3.7226161550000003, 1.84959053]}, {"species": [{"element": "Br", "occu": 1}], "abc": [0.28003852, 0.28003852, -0.0], "properties": {"magmom": 0.002}, "label": "Br", "xyz": [2.0849518371485813, 2.0849518371485813, 0.0]}, {"species": [{"element": "Br", "occu": 1}], "abc": [0.71996148, 0.71996148, 0.0], "properties": {"magmom": 0.002}, "label": "Br", "xyz": [5.360280472851419, 5.360280472851419, 0.0]}, {"species": [{"element": "Br", "occu": 1}], "abc": [0.21996367, 0.78003633, 0.5], "properties": {"magmom": 0.002}, "label": "Br", "xyz": [1.6376777385359789, 5.807554571464022, 1.84959053]}, {"species": [{"element": "Br", "occu": 1}], "abc": [0.78003633, 0.21996367, 0.5], "properties": {"magmom": 0.002}, "label": "Br", "xyz": [5.807554571464022, 1.6376777385359789, 1.84959053]}]}, "task_ids": null, "uncorrected_energy_per_atom": null, "energy_per_atom": -4.640502705, "formation_energy_per_atom": -1.9656909075, "energy_above_hull": 0.045207853055555004, "is_stable": false, "equilibrium_reaction_energy_per_atom": null, "decomposes_to": null, "xas": null, "grain_boundaries": null, "band_gap": 0.0, "cbm": null, "vbm": null, "efermi": 3.08970273, "is_gap_direct": null, "is_metal": null, "es_source_calc_id": null, "bandstructure": null, "dos": null, "dos_energy_up": null, "dos_energy_down": null, "is_magnetic": null, "ordering": null, "total_magnetization": 0.466895399999999, "total_magnetization_normalized_vol": null, "total_magnetization_normalized_formula_units": null, "num_magnetic_sites": null, "num_unique_magnetic_sites": null, "types_of_magnetic_species": null, "bulk_modulus": null, "shear_modulus": null, "universal_anisotropy": null, "homogeneous_poisson": null, "e_total": null, "e_ionic": null, "e_electronic": null, "n": null, "e_ij_max": null, "weighted_surface_energy_EV_PER_ANG2": null, "weighted_surface_energy": null, "weighted_work_function": null, "surface_anisotropy": null, "shape_factor": null, "has_reconstructed": null, "possible_species": null, "has_props": null, "theoretical": null, "database_IDs": null, "fields_not_requested": ["builder_meta", "nsites", "elements", "nelements", "composition", "composition_reduced", "chemsys", "symmetry", "property_name", "deprecated", "deprecation_reasons", "last_updated", "origins", "warnings", "task_ids", "uncorrected_energy_per_atom", "equilibrium_reaction_energy_per_atom", "decomposes_to", "xas", "grain_boundaries", "cbm", "vbm", "is_gap_direct", "is_metal", "es_source_calc_id", "bandstructure", "dos", "dos_energy_up", "dos_energy_down", "is_magnetic", "ordering", "total_magnetization_normalized_vol", "total_magnetization_normalized_formula_units", "num_magnetic_sites", "num_unique_magnetic_sites", "types_of_magnetic_species", "bulk_modulus", "shear_modulus", "universal_anisotropy", "homogeneous_poisson", "e_total", "e_ionic", "e_electronic", "n", "e_ij_max", "weighted_surface_energy_EV_PER_ANG2", "weighted_surface_energy", "weighted_work_function", "surface_anisotropy", "shape_factor", "has_reconstructed", "possible_species", "has_props", "theoretical", "database_IDs"]}