{"builder_meta": null, "nsites": null, "elements": null, "nelements": null, "composition": null, "composition_reduced": null, "formula_pretty": "PmBr3", "formula_anonymous": "AB3", "chemsys": null, "volume": 335.2739100822968, "density": 3.8107904383792413, "density_atomic": 41.9092387602871, "symmetry": null, "property_name": null, "material_id": "mp-862986", "deprecated": null, "deprecation_reasons": null, "last_updated": null, "origins": null, "warnings": null, "structure": {"@module": "pymatgen.core.structure", "@class": "Structure", "charge": 0, "lattice": {"matrix": [[10.00018806, 0.0, 0.0], [-5.00009353, 8.66041504, 0.0], [-0.0, 0.0, 3.87126487]], "pbc": [true, true, true], "a": 10.00018806, "b": 10.000186196956838, "c": 3.87126487, "alpha": 90.0, "beta": 90.0, "gamma": 120.00000285487069, "volume": 335.2739100822968}, "properties": {}, "sites": [{"species": [{"element": "Pm", "occu": 1}], "abc": [0.666666, 0.333333999999999, 0.249999], "properties": {"magmom": -0.0}, "label": "Pm", "xyz": [5.000084196478944, 2.8868107869433515, 0.96781234623513]}, {"species": [{"element": "Pm", "occu": 1}], "abc": [0.333333999999999, 0.666667999999999, 0.75], "properties": {"magmom": -0.0}, "label": "Pm", "xyz": [3.3333399462875946e-07, 5.773621573886712, 2.9034486525]}, {"species": [{"element": "Br", "occu": 1}], "abc": [0.79082638, 0.20917562, 0.75], "properties": {"magmom": 0.0}, "label": "Br", "xyz": [6.8625148586132845, 1.8115476854493249, 2.9034486525]}, {"species": [{"element": "Br", "occu": 1}], "abc": [0.41835024, 0.20917562, 0.75], "properties": {"magmom": 0.0}, "label": "Br", "xyz": [3.1376834107503955, 1.8115476854493249, 2.9034486525]}, {"species": [{"element": "Br", "occu": 1}], "abc": [0.79082538, 0.58165076, 0.75], "properties": {"magmom": 0.0}, "label": "Br", "xyz": [5.000094320825379, 5.037336989931431, 2.9034486525]}, {"species": [{"element": "Br", "occu": 1}], "abc": [0.20917362, 0.79082538, 0.249999], "properties": {"magmom": 0.0}, "label": "Br", "xyz": [-1.8624253287068142, 6.8488760149657155, 0.96781234623513]}, {"species": [{"element": "Br", "occu": 1}], "abc": [0.58164976, 0.79082538, 0.249999], "properties": {"magmom": 0.0}, "label": "Br", "xyz": [1.862406119156074, 6.8488760149657155, 0.96781234623513]}, {"species": [{"element": "Br", "occu": 1}], "abc": [0.20917462, 0.41835224, 0.249999], "properties": {"magmom": 0.0}, "label": "Br", "xyz": [-1.4791105970246576e-05, 3.6231040313136895, 0.96781234623513]}]}, "task_ids": null, "uncorrected_energy_per_atom": null, "energy_per_atom": -4.6776065875, "formation_energy_per_atom": -2.262261105625, "energy_above_hull": 0.0, "is_stable": true, "equilibrium_reaction_energy_per_atom": null, "decomposes_to": null, "xas": null, "grain_boundaries": null, "band_gap": 2.8814, "cbm": null, "vbm": null, "efermi": -2.05660969, "is_gap_direct": null, "is_metal": null, "es_source_calc_id": null, "bandstructure": null, "dos": null, "dos_energy_up": null, "dos_energy_down": null, "is_magnetic": null, "ordering": null, "total_magnetization": 0.0, "total_magnetization_normalized_vol": null, "total_magnetization_normalized_formula_units": null, "num_magnetic_sites": null, "num_unique_magnetic_sites": null, "types_of_magnetic_species": null, "bulk_modulus": null, "shear_modulus": null, "universal_anisotropy": null, "homogeneous_poisson": null, "e_total": null, "e_ionic": null, "e_electronic": null, "n": null, "e_ij_max": null, "weighted_surface_energy_EV_PER_ANG2": null, "weighted_surface_energy": null, "weighted_work_function": null, "surface_anisotropy": null, "shape_factor": null, "has_reconstructed": null, "possible_species": null, "has_props": null, "theoretical": null, "database_IDs": null, "fields_not_requested": ["builder_meta", "nsites", "elements", "nelements", "composition", "composition_reduced", "chemsys", "symmetry", "property_name", "deprecated", "deprecation_reasons", "last_updated", "origins", "warnings", "task_ids", "uncorrected_energy_per_atom", "equilibrium_reaction_energy_per_atom", "decomposes_to", "xas", "grain_boundaries", "cbm", "vbm", "is_gap_direct", "is_metal", "es_source_calc_id", "bandstructure", "dos", "dos_energy_up", "dos_energy_down", "is_magnetic", "ordering", "total_magnetization_normalized_vol", "total_magnetization_normalized_formula_units", "num_magnetic_sites", "num_unique_magnetic_sites", "types_of_magnetic_species", "bulk_modulus", "shear_modulus", "universal_anisotropy", "homogeneous_poisson", "e_total", "e_ionic", "e_electronic", "n", "e_ij_max", "weighted_surface_energy_EV_PER_ANG2", "weighted_surface_energy", "weighted_work_function", "surface_anisotropy", "shape_factor", "has_reconstructed", "possible_species", "has_props", "theoretical", "database_IDs"]}