{
  "builder_meta": null,
  "nsites": null,
  "elements": null,
  "nelements": null,
  "composition": null,
  "composition_reduced": null,
  "formula_pretty": "PmCl3",
  "formula_anonymous": "AB3",
  "chemsys": null,
  "volume": 279.52078545112744,
  "density": 2.986478723346946,
  "density_atomic": 34.94009818139093,
  "symmetry": null,
  "property_name": null,
  "material_id": "mp-863658",
  "deprecated": null,
  "deprecation_reasons": null,
  "last_updated": null,
  "origins": null,
  "warnings": null,
  "structure": {
    "@module": "pymatgen.core.structure",
    "@class": "Structure",
    "charge": 0,
    "lattice": {
      "matrix": [
        [9.28576824, -1e-8, 0.0],
        [-4.64288513, 8.0417124, -0.0],
        [0.0, 0.0, 3.743240499999999]
      ],
      "pbc": [true, true, true],
      "a": 9.28576824,
      "b": 9.285769793328331,
      "c": 3.743240499999999,
      "alpha": 90.0,
      "beta": 90.0,
      "gamma": 120.00000172417938,
      "volume": 279.5207854511274
    },
    "properties": {},
    "sites": [
      {
        "species": [{ "element": "Pm", "occu": 1 }],
        "abc": [0.666667, 0.333333999999999, 0.250001],
        "properties": { "magmom": 0.0 },
        "label": "Pm",
        "xyz": [4.642883783332664, 2.680576154474922, 0.9358138682404996]
      },
      {
        "species": [{ "element": "Pm", "occu": 1 }],
        "abc": [0.333333999999999, 0.666667999999999, 0.750000999999999],
        "properties": { "magmom": 0.0 },
        "label": "Pm",
        "xyz": [-6.733346844534083e-7, 5.361152318949852, 2.8074341182404954]
      },
      {
        "species": [{ "element": "Cl", "occu": 1 }],
        "abc": [0.7909976, 0.2090014, 0.750000999999999],
        "properties": { "magmom": -0.0 },
        "label": "Cl",
        "xyz": [6.374650899787041, 1.680729142087384, 2.8074341182404954]
      },
      {
        "species": [{ "element": "Cl", "occu": 1 }],
        "abc": [0.4180008, 0.2090014, 0.750000999999999],
        "properties": { "magmom": -0.0 },
        "label": "Cl",
        "xyz": [2.9110890607254096, 1.680729145817352, 2.8074341182404954]
      },
      {
        "species": [{ "element": "Cl", "occu": 1 }],
        "abc": [0.7909976, 0.5819972, 0.750000999999999],
        "properties": { "magmom": -0.0 },
        "label": "Cl",
        "xyz": [4.642874246414587, 4.680254092095304, 2.8074341182404954]
      },
      {
        "species": [{ "element": "Cl", "occu": 1 }],
        "abc": [0.209002399999999, 0.790999599999999, 0.250001],
        "properties": { "magmom": -0.0 },
        "label": "Cl",
        "xyz": [-1.7317724326721766, 6.360991289625008, 0.9358138682404996]
      },
      {
        "species": [{ "element": "Cl", "occu": 1 }],
        "abc": [0.581999199999999, 0.790999599999999, 0.250001],
        "properties": { "magmom": -0.0 },
        "label": "Cl",
        "xyz": [1.7317894063894554, 6.36099128589504, 0.9358138682404996]
      },
      {
        "species": [{ "element": "Cl", "occu": 1 }],
        "abc": [0.2090014, 0.4180008, 0.250001],
        "properties": { "magmom": -0.0 },
        "label": "Cl",
        "xyz": [8.863587432017539e-6, 3.361442214479906, 0.9358138682404996]
      }
    ]
  },
  "task_ids": null,
  "uncorrected_energy_per_atom": null,
  "energy_per_atom": -14.4326339175,
  "formation_energy_per_atom": -2.43315162875,
  "energy_above_hull": 0.0,
  "is_stable": true,
  "equilibrium_reaction_energy_per_atom": null,
  "decomposes_to": null,
  "xas": null,
  "grain_boundaries": null,
  "band_gap": 3.5137,
  "cbm": null,
  "vbm": null,
  "efermi": -2.12843643,
  "is_gap_direct": null,
  "is_metal": null,
  "es_source_calc_id": null,
  "bandstructure": null,
  "dos": null,
  "dos_energy_up": null,
  "dos_energy_down": null,
  "is_magnetic": null,
  "ordering": null,
  "total_magnetization": 0.0,
  "total_magnetization_normalized_vol": null,
  "total_magnetization_normalized_formula_units": null,
  "num_magnetic_sites": null,
  "num_unique_magnetic_sites": null,
  "types_of_magnetic_species": null,
  "bulk_modulus": null,
  "shear_modulus": null,
  "universal_anisotropy": null,
  "homogeneous_poisson": null,
  "e_total": null,
  "e_ionic": null,
  "e_electronic": null,
  "n": null,
  "e_ij_max": null,
  "weighted_surface_energy_EV_PER_ANG2": null,
  "weighted_surface_energy": null,
  "weighted_work_function": null,
  "surface_anisotropy": null,
  "shape_factor": null,
  "has_reconstructed": null,
  "possible_species": null,
  "has_props": null,
  "theoretical": null,
  "database_IDs": null,
  "fields_not_requested": [
    "builder_meta",
    "nsites",
    "elements",
    "nelements",
    "composition",
    "composition_reduced",
    "chemsys",
    "symmetry",
    "property_name",
    "deprecated",
    "deprecation_reasons",
    "last_updated",
    "origins",
    "warnings",
    "task_ids",
    "uncorrected_energy_per_atom",
    "equilibrium_reaction_energy_per_atom",
    "decomposes_to",
    "xas",
    "grain_boundaries",
    "cbm",
    "vbm",
    "is_gap_direct",
    "is_metal",
    "es_source_calc_id",
    "bandstructure",
    "dos",
    "dos_energy_up",
    "dos_energy_down",
    "is_magnetic",
    "ordering",
    "total_magnetization_normalized_vol",
    "total_magnetization_normalized_formula_units",
    "num_magnetic_sites",
    "num_unique_magnetic_sites",
    "types_of_magnetic_species",
    "bulk_modulus",
    "shear_modulus",
    "universal_anisotropy",
    "homogeneous_poisson",
    "e_total",
    "e_ionic",
    "e_electronic",
    "n",
    "e_ij_max",
    "weighted_surface_energy_EV_PER_ANG2",
    "weighted_surface_energy",
    "weighted_work_function",
    "surface_anisotropy",
    "shape_factor",
    "has_reconstructed",
    "possible_species",
    "has_props",
    "theoretical",
    "database_IDs"
  ]
}
