{
  "builder_meta": null,
  "nsites": null,
  "elements": null,
  "nelements": null,
  "composition": null,
  "composition_reduced": null,
  "formula_pretty": "PmCu3",
  "formula_anonymous": "AB3",
  "chemsys": null,
  "volume": 139.80452193463654,
  "density": 7.973132821784786,
  "density_atomic": 17.475565241829567,
  "symmetry": null,
  "property_name": null,
  "material_id": "mp-863677",
  "deprecated": null,
  "deprecation_reasons": null,
  "last_updated": null,
  "origins": null,
  "warnings": null,
  "structure": {
    "@module": "pymatgen.core.structure",
    "@class": "Structure",
    "charge": 0,
    "lattice": {
      "matrix": [
        [6.15632239, 0.00029267000000000003, 0.0],
        [-3.0779062, 5.33168098, 0.0],
        [-0.0, -0.0, 4.25915838]
      ],
      "pbc": [true, true, true],
      "a": 6.156322396956728,
      "b": 6.156324280647682,
      "c": 4.25915838,
      "alpha": 90.0,
      "beta": 90.0,
      "gamma": 119.99452572667147,
      "volume": 139.80452193463654
    },
    "properties": {},
    "sites": [
      {
        "species": [{ "element": "Pm", "occu": 1 }],
        "abc": [0.33333297, 0.66666803, 0.75],
        "properties": { "magmom": 0.0 },
        "label": "Pm",
        "xyz": [0.0001635636574124355, 3.554558812085399, 3.194368785]
      },
      {
        "species": [{ "element": "Pm", "occu": 1 }],
        "abc": [0.66666703, 0.33333197000000003, 0.25],
        "properties": { "magmom": 0.0 },
        "label": "Pm",
        "xyz": [3.0782526263425876, 1.7774148379146006, 1.064789595]
      },
      {
        "species": [{ "element": "Cu", "occu": 1 }],
        "abc": [0.86698422, 0.13301578, 0.75],
        "properties": { "magmom": -0.0 },
        "label": "Cu",
        "xyz": [4.928024271402849, 0.7094514445375317, 3.194368785]
      },
      {
        "species": [{ "element": "Cu", "occu": 1 }],
        "abc": [0.26604493, 0.13303096, 0.75],
        "properties": { "magmom": 0.0 },
        "label": "Cu",
        "xyz": [1.2284015427290307, 0.7093565025528039, 3.194368785]
      },
      {
        "species": [{ "element": "Cu", "occu": 1 }],
        "abc": [0.86696804, 0.73395607, 0.75],
        "properties": { "magmom": 0.0 },
        "label": "Cu",
        "xyz": [3.078286817685782, 3.913473354110815, 3.194368785]
      },
      {
        "species": [{ "element": "Cu", "occu": 1 }],
        "abc": [0.13301678, 0.86698322, 0.25],
        "properties": { "magmom": -0.0 },
        "label": "Cu",
        "xyz": [-1.8495988471742602, 4.622516874074158, 1.064789595]
      },
      {
        "species": [{ "element": "Cu", "occu": 1 }],
        "abc": [0.73395607, 0.86697104, 0.25],
        "properties": { "magmom": 0.0 },
        "label": "Cu",
        "xyz": [1.8500146477809585, 4.622627811101826, 1.064789595]
      },
      {
        "species": [{ "element": "Cu", "occu": 1 }],
        "abc": [0.13302896, 0.26604193, 0.25],
        "properties": { "magmom": 0.0 },
        "label": "Cu",
        "xyz": [0.00011705915944837386, 1.4184896316492144, 1.064789595]
      }
    ]
  },
  "task_ids": null,
  "uncorrected_energy_per_atom": null,
  "energy_per_atom": -15.63764832875,
  "formation_energy_per_atom": -0.11739821312499901,
  "energy_above_hull": 0.0,
  "is_stable": true,
  "equilibrium_reaction_energy_per_atom": null,
  "decomposes_to": null,
  "xas": null,
  "grain_boundaries": null,
  "band_gap": 0.0,
  "cbm": null,
  "vbm": null,
  "efermi": 4.80840576,
  "is_gap_direct": null,
  "is_metal": null,
  "es_source_calc_id": null,
  "bandstructure": null,
  "dos": null,
  "dos_energy_up": null,
  "dos_energy_down": null,
  "is_magnetic": null,
  "ordering": null,
  "total_magnetization": 0.0,
  "total_magnetization_normalized_vol": null,
  "total_magnetization_normalized_formula_units": null,
  "num_magnetic_sites": null,
  "num_unique_magnetic_sites": null,
  "types_of_magnetic_species": null,
  "bulk_modulus": null,
  "shear_modulus": null,
  "universal_anisotropy": null,
  "homogeneous_poisson": null,
  "e_total": null,
  "e_ionic": null,
  "e_electronic": null,
  "n": null,
  "e_ij_max": null,
  "weighted_surface_energy_EV_PER_ANG2": null,
  "weighted_surface_energy": null,
  "weighted_work_function": null,
  "surface_anisotropy": null,
  "shape_factor": null,
  "has_reconstructed": null,
  "possible_species": null,
  "has_props": null,
  "theoretical": null,
  "database_IDs": null,
  "fields_not_requested": [
    "builder_meta",
    "nsites",
    "elements",
    "nelements",
    "composition",
    "composition_reduced",
    "chemsys",
    "symmetry",
    "property_name",
    "deprecated",
    "deprecation_reasons",
    "last_updated",
    "origins",
    "warnings",
    "task_ids",
    "uncorrected_energy_per_atom",
    "equilibrium_reaction_energy_per_atom",
    "decomposes_to",
    "xas",
    "grain_boundaries",
    "cbm",
    "vbm",
    "is_gap_direct",
    "is_metal",
    "es_source_calc_id",
    "bandstructure",
    "dos",
    "dos_energy_up",
    "dos_energy_down",
    "is_magnetic",
    "ordering",
    "total_magnetization_normalized_vol",
    "total_magnetization_normalized_formula_units",
    "num_magnetic_sites",
    "num_unique_magnetic_sites",
    "types_of_magnetic_species",
    "bulk_modulus",
    "shear_modulus",
    "universal_anisotropy",
    "homogeneous_poisson",
    "e_total",
    "e_ionic",
    "e_electronic",
    "n",
    "e_ij_max",
    "weighted_surface_energy_EV_PER_ANG2",
    "weighted_surface_energy",
    "weighted_work_function",
    "surface_anisotropy",
    "shape_factor",
    "has_reconstructed",
    "possible_species",
    "has_props",
    "theoretical",
    "database_IDs"
  ]
}
