{
  "builder_meta": null,
  "nsites": null,
  "elements": null,
  "nelements": null,
  "composition": null,
  "composition_reduced": null,
  "formula_pretty": "PmDy3",
  "formula_anonymous": "AB3",
  "chemsys": null,
  "volume": 261.4479296546163,
  "density": 8.034417874427069,
  "density_atomic": 32.68099120682704,
  "symmetry": null,
  "property_name": null,
  "material_id": "mp-1186565",
  "deprecated": null,
  "deprecation_reasons": null,
  "last_updated": null,
  "origins": null,
  "warnings": null,
  "structure": {
    "@module": "pymatgen.core.structure",
    "@class": "Structure",
    "charge": 0,
    "lattice": {
      "matrix": [
        [3.64298206, -6.3098299, 0.0],
        [3.64298206, 6.3098299, 0.0],
        [-0.0, -0.0, 5.68696463]
      ],
      "pbc": [true, true, true],
      "a": 7.285964016958625,
      "b": 7.285964016958625,
      "c": 5.68696463,
      "alpha": 90.0,
      "beta": 90.0,
      "gamma": 119.99999906434311,
      "volume": 261.4479296546163
    },
    "properties": {},
    "sites": [
      {
        "species": [{ "element": "Pm", "occu": 1 }],
        "abc": [0.666667, 0.333333, 0.25],
        "properties": { "magmom": 0.0 },
        "label": "Pm",
        "xyz": [3.6429820600000005, -2.1032808398866005, 1.4217411575]
      },
      {
        "species": [{ "element": "Pm", "occu": 1 }],
        "abc": [0.333333, 0.666667, 0.75],
        "properties": { "magmom": 0.0 },
        "label": "Pm",
        "xyz": [3.6429820600000005, 2.1032808398866005, 4.265223472500001]
      },
      {
        "species": [{ "element": "Dy", "occu": 1 }],
        "abc": [0.8341453600000001, 0.16585464, 0.75],
        "properties": { "magmom": 0.0 },
        "label": "Dy",
        "xyz": [3.6429820600000005, -4.216800766948529, 4.265223472500001]
      },
      {
        "species": [{ "element": "Dy", "occu": 1 }],
        "abc": [0.33170828, 0.16585464, 0.75],
        "properties": { "magmom": 0.0 },
        "label": "Dy",
        "xyz": [1.8126127912812153, -1.0465082566958361, 4.265223472500001]
      },
      {
        "species": [{ "element": "Dy", "occu": 1 }],
        "abc": [0.8341453600000001, 0.66829172, 0.75],
        "properties": { "magmom": 0.0 },
        "label": "Dy",
        "xyz": [5.473351328718785, -1.0465082566958364, 4.265223472500001]
      },
      {
        "species": [{ "element": "Dy", "occu": 1 }],
        "abc": [0.16585464, 0.8341453600000001, 0.25],
        "properties": { "magmom": 0.0 },
        "label": "Dy",
        "xyz": [3.6429820600000005, 4.216800766948529, 1.4217411575]
      },
      {
        "species": [{ "element": "Dy", "occu": 1 }],
        "abc": [0.66829172, 0.8341453600000001, 0.25],
        "properties": { "magmom": 0.0 },
        "label": "Dy",
        "xyz": [5.473351328718785, 1.0465082566958364, 1.4217411575]
      },
      {
        "species": [{ "element": "Dy", "occu": 1 }],
        "abc": [0.16585464, 0.33170828, 0.25],
        "properties": { "magmom": 0.0 },
        "label": "Dy",
        "xyz": [1.8126127912812153, 1.0465082566958361, 1.4217411575]
      }
    ]
  },
  "task_ids": null,
  "uncorrected_energy_per_atom": null,
  "energy_per_atom": -31.3553426,
  "formation_energy_per_atom": 0.016162934375003,
  "energy_above_hull": 0.016162934375003,
  "is_stable": false,
  "equilibrium_reaction_energy_per_atom": null,
  "decomposes_to": null,
  "xas": null,
  "grain_boundaries": null,
  "band_gap": 0.0,
  "cbm": null,
  "vbm": null,
  "efermi": 3.13709433,
  "is_gap_direct": null,
  "is_metal": null,
  "es_source_calc_id": null,
  "bandstructure": null,
  "dos": null,
  "dos_energy_up": null,
  "dos_energy_down": null,
  "is_magnetic": null,
  "ordering": null,
  "total_magnetization": 0.00135,
  "total_magnetization_normalized_vol": null,
  "total_magnetization_normalized_formula_units": null,
  "num_magnetic_sites": null,
  "num_unique_magnetic_sites": null,
  "types_of_magnetic_species": null,
  "bulk_modulus": null,
  "shear_modulus": null,
  "universal_anisotropy": null,
  "homogeneous_poisson": null,
  "e_total": null,
  "e_ionic": null,
  "e_electronic": null,
  "n": null,
  "e_ij_max": null,
  "weighted_surface_energy_EV_PER_ANG2": null,
  "weighted_surface_energy": null,
  "weighted_work_function": null,
  "surface_anisotropy": null,
  "shape_factor": null,
  "has_reconstructed": null,
  "possible_species": null,
  "has_props": null,
  "theoretical": null,
  "database_IDs": null,
  "fields_not_requested": [
    "builder_meta",
    "nsites",
    "elements",
    "nelements",
    "composition",
    "composition_reduced",
    "chemsys",
    "symmetry",
    "property_name",
    "deprecated",
    "deprecation_reasons",
    "last_updated",
    "origins",
    "warnings",
    "task_ids",
    "uncorrected_energy_per_atom",
    "equilibrium_reaction_energy_per_atom",
    "decomposes_to",
    "xas",
    "grain_boundaries",
    "cbm",
    "vbm",
    "is_gap_direct",
    "is_metal",
    "es_source_calc_id",
    "bandstructure",
    "dos",
    "dos_energy_up",
    "dos_energy_down",
    "is_magnetic",
    "ordering",
    "total_magnetization_normalized_vol",
    "total_magnetization_normalized_formula_units",
    "num_magnetic_sites",
    "num_unique_magnetic_sites",
    "types_of_magnetic_species",
    "bulk_modulus",
    "shear_modulus",
    "universal_anisotropy",
    "homogeneous_poisson",
    "e_total",
    "e_ionic",
    "e_electronic",
    "n",
    "e_ij_max",
    "weighted_surface_energy_EV_PER_ANG2",
    "weighted_surface_energy",
    "weighted_work_function",
    "surface_anisotropy",
    "shape_factor",
    "has_reconstructed",
    "possible_species",
    "has_props",
    "theoretical",
    "database_IDs"
  ]
}
