{"builder_meta": null, "nsites": null, "elements": null, "nelements": null, "composition": null, "composition_reduced": null, "formula_pretty": "PmEr3", "formula_anonymous": "AB3", "chemsys": null, "volume": 258.25512109772785, "density": 8.317345044801105, "density_atomic": 32.28189013721598, "symmetry": null, "property_name": null, "material_id": "mp-1186568", "deprecated": null, "deprecation_reasons": null, "last_updated": null, "origins": null, "warnings": null, "structure": {"@module": "pymatgen.core.structure", "@class": "Structure", "charge": 0, "lattice": {"matrix": [[3.59878976, -6.23328574, -0.0], [3.59878872, 6.23328573, -0.0], [0.0, -0.0, 5.75632754]], "pbc": [true, true, true], "a": 7.1975786798873, "b": 7.197578151227042, "c": 5.75632754, "alpha": 90.0, "beta": 90.0, "gamma": 119.99999940764768, "volume": 258.25512109772785}, "properties": {}, "sites": [{"species": [{"element": "Pm", "occu": 1}], "abc": [0.666667, 0.333333, 0.25], "properties": {"magmom": 0.389}, "label": "Pm", "xyz": [3.5987894133336797, -2.07776607219049, 1.439081885]}, {"species": [{"element": "Pm", "occu": 1}], "abc": [0.333333, 0.666667, 0.75], "properties": {"magmom": 0.389}, "label": "Pm", "xyz": [3.59878906666632, 2.07776606219049, 4.317245655]}, {"species": [{"element": "Er", "occu": 1}], "abc": [0.8350506400000001, 0.16494936000000002, 0.75], "properties": {"magmom": 0.459}, "label": "Er", "xyz": [3.5987895884526657, -4.176932754629242, 4.317245655]}, {"species": [{"element": "Er", "occu": 1}], "abc": [0.32989871, 0.16494936000000002, 0.75], "properties": {"magmom": 0.459}, "label": "Er", "xyz": [1.7808539955244287, -1.0281764328267626, 4.317245655]}, {"species": [{"element": "Er", "occu": 1}], "abc": [0.8350506400000001, 0.67010129, 0.75], "properties": {"magmom": 0.459}, "label": "Er", "xyz": [5.416724656022895, -1.0281764378782823, 4.317245655]}, {"species": [{"element": "Er", "occu": 1}], "abc": [0.16494936000000002, 0.8350506400000001, 0.25], "properties": {"magmom": 0.459}, "label": "Er", "xyz": [3.5987888915473345, 4.176932744629242, 1.439081885]}, {"species": [{"element": "Er", "occu": 1}], "abc": [0.67010129, 0.8350506400000001, 0.25], "properties": {"magmom": 0.459}, "label": "Er", "xyz": [5.416724484475571, 1.0281764228267631, 1.439081885]}, {"species": [{"element": "Er", "occu": 1}], "abc": [0.16494936000000002, 0.32989871, 0.25], "properties": {"magmom": 0.459}, "label": "Er", "xyz": [1.7808538239771048, 1.0281764278782817, 1.439081885]}]}, "task_ids": null, "uncorrected_energy_per_atom": null, "energy_per_atom": -32.82354271625, "formation_energy_per_atom": 0.005686774375, "energy_above_hull": 0.005686774375, "is_stable": false, "equilibrium_reaction_energy_per_atom": null, "decomposes_to": null, "xas": null, "grain_boundaries": null, "band_gap": 0.0, "cbm": null, "vbm": null, "efermi": 3.0250983, "is_gap_direct": null, "is_metal": null, "es_source_calc_id": null, "bandstructure": null, "dos": null, "dos_energy_up": null, "dos_energy_down": null, "is_magnetic": null, "ordering": null, "total_magnetization": 4.7198169, "total_magnetization_normalized_vol": null, "total_magnetization_normalized_formula_units": null, "num_magnetic_sites": null, "num_unique_magnetic_sites": null, "types_of_magnetic_species": null, "bulk_modulus": null, "shear_modulus": null, "universal_anisotropy": null, "homogeneous_poisson": null, "e_total": null, "e_ionic": null, "e_electronic": null, "n": null, "e_ij_max": null, "weighted_surface_energy_EV_PER_ANG2": null, "weighted_surface_energy": null, "weighted_work_function": null, "surface_anisotropy": null, "shape_factor": null, "has_reconstructed": null, "possible_species": null, "has_props": null, "theoretical": null, "database_IDs": null, "fields_not_requested": ["builder_meta", "nsites", "elements", "nelements", "composition", "composition_reduced", "chemsys", "symmetry", "property_name", "deprecated", "deprecation_reasons", "last_updated", "origins", "warnings", "task_ids", "uncorrected_energy_per_atom", "equilibrium_reaction_energy_per_atom", "decomposes_to", "xas", "grain_boundaries", "cbm", "vbm", "is_gap_direct", "is_metal", "es_source_calc_id", "bandstructure", "dos", "dos_energy_up", "dos_energy_down", "is_magnetic", "ordering", "total_magnetization_normalized_vol", "total_magnetization_normalized_formula_units", "num_magnetic_sites", "num_unique_magnetic_sites", "types_of_magnetic_species", "bulk_modulus", "shear_modulus", "universal_anisotropy", "homogeneous_poisson", "e_total", "e_ionic", "e_electronic", "n", "e_ij_max", "weighted_surface_energy_EV_PER_ANG2", "weighted_surface_energy", "weighted_work_function", "surface_anisotropy", "shape_factor", "has_reconstructed", "possible_species", "has_props", "theoretical", "database_IDs"]}