{"builder_meta": null, "nsites": null, "elements": null, "nelements": null, "composition": null, "composition_reduced": null, "formula_pretty": "PmF3", "formula_anonymous": "AB3", "chemsys": null, "volume": 44.89587717095551, "density": 7.471085496996354, "density_atomic": 11.223969292738877, "symmetry": null, "property_name": null, "material_id": "mp-862901", "deprecated": null, "deprecation_reasons": null, "last_updated": null, "origins": null, "warnings": null, "structure": {"@module": "pymatgen.core.structure", "@class": "Structure", "charge": 0, "lattice": {"matrix": [[-1.85792219, 1.85792219, 3.25155741], [1.85792219, -1.85792219, 3.25155741], [1.85792219, 1.85792219, -3.25155741]], "pbc": [true, true, true], "a": 4.180475489548372, "b": 4.180475489548372, "c": 4.180475489548372, "alpha": 127.22644767151827, "beta": 127.22644767151827, "gamma": 77.88154739616559, "volume": 44.89587717095551}, "properties": {}, "sites": [{"species": [{"element": "Pm", "occu": 1}], "abc": [-0.0, -0.0, -0.0], "properties": {"magmom": -0.0}, "label": "Pm", "xyz": [0.0, 0.0, 0.0]}, {"species": [{"element": "F", "occu": 1}], "abc": [0.750000999999999, 0.25, 0.500001], "properties": {"magmom": 0.0}, "label": "F", "xyz": [1.9984014443252818e-15, 1.8579259058443782, 1.625778704999997]}, {"species": [{"element": "F", "occu": 1}], "abc": [0.25, 0.750000999999999, 0.500001], "properties": {"magmom": 0.0}, "label": "F", "xyz": [1.8579259058443782, 1.9984014443252818e-15, 1.625778704999997]}, {"species": [{"element": "F", "occu": 1}], "abc": [0.499998999999999, 0.499998999999999, 0.0], "properties": {"magmom": 0.0}, "label": "F", "xyz": [0.0, 0.0, 3.251550906885174]}]}, "task_ids": null, "uncorrected_energy_per_atom": null, "energy_per_atom": -14.01569963, "formation_energy_per_atom": -4.2860255518749995, "energy_above_hull": 0.0, "is_stable": true, "equilibrium_reaction_energy_per_atom": null, "decomposes_to": null, "xas": null, "grain_boundaries": null, "band_gap": 4.774199999999999, "cbm": null, "vbm": null, "efermi": 1.52034223, "is_gap_direct": null, "is_metal": null, "es_source_calc_id": null, "bandstructure": null, "dos": null, "dos_energy_up": null, "dos_energy_down": null, "is_magnetic": null, "ordering": null, "total_magnetization": 0.0, "total_magnetization_normalized_vol": null, "total_magnetization_normalized_formula_units": null, "num_magnetic_sites": null, "num_unique_magnetic_sites": null, "types_of_magnetic_species": null, "bulk_modulus": null, "shear_modulus": null, "universal_anisotropy": null, "homogeneous_poisson": null, "e_total": null, "e_ionic": null, "e_electronic": null, "n": null, "e_ij_max": null, "weighted_surface_energy_EV_PER_ANG2": null, "weighted_surface_energy": null, "weighted_work_function": null, "surface_anisotropy": null, "shape_factor": null, "has_reconstructed": null, "possible_species": null, "has_props": null, "theoretical": null, "database_IDs": null, "fields_not_requested": ["builder_meta", "nsites", "elements", "nelements", "composition", "composition_reduced", "chemsys", "symmetry", "property_name", "deprecated", "deprecation_reasons", "last_updated", "origins", "warnings", "task_ids", "uncorrected_energy_per_atom", "equilibrium_reaction_energy_per_atom", "decomposes_to", "xas", "grain_boundaries", "cbm", "vbm", "is_gap_direct", "is_metal", "es_source_calc_id", "bandstructure", "dos", "dos_energy_up", "dos_energy_down", "is_magnetic", "ordering", "total_magnetization_normalized_vol", "total_magnetization_normalized_formula_units", "num_magnetic_sites", "num_unique_magnetic_sites", "types_of_magnetic_species", "bulk_modulus", "shear_modulus", "universal_anisotropy", "homogeneous_poisson", "e_total", "e_ionic", "e_electronic", "n", "e_ij_max", "weighted_surface_energy_EV_PER_ANG2", "weighted_surface_energy", "weighted_work_function", "surface_anisotropy", "shape_factor", "has_reconstructed", "possible_species", "has_props", "theoretical", "database_IDs"]}