{"builder_meta": null, "nsites": null, "elements": null, "nelements": null, "composition": null, "composition_reduced": null, "formula_pretty": "PmH", "formula_anonymous": "AB", "chemsys": null, "volume": 76.36436928667777, "density": 6.349869465787258, "density_atomic": 19.091092321669443, "symmetry": null, "property_name": null, "material_id": "mp-863656", "deprecated": null, "deprecation_reasons": null, "last_updated": null, "origins": null, "warnings": null, "structure": {"@module": "pymatgen.core.structure", "@class": "Structure", "charge": 0, "lattice": {"matrix": [[1.9089798, -3.30654514, -9.79e-06], [1.9089750300000001, 3.30654222, -1.93e-06], [1.39e-06, 4.29e-06, 6.04902973]], "pbc": [true, true, true], "a": 3.8180419903088416, "b": 3.8180370765368106, "c": 6.049029730001681, "alpha": 89.99998718921402, "beta": 90.00017552236623, "gamma": 120.00146774580749, "volume": 76.36436928667777}, "properties": {}, "sites": [{"species": [{"element": "Pm", "occu": 1}], "abc": [1.091e-05, 0.99998637, 0.3833416], "properties": {"magmom": -0.0}, "label": "Pm", "xyz": [1.9089703704847834, 3.3064627219575278, 2.318842805065265]}, {"species": [{"element": "Pm", "occu": 1}], "abc": [0.33332263, 0.66667917, 0.88323756], "properties": {"magmom": 0.0}, "label": "Pm", "xyz": [1.9089812838042075, 1.1022602896101716, 5.342725709173313]}, {"species": [{"element": "H", "occu": 1}], "abc": [-5.17e-06, 5.45e-06, 0.99172363], "properties": {"magmom": -0.0}, "label": "H", "xyz": [1.9129841932000017e-06, 3.9369987845499996e-05, 5.998965721853615]}, {"species": [{"element": "H", "occu": 1}], "abc": [0.33333663, 0.66665601, 0.49169722], "properties": {"magmom": -0.0}, "label": "H", "xyz": [1.90896325341864, 1.1021357387523374, 2.9742865519266437]}]}, "task_ids": null, "uncorrected_energy_per_atom": null, "energy_per_atom": -16.9864650025, "formation_energy_per_atom": -0.48860257062500106, "energy_above_hull": 0.0, "is_stable": true, "equilibrium_reaction_energy_per_atom": null, "decomposes_to": null, "xas": null, "grain_boundaries": null, "band_gap": 0.0, "cbm": null, "vbm": null, "efermi": 3.30938415, "is_gap_direct": null, "is_metal": null, "es_source_calc_id": null, "bandstructure": null, "dos": null, "dos_energy_up": null, "dos_energy_down": null, "is_magnetic": null, "ordering": null, "total_magnetization": 5e-07, "total_magnetization_normalized_vol": null, "total_magnetization_normalized_formula_units": null, "num_magnetic_sites": null, "num_unique_magnetic_sites": null, "types_of_magnetic_species": null, "bulk_modulus": null, "shear_modulus": null, "universal_anisotropy": null, "homogeneous_poisson": null, "e_total": null, "e_ionic": null, "e_electronic": null, "n": null, "e_ij_max": null, "weighted_surface_energy_EV_PER_ANG2": null, "weighted_surface_energy": null, "weighted_work_function": null, "surface_anisotropy": null, "shape_factor": null, "has_reconstructed": null, "possible_species": null, "has_props": null, "theoretical": null, "database_IDs": null, "fields_not_requested": ["builder_meta", "nsites", "elements", "nelements", "composition", "composition_reduced", "chemsys", "symmetry", "property_name", "deprecated", "deprecation_reasons", "last_updated", "origins", "warnings", "task_ids", "uncorrected_energy_per_atom", "equilibrium_reaction_energy_per_atom", "decomposes_to", "xas", "grain_boundaries", "cbm", "vbm", "is_gap_direct", "is_metal", "es_source_calc_id", "bandstructure", "dos", "dos_energy_up", "dos_energy_down", "is_magnetic", "ordering", "total_magnetization_normalized_vol", "total_magnetization_normalized_formula_units", "num_magnetic_sites", "num_unique_magnetic_sites", "types_of_magnetic_species", "bulk_modulus", "shear_modulus", "universal_anisotropy", "homogeneous_poisson", "e_total", "e_ionic", "e_electronic", "n", "e_ij_max", "weighted_surface_energy_EV_PER_ANG2", "weighted_surface_energy", "weighted_work_function", "surface_anisotropy", "shape_factor", "has_reconstructed", "possible_species", "has_props", "theoretical", "database_IDs"]}