{"builder_meta": null, "nsites": null, "elements": null, "nelements": null, "composition": null, "composition_reduced": null, "formula_pretty": "PmHo3", "formula_anonymous": "AB3", "chemsys": null, "volume": 259.2643078243704, "density": 8.195481224952896, "density_atomic": 32.4080384780463, "symmetry": null, "property_name": null, "material_id": "mp-984754", "deprecated": null, "deprecation_reasons": null, "last_updated": null, "origins": null, "warnings": null, "structure": {"@module": "pymatgen.core.structure", "@class": "Structure", "charge": 0, "lattice": {"matrix": [[7.3011536, 0.00025807, 0.0], [-3.65039506, 6.32272344, 0.0], [0.0, 0.0, 5.61614354]], "pbc": [true, true, true], "a": 7.301153604560931, "b": 7.3008366501927595, "c": 5.61614354, "alpha": 90.0, "beta": 90.0, "gamma": 119.99776397069833, "volume": 259.2643078243704}, "properties": {}, "sites": [{"species": [{"element": "Pm", "occu": 1}], "abc": [0.33338694, 0.66671105, 0.749999], "properties": {"magmom": -0.0}, "label": "Pm", "xyz": [0.0003505338065710184, 4.215515620709617, 4.21210203885646]}, {"species": [{"element": "Pm", "occu": 1}], "abc": [0.66661584, 0.33329033, 0.249999], "properties": {"magmom": -0.0}, "label": "Pm", "xyz": [3.6504232658552542, 2.107474615366164, 1.40403026885646]}, {"species": [{"element": "Ho", "occu": 1}], "abc": [0.16520988, 0.33046012, 0.249999], "properties": {"magmom": -0.0}, "label": "Ho", "xyz": [-8.727945743935983e-05, 2.0894505824229443, 1.40403026885646]}, {"species": [{"element": "Ho", "occu": 1}], "abc": [0.66953093, 0.83476407, 0.249999], "properties": {"magmom": -0.0}, "label": "Ho", "xyz": [1.8411295224873534, 5.278155138105905, 1.40403026885646]}, {"species": [{"element": "Ho", "occu": 1}], "abc": [0.16515685, 0.83475665, 0.249999], "properties": {"magmom": -0.0}, "label": "Ho", "xyz": [-1.8413560215199891, 5.277978059679155, 1.40403026885646]}, {"species": [{"element": "Ho", "occu": 1}], "abc": [0.83478865, 0.66953587, 0.749999], "properties": {"magmom": -0.0}, "label": "Ho", "xyz": [3.6508497248458376, 4.233505573076699, 4.21210203885646]}, {"species": [{"element": "Ho", "occu": 1}], "abc": [0.33046921, 0.16523552, 0.749999], "properties": {"magmom": -0.0}, "label": "Ho", "xyz": [1.8096315363361248, 1.0448237796136135, 4.21210203885646]}, {"species": [{"element": "Ho", "occu": 1}], "abc": [0.83483869, 0.16524339, 0.749999], "properties": {"magmom": -0.0}, "label": "Ho", "xyz": [5.492081852359131, 1.0450037020787897, 4.21210203885646]}]}, "task_ids": null, "uncorrected_energy_per_atom": null, "energy_per_atom": -32.03426963875, "formation_energy_per_atom": 0.011891413125006, "energy_above_hull": 0.011891413125006, "is_stable": false, "equilibrium_reaction_energy_per_atom": null, "decomposes_to": null, "xas": null, "grain_boundaries": null, "band_gap": 0.0, "cbm": null, "vbm": null, "efermi": 3.05308957, "is_gap_direct": null, "is_metal": null, "es_source_calc_id": null, "bandstructure": null, "dos": null, "dos_energy_up": null, "dos_energy_down": null, "is_magnetic": null, "ordering": null, "total_magnetization": 0.0003995, "total_magnetization_normalized_vol": null, "total_magnetization_normalized_formula_units": null, "num_magnetic_sites": null, "num_unique_magnetic_sites": null, "types_of_magnetic_species": null, "bulk_modulus": null, "shear_modulus": null, "universal_anisotropy": null, "homogeneous_poisson": null, "e_total": null, "e_ionic": null, "e_electronic": null, "n": null, "e_ij_max": null, "weighted_surface_energy_EV_PER_ANG2": null, "weighted_surface_energy": null, "weighted_work_function": null, "surface_anisotropy": null, "shape_factor": null, "has_reconstructed": null, "possible_species": null, "has_props": null, "theoretical": null, "database_IDs": null, "fields_not_requested": ["builder_meta", "nsites", "elements", "nelements", "composition", "composition_reduced", "chemsys", "symmetry", "property_name", "deprecated", "deprecation_reasons", "last_updated", "origins", "warnings", "task_ids", "uncorrected_energy_per_atom", "equilibrium_reaction_energy_per_atom", "decomposes_to", "xas", "grain_boundaries", "cbm", "vbm", "is_gap_direct", "is_metal", "es_source_calc_id", "bandstructure", "dos", "dos_energy_up", "dos_energy_down", "is_magnetic", "ordering", "total_magnetization_normalized_vol", "total_magnetization_normalized_formula_units", "num_magnetic_sites", "num_unique_magnetic_sites", "types_of_magnetic_species", "bulk_modulus", "shear_modulus", "universal_anisotropy", "homogeneous_poisson", "e_total", "e_ionic", "e_electronic", "n", "e_ij_max", "weighted_surface_energy_EV_PER_ANG2", "weighted_surface_energy", "weighted_work_function", "surface_anisotropy", "shape_factor", "has_reconstructed", "possible_species", "has_props", "theoretical", "database_IDs"]}