{"builder_meta": null, "nsites": null, "elements": null, "nelements": null, "composition": null, "composition_reduced": null, "formula_pretty": "PmI3", "formula_anonymous": "AB3", "chemsys": null, "volume": 434.5935527548446, "density": 4.017398093491491, "density_atomic": 54.324194094355576, "symmetry": null, "property_name": null, "material_id": "mp-863695", "deprecated": null, "deprecation_reasons": null, "last_updated": null, "origins": null, "warnings": null, "structure": {"@module": "pymatgen.core.structure", "@class": "Structure", "charge": 0, "lattice": {"matrix": [[11.06892877, 0.00020022, -9.1e-07], [-5.5342895, 9.58601499, -3.566e-05], [-3.299999999999998e-07, -1.546e-05, 4.09576516]], "pbc": [true, true, true], "a": 11.068928771810874, "b": 11.068877253795282, "c": 4.095765160029191, "alpha": 90.00036957590869, "beta": 90.00000933069872, "gamma": 119.99807226883891, "volume": 434.5935527548446}, "properties": {}, "sites": [{"species": [{"element": "Pm", "occu": 1}], "abc": [0.33332852, 0.6666693, 0.74999762], "properties": {"magmom": -0.0}, "label": "Pm", "xyz": [4.849042795548385e-05, 6.390757047245876, 3.0717900453227283]}, {"species": [{"element": "Pm", "occu": 1}], "abc": [0.66667073, 0.33333306, 0.25000124], "properties": {"magmom": -0.0}, "label": "Pm", "xyz": [5.534569086952623, 3.1954653256169596, 1.0239338754215146]}, {"species": [{"element": "I", "occu": 1}], "abc": [0.21061241, 0.42124901000000003, 0.24999015], "properties": {"magmom": 0.0}, "label": "I", "xyz": [-6.0291057108654004e-05, 4.038137628351671, 1.0238857333161842]}, {"species": [{"element": "I", "occu": 1}], "abc": [0.57874289, 0.78937994, 0.24999016000000002], "properties": {"magmom": -0.0}, "label": "I", "xyz": [2.0374066296045616, 7.567119948698863, 1.0238723117261352]}, {"species": [{"element": "I", "occu": 1}], "abc": [0.21060519, 0.7893797100000001, 0.2500038], "properties": {"magmom": -0.0}, "label": "I", "xyz": [-2.0374820763649835, 7.567044035174248, 1.0239285129764266]}, {"species": [{"element": "I", "occu": 1}], "abc": [0.78940443, 0.5787575500000001, 0.7500045], "properties": {"magmom": 0.0}, "label": "I", "xyz": [5.534849326880241, 5.54812500936108, 3.0718209440909554]}, {"species": [{"element": "I", "occu": 1}], "abc": [0.42125033, 0.21061753, 0.75000435], "properties": {"magmom": -0.0}, "label": "I", "xyz": [3.497171264812624, 2.0190555474105967, 3.071833792619526]}, {"species": [{"element": "I", "occu": 1}], "abc": [0.7893825, 0.21061091, 0.7500041900000001], "properties": {"magmom": -0.0}, "label": "I", "xyz": [7.572036669484696, 2.019065795416914, 3.071832802532895]}]}, "task_ids": null, "uncorrected_energy_per_atom": null, "energy_per_atom": -4.0190766475, "formation_energy_per_atom": -1.688431605625, "energy_above_hull": 0.0, "is_stable": true, "equilibrium_reaction_energy_per_atom": null, "decomposes_to": null, "xas": null, "grain_boundaries": null, "band_gap": 2.0525, "cbm": null, "vbm": null, "efermi": -0.53768596, "is_gap_direct": null, "is_metal": null, "es_source_calc_id": null, "bandstructure": null, "dos": null, "dos_energy_up": null, "dos_energy_down": null, "is_magnetic": null, "ordering": null, "total_magnetization": 0.0, "total_magnetization_normalized_vol": null, "total_magnetization_normalized_formula_units": null, "num_magnetic_sites": null, "num_unique_magnetic_sites": null, "types_of_magnetic_species": null, "bulk_modulus": null, "shear_modulus": null, "universal_anisotropy": null, "homogeneous_poisson": null, "e_total": null, "e_ionic": null, "e_electronic": null, "n": null, "e_ij_max": null, "weighted_surface_energy_EV_PER_ANG2": null, "weighted_surface_energy": null, "weighted_work_function": null, "surface_anisotropy": null, "shape_factor": null, "has_reconstructed": null, "possible_species": null, "has_props": null, "theoretical": null, "database_IDs": null, "fields_not_requested": ["builder_meta", "nsites", "elements", "nelements", "composition", "composition_reduced", "chemsys", "symmetry", "property_name", "deprecated", "deprecation_reasons", "last_updated", "origins", "warnings", "task_ids", "uncorrected_energy_per_atom", "equilibrium_reaction_energy_per_atom", "decomposes_to", "xas", "grain_boundaries", "cbm", "vbm", "is_gap_direct", "is_metal", "es_source_calc_id", "bandstructure", "dos", "dos_energy_up", "dos_energy_down", "is_magnetic", "ordering", "total_magnetization_normalized_vol", "total_magnetization_normalized_formula_units", "num_magnetic_sites", "num_unique_magnetic_sites", "types_of_magnetic_species", "bulk_modulus", "shear_modulus", "universal_anisotropy", "homogeneous_poisson", "e_total", "e_ionic", "e_electronic", "n", "e_ij_max", "weighted_surface_energy_EV_PER_ANG2", "weighted_surface_energy", "weighted_work_function", "surface_anisotropy", "shape_factor", "has_reconstructed", "possible_species", "has_props", "theoretical", "database_IDs"]}