{
  "builder_meta": null,
  "nsites": null,
  "elements": null,
  "nelements": null,
  "composition": null,
  "composition_reduced": null,
  "formula_pretty": "PmIn3",
  "formula_anonymous": "AB3",
  "chemsys": null,
  "volume": 102.2417446697352,
  "density": 7.949370298101168,
  "density_atomic": 25.5604361674338,
  "symmetry": null,
  "property_name": null,
  "material_id": "mp-862920",
  "deprecated": null,
  "deprecation_reasons": null,
  "last_updated": null,
  "origins": null,
  "warnings": null,
  "structure": {
    "@module": "pymatgen.core.structure",
    "@class": "Structure",
    "charge": 0,
    "lattice": {
      "matrix": [
        [4.67713412, -2.6150000000000005e-5, -5.2240000000000015e-5],
        [-2.5140000000000003e-5, 4.67714369, 6.192e-5],
        [-5.225e-5, 6.193e-5, 4.67377408]
      ],
      "pbc": [true, true, true],
      "a": 4.677134120364843,
      "b": 4.67714369047744,
      "c": 4.673774080702365,
      "alpha": 89.99848226672688,
      "beta": 90.00128048670722,
      "gamma": 90.00062832006388,
      "volume": 102.24174466973521
    },
    "properties": {},
    "sites": [
      {
        "species": [{ "element": "Pm", "occu": 1 }],
        "abc": [0.99999916, 0.99999603, 4.29e-6],
        "properties": { "magmom": 0.0 },
        "label": "Pm",
        "xyz": [4.677105051082992, 4.677098972027197, 2.9730288862399995e-5]
      },
      {
        "species": [{ "element": "In", "occu": 1 }],
        "abc": [1.609999999999999e-6, 0.49999998, 0.50000471],
        "properties": { "magmom": 0.0 },
        "label": "In",
        "xyz": [-3.116505966150001e-5, 2.338602716706715, 2.336940013390572]
      },
      {
        "species": [{ "element": "In", "occu": 1 }],
        "abc": [0.49999925, 7.25e-6, 0.49999313],
        "properties": { "magmom": 0.0 },
        "label": "In",
        "xyz": [2.3385374273261026, 5.1798885905900004e-5, 2.3368288116601708]
      },
      {
        "species": [{ "element": "In", "occu": 1 }],
        "abc": [0.49999999, 0.49999774, 0.99999887],
        "properties": { "magmom": -0.0 },
        "label": "In",
        "xyz": [2.338502193344518, 2.3386101295855415, 4.673773638495873]
      }
    ]
  },
  "task_ids": null,
  "uncorrected_energy_per_atom": null,
  "energy_per_atom": -24.897778725,
  "formation_energy_per_atom": -0.5786828243749971,
  "energy_above_hull": 0.0,
  "is_stable": true,
  "equilibrium_reaction_energy_per_atom": null,
  "decomposes_to": null,
  "xas": null,
  "grain_boundaries": null,
  "band_gap": 0.0,
  "cbm": null,
  "vbm": null,
  "efermi": 6.60530503,
  "is_gap_direct": null,
  "is_metal": null,
  "es_source_calc_id": null,
  "bandstructure": null,
  "dos": null,
  "dos_energy_up": null,
  "dos_energy_down": null,
  "is_magnetic": null,
  "ordering": null,
  "total_magnetization": 5.6e-6,
  "total_magnetization_normalized_vol": null,
  "total_magnetization_normalized_formula_units": null,
  "num_magnetic_sites": null,
  "num_unique_magnetic_sites": null,
  "types_of_magnetic_species": null,
  "bulk_modulus": null,
  "shear_modulus": null,
  "universal_anisotropy": null,
  "homogeneous_poisson": null,
  "e_total": null,
  "e_ionic": null,
  "e_electronic": null,
  "n": null,
  "e_ij_max": null,
  "weighted_surface_energy_EV_PER_ANG2": null,
  "weighted_surface_energy": null,
  "weighted_work_function": null,
  "surface_anisotropy": null,
  "shape_factor": null,
  "has_reconstructed": null,
  "possible_species": null,
  "has_props": null,
  "theoretical": null,
  "database_IDs": null,
  "fields_not_requested": [
    "builder_meta",
    "nsites",
    "elements",
    "nelements",
    "composition",
    "composition_reduced",
    "chemsys",
    "symmetry",
    "property_name",
    "deprecated",
    "deprecation_reasons",
    "last_updated",
    "origins",
    "warnings",
    "task_ids",
    "uncorrected_energy_per_atom",
    "equilibrium_reaction_energy_per_atom",
    "decomposes_to",
    "xas",
    "grain_boundaries",
    "cbm",
    "vbm",
    "is_gap_direct",
    "is_metal",
    "es_source_calc_id",
    "bandstructure",
    "dos",
    "dos_energy_up",
    "dos_energy_down",
    "is_magnetic",
    "ordering",
    "total_magnetization_normalized_vol",
    "total_magnetization_normalized_formula_units",
    "num_magnetic_sites",
    "num_unique_magnetic_sites",
    "types_of_magnetic_species",
    "bulk_modulus",
    "shear_modulus",
    "universal_anisotropy",
    "homogeneous_poisson",
    "e_total",
    "e_ionic",
    "e_electronic",
    "n",
    "e_ij_max",
    "weighted_surface_energy_EV_PER_ANG2",
    "weighted_surface_energy",
    "weighted_work_function",
    "surface_anisotropy",
    "shape_factor",
    "has_reconstructed",
    "possible_species",
    "has_props",
    "theoretical",
    "database_IDs"
  ]
}
