{"builder_meta": null, "nsites": null, "elements": null, "nelements": null, "composition": null, "composition_reduced": null, "formula_pretty": "PmLu3", "formula_anonymous": "AB3", "chemsys": null, "volume": 248.85772198944727, "density": 8.94002221318716, "density_atomic": 31.10721524868091, "symmetry": null, "property_name": null, "material_id": "mp-1186605", "deprecated": null, "deprecation_reasons": null, "last_updated": null, "origins": null, "warnings": null, "structure": {"@module": "pymatgen.core.structure", "@class": "Structure", "charge": 0, "lattice": {"matrix": [[3.55961173, -6.16542766, -0.0], [3.55961173, 6.16542766, 0.0], [0.0, -0.0, 5.66963747]], "pbc": [true, true, true], "a": 7.119222843755256, "b": 7.119222843755256, "c": 5.66963747, "alpha": 90.0, "beta": 90.0, "gamma": 119.99999427319167, "volume": 248.85772198944727}, "properties": {}, "sites": [{"species": [{"element": "Pm", "occu": 1}], "abc": [0.666667, 0.333333, 0.25], "properties": {"magmom": 0.378}, "label": "Pm", "xyz": [3.55961173, -2.05514666361844, 1.4174093675]}, {"species": [{"element": "Pm", "occu": 1}], "abc": [0.333333, 0.666667, 0.75], "properties": {"magmom": 0.378}, "label": "Pm", "xyz": [3.55961173, 2.05514666361844, 4.2522281025]}, {"species": [{"element": "Lu", "occu": 1}], "abc": [0.83547869, 0.16452131, 0.75], "properties": {"magmom": 0.34900000000000003}, "label": "Lu", "xyz": [3.55961173, -4.13673918933313, 4.2522281025]}, {"species": [{"element": "Lu", "occu": 1}], "abc": [0.32904362, 0.16452131, 0.75], "properties": {"magmom": 0.34900000000000003}, "label": "Lu", "xyz": [1.7568995143446289, -1.0143504007610942, 4.2522281025]}, {"species": [{"element": "Lu", "occu": 1}], "abc": [0.83547869, 0.67095638, 0.75], "properties": {"magmom": 0.34900000000000003}, "label": "Lu", "xyz": [5.362323945655371, -1.014350400761094, 4.2522281025]}, {"species": [{"element": "Lu", "occu": 1}], "abc": [0.16452131, 0.83547869, 0.25], "properties": {"magmom": 0.34900000000000003}, "label": "Lu", "xyz": [3.55961173, 4.13673918933313, 1.4174093675]}, {"species": [{"element": "Lu", "occu": 1}], "abc": [0.67095638, 0.83547869, 0.25], "properties": {"magmom": 0.34900000000000003}, "label": "Lu", "xyz": [5.362323945655371, 1.014350400761094, 1.4174093675]}, {"species": [{"element": "Lu", "occu": 1}], "abc": [0.16452131, 0.32904362, 0.25], "properties": {"magmom": 0.34900000000000003}, "label": "Lu", "xyz": [1.7568995143446289, 1.0143504007610942, 1.4174093675]}]}, "task_ids": null, "uncorrected_energy_per_atom": null, "energy_per_atom": -35.9537524075, "formation_energy_per_atom": -0.008689154374991001, "energy_above_hull": 0.0, "is_stable": true, "equilibrium_reaction_energy_per_atom": null, "decomposes_to": null, "xas": null, "grain_boundaries": null, "band_gap": 0.0, "cbm": null, "vbm": null, "efermi": 2.88761764, "is_gap_direct": null, "is_metal": null, "es_source_calc_id": null, "bandstructure": null, "dos": null, "dos_energy_up": null, "dos_energy_down": null, "is_magnetic": null, "ordering": null, "total_magnetization": 4.316569, "total_magnetization_normalized_vol": null, "total_magnetization_normalized_formula_units": null, "num_magnetic_sites": null, "num_unique_magnetic_sites": null, "types_of_magnetic_species": null, "bulk_modulus": null, "shear_modulus": null, "universal_anisotropy": null, "homogeneous_poisson": null, "e_total": null, "e_ionic": null, "e_electronic": null, "n": null, "e_ij_max": null, "weighted_surface_energy_EV_PER_ANG2": null, "weighted_surface_energy": null, "weighted_work_function": null, "surface_anisotropy": null, "shape_factor": null, "has_reconstructed": null, "possible_species": null, "has_props": null, "theoretical": null, "database_IDs": null, "fields_not_requested": ["builder_meta", "nsites", "elements", "nelements", "composition", "composition_reduced", "chemsys", "symmetry", "property_name", "deprecated", "deprecation_reasons", "last_updated", "origins", "warnings", "task_ids", "uncorrected_energy_per_atom", "equilibrium_reaction_energy_per_atom", "decomposes_to", "xas", "grain_boundaries", "cbm", "vbm", "is_gap_direct", "is_metal", "es_source_calc_id", "bandstructure", "dos", "dos_energy_up", "dos_energy_down", "is_magnetic", "ordering", "total_magnetization_normalized_vol", "total_magnetization_normalized_formula_units", "num_magnetic_sites", "num_unique_magnetic_sites", "types_of_magnetic_species", "bulk_modulus", "shear_modulus", "universal_anisotropy", "homogeneous_poisson", "e_total", "e_ionic", "e_electronic", "n", "e_ij_max", "weighted_surface_energy_EV_PER_ANG2", "weighted_surface_energy", "weighted_work_function", "surface_anisotropy", "shape_factor", "has_reconstructed", "possible_species", "has_props", "theoretical", "database_IDs"]}