{
  "builder_meta": null,
  "nsites": null,
  "elements": null,
  "nelements": null,
  "composition": null,
  "composition_reduced": null,
  "formula_pretty": "PmNi3",
  "formula_anonymous": "AB3",
  "chemsys": null,
  "volume": 121.89770378718313,
  "density": 8.747764708391507,
  "density_atomic": 15.237212973397892,
  "symmetry": null,
  "property_name": null,
  "material_id": "mp-863718",
  "deprecated": null,
  "deprecation_reasons": null,
  "last_updated": null,
  "origins": null,
  "warnings": null,
  "structure": {
    "@module": "pymatgen.core.structure",
    "@class": "Structure",
    "charge": 0,
    "lattice": {
      "matrix": [
        [5.79339654, 0.00048041, 0.0],
        [-2.8962868200000003, 5.0171619, 0.0],
        [0.0, 0.0, 4.19356486]
      ],
      "pbc": [true, true, true],
      "a": 5.793396559918692,
      "b": 5.79313307930323,
      "c": 4.19356486,
      "alpha": 90.0,
      "beta": 90.0,
      "gamma": 119.99205438260346,
      "volume": 121.89770378718313
    },
    "properties": {},
    "sites": [
      {
        "species": [{ "element": "Pm", "occu": 1 }],
        "abc": [0.33330972000000003, 0.66659088, 0.749999],
        "properties": { "magmom": -0.077 },
        "label": "Pm",
        "xyz": [0.0003569985201672399, 3.344554491346057, 3.14516945143514]
      },
      {
        "species": [{ "element": "Pm", "occu": 1 }],
        "abc": [0.6666544, 0.33315494, 0.250001],
        "properties": { "magmom": -0.077 },
        "label": "Pm",
        "xyz": [2.8972810325958847, 1.67181253920509, 1.04839540856486]
      },
      {
        "species": [{ "element": "Ni", "occu": 1 }],
        "abc": [0.13844099, 0.27695301, 0.250001],
        "properties": { "magmom": 0.191 },
        "label": "Ni",
        "xyz": [-9.18001621535991e-5, 1.3895845982983248, 1.04839540856486]
      },
      {
        "species": [{ "element": "Ni", "occu": 1 }],
        "abc": [0.72304011, 0.86161484, 0.250001],
        "properties": { "magmom": 0.191 },
        "label": "Ni",
        "xyz": [1.6933743665468102, 4.32320850342184, 1.04839540856486]
      },
      {
        "species": [{ "element": "Ni", "occu": 1 }],
        "abc": [0.13848593, 0.8616350700000001, 0.250001],
        "properties": { "magmom": 0.192 },
        "label": "Ni",
        "xyz": [-1.6932383891900955, 4.323029174933465, 1.04839540856486]
      },
      {
        "species": [{ "element": "Ni", "occu": 1 }],
        "abc": [0.86146539, 0.72301002, 0.749999],
        "properties": { "magmom": 0.191 },
        "label": "Ni",
        "xyz": [2.896766218101814, 3.6278721822502478, 3.14516945143514]
      },
      {
        "species": [{ "element": "Ni", "occu": 1 }],
        "abc": [0.27694605, 0.13857138, 0.749999],
        "properties": { "magmom": 0.191 },
        "label": "Ni",
        "xyz": [1.2031158263134554, 0.6953680958183024, 3.14516945143514]
      },
      {
        "species": [{ "element": "Ni", "occu": 1 }],
        "abc": [0.8616554200000001, 0.13846486, 0.749999],
        "properties": { "magmom": 0.192 },
        "label": "Ni",
        "xyz": [4.590877579849102, 0.6951145679611561, 3.14516945143514]
      }
    ]
  },
  "task_ids": null,
  "uncorrected_energy_per_atom": null,
  "energy_per_atom": -16.51413515875,
  "formation_energy_per_atom": -0.14269417312500102,
  "energy_above_hull": 0.0,
  "is_stable": true,
  "equilibrium_reaction_energy_per_atom": null,
  "decomposes_to": null,
  "xas": null,
  "grain_boundaries": null,
  "band_gap": 0.0,
  "cbm": null,
  "vbm": null,
  "efermi": 5.61552392,
  "is_gap_direct": null,
  "is_metal": null,
  "es_source_calc_id": null,
  "bandstructure": null,
  "dos": null,
  "dos_energy_up": null,
  "dos_energy_down": null,
  "is_magnetic": null,
  "ordering": null,
  "total_magnetization": 0.7936238,
  "total_magnetization_normalized_vol": null,
  "total_magnetization_normalized_formula_units": null,
  "num_magnetic_sites": null,
  "num_unique_magnetic_sites": null,
  "types_of_magnetic_species": null,
  "bulk_modulus": null,
  "shear_modulus": null,
  "universal_anisotropy": null,
  "homogeneous_poisson": null,
  "e_total": null,
  "e_ionic": null,
  "e_electronic": null,
  "n": null,
  "e_ij_max": null,
  "weighted_surface_energy_EV_PER_ANG2": null,
  "weighted_surface_energy": null,
  "weighted_work_function": null,
  "surface_anisotropy": null,
  "shape_factor": null,
  "has_reconstructed": null,
  "possible_species": null,
  "has_props": null,
  "theoretical": null,
  "database_IDs": null,
  "fields_not_requested": [
    "builder_meta",
    "nsites",
    "elements",
    "nelements",
    "composition",
    "composition_reduced",
    "chemsys",
    "symmetry",
    "property_name",
    "deprecated",
    "deprecation_reasons",
    "last_updated",
    "origins",
    "warnings",
    "task_ids",
    "uncorrected_energy_per_atom",
    "equilibrium_reaction_energy_per_atom",
    "decomposes_to",
    "xas",
    "grain_boundaries",
    "cbm",
    "vbm",
    "is_gap_direct",
    "is_metal",
    "es_source_calc_id",
    "bandstructure",
    "dos",
    "dos_energy_up",
    "dos_energy_down",
    "is_magnetic",
    "ordering",
    "total_magnetization_normalized_vol",
    "total_magnetization_normalized_formula_units",
    "num_magnetic_sites",
    "num_unique_magnetic_sites",
    "types_of_magnetic_species",
    "bulk_modulus",
    "shear_modulus",
    "universal_anisotropy",
    "homogeneous_poisson",
    "e_total",
    "e_ionic",
    "e_electronic",
    "n",
    "e_ij_max",
    "weighted_surface_energy_EV_PER_ANG2",
    "weighted_surface_energy",
    "weighted_work_function",
    "surface_anisotropy",
    "shape_factor",
    "has_reconstructed",
    "possible_species",
    "has_props",
    "theoretical",
    "database_IDs"
  ]
}
