{
  "builder_meta": null,
  "nsites": null,
  "elements": null,
  "nelements": null,
  "composition": null,
  "composition_reduced": null,
  "formula_pretty": "PmRh3",
  "formula_anonymous": "AB3",
  "chemsys": null,
  "volume": 67.52218706375697,
  "density": 11.158020884300107,
  "density_atomic": 16.880546765939243,
  "symmetry": null,
  "property_name": null,
  "material_id": "mp-862959",
  "deprecated": null,
  "deprecation_reasons": null,
  "last_updated": null,
  "origins": null,
  "warnings": null,
  "structure": {
    "@module": "pymatgen.core.structure",
    "@class": "Structure",
    "charge": 0,
    "lattice": {
      "matrix": [
        [4.07151722, -1.029e-5, -3.089999999999999e-6],
        [-1.029e-5, 4.07167263, 1.029999999999998e-6],
        [-3.089999999999999e-6, 1.029999999999998e-6, 4.07302778]
      ],
      "pbc": [true, true, true],
      "a": 4.071517220014176,
      "b": 4.071672630013134,
      "c": 4.073027780001302,
      "alpha": 89.99997101679608,
      "beta": 90.00008695097851,
      "gamma": 90.00028960326587,
      "volume": 67.52218706375697
    },
    "properties": {},
    "sites": [
      {
        "species": [{ "element": "Pm", "occu": 1 }],
        "abc": [0.0, 1.6e-6, 1e-6],
        "properties": { "magmom": -0.0 },
        "label": "Pm",
        "xyz": [-1.9554e-11, 6.5146772379999995e-6, 4.073029428e-6]
      },
      {
        "species": [{ "element": "Rh", "occu": 1 }],
        "abc": [0.0, 0.49999783000000003, 0.500001],
        "properties": { "magmom": -0.0 },
        "label": "Rh",
        "xyz": [-6.6899807607e-6, 2.035827994471423, 2.036518478025545]
      },
      {
        "species": [{ "element": "Rh", "occu": 1 }],
        "abc": [0.5, -3.899999999999998e-7, 0.5],
        "properties": { "magmom": 0.0 },
        "label": "Rh",
        "xyz": [2.035757065004013, -6.2179523257e-6, 2.0365123449995983]
      },
      {
        "species": [{ "element": "Rh", "occu": 1 }],
        "abc": [0.500002, 0.50000297, 0.0],
        "properties": { "magmom": 0.0 },
        "label": "Rh",
        "xyz": [2.0357616080038783, 2.0358432628471315, -1.0300031209000002e-6]
      }
    ]
  },
  "task_ids": null,
  "uncorrected_energy_per_atom": null,
  "energy_per_atom": -25.89747377,
  "formation_energy_per_atom": -0.41014918187500204,
  "energy_above_hull": 0.0,
  "is_stable": true,
  "equilibrium_reaction_energy_per_atom": null,
  "decomposes_to": null,
  "xas": null,
  "grain_boundaries": null,
  "band_gap": 0.0,
  "cbm": null,
  "vbm": null,
  "efermi": 5.23025876,
  "is_gap_direct": null,
  "is_metal": null,
  "es_source_calc_id": null,
  "bandstructure": null,
  "dos": null,
  "dos_energy_up": null,
  "dos_energy_down": null,
  "is_magnetic": null,
  "ordering": null,
  "total_magnetization": 5.799999999999999e-6,
  "total_magnetization_normalized_vol": null,
  "total_magnetization_normalized_formula_units": null,
  "num_magnetic_sites": null,
  "num_unique_magnetic_sites": null,
  "types_of_magnetic_species": null,
  "bulk_modulus": null,
  "shear_modulus": null,
  "universal_anisotropy": null,
  "homogeneous_poisson": null,
  "e_total": null,
  "e_ionic": null,
  "e_electronic": null,
  "n": null,
  "e_ij_max": null,
  "weighted_surface_energy_EV_PER_ANG2": null,
  "weighted_surface_energy": null,
  "weighted_work_function": null,
  "surface_anisotropy": null,
  "shape_factor": null,
  "has_reconstructed": null,
  "possible_species": null,
  "has_props": null,
  "theoretical": null,
  "database_IDs": null,
  "fields_not_requested": [
    "builder_meta",
    "nsites",
    "elements",
    "nelements",
    "composition",
    "composition_reduced",
    "chemsys",
    "symmetry",
    "property_name",
    "deprecated",
    "deprecation_reasons",
    "last_updated",
    "origins",
    "warnings",
    "task_ids",
    "uncorrected_energy_per_atom",
    "equilibrium_reaction_energy_per_atom",
    "decomposes_to",
    "xas",
    "grain_boundaries",
    "cbm",
    "vbm",
    "is_gap_direct",
    "is_metal",
    "es_source_calc_id",
    "bandstructure",
    "dos",
    "dos_energy_up",
    "dos_energy_down",
    "is_magnetic",
    "ordering",
    "total_magnetization_normalized_vol",
    "total_magnetization_normalized_formula_units",
    "num_magnetic_sites",
    "num_unique_magnetic_sites",
    "types_of_magnetic_species",
    "bulk_modulus",
    "shear_modulus",
    "universal_anisotropy",
    "homogeneous_poisson",
    "e_total",
    "e_ionic",
    "e_electronic",
    "n",
    "e_ij_max",
    "weighted_surface_energy_EV_PER_ANG2",
    "weighted_surface_energy",
    "weighted_work_function",
    "surface_anisotropy",
    "shape_factor",
    "has_reconstructed",
    "possible_species",
    "has_props",
    "theoretical",
    "database_IDs"
  ]
}
