{
  "builder_meta": null,
  "nsites": null,
  "elements": null,
  "nelements": null,
  "composition": null,
  "composition_reduced": null,
  "formula_pretty": "PmS2",
  "formula_anonymous": "AB2",
  "chemsys": null,
  "volume": 259.77378548373906,
  "density": 5.347245248035942,
  "density_atomic": 21.647815456978254,
  "symmetry": null,
  "property_name": null,
  "material_id": "mp-1232276",
  "deprecated": null,
  "deprecation_reasons": null,
  "last_updated": null,
  "origins": null,
  "warnings": null,
  "structure": {
    "@module": "pymatgen.core.structure",
    "@class": "Structure",
    "charge": 0,
    "lattice": {
      "matrix": [
        [1.3670000000000001e-5, -4.01685066, -2.05e-6],
        [-8.01506512, 2.7340000000000003e-5, -0.00183607],
        [-0.01350114, -5.179999999999999e-6, -8.06868477]
      ],
      "pbc": [true, true, true],
      "a": 4.016850660023784,
      "b": 8.015065330347664,
      "c": 8.068696065563389,
      "alpha": 89.89100324655448,
      "beta": 89.99993430224268,
      "gamma": 90.00039042048833,
      "volume": 259.773785483739
    },
    "properties": {},
    "sites": [
      {
        "species": [{ "element": "Pm", "occu": 1 }],
        "abc": [0.2892517, 0.37066127, 0.27570878],
        "properties": { "magmom": -0.0 },
        "label": "Pm",
        "xyz": [-2.974592645279172, -1.1618721763434807, -2.225288387145275]
      },
      {
        "species": [{ "element": "Pm", "occu": 1 }],
        "abc": [0.7892511, 0.12933905, 0.72429053],
        "properties": { "magmom": 0.0 },
        "label": "Pm",
        "xyz": [-1.0464288670926032, -3.1703040176360444, -5.844311061980517]
      },
      {
        "species": [{ "element": "Pm", "occu": 1 }],
        "abc": [0.7107489, 0.62933805, 0.72429053],
        "properties": { "magmom": 0.0 },
        "label": "Pm",
        "xyz": [-5.053954485152557, -2.854958733781933, -5.845228934214937]
      },
      {
        "species": [{ "element": "Pm", "occu": 1 }],
        "abc": [0.2107493, 0.87066127, 0.27570878],
        "properties": { "magmom": -0.0 },
        "label": "Pm",
        "xyz": [-6.98212627840698, -0.8465260890918966, -2.2262062612153546]
      },
      {
        "species": [{ "element": "S", "occu": 1 }],
        "abc": [0.84479744, 0.39237722, 0.00293934],
        "properties": { "magmom": 0.0 },
        "label": "S",
        "xyz": [-3.144957105964409, -3.393414442062897, -0.024438771768929203]
      },
      {
        "species": [{ "element": "S", "occu": 1 }],
        "abc": [0.344793299999999, 0.10762449, 0.997061],
        "properties": { "magmom": -0.0 },
        "label": "S",
        "xyz": [-0.8760740426819177, -1.3849854169909976, -8.04516921838459]
      },
      {
        "species": [{ "element": "S", "occu": 1 }],
        "abc": [0.1552017, 0.60762249, 0.9970600000000001],
        "properties": { "magmom": -0.0 },
        "label": "S",
        "xyz": [-4.88359315076771, -0.6234106034500454, -8.046078792364902]
      },
      {
        "species": [{ "element": "S", "occu": 1 }],
        "abc": [0.65520556, 0.89237522, 0.0029383400000000002],
        "properties": { "magmom": 0.0 },
        "label": "S",
        "xyz": [-7.152476214054029, -2.631838503803756, -0.025348345748665204]
      },
      {
        "species": [{ "element": "S", "occu": 1 }],
        "abc": [0.26141384, 0.37435952, 0.63255046],
        "properties": { "magmom": -0.0 },
        "label": "S",
        "xyz": [-3.009052509882274, -1.0500533973592405, -5.104538149040754]
      },
      {
        "species": [{ "element": "S", "occu": 1 }],
        "abc": [0.76141373, 0.12564043, 0.36744888000000003],
        "properties": { "magmom": 0.0 },
        "label": "S",
        "xyz": [-1.0119667984008356, -3.058483712259404, -2.9650614273320146]
      },
      {
        "species": [{ "element": "S", "occu": 1 }],
        "abc": [0.73858627, 0.62564043, 0.36744888000000003],
        "properties": { "magmom": 0.0 },
        "label": "S",
        "xyz": [-5.0194996704522135, -2.9667755444922808, -2.9659794155357218]
      },
      {
        "species": [{ "element": "S", "occu": 1 }],
        "abc": [0.23858616, 0.8743595200000001, 0.63255046],
        "properties": { "magmom": -0.0 },
        "label": "S",
        "xyz": [-7.016585381936659, -0.9583443458849715, -5.10545613724401]
      }
    ]
  },
  "task_ids": null,
  "uncorrected_energy_per_atom": null,
  "energy_per_atom": -17.22431764,
  "formation_energy_per_atom": -2.020780764374999,
  "energy_above_hull": 0.0,
  "is_stable": true,
  "equilibrium_reaction_energy_per_atom": null,
  "decomposes_to": null,
  "xas": null,
  "grain_boundaries": null,
  "band_gap": 0.4328,
  "cbm": null,
  "vbm": null,
  "efermi": 4.87700681,
  "is_gap_direct": null,
  "is_metal": null,
  "es_source_calc_id": null,
  "bandstructure": null,
  "dos": null,
  "dos_energy_up": null,
  "dos_energy_down": null,
  "is_magnetic": null,
  "ordering": null,
  "total_magnetization": 0.0,
  "total_magnetization_normalized_vol": null,
  "total_magnetization_normalized_formula_units": null,
  "num_magnetic_sites": null,
  "num_unique_magnetic_sites": null,
  "types_of_magnetic_species": null,
  "bulk_modulus": null,
  "shear_modulus": null,
  "universal_anisotropy": null,
  "homogeneous_poisson": null,
  "e_total": null,
  "e_ionic": null,
  "e_electronic": null,
  "n": null,
  "e_ij_max": null,
  "weighted_surface_energy_EV_PER_ANG2": null,
  "weighted_surface_energy": null,
  "weighted_work_function": null,
  "surface_anisotropy": null,
  "shape_factor": null,
  "has_reconstructed": null,
  "possible_species": null,
  "has_props": null,
  "theoretical": null,
  "database_IDs": null,
  "fields_not_requested": [
    "builder_meta",
    "nsites",
    "elements",
    "nelements",
    "composition",
    "composition_reduced",
    "chemsys",
    "symmetry",
    "property_name",
    "deprecated",
    "deprecation_reasons",
    "last_updated",
    "origins",
    "warnings",
    "task_ids",
    "uncorrected_energy_per_atom",
    "equilibrium_reaction_energy_per_atom",
    "decomposes_to",
    "xas",
    "grain_boundaries",
    "cbm",
    "vbm",
    "is_gap_direct",
    "is_metal",
    "es_source_calc_id",
    "bandstructure",
    "dos",
    "dos_energy_up",
    "dos_energy_down",
    "is_magnetic",
    "ordering",
    "total_magnetization_normalized_vol",
    "total_magnetization_normalized_formula_units",
    "num_magnetic_sites",
    "num_unique_magnetic_sites",
    "types_of_magnetic_species",
    "bulk_modulus",
    "shear_modulus",
    "universal_anisotropy",
    "homogeneous_poisson",
    "e_total",
    "e_ionic",
    "e_electronic",
    "n",
    "e_ij_max",
    "weighted_surface_energy_EV_PER_ANG2",
    "weighted_surface_energy",
    "weighted_work_function",
    "surface_anisotropy",
    "shape_factor",
    "has_reconstructed",
    "possible_species",
    "has_props",
    "theoretical",
    "database_IDs"
  ]
}
