{"builder_meta": null, "nsites": null, "elements": null, "nelements": null, "composition": null, "composition_reduced": null, "formula_pretty": "PmS3", "formula_anonymous": "AB3", "chemsys": null, "volume": 160.66629524774504, "density": 4.985659494432242, "density_atomic": 20.08328690596813, "symmetry": null, "property_name": null, "material_id": "mp-1186638", "deprecated": null, "deprecation_reasons": null, "last_updated": null, "origins": null, "warnings": null, "structure": {"@module": "pymatgen.core.structure", "@class": "Structure", "charge": 0, "lattice": {"matrix": [[2.85874, -4.951482, 0.0], [2.85874, 4.951482, 0.0], [0.0, 0.0, 5.675249]], "pbc": [true, true, true], "a": 5.717479198381399, "b": 5.717479198381399, "c": 5.675249, "alpha": 90.0, "beta": 90.0, "gamma": 119.99999072411823, "volume": 160.66629524774504}, "properties": {}, "sites": [{"species": [{"element": "Pm", "occu": 1}], "abc": [0.333333, 0.666667, 0.75], "properties": {"magmom": 0.0}, "label": "Pm", "xyz": [2.85874, 1.6504973009880004, 4.25643675]}, {"species": [{"element": "Pm", "occu": 1}], "abc": [0.666667, 0.333333, 0.25], "properties": {"magmom": 0.0}, "label": "Pm", "xyz": [2.85874, -1.6504973009880004, 1.41881225]}, {"species": [{"element": "S", "occu": 1}], "abc": [0.175888, 0.351776, 0.25], "properties": {"magmom": -0.0}, "label": "S", "xyz": [1.5084541833599998, 0.870906266016, 1.41881225]}, {"species": [{"element": "S", "occu": 1}], "abc": [0.648224, 0.824112, 0.25], "properties": {"magmom": -0.0}, "label": "S", "xyz": [4.2090258166400005, 0.8709062660160001, 1.41881225]}, {"species": [{"element": "S", "occu": 1}], "abc": [0.175888, 0.824112, 0.25], "properties": {"magmom": -0.0}, "label": "S", "xyz": [2.85874, 3.2096694679680002, 1.41881225]}, {"species": [{"element": "S", "occu": 1}], "abc": [0.824112, 0.648224, 0.75], "properties": {"magmom": -0.0}, "label": "S", "xyz": [4.2090258166400005, -0.8709062660160001, 4.25643675]}, {"species": [{"element": "S", "occu": 1}], "abc": [0.351776, 0.175888, 0.75], "properties": {"magmom": -0.0}, "label": "S", "xyz": [1.5084541833599998, -0.870906266016, 4.25643675]}, {"species": [{"element": "S", "occu": 1}], "abc": [0.824112, 0.175888, 0.75], "properties": {"magmom": -0.0}, "label": "S", "xyz": [2.85874, -3.2096694679680002, 4.25643675]}]}, "task_ids": null, "uncorrected_energy_per_atom": null, "energy_per_atom": -14.552388724453124, "formation_energy_per_atom": -1.140986297187498, "energy_above_hull": 0.37459927609375004, "is_stable": false, "equilibrium_reaction_energy_per_atom": null, "decomposes_to": null, "xas": null, "grain_boundaries": null, "band_gap": 0.0, "cbm": null, "vbm": null, "efermi": 5.53089864, "is_gap_direct": null, "is_metal": null, "es_source_calc_id": null, "bandstructure": null, "dos": null, "dos_energy_up": null, "dos_energy_down": null, "is_magnetic": null, "ordering": null, "total_magnetization": 9.400000000000001e-05, "total_magnetization_normalized_vol": null, "total_magnetization_normalized_formula_units": null, "num_magnetic_sites": null, "num_unique_magnetic_sites": null, "types_of_magnetic_species": null, "bulk_modulus": null, "shear_modulus": null, "universal_anisotropy": null, "homogeneous_poisson": null, "e_total": null, "e_ionic": null, "e_electronic": null, "n": null, "e_ij_max": null, "weighted_surface_energy_EV_PER_ANG2": null, "weighted_surface_energy": null, "weighted_work_function": null, "surface_anisotropy": null, "shape_factor": null, "has_reconstructed": null, "possible_species": null, "has_props": null, "theoretical": null, "database_IDs": null, "fields_not_requested": ["builder_meta", "nsites", "elements", "nelements", "composition", "composition_reduced", "chemsys", "symmetry", "property_name", "deprecated", "deprecation_reasons", "last_updated", "origins", "warnings", "task_ids", "uncorrected_energy_per_atom", "equilibrium_reaction_energy_per_atom", "decomposes_to", "xas", "grain_boundaries", "cbm", "vbm", "is_gap_direct", "is_metal", "es_source_calc_id", "bandstructure", "dos", "dos_energy_up", "dos_energy_down", "is_magnetic", "ordering", "total_magnetization_normalized_vol", "total_magnetization_normalized_formula_units", "num_magnetic_sites", "num_unique_magnetic_sites", "types_of_magnetic_species", "bulk_modulus", "shear_modulus", "universal_anisotropy", "homogeneous_poisson", "e_total", "e_ionic", "e_electronic", "n", "e_ij_max", "weighted_surface_energy_EV_PER_ANG2", "weighted_surface_energy", "weighted_work_function", "surface_anisotropy", "shape_factor", "has_reconstructed", "possible_species", "has_props", "theoretical", "database_IDs"]}