{"builder_meta": null, "nsites": null, "elements": null, "nelements": null, "composition": null, "composition_reduced": null, "formula_pretty": "PmSe2", "formula_anonymous": "AB2", "chemsys": null, "volume": 295.6084673623483, "density": 6.806442299068467, "density_atomic": 24.634038946862358, "symmetry": null, "property_name": null, "material_id": "mp-1232221", "deprecated": null, "deprecation_reasons": null, "last_updated": null, "origins": null, "warnings": null, "structure": {"@module": "pymatgen.core.structure", "@class": "Structure", "charge": 0, "lattice": {"matrix": [[4.16700646, 0.0, 0.0], [0.0, 8.38217695, 0.01434852], [0.0, 0.01448482, 8.46324949]], "pbc": [true, true, true], "a": 4.16700646, "b": 8.38218923081181, "c": 8.46326188534868, "alpha": 89.80386038143233, "beta": 90.0, "gamma": 90.0, "volume": 295.6084673623483}, "properties": {}, "sites": [{"species": [{"element": "Pm", "occu": 1}], "abc": [0.27902985, 0.37345782, 0.27465491000000003], "properties": {"magmom": 0.0}, "label": "Pm", "xyz": [1.162719187482831, 3.134367857534715, 2.329831593982923]}, {"species": [{"element": "Pm", "occu": 1}], "abc": [0.72097015, 0.6265421800000001, 0.72534509], "properties": {"magmom": 0.0}, "label": "Pm", "xyz": [3.0042872725171685, 5.262293912465285, 6.147766416017078]}, {"species": [{"element": "Pm", "occu": 1}], "abc": [0.22097015, 0.87345782, 0.27465491000000003], "properties": {"magmom": 0.0}, "label": "Pm", "xyz": [0.9207840425171689, 7.325456332534715, 2.337005853982923]}, {"species": [{"element": "Pm", "occu": 1}], "abc": [0.77902985, 0.12654218, 0.72534509], "properties": {"magmom": 0.0}, "label": "Pm", "xyz": [3.246222417482831, 1.0712054374652848, 6.140592156017079]}, {"species": [{"element": "Se", "occu": 1}], "abc": [0.18281747, 0.61801744, 0.99770208], "properties": {"magmom": -0.0}, "label": "Se", "xyz": [0.7618015784908562, 5.194783075308433, 8.45266925533013]}, {"species": [{"element": "Se", "occu": 1}], "abc": [0.75703524, 0.12539547, 0.36850792], "properties": {"magmom": -0.0}, "label": "Se", "xyz": [3.15457073552765, 1.056424789158191, 3.1205737054101657]}, {"species": [{"element": "Se", "occu": 1}], "abc": [0.24296476, 0.87460453, 0.63149208], "properties": {"magmom": -0.0}, "label": "Se", "xyz": [1.0124357244723494, 7.3402369808418095, 5.357024304589836]}, {"species": [{"element": "Se", "occu": 1}], "abc": [0.25703524, 0.37460453, 0.63149208], "properties": {"magmom": -0.0}, "label": "Se", "xyz": [1.0710675055276504, 3.149148505841809, 5.349850044589836]}, {"species": [{"element": "Se", "occu": 1}], "abc": [0.68281747, 0.88198256, 0.00229792], "properties": {"magmom": -0.0}, "label": "Se", "xyz": [2.845304808490856, 7.392967169691566, 0.032103014669872004]}, {"species": [{"element": "Se", "occu": 1}], "abc": [0.74296476, 0.6253954700000001, 0.36850792], "properties": {"magmom": -0.0}, "label": "Se", "xyz": [3.0959389544723495, 5.247513264158191, 3.1277479654101654]}, {"species": [{"element": "Se", "occu": 1}], "abc": [0.81718253, 0.38198256, 0.00229792], "properties": {"magmom": -0.0}, "label": "Se", "xyz": [3.4052048815091434, 3.2018786946915667, 0.024928754669872003]}, {"species": [{"element": "Se", "occu": 1}], "abc": [0.31718253, 0.11801744, 0.99770208], "properties": {"magmom": -0.0}, "label": "Se", "xyz": [1.3217016515091438, 1.0036946003084337, 8.44549499533013]}]}, "task_ids": null, "uncorrected_energy_per_atom": null, "energy_per_atom": -21.271127700833333, "formation_energy_per_atom": -1.8832167260416661, "energy_above_hull": 0.0, "is_stable": true, "equilibrium_reaction_energy_per_atom": null, "decomposes_to": null, "xas": null, "grain_boundaries": null, "band_gap": 0.0, "cbm": null, "vbm": null, "efermi": 4.45642106, "is_gap_direct": null, "is_metal": null, "es_source_calc_id": null, "bandstructure": null, "dos": null, "dos_energy_up": null, "dos_energy_down": null, "is_magnetic": null, "ordering": null, "total_magnetization": 0.0, "total_magnetization_normalized_vol": null, "total_magnetization_normalized_formula_units": null, "num_magnetic_sites": null, "num_unique_magnetic_sites": null, "types_of_magnetic_species": null, "bulk_modulus": null, "shear_modulus": null, "universal_anisotropy": null, "homogeneous_poisson": null, "e_total": null, "e_ionic": null, "e_electronic": null, "n": null, "e_ij_max": null, "weighted_surface_energy_EV_PER_ANG2": null, "weighted_surface_energy": null, "weighted_work_function": null, "surface_anisotropy": null, "shape_factor": null, "has_reconstructed": null, "possible_species": null, "has_props": null, "theoretical": null, "database_IDs": null, "fields_not_requested": ["builder_meta", "nsites", "elements", "nelements", "composition", "composition_reduced", "chemsys", "symmetry", "property_name", "deprecated", "deprecation_reasons", "last_updated", "origins", "warnings", "task_ids", "uncorrected_energy_per_atom", "equilibrium_reaction_energy_per_atom", "decomposes_to", "xas", "grain_boundaries", "cbm", "vbm", "is_gap_direct", "is_metal", "es_source_calc_id", "bandstructure", "dos", "dos_energy_up", "dos_energy_down", "is_magnetic", "ordering", "total_magnetization_normalized_vol", "total_magnetization_normalized_formula_units", "num_magnetic_sites", "num_unique_magnetic_sites", "types_of_magnetic_species", "bulk_modulus", "shear_modulus", "universal_anisotropy", "homogeneous_poisson", "e_total", "e_ionic", "e_electronic", "n", "e_ij_max", "weighted_surface_energy_EV_PER_ANG2", "weighted_surface_energy", "weighted_work_function", "surface_anisotropy", "shape_factor", "has_reconstructed", "possible_species", "has_props", "theoretical", "database_IDs"]}