{
  "builder_meta": null,
  "nsites": null,
  "elements": null,
  "nelements": null,
  "composition": null,
  "composition_reduced": null,
  "formula_pretty": "PmSi3",
  "formula_anonymous": "AB3",
  "chemsys": null,
  "volume": 151.40426625796,
  "density": 5.02878001962469,
  "density_atomic": 18.925533282245,
  "symmetry": null,
  "property_name": null,
  "material_id": "mp-865464",
  "deprecated": null,
  "deprecation_reasons": null,
  "last_updated": null,
  "origins": null,
  "warnings": null,
  "structure": {
    "@module": "pymatgen.core.structure",
    "@class": "Structure",
    "charge": 0,
    "lattice": {
      "matrix": [
        [6.12926892, 9.531000000000001e-5, 0.0],
        [-3.06455326, 5.30784721, 0.0],
        [0.0, 0.0, 4.65379367]
      ],
      "pbc": [true, true, true],
      "a": 6.129268920741035,
      "b": 6.129007153534854,
      "c": 4.65379367,
      "alpha": 90.0,
      "beta": 90.0,
      "gamma": 119.99964535815018,
      "volume": 151.40426625796
    },
    "properties": {},
    "sites": [
      {
        "species": [{ "element": "Pm", "occu": 1 }],
        "abc": [0.66664238, 0.33331112, 0.25],
        "properties": { "magmom": 0.0 },
        "label": "Pm",
        "xyz": [3.0645807410985784, 1.7692280360392132, 1.1634484175]
      },
      {
        "species": [{ "element": "Pm", "occu": 1 }],
        "abc": [0.33335762, 0.66668888, 0.750000999999999],
        "properties": { "magmom": 0.0 },
        "label": "Pm",
        "xyz": [0.00013491890142214302, 3.5387144839607876, 3.490349906293665]
      },
      {
        "species": [{ "element": "Si", "occu": 1 }],
        "abc": [0.86552689, 0.13450632, 0.750000999999999],
        "properties": { "magmom": 0.0 },
        "label": "Si",
        "xyz": [4.892845284854657, 0.7140214887072532, 3.490349906293665]
      },
      {
        "species": [{ "element": "Si", "occu": 1 }],
        "abc": [0.26897153, 0.13449374, 0.750000999999999],
        "properties": { "magmom": -0.0 },
        "label": "Si",
        "xyz": [1.2364356098272553, 0.7138978582979897, 3.490349906293665]
      },
      {
        "species": [{ "element": "Si", "occu": 1 }],
        "abc": [0.86551343, 0.73101235, 0.750000999999999],
        "properties": { "magmom": 0.0 },
        "label": "Si",
        "xyz": [3.064738286048835, 3.8801843545080565, 3.490349906293665]
      },
      {
        "species": [{ "element": "Si", "occu": 1 }],
        "abc": [0.13447411, 0.86549368, 0.25],
        "properties": { "magmom": 0.0 },
        "label": "Si",
        "xyz": [-1.8281234955857355, 4.593921031388057, 1.1634484175]
      },
      {
        "species": [{ "element": "Si", "occu": 1 }],
        "abc": [0.7310294700000001, 0.86550626, 0.25],
        "properties": { "magmom": -0.0 },
        "label": "Si",
        "xyz": [1.8282861794416654, 4.59404466179732, 1.1634484175]
      },
      {
        "species": [{ "element": "Si", "occu": 1 }],
        "abc": [0.13448757, 0.26898765, 0.25],
        "properties": { "magmom": 0.0 },
        "label": "Si",
        "xyz": [-1.6496779914554338e-5, 1.4277581655872533, 1.1634484175]
      }
    ]
  },
  "task_ids": null,
  "uncorrected_energy_per_atom": null,
  "energy_per_atom": -14.23032334,
  "formation_energy_per_atom": -0.264846778124999,
  "energy_above_hull": 0.0,
  "is_stable": true,
  "equilibrium_reaction_energy_per_atom": null,
  "decomposes_to": null,
  "xas": null,
  "grain_boundaries": null,
  "band_gap": 0.0,
  "cbm": null,
  "vbm": null,
  "efermi": 7.56112584,
  "is_gap_direct": null,
  "is_metal": null,
  "es_source_calc_id": null,
  "bandstructure": null,
  "dos": null,
  "dos_energy_up": null,
  "dos_energy_down": null,
  "is_magnetic": null,
  "ordering": null,
  "total_magnetization": 0.0,
  "total_magnetization_normalized_vol": null,
  "total_magnetization_normalized_formula_units": null,
  "num_magnetic_sites": null,
  "num_unique_magnetic_sites": null,
  "types_of_magnetic_species": null,
  "bulk_modulus": null,
  "shear_modulus": null,
  "universal_anisotropy": null,
  "homogeneous_poisson": null,
  "e_total": null,
  "e_ionic": null,
  "e_electronic": null,
  "n": null,
  "e_ij_max": null,
  "weighted_surface_energy_EV_PER_ANG2": null,
  "weighted_surface_energy": null,
  "weighted_work_function": null,
  "surface_anisotropy": null,
  "shape_factor": null,
  "has_reconstructed": null,
  "possible_species": null,
  "has_props": null,
  "theoretical": null,
  "database_IDs": null,
  "fields_not_requested": [
    "builder_meta",
    "nsites",
    "elements",
    "nelements",
    "composition",
    "composition_reduced",
    "chemsys",
    "symmetry",
    "property_name",
    "deprecated",
    "deprecation_reasons",
    "last_updated",
    "origins",
    "warnings",
    "task_ids",
    "uncorrected_energy_per_atom",
    "equilibrium_reaction_energy_per_atom",
    "decomposes_to",
    "xas",
    "grain_boundaries",
    "cbm",
    "vbm",
    "is_gap_direct",
    "is_metal",
    "es_source_calc_id",
    "bandstructure",
    "dos",
    "dos_energy_up",
    "dos_energy_down",
    "is_magnetic",
    "ordering",
    "total_magnetization_normalized_vol",
    "total_magnetization_normalized_formula_units",
    "num_magnetic_sites",
    "num_unique_magnetic_sites",
    "types_of_magnetic_species",
    "bulk_modulus",
    "shear_modulus",
    "universal_anisotropy",
    "homogeneous_poisson",
    "e_total",
    "e_ionic",
    "e_electronic",
    "n",
    "e_ij_max",
    "weighted_surface_energy_EV_PER_ANG2",
    "weighted_surface_energy",
    "weighted_work_function",
    "surface_anisotropy",
    "shape_factor",
    "has_reconstructed",
    "possible_species",
    "has_props",
    "theoretical",
    "database_IDs"
  ]
}
