{
  "builder_meta": null,
  "nsites": null,
  "elements": null,
  "nelements": null,
  "composition": null,
  "composition_reduced": null,
  "formula_pretty": "PmTm3",
  "formula_anonymous": "AB3",
  "chemsys": null,
  "volume": 255.14007363442758,
  "density": 8.484309935399956,
  "density_atomic": 31.892509204303447,
  "symmetry": null,
  "property_name": null,
  "material_id": "mp-1186668",
  "deprecated": null,
  "deprecation_reasons": null,
  "last_updated": null,
  "origins": null,
  "warnings": null,
  "structure": {
    "@module": "pymatgen.core.structure",
    "@class": "Structure",
    "charge": 0,
    "lattice": {
      "matrix": [
        [3.58418129, -6.20798279, 0.0],
        [3.5841812600000003, 6.20798175, -0.0],
        [0.0, -0.0, 5.73334725]
      ],
      "pbc": [true, true, true],
      "a": 7.1683614473966255,
      "b": 7.1683605317302685,
      "c": 5.73334725,
      "alpha": 90.0,
      "beta": 90.0,
      "gamma": 119.99998559815037,
      "volume": 255.14007363442764
    },
    "properties": {},
    "sites": [
      {
        "species": [{ "element": "Pm", "occu": 1 }],
        "abc": [0.666667, 0.333333, 0.25],
        "properties": { "magmom": 0.392 },
        "label": "Pm",
        "xyz": [3.58418128000001, -2.0693320819881795, 1.4333368125]
      },
      {
        "species": [{ "element": "Pm", "occu": 1 }],
        "abc": [0.333333, 0.666667, 0.75],
        "properties": { "magmom": 0.392 },
        "label": "Pm",
        "xyz": [3.5841812699999904, 2.0693310419881805, 4.300010437499999]
      },
      {
        "species": [{ "element": "Tm", "occu": 1 }],
        "abc": [0.83528234, 0.16471766000000002, 0.75],
        "properties": { "magmom": 0.457 },
        "label": "Tm",
        "xyz": [3.5841812850584702, -4.162854164328223, 4.300010437499999]
      },
      {
        "species": [{ "element": "Tm", "occu": 1 }],
        "abc": [0.32943631, 0.16471766000000002, 0.75],
        "properties": { "magmom": 0.457 },
        "label": "Tm",
        "xyz": [1.7711374087116918, -1.0225707156983996, 4.300010437499999]
      },
      {
        "species": [{ "element": "Tm", "occu": 1 }],
        "abc": [0.83528234, 0.67056369, 0.75],
        "properties": { "magmom": 0.457 },
        "label": "Tm",
        "xyz": [5.397225146229868, -1.0225712417782713, 4.300010437499999]
      },
      {
        "species": [{ "element": "Tm", "occu": 1 }],
        "abc": [0.16471766000000002, 0.83528234, 0.25],
        "properties": { "magmom": 0.457 },
        "label": "Tm",
        "xyz": [3.58418126494153, 4.162853124328224, 1.4333368125]
      },
      {
        "species": [{ "element": "Tm", "occu": 1 }],
        "abc": [0.67056369, 0.83528234, 0.25],
        "properties": { "magmom": 0.457 },
        "label": "Tm",
        "xyz": [5.39722514128831, 1.0225696756984002, 1.4333368125]
      },
      {
        "species": [{ "element": "Tm", "occu": 1 }],
        "abc": [0.16471766000000002, 0.32943631, 0.25],
        "properties": { "magmom": 0.457 },
        "label": "Tm",
        "xyz": [1.7711374037701324, 1.022570201778271, 1.4333368125]
      }
    ]
  },
  "task_ids": null,
  "uncorrected_energy_per_atom": null,
  "energy_per_atom": -33.73117599875,
  "formation_energy_per_atom": -0.005236665624998,
  "energy_above_hull": 0.0,
  "is_stable": true,
  "equilibrium_reaction_energy_per_atom": null,
  "decomposes_to": null,
  "xas": null,
  "grain_boundaries": null,
  "band_gap": 0.0,
  "cbm": null,
  "vbm": null,
  "efermi": 2.9423570100000003,
  "is_gap_direct": null,
  "is_metal": null,
  "es_source_calc_id": null,
  "bandstructure": null,
  "dos": null,
  "dos_energy_up": null,
  "dos_energy_down": null,
  "is_magnetic": null,
  "ordering": null,
  "total_magnetization": 4.6706620999999995,
  "total_magnetization_normalized_vol": null,
  "total_magnetization_normalized_formula_units": null,
  "num_magnetic_sites": null,
  "num_unique_magnetic_sites": null,
  "types_of_magnetic_species": null,
  "bulk_modulus": null,
  "shear_modulus": null,
  "universal_anisotropy": null,
  "homogeneous_poisson": null,
  "e_total": null,
  "e_ionic": null,
  "e_electronic": null,
  "n": null,
  "e_ij_max": null,
  "weighted_surface_energy_EV_PER_ANG2": null,
  "weighted_surface_energy": null,
  "weighted_work_function": null,
  "surface_anisotropy": null,
  "shape_factor": null,
  "has_reconstructed": null,
  "possible_species": null,
  "has_props": null,
  "theoretical": null,
  "database_IDs": null,
  "fields_not_requested": [
    "builder_meta",
    "nsites",
    "elements",
    "nelements",
    "composition",
    "composition_reduced",
    "chemsys",
    "symmetry",
    "property_name",
    "deprecated",
    "deprecation_reasons",
    "last_updated",
    "origins",
    "warnings",
    "task_ids",
    "uncorrected_energy_per_atom",
    "equilibrium_reaction_energy_per_atom",
    "decomposes_to",
    "xas",
    "grain_boundaries",
    "cbm",
    "vbm",
    "is_gap_direct",
    "is_metal",
    "es_source_calc_id",
    "bandstructure",
    "dos",
    "dos_energy_up",
    "dos_energy_down",
    "is_magnetic",
    "ordering",
    "total_magnetization_normalized_vol",
    "total_magnetization_normalized_formula_units",
    "num_magnetic_sites",
    "num_unique_magnetic_sites",
    "types_of_magnetic_species",
    "bulk_modulus",
    "shear_modulus",
    "universal_anisotropy",
    "homogeneous_poisson",
    "e_total",
    "e_ionic",
    "e_electronic",
    "n",
    "e_ij_max",
    "weighted_surface_energy_EV_PER_ANG2",
    "weighted_surface_energy",
    "weighted_work_function",
    "surface_anisotropy",
    "shape_factor",
    "has_reconstructed",
    "possible_species",
    "has_props",
    "theoretical",
    "database_IDs"
  ]
}
