{
  "builder_meta": null,
  "nsites": null,
  "elements": null,
  "nelements": null,
  "composition": null,
  "composition_reduced": null,
  "formula_pretty": "PmY3",
  "formula_anonymous": "AB3",
  "chemsys": null,
  "volume": 274.51089379070424,
  "density": 4.981026922021482,
  "density_atomic": 34.31386172383803,
  "symmetry": null,
  "property_name": null,
  "material_id": "mp-1186676",
  "deprecated": null,
  "deprecation_reasons": null,
  "last_updated": null,
  "origins": null,
  "warnings": null,
  "structure": {
    "@module": "pymatgen.core.structure",
    "@class": "Structure",
    "charge": 0,
    "lattice": {
      "matrix": [
        [3.668362939999999, -6.35379266, -0.0],
        [3.668362939999999, 6.35379266, 0.0],
        [-0.0, 0.0, 5.88876539]
      ],
      "pbc": [true, true, true],
      "a": 7.336727323939149,
      "b": 7.336727323939149,
      "c": 5.88876539,
      "alpha": 90.0,
      "beta": 90.0,
      "gamma": 120.00001302082497,
      "volume": 274.51089379070413
    },
    "properties": {},
    "sites": [
      {
        "species": [{ "element": "Pm", "occu": 1 }],
        "abc": [0.333333, 0.666667, 0.75],
        "properties": { "magmom": 0.395 },
        "label": "Pm",
        "xyz": [3.668362939999999, 2.11793512252844, 4.4165740425]
      },
      {
        "species": [{ "element": "Pm", "occu": 1 }],
        "abc": [0.666667, 0.333333, 0.25],
        "properties": { "magmom": 0.395 },
        "label": "Pm",
        "xyz": [3.668362939999999, -2.11793512252844, 1.4721913475]
      },
      {
        "species": [{ "element": "Y", "occu": 1 }],
        "abc": [0.1656048, 0.3312096, 0.25],
        "properties": { "magmom": 0.387 },
        "label": "Y",
        "xyz": [1.8224955330183357, 1.0522185627007679, 1.4721913475]
      },
      {
        "species": [{ "element": "Y", "occu": 1 }],
        "abc": [0.6687904, 0.8343952, 0.25],
        "properties": { "magmom": 0.387 },
        "label": "Y",
        "xyz": [5.5142303469816625, 1.0522185627007685, 1.4721913475]
      },
      {
        "species": [{ "element": "Y", "occu": 1 }],
        "abc": [0.1656048, 0.8343952, 0.25],
        "properties": { "magmom": 0.387 },
        "label": "Y",
        "xyz": [3.668362939999999, 4.249355534598465, 1.4721913475]
      },
      {
        "species": [{ "element": "Y", "occu": 1 }],
        "abc": [0.8343952, 0.6687904, 0.75],
        "properties": { "magmom": 0.387 },
        "label": "Y",
        "xyz": [5.5142303469816625, -1.0522185627007685, 4.4165740425]
      },
      {
        "species": [{ "element": "Y", "occu": 1 }],
        "abc": [0.3312096, 0.1656048, 0.75],
        "properties": { "magmom": 0.387 },
        "label": "Y",
        "xyz": [1.8224955330183357, -1.0522185627007679, 4.4165740425]
      },
      {
        "species": [{ "element": "Y", "occu": 1 }],
        "abc": [0.8343952, 0.1656048, 0.75],
        "properties": { "magmom": 0.387 },
        "label": "Y",
        "xyz": [3.668362939999999, -4.249355534598465, 4.4165740425]
      }
    ]
  },
  "task_ids": null,
  "uncorrected_energy_per_atom": null,
  "energy_per_atom": -22.61098169875,
  "formation_energy_per_atom": 0.009372136874997,
  "energy_above_hull": 0.009372136874997,
  "is_stable": false,
  "equilibrium_reaction_energy_per_atom": null,
  "decomposes_to": null,
  "xas": null,
  "grain_boundaries": null,
  "band_gap": 0.0,
  "cbm": null,
  "vbm": null,
  "efermi": 3.09570599,
  "is_gap_direct": null,
  "is_metal": null,
  "es_source_calc_id": null,
  "bandstructure": null,
  "dos": null,
  "dos_energy_up": null,
  "dos_energy_down": null,
  "is_magnetic": null,
  "ordering": null,
  "total_magnetization": 5.2102698,
  "total_magnetization_normalized_vol": null,
  "total_magnetization_normalized_formula_units": null,
  "num_magnetic_sites": null,
  "num_unique_magnetic_sites": null,
  "types_of_magnetic_species": null,
  "bulk_modulus": null,
  "shear_modulus": null,
  "universal_anisotropy": null,
  "homogeneous_poisson": null,
  "e_total": null,
  "e_ionic": null,
  "e_electronic": null,
  "n": null,
  "e_ij_max": null,
  "weighted_surface_energy_EV_PER_ANG2": null,
  "weighted_surface_energy": null,
  "weighted_work_function": null,
  "surface_anisotropy": null,
  "shape_factor": null,
  "has_reconstructed": null,
  "possible_species": null,
  "has_props": null,
  "theoretical": null,
  "database_IDs": null,
  "fields_not_requested": [
    "builder_meta",
    "nsites",
    "elements",
    "nelements",
    "composition",
    "composition_reduced",
    "chemsys",
    "symmetry",
    "property_name",
    "deprecated",
    "deprecation_reasons",
    "last_updated",
    "origins",
    "warnings",
    "task_ids",
    "uncorrected_energy_per_atom",
    "equilibrium_reaction_energy_per_atom",
    "decomposes_to",
    "xas",
    "grain_boundaries",
    "cbm",
    "vbm",
    "is_gap_direct",
    "is_metal",
    "es_source_calc_id",
    "bandstructure",
    "dos",
    "dos_energy_up",
    "dos_energy_down",
    "is_magnetic",
    "ordering",
    "total_magnetization_normalized_vol",
    "total_magnetization_normalized_formula_units",
    "num_magnetic_sites",
    "num_unique_magnetic_sites",
    "types_of_magnetic_species",
    "bulk_modulus",
    "shear_modulus",
    "universal_anisotropy",
    "homogeneous_poisson",
    "e_total",
    "e_ionic",
    "e_electronic",
    "n",
    "e_ij_max",
    "weighted_surface_energy_EV_PER_ANG2",
    "weighted_surface_energy",
    "weighted_work_function",
    "surface_anisotropy",
    "shape_factor",
    "has_reconstructed",
    "possible_species",
    "has_props",
    "theoretical",
    "database_IDs"
  ]
}
