{"builder_meta": null, "nsites": null, "elements": null, "nelements": null, "composition": null, "composition_reduced": null, "formula_pretty": "PmZn3", "formula_anonymous": "AB3", "chemsys": null, "volume": 155.60365138350684, "density": 7.282872336744882, "density_atomic": 19.450456422938355, "symmetry": null, "property_name": null, "material_id": "mp-862732", "deprecated": null, "deprecation_reasons": null, "last_updated": null, "origins": null, "warnings": null, "structure": {"@module": "pymatgen.core.structure", "@class": "Structure", "charge": 0, "lattice": {"matrix": [[6.43663592, -9.39e-06, -0.0], [-3.2183263, 5.5742847399999995, -0.0], [0.0, 0.0, 4.33682658]], "pbc": [true, true, true], "a": 6.436635920006848, "b": 6.436635342775646, "c": 4.33682658, "alpha": 90.0, "beta": 90.0, "gamma": 120.00017227509466, "volume": 155.60365138350681}, "properties": {}, "sites": [{"species": [{"element": "Pm", "occu": 1}], "abc": [0.333333999999999, 0.666666, 0.749999], "properties": {"magmom": -0.0}, "label": "Pm", "xyz": [8.766414731908867e-07, 3.7161829804705797, 3.25261559817342]}, {"species": [{"element": "Pm", "occu": 1}], "abc": [0.666667, 0.333333999999999, 0.25], "properties": {"magmom": -0.0}, "label": "Pm", "xyz": [3.218315179994443, 1.8580923695200242, 1.084206645]}, {"species": [{"element": "Zn", "occu": 1}], "abc": [0.14195244, 0.28390388, 0.25], "properties": {"magmom": -0.0}, "label": "Zn", "xyz": [8.505596008623328e-07, 1.5825597329773795, 1.084206645]}, {"species": [{"element": "Zn", "occu": 1}], "abc": [0.7160981200000001, 0.8580485600000001, 0.25], "properties": {"magmom": -0.0}, "label": "Zn", "xyz": [1.8477826341113421, 4.783000270025627, 1.084206645]}, {"species": [{"element": "Zn", "occu": 1}], "abc": [0.14195244, 0.85804956, 0.25], "properties": {"magmom": -0.0}, "label": "Zn", "xyz": [-1.8477872914157834, 4.783011235538302, 1.084206645]}, {"species": [{"element": "Zn", "occu": 1}], "abc": [0.85804956, 0.71609712, 0.749999], "properties": {"magmom": -0.0}, "label": "Zn", "xyz": [3.2183184243859384, 3.9917211912885806, 3.25261559817342]}, {"species": [{"element": "Zn", "occu": 1}], "abc": [0.28390288, 0.14195144, 0.749999], "properties": {"magmom": -0.0}, "label": "Zn", "xyz": [1.3705334225245775, 0.7912750799649824, 3.25261559817342]}, {"species": [{"element": "Zn", "occu": 1}], "abc": [0.85804956, 0.14195144, 0.749999], "properties": {"magmom": -0.0}, "label": "Zn", "xyz": [5.066106566361323, 0.7912696887276571, 3.25261559817342]}]}, "task_ids": null, "uncorrected_energy_per_atom": null, "energy_per_atom": -14.40529, "formation_energy_per_atom": -0.33718493062500104, "energy_above_hull": 0.0, "is_stable": true, "equilibrium_reaction_energy_per_atom": null, "decomposes_to": null, "xas": null, "grain_boundaries": null, "band_gap": 0.0, "cbm": null, "vbm": null, "efermi": 2.62932077, "is_gap_direct": null, "is_metal": null, "es_source_calc_id": null, "bandstructure": null, "dos": null, "dos_energy_up": null, "dos_energy_down": null, "is_magnetic": null, "ordering": null, "total_magnetization": 1e-07, "total_magnetization_normalized_vol": null, "total_magnetization_normalized_formula_units": null, "num_magnetic_sites": null, "num_unique_magnetic_sites": null, "types_of_magnetic_species": null, "bulk_modulus": null, "shear_modulus": null, "universal_anisotropy": null, "homogeneous_poisson": null, "e_total": null, "e_ionic": null, "e_electronic": null, "n": null, "e_ij_max": null, "weighted_surface_energy_EV_PER_ANG2": null, "weighted_surface_energy": null, "weighted_work_function": null, "surface_anisotropy": null, "shape_factor": null, "has_reconstructed": null, "possible_species": null, "has_props": null, "theoretical": null, "database_IDs": null, "fields_not_requested": ["builder_meta", "nsites", "elements", "nelements", "composition", "composition_reduced", "chemsys", "symmetry", "property_name", "deprecated", "deprecation_reasons", "last_updated", "origins", "warnings", "task_ids", "uncorrected_energy_per_atom", "equilibrium_reaction_energy_per_atom", "decomposes_to", "xas", "grain_boundaries", "cbm", "vbm", "is_gap_direct", "is_metal", "es_source_calc_id", "bandstructure", "dos", "dos_energy_up", "dos_energy_down", "is_magnetic", "ordering", "total_magnetization_normalized_vol", "total_magnetization_normalized_formula_units", "num_magnetic_sites", "num_unique_magnetic_sites", "types_of_magnetic_species", "bulk_modulus", "shear_modulus", "universal_anisotropy", "homogeneous_poisson", "e_total", "e_ionic", "e_electronic", "n", "e_ij_max", "weighted_surface_energy_EV_PER_ANG2", "weighted_surface_energy", "weighted_work_function", "surface_anisotropy", "shape_factor", "has_reconstructed", "possible_species", "has_props", "theoretical", "database_IDs"]}