{
  "builder_meta": null,
  "nsites": null,
  "elements": null,
  "nelements": null,
  "composition": null,
  "composition_reduced": null,
  "formula_pretty": "PN2",
  "formula_anonymous": "AB2",
  "chemsys": null,
  "volume": 172.52558423793,
  "density": 2.270978820017313,
  "density_atomic": 14.3771320198275,
  "symmetry": null,
  "property_name": null,
  "material_id": "mp-1102941",
  "deprecated": null,
  "deprecation_reasons": null,
  "last_updated": null,
  "origins": null,
  "warnings": null,
  "structure": {
    "@module": "pymatgen.core.structure",
    "@class": "Structure",
    "charge": 0,
    "lattice": {
      "matrix": [
        [4.7967379999999995, 0.0, 0.0],
        [0.0, 4.798109, 0.0],
        [0.0, 0.0, 7.496135]
      ],
      "pbc": [true, true, true],
      "a": 4.7967379999999995,
      "b": 4.798109,
      "c": 7.496135,
      "alpha": 90.0,
      "beta": 90.0,
      "gamma": 90.0,
      "volume": 172.52558423792996
    },
    "properties": {},
    "sites": [
      {
        "species": [{ "element": "P", "occu": 1 }],
        "abc": [0.493907, 0.738941, 0.625135],
        "properties": { "magmom": -0.018000000000000002 },
        "label": "P",
        "xyz": [2.3691424753659995, 3.545519462569, 4.6860963532249995]
      },
      {
        "species": [{ "element": "P", "occu": 1 }],
        "abc": [0.006092999999999, 0.261059, 0.125135],
        "properties": { "magmom": -0.018000000000000002 },
        "label": "P",
        "xyz": [0.0292265246339952, 1.2525895374309999, 0.938028853225]
      },
      {
        "species": [{ "element": "P", "occu": 1 }],
        "abc": [0.506093, 0.238941, 0.874865],
        "properties": { "magmom": -0.018000000000000002 },
        "label": "P",
        "xyz": [2.427595524634, 1.146464962569, 6.558106146775]
      },
      {
        "species": [{ "element": "P", "occu": 1 }],
        "abc": [0.993907, 0.761058999999999, 0.374865],
        "properties": { "magmom": -0.018000000000000002 },
        "label": "P",
        "xyz": [4.767511475366, 3.6516440374309957, 2.810038646775]
      },
      {
        "species": [{ "element": "N", "occu": 1 }],
        "abc": [0.736568, 0.642952, 0.490581999999999],
        "properties": { "magmom": 0.366 },
        "label": "N",
        "xyz": [3.533123715184, 3.084953777768, 3.6774689005699925]
      },
      {
        "species": [{ "element": "N", "occu": 1 }],
        "abc": [0.763432, 0.357048, 0.990582],
        "properties": { "magmom": 0.366 },
        "label": "N",
        "xyz": [3.6619832848159994, 1.713155222232, 7.4255364005699995]
      },
      {
        "species": [{ "element": "N", "occu": 1 }],
        "abc": [0.263432, 0.142952, 0.009418],
        "properties": { "magmom": 0.366 },
        "label": "N",
        "xyz": [1.263614284816, 0.685899277768, 0.07059859942999999]
      },
      {
        "species": [{ "element": "N", "occu": 1 }],
        "abc": [0.236568, 0.857047999999999, 0.509417999999999],
        "properties": { "magmom": 0.366 },
        "label": "N",
        "xyz": [1.1347547151839998, 4.112209722231995, 3.8186660994299926]
      },
      {
        "species": [{ "element": "N", "occu": 1 }],
        "abc": [0.39267, 0.475097, 0.7408129999999991],
        "properties": { "magmom": 0.362 },
        "label": "N",
        "xyz": [1.88353511046, 2.2795671915730003, 5.553234257754993]
      },
      {
        "species": [{ "element": "N", "occu": 1 }],
        "abc": [0.10733000000000001, 0.524903, 0.240813],
        "properties": { "magmom": 0.362 },
        "label": "N",
        "xyz": [0.51483388954, 2.518541808427, 1.805166757755]
      },
      {
        "species": [{ "element": "N", "occu": 1 }],
        "abc": [0.60733, 0.975097, 0.759187],
        "properties": { "magmom": 0.362 },
        "label": "N",
        "xyz": [2.91320288954, 4.678621691573, 5.690968242244999]
      },
      {
        "species": [{ "element": "N", "occu": 1 }],
        "abc": [0.8926700000000001, 0.024902999999999002, 0.259187],
        "properties": { "magmom": 0.362 },
        "label": "N",
        "xyz": [4.28190411046, 0.11948730842699522, 1.942900742245]
      }
    ]
  },
  "task_ids": null,
  "uncorrected_energy_per_atom": null,
  "energy_per_atom": -9.084837932083333,
  "formation_energy_per_atom": 0.001687952757935,
  "energy_above_hull": 0.43713030472222203,
  "is_stable": false,
  "equilibrium_reaction_energy_per_atom": null,
  "decomposes_to": null,
  "xas": null,
  "grain_boundaries": null,
  "band_gap": 0.0,
  "cbm": null,
  "vbm": null,
  "efermi": 1.56947659,
  "is_gap_direct": null,
  "is_metal": null,
  "es_source_calc_id": null,
  "bandstructure": null,
  "dos": null,
  "dos_energy_up": null,
  "dos_energy_down": null,
  "is_magnetic": null,
  "ordering": null,
  "total_magnetization": 3.9992187,
  "total_magnetization_normalized_vol": null,
  "total_magnetization_normalized_formula_units": null,
  "num_magnetic_sites": null,
  "num_unique_magnetic_sites": null,
  "types_of_magnetic_species": null,
  "bulk_modulus": null,
  "shear_modulus": null,
  "universal_anisotropy": null,
  "homogeneous_poisson": null,
  "e_total": null,
  "e_ionic": null,
  "e_electronic": null,
  "n": null,
  "e_ij_max": null,
  "weighted_surface_energy_EV_PER_ANG2": null,
  "weighted_surface_energy": null,
  "weighted_work_function": null,
  "surface_anisotropy": null,
  "shape_factor": null,
  "has_reconstructed": null,
  "possible_species": null,
  "has_props": null,
  "theoretical": null,
  "database_IDs": null,
  "fields_not_requested": [
    "builder_meta",
    "nsites",
    "elements",
    "nelements",
    "composition",
    "composition_reduced",
    "chemsys",
    "symmetry",
    "property_name",
    "deprecated",
    "deprecation_reasons",
    "last_updated",
    "origins",
    "warnings",
    "task_ids",
    "uncorrected_energy_per_atom",
    "equilibrium_reaction_energy_per_atom",
    "decomposes_to",
    "xas",
    "grain_boundaries",
    "cbm",
    "vbm",
    "is_gap_direct",
    "is_metal",
    "es_source_calc_id",
    "bandstructure",
    "dos",
    "dos_energy_up",
    "dos_energy_down",
    "is_magnetic",
    "ordering",
    "total_magnetization_normalized_vol",
    "total_magnetization_normalized_formula_units",
    "num_magnetic_sites",
    "num_unique_magnetic_sites",
    "types_of_magnetic_species",
    "bulk_modulus",
    "shear_modulus",
    "universal_anisotropy",
    "homogeneous_poisson",
    "e_total",
    "e_ionic",
    "e_electronic",
    "n",
    "e_ij_max",
    "weighted_surface_energy_EV_PER_ANG2",
    "weighted_surface_energy",
    "weighted_work_function",
    "surface_anisotropy",
    "shape_factor",
    "has_reconstructed",
    "possible_species",
    "has_props",
    "theoretical",
    "database_IDs"
  ]
}
