{"builder_meta": null, "nsites": null, "elements": null, "nelements": null, "composition": null, "composition_reduced": null, "formula_pretty": "PO2", "formula_anonymous": "AB2", "chemsys": null, "volume": 334.6758017042621, "density": 2.499574783534377, "density_atomic": 13.94482507101092, "symmetry": null, "property_name": null, "material_id": "mp-562065", "deprecated": null, "deprecation_reasons": null, "last_updated": null, "origins": null, "warnings": null, "structure": {"@module": "pymatgen.core.structure", "@class": "Structure", "charge": 0, "lattice": {"matrix": [[6.92902118, -0.01959478, -0.58764901], [-0.62060287, 6.93449969, -0.31889628000000003], [-0.02211812, -0.01061672, 6.96947072]], "pbc": [true, true, true], "a": 6.953923340621884, "b": 6.9695142377543196, "c": 6.96951390291412, "alpha": 92.6932439028401, "beta": 95.02920309815374, "gamma": 95.02920271909846, "volume": 334.675801704262}, "properties": {}, "sites": [{"species": [{"element": "P", "occu": 1}], "abc": [0.82351281, 0.02761694, 0.25766102], "properties": {"magmom": 0.0}, "label": "P", "xyz": [5.683299572907015, 0.1726375946253624, 1.3030175076255333]}, {"species": [{"element": "P", "occu": 1}], "abc": [0.32351281, 0.25766102, 0.02761694], "properties": {"magmom": 0.0}, "label": "P", "xyz": [2.0811111091992354, 1.7801178996567155, -0.07980366859182692]}, {"species": [{"element": "P", "occu": 1}], "abc": [0.55051616, 0.71904394, 0.35660426], "properties": {"magmom": 0.0}, "label": "P", "xyz": [3.3604099839369703, 4.9716367684055065, 1.9325322346617226]}, {"species": [{"element": "P", "occu": 1}], "abc": [0.17648719000000002, 0.97238306, 0.74233898], "properties": {"magmom": 0.0}, "label": "P", "xyz": [0.6030006170929845, 6.731650595374637, 4.759907922374467]}, {"species": [{"element": "P", "occu": 1}], "abc": [0.44948384, 0.28095606, 0.64339574], "properties": {"magmom": 0.0}, "label": "P", "xyz": [2.9258902060630305, 1.9326514215944937, 4.130393195338278]}, {"species": [{"element": "P", "occu": 1}], "abc": [0.94948384, 0.64339574, 0.28095606], "properties": {"magmom": 0.0}, "label": "P", "xyz": [6.17348617478815, 4.440039800797642, 1.1949752871357178]}, {"species": [{"element": "P", "occu": 1}], "abc": [0.050516160000000004, 0.35660426, 0.71904394], "properties": {"magmom": 0.0}, "label": "P", "xyz": [0.11281401521184986, 2.464248389202358, 4.867950142864283]}, {"species": [{"element": "P", "occu": 1}], "abc": [0.67648719, 0.74233898, 0.97238306], "properties": {"magmom": 0.0}, "label": "P", "xyz": [4.205189080800764, 5.124170290343285, 6.142729098591827]}, {"species": [{"element": "O", "occu": 1}], "abc": [0.75, 0.6142443, 0.3857557], "properties": {"magmom": 0.0}, "label": "O", "xyz": [4.807031918675576, 4.240685362678963, 2.0518960764419]}, {"species": [{"element": "O", "occu": 1}], "abc": [0.6487913200000001, 0.9492850500000001, 0.37073207], "properties": {"magmom": 0.0}, "label": "O", "xyz": [3.898159874789956, 6.566168003183115, 1.8998212588307835]}, {"species": [{"element": "O", "occu": 1}], "abc": [0.98481008, 0.8862890800000001, 0.30409094000000003], "properties": {"magmom": 0.0}, "label": "O", "xyz": [6.267010435998002, 6.123445765286486, 1.2579959433806338]}, {"species": [{"element": "O", "occu": 1}], "abc": [0.75, 0.96352616, 0.03647384], "properties": {"magmom": -0.0}, "label": "O", "xyz": [4.59799205201394, 6.666488540280286, -0.49379830568072]}, {"species": [{"element": "O", "occu": 1}], "abc": [0.35120868, 0.05071495, 0.62926793], "properties": {"magmom": 0.0}, "label": "O", "xyz": [2.388140315210044, 0.3381201868168855, 4.163104171169218]}, {"species": [{"element": "O", "occu": 1}], "abc": [0.48481008000000003, 0.30409094000000003, 0.8862890800000001], "properties": {"magmom": 0.0}, "label": "O", "xyz": [3.150936554266367, 2.0898092993010087, 5.7950941594180145]}, {"species": [{"element": "O", "occu": 1}], "abc": [0.25, 0.03647384, 0.96352616], "properties": {"magmom": -0.0}, "label": "O", "xyz": [1.68830813798606, 0.2377996497197144, 6.55672373568072]}, {"species": [{"element": "O", "occu": 1}], "abc": [0.25, 0.3857557, 0.6142443], "properties": {"magmom": 0.0}, "label": "O", "xyz": [1.4792682713244252, 2.6636028273210366, 4.0110293535581]}, {"species": [{"element": "O", "occu": 1}], "abc": [0.11360495, 0.76937362, 0.71239125], "properties": {"magmom": -0.0}, "label": "O", "xyz": [0.2939388728741016, 5.325431806950316, 4.652879736312467]}, {"species": [{"element": "O", "occu": 1}], "abc": [0.14879132, 0.37073207, 0.9492850500000001], "properties": {"magmom": 0.0}, "label": "O", "xyz": [0.7799044203870108, 2.557847597730713, 6.410352211014444]}, {"species": [{"element": "O", "occu": 1}], "abc": [0.85120868, 0.62926793, 0.05071495], "properties": {"magmom": 0.0}, "label": "O", "xyz": [5.50639576961299, 4.346440592269287, -0.34742678101444324]}, {"species": [{"element": "O", "occu": 1}], "abc": [0.8863950500000001, 0.23062638, 0.28760875], "properties": {"magmom": -0.0}, "label": "O", "xyz": [5.992361317125899, 1.5788563830496831, 1.4100456936875334]}, {"species": [{"element": "O", "occu": 1}], "abc": [0.61360495, 0.71239125, 0.76937362], "properties": {"magmom": -0.0}, "label": "O", "xyz": [3.7925525423379596, 4.919885223982625, 4.774363656402256]}, {"species": [{"element": "O", "occu": 1}], "abc": [0.51518992, 0.69590906, 0.11371092000000001], "properties": {"magmom": 0.0}, "label": "O", "xyz": [3.135363635733633, 4.81447889069899, 0.2678312705819865]}, {"species": [{"element": "O", "occu": 1}], "abc": [0.01518992, 0.11371092000000001, 0.69590906], "properties": {"magmom": 0.0}, "label": "O", "xyz": [0.019289754001998012, 0.7808424247135141, 4.804929486619367]}, {"species": [{"element": "O", "occu": 1}], "abc": [0.38639505, 0.28760875, 0.23062638], "properties": {"magmom": -0.0}, "label": "O", "xyz": [2.4937476476620413, 1.9844029660173752, 1.2885617735977433]}]}, "task_ids": null, "uncorrected_energy_per_atom": null, "energy_per_atom": -7.367902704166666, "formation_energy_per_atom": -2.264104192380951, "energy_above_hull": 0.021671800857143, "is_stable": false, "equilibrium_reaction_energy_per_atom": null, "decomposes_to": null, "xas": null, "grain_boundaries": null, "band_gap": 4.5183, "cbm": null, "vbm": null, "efermi": 0.12150943, "is_gap_direct": null, "is_metal": null, "es_source_calc_id": null, "bandstructure": null, "dos": null, "dos_energy_up": null, "dos_energy_down": null, "is_magnetic": null, "ordering": null, "total_magnetization": 0.0, "total_magnetization_normalized_vol": null, "total_magnetization_normalized_formula_units": null, "num_magnetic_sites": null, "num_unique_magnetic_sites": null, "types_of_magnetic_species": null, "bulk_modulus": null, "shear_modulus": null, "universal_anisotropy": null, "homogeneous_poisson": null, "e_total": null, "e_ionic": null, "e_electronic": null, "n": null, "e_ij_max": null, "weighted_surface_energy_EV_PER_ANG2": null, "weighted_surface_energy": null, "weighted_work_function": null, "surface_anisotropy": null, "shape_factor": null, "has_reconstructed": null, "possible_species": null, "has_props": null, "theoretical": null, "database_IDs": null, "fields_not_requested": ["builder_meta", "nsites", "elements", "nelements", "composition", "composition_reduced", "chemsys", "symmetry", "property_name", "deprecated", "deprecation_reasons", "last_updated", "origins", "warnings", "task_ids", "uncorrected_energy_per_atom", "equilibrium_reaction_energy_per_atom", "decomposes_to", "xas", "grain_boundaries", "cbm", "vbm", "is_gap_direct", "is_metal", "es_source_calc_id", "bandstructure", "dos", "dos_energy_up", "dos_energy_down", "is_magnetic", "ordering", "total_magnetization_normalized_vol", "total_magnetization_normalized_formula_units", "num_magnetic_sites", "num_unique_magnetic_sites", "types_of_magnetic_species", "bulk_modulus", "shear_modulus", "universal_anisotropy", "homogeneous_poisson", "e_total", "e_ionic", "e_electronic", "n", "e_ij_max", "weighted_surface_energy_EV_PER_ANG2", "weighted_surface_energy", "weighted_work_function", "surface_anisotropy", "shape_factor", "has_reconstructed", "possible_species", "has_props", "theoretical", "database_IDs"]}