{
  "builder_meta": null,
  "nsites": null,
  "elements": null,
  "nelements": null,
  "composition": null,
  "composition_reduced": null,
  "formula_pretty": "PO4",
  "formula_anonymous": "AB4",
  "chemsys": null,
  "volume": 379.81155036837407,
  "density": 1.6608621476230092,
  "density_atomic": 18.990577518418704,
  "symmetry": null,
  "property_name": null,
  "material_id": "mp-726666",
  "deprecated": null,
  "deprecation_reasons": null,
  "last_updated": null,
  "origins": null,
  "warnings": null,
  "structure": {
    "@module": "pymatgen.core.structure",
    "@class": "Structure",
    "charge": 0,
    "lattice": {
      "matrix": [
        [5.095546, 0.0, 0.0],
        [0.0, 6.195533, 0.0],
        [0.0, 1.046994, 12.030918]
      ],
      "pbc": [true, true, true],
      "a": 5.095546,
      "b": 6.195533,
      "c": 12.076389541529371,
      "alpha": 85.02634933806316,
      "beta": 90.0,
      "gamma": 90.0,
      "volume": 379.81155036837407
    },
    "properties": {},
    "sites": [
      {
        "species": [{ "element": "P", "occu": 1 }],
        "abc": [0.803677, 0.793563, 0.634861],
        "properties": { "magmom": -0.062 },
        "label": "P",
        "xyz": [4.095173122642, 5.581241411913, 7.637960632398]
      },
      {
        "species": [{ "element": "P", "occu": 1 }],
        "abc": [0.303677, 0.206436999999999, 0.865139],
        "properties": { "magmom": -0.062 },
        "label": "P",
        "xyz": [1.5474001226419998, 2.184782588086994, 10.408416367602]
      },
      {
        "species": [{ "element": "P", "occu": 1 }],
        "abc": [0.196323, 0.206436999999999, 0.365139],
        "properties": { "magmom": -0.062 },
        "label": "P",
        "xyz": [1.0003728773579998, 1.661285588086994, 4.3929573676019995]
      },
      {
        "species": [{ "element": "P", "occu": 1 }],
        "abc": [0.696322999999999, 0.793563, 0.134860999999999],
        "properties": { "magmom": -0.062 },
        "label": "P",
        "xyz": [3.548145877357995, 5.057744411912999, 1.622501632397988]
      },
      {
        "species": [{ "element": "O", "occu": 1 }],
        "abc": [0.645095, 0.723067999999999, 0.535642],
        "properties": { "magmom": 0.657 },
        "label": "O",
        "xyz": [3.2871112468699994, 5.040605615391994, 6.444264979355999]
      },
      {
        "species": [{ "element": "O", "occu": 1 }],
        "abc": [0.145095, 0.276932, 0.964357999999999],
        "properties": { "magmom": 0.657 },
        "label": "O",
        "xyz": [0.7393382468699999, 2.725418384607999, 11.602112020643988]
      },
      {
        "species": [{ "element": "O", "occu": 1 }],
        "abc": [0.354904999999999, 0.276932, 0.464358],
        "properties": { "magmom": 0.657 },
        "label": "O",
        "xyz": [1.808434753129995, 2.201921384608, 5.5866530206439995]
      },
      {
        "species": [{ "element": "O", "occu": 1 }],
        "abc": [0.854904999999999, 0.723067999999999, 0.035642],
        "properties": { "magmom": 0.657 },
        "label": "O",
        "xyz": [4.356207753129995, 4.517108615391994, 0.428805979356]
      },
      {
        "species": [{ "element": "O", "occu": 1 }],
        "abc": [0.814309, 0.043303, 0.623302999999999],
        "properties": { "magmom": 0.647 },
        "label": "O",
        "xyz": [4.149348967713999, 0.9208796666809991, 7.498907282153988]
      },
      {
        "species": [{ "element": "O", "occu": 1 }],
        "abc": [0.314309, 0.956696999999999, 0.876697],
        "properties": { "magmom": 0.647 },
        "label": "O",
        "xyz": [1.601575967714, 6.845144333318994, 10.547469717845999]
      },
      {
        "species": [{ "element": "O", "occu": 1 }],
        "abc": [0.185691, 0.956696999999999, 0.376697],
        "properties": { "magmom": 0.647 },
        "label": "O",
        "xyz": [0.9461970322859999, 6.321647333318994, 4.532010717846]
      },
      {
        "species": [{ "element": "O", "occu": 1 }],
        "abc": [0.685690999999999, 0.043303, 0.123303],
        "properties": { "magmom": 0.647 },
        "label": "O",
        "xyz": [3.493970032285995, 0.397382666681, 1.4834482821539998]
      },
      {
        "species": [{ "element": "O", "occu": 1 }],
        "abc": [0.673621999999999, 0.719055, 0.746659],
        "properties": { "magmom": 0.645 },
        "label": "O",
        "xyz": [3.432471887611995, 5.2366764743609995, 8.982993202962]
      },
      {
        "species": [{ "element": "O", "occu": 1 }],
        "abc": [0.173622, 0.280945, 0.753340999999999],
        "properties": { "magmom": 0.645 },
        "label": "O",
        "xyz": [0.8846988876119999, 2.529347525638999, 9.063383797037988]
      },
      {
        "species": [{ "element": "O", "occu": 1 }],
        "abc": [0.326378, 0.280945, 0.253341],
        "properties": { "magmom": 0.645 },
        "label": "O",
        "xyz": [1.663074112388, 2.005850525639, 3.0479247970379997]
      },
      {
        "species": [{ "element": "O", "occu": 1 }],
        "abc": [0.826378, 0.719055, 0.246659],
        "properties": { "magmom": 0.645 },
        "label": "O",
        "xyz": [4.210847112388, 4.713179474361, 2.9675342029619998]
      },
      {
        "species": [{ "element": "O", "occu": 1 }],
        "abc": [0.080725999999999, 0.6957300000000001, 0.63283],
        "properties": { "magmom": 0.641 },
        "label": "O",
        "xyz": [0.4113430463959949, 4.972987387110001, 7.61352583794]
      },
      {
        "species": [{ "element": "O", "occu": 1 }],
        "abc": [0.580726, 0.30427000000000004, 0.8671700000000001],
        "properties": { "magmom": 0.641 },
        "label": "O",
        "xyz": [2.959116046396, 2.7930366128900004, 10.43285116206]
      },
      {
        "species": [{ "element": "O", "occu": 1 }],
        "abc": [0.919273999999999, 0.30427000000000004, 0.36717000000000005],
        "properties": { "magmom": 0.641 },
        "label": "O",
        "xyz": [4.684202953603995, 2.2695396128900005, 4.4173921620600005]
      },
      {
        "species": [{ "element": "O", "occu": 1 }],
        "abc": [0.419274, 0.6957300000000001, 0.13283],
        "properties": { "magmom": 0.641 },
        "label": "O",
        "xyz": [2.136429953604, 4.449490387110001, 1.59806683794]
      }
    ]
  },
  "task_ids": null,
  "uncorrected_energy_per_atom": null,
  "energy_per_atom": -6.3666098235,
  "formation_energy_per_atom": -1.325146314428571,
  "energy_above_hull": 0.389185680499999,
  "is_stable": false,
  "equilibrium_reaction_energy_per_atom": null,
  "decomposes_to": null,
  "xas": null,
  "grain_boundaries": null,
  "band_gap": 0.49700000000000005,
  "cbm": null,
  "vbm": null,
  "efermi": -3.74573658,
  "is_gap_direct": null,
  "is_metal": null,
  "es_source_calc_id": null,
  "bandstructure": null,
  "dos": null,
  "dos_energy_up": null,
  "dos_energy_down": null,
  "is_magnetic": null,
  "ordering": null,
  "total_magnetization": 12.0,
  "total_magnetization_normalized_vol": null,
  "total_magnetization_normalized_formula_units": null,
  "num_magnetic_sites": null,
  "num_unique_magnetic_sites": null,
  "types_of_magnetic_species": null,
  "bulk_modulus": null,
  "shear_modulus": null,
  "universal_anisotropy": null,
  "homogeneous_poisson": null,
  "e_total": null,
  "e_ionic": null,
  "e_electronic": null,
  "n": null,
  "e_ij_max": null,
  "weighted_surface_energy_EV_PER_ANG2": null,
  "weighted_surface_energy": null,
  "weighted_work_function": null,
  "surface_anisotropy": null,
  "shape_factor": null,
  "has_reconstructed": null,
  "possible_species": null,
  "has_props": null,
  "theoretical": null,
  "database_IDs": null,
  "fields_not_requested": [
    "builder_meta",
    "nsites",
    "elements",
    "nelements",
    "composition",
    "composition_reduced",
    "chemsys",
    "symmetry",
    "property_name",
    "deprecated",
    "deprecation_reasons",
    "last_updated",
    "origins",
    "warnings",
    "task_ids",
    "uncorrected_energy_per_atom",
    "equilibrium_reaction_energy_per_atom",
    "decomposes_to",
    "xas",
    "grain_boundaries",
    "cbm",
    "vbm",
    "is_gap_direct",
    "is_metal",
    "es_source_calc_id",
    "bandstructure",
    "dos",
    "dos_energy_up",
    "dos_energy_down",
    "is_magnetic",
    "ordering",
    "total_magnetization_normalized_vol",
    "total_magnetization_normalized_formula_units",
    "num_magnetic_sites",
    "num_unique_magnetic_sites",
    "types_of_magnetic_species",
    "bulk_modulus",
    "shear_modulus",
    "universal_anisotropy",
    "homogeneous_poisson",
    "e_total",
    "e_ionic",
    "e_electronic",
    "n",
    "e_ij_max",
    "weighted_surface_energy_EV_PER_ANG2",
    "weighted_surface_energy",
    "weighted_work_function",
    "surface_anisotropy",
    "shape_factor",
    "has_reconstructed",
    "possible_species",
    "has_props",
    "theoretical",
    "database_IDs"
  ]
}
