{"builder_meta": null, "nsites": null, "elements": null, "nelements": null, "composition": null, "composition_reduced": null, "formula_pretty": "PPb", "formula_anonymous": "AB", "chemsys": null, "volume": 412.4108209454542, "density": 7.671900277173361, "density_atomic": 25.775676309090887, "symmetry": null, "property_name": null, "material_id": "mp-1179841", "deprecated": null, "deprecation_reasons": null, "last_updated": null, "origins": null, "warnings": null, "structure": {"@module": "pymatgen.core.structure", "@class": "Structure", "charge": 0, "lattice": {"matrix": [[6.061217, 0.0, 0.0], [0.0, 5.799615, 0.0], [0.0, 4.998151, 11.731973]], "pbc": [true, true, true], "a": 6.061217, "b": 5.799615, "c": 12.752282301279642, "alpha": 66.92462928207941, "beta": 90.0, "gamma": 90.0, "volume": 412.4108209454542}, "properties": {}, "sites": [{"species": [{"element": "P", "occu": 1}], "abc": [0.842542, 0.183968, 0.079234], "properties": {"magmom": -0.0}, "label": "P", "xyz": [5.106829893614, 1.462967068654, 0.929571148682]}, {"species": [{"element": "P", "occu": 1}], "abc": [0.657458, 0.183968, 0.579234], "properties": {"magmom": 0.001}, "label": "P", "xyz": [3.984995606386, 3.962042568654, 6.795557648682]}, {"species": [{"element": "P", "occu": 1}], "abc": [0.157458, 0.816032, 0.920766], "properties": {"magmom": -0.001}, "label": "P", "xyz": [0.9543871063859999, 9.334798931346, 10.802401851317999]}, {"species": [{"element": "P", "occu": 1}], "abc": [0.342541999999999, 0.816032, 0.420766], "properties": {"magmom": 0.0}, "label": "P", "xyz": [2.076221393613994, 6.835723431346, 4.936415351318]}, {"species": [{"element": "P", "occu": 1}], "abc": [0.651914, 0.323971, 0.921133], "properties": {"magmom": 0.0}, "label": "P", "xyz": [3.951392219338, 6.482868896248, 10.806707485409]}, {"species": [{"element": "P", "occu": 1}], "abc": [0.848086, 0.323971, 0.421133], "properties": {"magmom": 0.0}, "label": "P", "xyz": [5.140433280662, 3.983793396248, 4.9407209854089995]}, {"species": [{"element": "P", "occu": 1}], "abc": [0.348086, 0.676029, 0.07886699999999901], "properties": {"magmom": -0.001}, "label": "P", "xyz": [2.109824780662, 4.314897103751996, 0.9252655145909884]}, {"species": [{"element": "P", "occu": 1}], "abc": [0.151914, 0.676029, 0.578867], "properties": {"magmom": -0.0}, "label": "P", "xyz": [0.920783719338, 6.813972603752, 6.7912520145910005]}, {"species": [{"element": "Pb", "occu": 1}], "abc": [0.362291, 0.129226999999999, 0.13491], "properties": {"magmom": -0.0}, "label": "Pb", "xyz": [2.1959243681469998, 1.4237673990149942, 1.58276047743]}, {"species": [{"element": "Pb", "occu": 1}], "abc": [0.137709, 0.129226999999999, 0.6349100000000001], "properties": {"magmom": 0.0}, "label": "Pb", "xyz": [0.8346841318529999, 3.9228428990149946, 7.448746977430001]}, {"species": [{"element": "Pb", "occu": 1}], "abc": [0.637709, 0.870772999999999, 0.86509], "properties": {"magmom": 0.0}, "label": "Pb", "xyz": [3.865292631853, 9.373998600984994, 10.14921252257]}, {"species": [{"element": "Pb", "occu": 1}], "abc": [0.862290999999999, 0.870772999999999, 0.36509], "properties": {"magmom": 0.0}, "label": "Pb", "xyz": [5.226532868146994, 6.8749231009849945, 4.28322602257]}, {"species": [{"element": "Pb", "occu": 1}], "abc": [0.869304, 0.639725, 0.134827], "properties": {"magmom": 0.0}, "label": "Pb", "xyz": [5.269040182968, 4.384044410752, 1.581786723671]}, {"species": [{"element": "Pb", "occu": 1}], "abc": [0.630695999999999, 0.639725, 0.634826999999999], "properties": {"magmom": -0.0}, "label": "Pb", "xyz": [3.822785317031994, 6.883119910751995, 7.447773223670989]}, {"species": [{"element": "Pb", "occu": 1}], "abc": [0.130696, 0.360274999999999, 0.865173], "properties": {"magmom": 0.0}, "label": "Pb", "xyz": [0.792176817032, 6.413721589247995, 10.150186276329]}, {"species": [{"element": "Pb", "occu": 1}], "abc": [0.369303999999999, 0.360274999999999, 0.365172999999999], "properties": {"magmom": -0.001}, "label": "Pb", "xyz": [2.238431682967994, 3.9146460892479897, 4.284199776328989]}]}, "task_ids": null, "uncorrected_energy_per_atom": null, "energy_per_atom": -32.51755704267857, "formation_energy_per_atom": 0.12604816833333302, "energy_above_hull": 0.14350953000000202, "is_stable": false, "equilibrium_reaction_energy_per_atom": null, "decomposes_to": null, "xas": null, "grain_boundaries": null, "band_gap": 0.0, "cbm": null, "vbm": null, "efermi": 6.66695569, "is_gap_direct": null, "is_metal": null, "es_source_calc_id": null, "bandstructure": null, "dos": null, "dos_energy_up": null, "dos_energy_down": null, "is_magnetic": null, "ordering": null, "total_magnetization": 0.0010544, "total_magnetization_normalized_vol": null, "total_magnetization_normalized_formula_units": null, "num_magnetic_sites": null, "num_unique_magnetic_sites": null, "types_of_magnetic_species": null, "bulk_modulus": null, "shear_modulus": null, "universal_anisotropy": null, "homogeneous_poisson": null, "e_total": null, "e_ionic": null, "e_electronic": null, "n": null, "e_ij_max": null, "weighted_surface_energy_EV_PER_ANG2": null, "weighted_surface_energy": null, "weighted_work_function": null, "surface_anisotropy": null, "shape_factor": null, "has_reconstructed": null, "possible_species": null, "has_props": null, "theoretical": null, "database_IDs": null, "fields_not_requested": ["builder_meta", "nsites", "elements", "nelements", "composition", "composition_reduced", "chemsys", "symmetry", "property_name", "deprecated", "deprecation_reasons", "last_updated", "origins", "warnings", "task_ids", "uncorrected_energy_per_atom", "equilibrium_reaction_energy_per_atom", "decomposes_to", "xas", "grain_boundaries", "cbm", "vbm", "is_gap_direct", "is_metal", "es_source_calc_id", "bandstructure", "dos", "dos_energy_up", "dos_energy_down", "is_magnetic", "ordering", "total_magnetization_normalized_vol", "total_magnetization_normalized_formula_units", "num_magnetic_sites", "num_unique_magnetic_sites", "types_of_magnetic_species", "bulk_modulus", "shear_modulus", "universal_anisotropy", "homogeneous_poisson", "e_total", "e_ionic", "e_electronic", "n", "e_ij_max", "weighted_surface_energy_EV_PER_ANG2", "weighted_surface_energy", "weighted_work_function", "surface_anisotropy", "shape_factor", "has_reconstructed", "possible_species", "has_props", "theoretical", "database_IDs"]}