{
  "builder_meta": null,
  "nsites": null,
  "elements": null,
  "nelements": null,
  "composition": null,
  "composition_reduced": null,
  "formula_pretty": "PPb3",
  "formula_anonymous": "AB3",
  "chemsys": null,
  "volume": 223.19702813232618,
  "density": 9.710023782186608,
  "density_atomic": 27.899628516540773,
  "symmetry": null,
  "property_name": null,
  "material_id": "mp-984100",
  "deprecated": null,
  "deprecation_reasons": null,
  "last_updated": null,
  "origins": null,
  "warnings": null,
  "structure": {
    "@module": "pymatgen.core.structure",
    "@class": "Structure",
    "charge": 0,
    "lattice": {
      "matrix": [
        [3.349688, -5.801829, 0.0],
        [3.349688, 5.801829, 0.0],
        [0.0, 0.0, 5.742343]
      ],
      "pbc": [true, true, true],
      "a": 6.699375302413277,
      "b": 6.699375302413277,
      "c": 5.742343,
      "alpha": 90.0,
      "beta": 90.0,
      "gamma": 119.99999311100443,
      "volume": 223.19702813232618
    },
    "properties": {},
    "sites": [
      {
        "species": [{ "element": "P", "occu": 1 }],
        "abc": [0.666667, 0.333333, 0.25],
        "properties": { "magmom": -0.0 },
        "label": "P",
        "xyz": [3.349688, -1.9339468678860001, 1.43558575]
      },
      {
        "species": [{ "element": "P", "occu": 1 }],
        "abc": [0.333333, 0.666667, 0.75],
        "properties": { "magmom": -0.0 },
        "label": "P",
        "xyz": [3.349688, 1.9339468678860001, 4.30675725]
      },
      {
        "species": [{ "element": "Pb", "occu": 1 }],
        "abc": [0.828732999999999, 0.171267, 0.75],
        "properties": { "magmom": -0.001 },
        "label": "Pb",
        "xyz": [3.349687999999997, -3.8145053053139946, 4.30675725]
      },
      {
        "species": [{ "element": "Pb", "occu": 1 }],
        "abc": [0.342534, 0.171267, 0.75],
        "properties": { "magmom": 0.0 },
        "label": "Pb",
        "xyz": [1.721073044088, -0.993661847343, 4.30675725]
      },
      {
        "species": [{ "element": "Pb", "occu": 1 }],
        "abc": [0.828732999999999, 0.657466, 0.75],
        "properties": { "magmom": 0.0 },
        "label": "Pb",
        "xyz": [4.978302955911997, -0.9936618473429948, 4.30675725]
      },
      {
        "species": [{ "element": "Pb", "occu": 1 }],
        "abc": [0.171267, 0.828732999999999, 0.25],
        "properties": { "magmom": -0.001 },
        "label": "Pb",
        "xyz": [3.349687999999997, 3.8145053053139946, 1.43558575]
      },
      {
        "species": [{ "element": "Pb", "occu": 1 }],
        "abc": [0.657466, 0.828732999999999, 0.25],
        "properties": { "magmom": 0.0 },
        "label": "Pb",
        "xyz": [4.978302955911997, 0.9936618473429948, 1.43558575]
      },
      {
        "species": [{ "element": "Pb", "occu": 1 }],
        "abc": [0.171267, 0.342534, 0.25],
        "properties": { "magmom": 0.0 },
        "label": "Pb",
        "xyz": [1.721073044088, 0.993661847343, 1.43558575]
      }
    ]
  },
  "task_ids": null,
  "uncorrected_energy_per_atom": null,
  "energy_per_atom": -44.21368626633928,
  "formation_energy_per_atom": 0.250683394166671,
  "energy_above_hull": 0.259414075000002,
  "is_stable": false,
  "equilibrium_reaction_energy_per_atom": null,
  "decomposes_to": null,
  "xas": null,
  "grain_boundaries": null,
  "band_gap": 0.0,
  "cbm": null,
  "vbm": null,
  "efermi": 6.90755317,
  "is_gap_direct": null,
  "is_metal": null,
  "es_source_calc_id": null,
  "bandstructure": null,
  "dos": null,
  "dos_energy_up": null,
  "dos_energy_down": null,
  "is_magnetic": null,
  "ordering": null,
  "total_magnetization": 0.00144,
  "total_magnetization_normalized_vol": null,
  "total_magnetization_normalized_formula_units": null,
  "num_magnetic_sites": null,
  "num_unique_magnetic_sites": null,
  "types_of_magnetic_species": null,
  "bulk_modulus": null,
  "shear_modulus": null,
  "universal_anisotropy": null,
  "homogeneous_poisson": null,
  "e_total": null,
  "e_ionic": null,
  "e_electronic": null,
  "n": null,
  "e_ij_max": null,
  "weighted_surface_energy_EV_PER_ANG2": null,
  "weighted_surface_energy": null,
  "weighted_work_function": null,
  "surface_anisotropy": null,
  "shape_factor": null,
  "has_reconstructed": null,
  "possible_species": null,
  "has_props": null,
  "theoretical": null,
  "database_IDs": null,
  "fields_not_requested": [
    "builder_meta",
    "nsites",
    "elements",
    "nelements",
    "composition",
    "composition_reduced",
    "chemsys",
    "symmetry",
    "property_name",
    "deprecated",
    "deprecation_reasons",
    "last_updated",
    "origins",
    "warnings",
    "task_ids",
    "uncorrected_energy_per_atom",
    "equilibrium_reaction_energy_per_atom",
    "decomposes_to",
    "xas",
    "grain_boundaries",
    "cbm",
    "vbm",
    "is_gap_direct",
    "is_metal",
    "es_source_calc_id",
    "bandstructure",
    "dos",
    "dos_energy_up",
    "dos_energy_down",
    "is_magnetic",
    "ordering",
    "total_magnetization_normalized_vol",
    "total_magnetization_normalized_formula_units",
    "num_magnetic_sites",
    "num_unique_magnetic_sites",
    "types_of_magnetic_species",
    "bulk_modulus",
    "shear_modulus",
    "universal_anisotropy",
    "homogeneous_poisson",
    "e_total",
    "e_ionic",
    "e_electronic",
    "n",
    "e_ij_max",
    "weighted_surface_energy_EV_PER_ANG2",
    "weighted_surface_energy",
    "weighted_work_function",
    "surface_anisotropy",
    "shape_factor",
    "has_reconstructed",
    "possible_species",
    "has_props",
    "theoretical",
    "database_IDs"
  ]
}
