{"builder_meta": null, "nsites": null, "elements": null, "nelements": null, "composition": null, "composition_reduced": null, "formula_pretty": "PPd3", "formula_anonymous": "AB3", "chemsys": null, "volume": 235.01310176076387, "density": 9.89862845749449, "density_atomic": 14.688318860047742, "symmetry": null, "property_name": null, "material_id": "mp-19879", "deprecated": null, "deprecation_reasons": null, "last_updated": null, "origins": null, "warnings": null, "structure": {"@module": "pymatgen.core.structure", "@class": "Structure", "charge": 0, "lattice": {"matrix": [[5.23038658, 0.0, 0.0], [-0.0, 6.01737394, 0.0], [0.0, 0.0, 7.46708826]], "pbc": [true, true, true], "a": 5.23038658, "b": 6.01737394, "c": 7.46708826, "alpha": 90.0, "beta": 90.0, "gamma": 90.0, "volume": 235.01310176076387}, "properties": {}, "sites": [{"species": [{"element": "P", "occu": 1}], "abc": [0.45930557, 0.88134579, 0.25], "properties": {"magmom": -0.0}, "label": "P", "xyz": [2.402345689447251, 5.303387188874712, 1.866772065]}, {"species": [{"element": "P", "occu": 1}], "abc": [0.95930557, 0.61865421, 0.75], "properties": {"magmom": -0.0}, "label": "P", "xyz": [5.017538979447251, 3.722673721125287, 5.6003161949999996]}, {"species": [{"element": "P", "occu": 1}], "abc": [0.040694430000000004, 0.38134579, 0.25], "properties": {"magmom": -0.0}, "label": "P", "xyz": [0.21284760055274943, 2.2947002188747128, 1.866772065]}, {"species": [{"element": "P", "occu": 1}], "abc": [0.5406944300000001, 0.11865421, 0.75], "properties": {"magmom": -0.0}, "label": "P", "xyz": [2.82804089055275, 0.7139867511252873, 5.6003161949999996]}, {"species": [{"element": "Pd", "occu": 1}], "abc": [0.86901261, 0.02757561, 0.25], "properties": {"magmom": 0.0}, "label": "Pd", "xyz": [4.545271893194774, 0.16593275699360338, 1.866772065]}, {"species": [{"element": "Pd", "occu": 1}], "abc": [0.36901261, 0.47242439, 0.75], "properties": {"magmom": 0.0}, "label": "Pd", "xyz": [1.930078603194774, 2.8427542130063967, 5.6003161949999996]}, {"species": [{"element": "Pd", "occu": 1}], "abc": [0.63098739, 0.52757561, 0.25], "properties": {"magmom": 0.0}, "label": "Pd", "xyz": [3.3003079768052266, 3.174619726993603, 1.866772065]}, {"species": [{"element": "Pd", "occu": 1}], "abc": [0.13098739, 0.97242439, 0.75], "properties": {"magmom": 0.0}, "label": "Pd", "xyz": [0.6851146868052262, 5.851441183006396, 5.6003161949999996]}, {"species": [{"element": "Pd", "occu": 1}], "abc": [0.33515353000000003, 0.17325852, 0.06344356], "properties": {"magmom": 0.0}, "label": "Pd", "xyz": [1.7529825255516276, 1.0425613031309688, 0.47373866204860554]}, {"species": [{"element": "Pd", "occu": 1}], "abc": [0.83515353, 0.32674148000000003, 0.93655644], "properties": {"magmom": 0.0}, "label": "Pd", "xyz": [4.368175815551628, 1.9661256668690312, 6.993349597951394]}, {"species": [{"element": "Pd", "occu": 1}], "abc": [0.16484647, 0.67325852, 0.43655644], "properties": {"magmom": 0.0}, "label": "Pd", "xyz": [0.8622107644483726, 4.051248273130969, 3.259805467951394]}, {"species": [{"element": "Pd", "occu": 1}], "abc": [0.66484647, 0.82674148, 0.5634435600000001], "properties": {"magmom": 0.0}, "label": "Pd", "xyz": [3.4774040544483724, 4.974812636869031, 4.207282792048606]}, {"species": [{"element": "Pd", "occu": 1}], "abc": [0.66484647, 0.82674148, 0.93655644], "properties": {"magmom": 0.0}, "label": "Pd", "xyz": [3.4774040544483724, 4.974812636869031, 6.993349597951394]}, {"species": [{"element": "Pd", "occu": 1}], "abc": [0.16484647, 0.67325852, 0.06344356], "properties": {"magmom": 0.0}, "label": "Pd", "xyz": [0.8622107644483726, 4.051248273130969, 0.47373866204860554]}, {"species": [{"element": "Pd", "occu": 1}], "abc": [0.83515353, 0.32674148000000003, 0.5634435600000001], "properties": {"magmom": 0.0}, "label": "Pd", "xyz": [4.368175815551628, 1.9661256668690312, 4.207282792048606]}, {"species": [{"element": "Pd", "occu": 1}], "abc": [0.33515353000000003, 0.17325852, 0.43655644], "properties": {"magmom": 0.0}, "label": "Pd", "xyz": [1.7529825255516276, 1.0425613031309688, 3.259805467951394]}]}, "task_ids": null, "uncorrected_energy_per_atom": null, "energy_per_atom": -5.717467674375001, "formation_energy_per_atom": -0.47868793553571404, "energy_above_hull": 0.0, "is_stable": true, "equilibrium_reaction_energy_per_atom": null, "decomposes_to": null, "xas": null, "grain_boundaries": null, "band_gap": 0.0, "cbm": null, "vbm": null, "efermi": 6.17104751, "is_gap_direct": null, "is_metal": null, "es_source_calc_id": null, "bandstructure": null, "dos": null, "dos_energy_up": null, "dos_energy_down": null, "is_magnetic": null, "ordering": null, "total_magnetization": 0.0, "total_magnetization_normalized_vol": null, "total_magnetization_normalized_formula_units": null, "num_magnetic_sites": null, "num_unique_magnetic_sites": null, "types_of_magnetic_species": null, "bulk_modulus": null, "shear_modulus": null, "universal_anisotropy": null, "homogeneous_poisson": null, "e_total": null, "e_ionic": null, "e_electronic": null, "n": null, "e_ij_max": null, "weighted_surface_energy_EV_PER_ANG2": null, "weighted_surface_energy": null, "weighted_work_function": null, "surface_anisotropy": null, "shape_factor": null, "has_reconstructed": null, "possible_species": null, "has_props": null, "theoretical": null, "database_IDs": null, "fields_not_requested": ["builder_meta", "nsites", "elements", "nelements", "composition", "composition_reduced", "chemsys", "symmetry", "property_name", "deprecated", "deprecation_reasons", "last_updated", "origins", "warnings", "task_ids", "uncorrected_energy_per_atom", "equilibrium_reaction_energy_per_atom", "decomposes_to", "xas", "grain_boundaries", "cbm", "vbm", "is_gap_direct", "is_metal", "es_source_calc_id", "bandstructure", "dos", "dos_energy_up", "dos_energy_down", "is_magnetic", "ordering", "total_magnetization_normalized_vol", "total_magnetization_normalized_formula_units", "num_magnetic_sites", "num_unique_magnetic_sites", "types_of_magnetic_species", "bulk_modulus", "shear_modulus", "universal_anisotropy", "homogeneous_poisson", "e_total", "e_ionic", "e_electronic", "n", "e_ij_max", "weighted_surface_energy_EV_PER_ANG2", "weighted_surface_energy", "weighted_work_function", "surface_anisotropy", "shape_factor", "has_reconstructed", "possible_species", "has_props", "theoretical", "database_IDs"]}