{
  "builder_meta": null,
  "nsites": null,
  "elements": null,
  "nelements": null,
  "composition": null,
  "composition_reduced": null,
  "formula_pretty": "PPd4",
  "formula_anonymous": "AB4",
  "chemsys": null,
  "volume": 223.21591936383865,
  "density": 10.191361985363436,
  "density_atomic": 14.881061290922577,
  "symmetry": null,
  "property_name": null,
  "material_id": "mp-1220003",
  "deprecated": null,
  "deprecation_reasons": null,
  "last_updated": null,
  "origins": null,
  "warnings": null,
  "structure": {
    "@module": "pymatgen.core.structure",
    "@class": "Structure",
    "charge": 0,
    "lattice": {
      "matrix": [
        [7.57092504, 0.0, 0.0],
        [0.0, 5.15822624, -0.011346760000000001],
        [0.0, 0.01682863, 5.71574729]
      ],
      "pbc": [true, true, true],
      "a": 7.57092504,
      "b": 5.158238719949576,
      "c": 5.715772063853668,
      "alpha": 89.95734262983017,
      "beta": 90.0,
      "gamma": 90.0,
      "volume": 223.21591936383865
    },
    "properties": {},
    "sites": [
      {
        "species": [{ "element": "P", "occu": 1 }],
        "abc": [0.5, 0.54548034, 0.87957795],
        "properties": { "magmom": 0.0 },
        "label": "P",
        "xyz": [3.78546252, 2.82851309506883, 5.021255849553557]
      },
      {
        "species": [{ "element": "P", "occu": 1 }],
        "abc": [-0.0, 0.04421871, 0.60833956],
        "properties": { "magmom": 0.0 },
        "label": "P",
        "xyz": [0.0, 0.2383276315905532, 3.476613452379913]
      },
      {
        "species": [{ "element": "P", "occu": 1 }],
        "abc": [-0.0, 0.459154299999999, 0.11592799000000001],
        "properties": { "magmom": -0.0 },
        "label": "P",
        "xyz": [0.0, 2.3703726677191805, 0.6574051810325793]
      },
      {
        "species": [{ "element": "Pd", "occu": 1 }],
        "abc": [0.5, 0.35085627, 0.52141188],
        "properties": { "magmom": -0.0 },
        "label": "Pd",
        "xyz": [3.78546252, 1.8185706659886494, 2.9762774581936204]
      },
      {
        "species": [{ "element": "Pd", "occu": 1 }],
        "abc": [0.5, 0.13412657, 0.03645777],
        "properties": { "magmom": 0.0 },
        "label": "Pd",
        "xyz": [3.78546252, 0.6924687271771519, 0.2068614980775301]
      },
      {
        "species": [{ "element": "Pd", "occu": 1 }],
        "abc": [-0.0, 0.62635774, 0.48498049],
        "properties": { "magmom": 0.0 },
        "label": "Pd",
        "xyz": [0.0, 3.2390564873185266, 2.7649187904704497]
      },
      {
        "species": [{ "element": "Pd", "occu": 1 }],
        "abc": [-0.0, 0.87353882, 0.98177958],
        "properties": { "magmom": -0.0 },
        "label": "Pd",
        "xyz": [0.0, 4.522432868276013, 5.601692138421115]
      },
      {
        "species": [{ "element": "Pd", "occu": 1 }],
        "abc": [0.31635931, 0.83111763, 0.67152678],
        "properties": { "magmom": 0.0 },
        "label": "Pd",
        "xyz": [2.3951326217161224, 4.298393643308324, 3.828846880668048]
      },
      {
        "species": [{ "element": "Pd", "occu": 1 }],
        "abc": [0.6857864100000001, 0.6730402600000001, 0.181511099999999],
        "properties": { "magmom": -0.0 },
        "label": "Pd",
        "xyz": [5.192037503560707, 3.4747485128512157, 1.029834751629356]
      },
      {
        "species": [{ "element": "Pd", "occu": 1 }],
        "abc": [0.80795242, 0.17124044, 0.31808527000000003],
        "properties": { "magmom": 0.0 },
        "label": "Pd",
        "xyz": [6.1169472077065965, 0.8886498702744257, 1.816151995816444]
      },
      {
        "species": [{ "element": "Pd", "occu": 1 }],
        "abc": [0.18985998, 0.32753679, 0.82194025],
        "properties": { "magmom": -0.0 },
        "label": "Pd",
        "xyz": [1.4374156766758992, 1.7033409930927272, 4.694286275132122]
      },
      {
        "species": [{ "element": "Pd", "occu": 1 }],
        "abc": [0.19204758, 0.17124044, 0.31808527000000003],
        "properties": { "magmom": 0.0 },
        "label": "Pd",
        "xyz": [1.4539778322934032, 0.8886498702744257, 1.816151995816444]
      },
      {
        "species": [{ "element": "Pd", "occu": 1 }],
        "abc": [0.8101400200000001, 0.32753679, 0.82194025],
        "properties": { "magmom": -0.0 },
        "label": "Pd",
        "xyz": [6.133509363324101, 1.7033409930927272, 4.694286275132122]
      },
      {
        "species": [{ "element": "Pd", "occu": 1 }],
        "abc": [0.68364069, 0.83111763, 0.67152678],
        "properties": { "magmom": 0.0 },
        "label": "Pd",
        "xyz": [5.175792418283878, 4.298393643308324, 3.828846880668048]
      },
      {
        "species": [{ "element": "Pd", "occu": 1 }],
        "abc": [0.31421359, 0.6730402600000001, 0.181511099999999],
        "properties": { "magmom": -0.0 },
        "label": "Pd",
        "xyz": [2.378887536439293, 3.4747485128512157, 1.029834751629356]
      }
    ]
  },
  "task_ids": null,
  "uncorrected_energy_per_atom": null,
  "energy_per_atom": -5.612241954666668,
  "formation_energy_per_atom": -0.385241801595238,
  "energy_above_hull": 0.016324412999998,
  "is_stable": false,
  "equilibrium_reaction_energy_per_atom": null,
  "decomposes_to": null,
  "xas": null,
  "grain_boundaries": null,
  "band_gap": 0.0,
  "cbm": null,
  "vbm": null,
  "efermi": 5.35613339,
  "is_gap_direct": null,
  "is_metal": null,
  "es_source_calc_id": null,
  "bandstructure": null,
  "dos": null,
  "dos_energy_up": null,
  "dos_energy_down": null,
  "is_magnetic": null,
  "ordering": null,
  "total_magnetization": 0.0,
  "total_magnetization_normalized_vol": null,
  "total_magnetization_normalized_formula_units": null,
  "num_magnetic_sites": null,
  "num_unique_magnetic_sites": null,
  "types_of_magnetic_species": null,
  "bulk_modulus": null,
  "shear_modulus": null,
  "universal_anisotropy": null,
  "homogeneous_poisson": null,
  "e_total": null,
  "e_ionic": null,
  "e_electronic": null,
  "n": null,
  "e_ij_max": null,
  "weighted_surface_energy_EV_PER_ANG2": null,
  "weighted_surface_energy": null,
  "weighted_work_function": null,
  "surface_anisotropy": null,
  "shape_factor": null,
  "has_reconstructed": null,
  "possible_species": null,
  "has_props": null,
  "theoretical": null,
  "database_IDs": null,
  "fields_not_requested": [
    "builder_meta",
    "nsites",
    "elements",
    "nelements",
    "composition",
    "composition_reduced",
    "chemsys",
    "symmetry",
    "property_name",
    "deprecated",
    "deprecation_reasons",
    "last_updated",
    "origins",
    "warnings",
    "task_ids",
    "uncorrected_energy_per_atom",
    "equilibrium_reaction_energy_per_atom",
    "decomposes_to",
    "xas",
    "grain_boundaries",
    "cbm",
    "vbm",
    "is_gap_direct",
    "is_metal",
    "es_source_calc_id",
    "bandstructure",
    "dos",
    "dos_energy_up",
    "dos_energy_down",
    "is_magnetic",
    "ordering",
    "total_magnetization_normalized_vol",
    "total_magnetization_normalized_formula_units",
    "num_magnetic_sites",
    "num_unique_magnetic_sites",
    "types_of_magnetic_species",
    "bulk_modulus",
    "shear_modulus",
    "universal_anisotropy",
    "homogeneous_poisson",
    "e_total",
    "e_ionic",
    "e_electronic",
    "n",
    "e_ij_max",
    "weighted_surface_energy_EV_PER_ANG2",
    "weighted_surface_energy",
    "weighted_work_function",
    "surface_anisotropy",
    "shape_factor",
    "has_reconstructed",
    "possible_species",
    "has_props",
    "theoretical",
    "database_IDs"
  ]
}
