{"builder_meta": null, "nsites": null, "elements": null, "nelements": null, "composition": null, "composition_reduced": null, "formula_pretty": "PPt", "formula_anonymous": "AB", "chemsys": null, "volume": 77.09147991481902, "density": 9.738501466671348, "density_atomic": 19.272869978704755, "symmetry": null, "property_name": null, "material_id": "mp-1186364", "deprecated": null, "deprecation_reasons": null, "last_updated": null, "origins": null, "warnings": null, "structure": {"@module": "pymatgen.core.structure", "@class": "Structure", "charge": 0, "lattice": {"matrix": [[1.871514, -3.241557, 0.0], [1.871514, 3.241557, 0.0], [0.0, 0.0, 6.353743]], "pbc": [true, true, true], "a": 3.7430277098152773, "b": 3.7430277098152773, "c": 6.353743, "alpha": 90.0, "beta": 90.0, "gamma": 119.99999487087234, "volume": 77.09147991481902}, "properties": {}, "sites": [{"species": [{"element": "P", "occu": 1}], "abc": [0.0, 0.0, 0.003103], "properties": {"magmom": 0.006}, "label": "P", "xyz": [0.0, 0.0, 0.019715664528999997]}, {"species": [{"element": "P", "occu": 1}], "abc": [0.333333999999999, 0.666666, 0.503101999999999], "properties": {"magmom": -0.006}, "label": "P", "xyz": [1.8715139999999981, 1.0805146779240031, 3.196580810785994]}, {"species": [{"element": "Pt", "occu": 1}], "abc": [0.0, 0.0, 0.371899], "properties": {"magmom": 0.011}, "label": "Pt", "xyz": [0.0, 0.0, 2.3629506679569996]}, {"species": [{"element": "Pt", "occu": 1}], "abc": [0.333333999999999, 0.666666, 0.871899], "properties": {"magmom": -0.012}, "label": "Pt", "xyz": [1.8715139999999981, 1.0805146779240031, 5.539822167956999]}]}, "task_ids": null, "uncorrected_energy_per_atom": null, "energy_per_atom": -30.647446279687497, "formation_energy_per_atom": -0.40254967367559, "energy_above_hull": 0.23619750250000102, "is_stable": false, "equilibrium_reaction_energy_per_atom": null, "decomposes_to": null, "xas": null, "grain_boundaries": null, "band_gap": 0.0, "cbm": null, "vbm": null, "efermi": 5.7402166900000005, "is_gap_direct": null, "is_metal": null, "es_source_calc_id": null, "bandstructure": null, "dos": null, "dos_energy_up": null, "dos_energy_down": null, "is_magnetic": null, "ordering": null, "total_magnetization": 0.0020181, "total_magnetization_normalized_vol": null, "total_magnetization_normalized_formula_units": null, "num_magnetic_sites": null, "num_unique_magnetic_sites": null, "types_of_magnetic_species": null, "bulk_modulus": null, "shear_modulus": null, "universal_anisotropy": null, "homogeneous_poisson": null, "e_total": null, "e_ionic": null, "e_electronic": null, "n": null, "e_ij_max": null, "weighted_surface_energy_EV_PER_ANG2": null, "weighted_surface_energy": null, "weighted_work_function": null, "surface_anisotropy": null, "shape_factor": null, "has_reconstructed": null, "possible_species": null, "has_props": null, "theoretical": null, "database_IDs": null, "fields_not_requested": ["builder_meta", "nsites", "elements", "nelements", "composition", "composition_reduced", "chemsys", "symmetry", "property_name", "deprecated", "deprecation_reasons", "last_updated", "origins", "warnings", "task_ids", "uncorrected_energy_per_atom", "equilibrium_reaction_energy_per_atom", "decomposes_to", "xas", "grain_boundaries", "cbm", "vbm", "is_gap_direct", "is_metal", "es_source_calc_id", "bandstructure", "dos", "dos_energy_up", "dos_energy_down", "is_magnetic", "ordering", "total_magnetization_normalized_vol", "total_magnetization_normalized_formula_units", "num_magnetic_sites", "num_unique_magnetic_sites", "types_of_magnetic_species", "bulk_modulus", "shear_modulus", "universal_anisotropy", "homogeneous_poisson", "e_total", "e_ionic", "e_electronic", "n", "e_ij_max", "weighted_surface_energy_EV_PER_ANG2", "weighted_surface_energy", "weighted_work_function", "surface_anisotropy", "shape_factor", "has_reconstructed", "possible_species", "has_props", "theoretical", "database_IDs"]}