{
  "builder_meta": null,
  "nsites": null,
  "elements": null,
  "nelements": null,
  "composition": null,
  "composition_reduced": null,
  "formula_pretty": "Pr2Al",
  "formula_anonymous": "AB2",
  "chemsys": null,
  "volume": 358.40866951871436,
  "density": 5.722732263440413,
  "density_atomic": 29.86738912655953,
  "symmetry": null,
  "property_name": null,
  "material_id": "mp-1103225",
  "deprecated": null,
  "deprecation_reasons": null,
  "last_updated": null,
  "origins": null,
  "warnings": null,
  "structure": {
    "@module": "pymatgen.core.structure",
    "@class": "Structure",
    "charge": 0,
    "lattice": {
      "matrix": [
        [5.29691081, 0.0, 0.0],
        [0.0, 6.79900376, 2.839e-5],
        [0.0, 4.2420000000000004e-5, 9.95200452]
      ],
      "pbc": [true, true, true],
      "a": 5.29691081,
      "b": 6.799003760059272,
      "c": 9.952004520090405,
      "alpha": 89.99951653422337,
      "beta": 90.0,
      "gamma": 90.0,
      "volume": 358.40866951871436
    },
    "properties": {},
    "sites": [
      {
        "species": [{ "element": "Pr", "occu": 1 }],
        "abc": [0.25, 0.805196199999999, 0.92090302],
        "properties": { "magmom": 0.0 },
        "label": "Pr",
        "xyz": [1.3242277025, 5.474571056043813, 9.164853877041768]
      },
      {
        "species": [{ "element": "Pr", "occu": 1 }],
        "abc": [0.25, 0.30524635, 0.57914369],
        "properties": { "magmom": -0.0 },
        "label": "Pr",
        "xyz": [1.3242277025, 2.0753956486516056, 5.763649286553354]
      },
      {
        "species": [{ "element": "Pr", "occu": 1 }],
        "abc": [0.75, 0.19480634, 0.07891186],
        "properties": { "magmom": 0.0 },
        "label": "Pr",
        "xyz": [3.9726831075, 1.3244923855729396, 0.7853367179535997]
      },
      {
        "species": [{ "element": "Pr", "occu": 1 }],
        "abc": [0.75, 0.69475518, 0.42104403],
        "properties": { "magmom": -0.0 },
        "label": "Pr",
        "xyz": [3.9726831075, 4.723660941787229, 4.190251813778575]
      },
      {
        "species": [{ "element": "Pr", "occu": 1 }],
        "abc": [0.25, 0.9761397700000001, 0.29918129],
        "properties": { "magmom": -0.0 },
        "label": "Pr",
        "xyz": [1.3242277025, 6.636790657785857, 2.9774812629875007]
      },
      {
        "species": [{ "element": "Pr", "occu": 1 }],
        "abc": [0.25, 0.47615362, 0.20062616],
        "properties": { "magmom": 0.0 },
        "label": "Pr",
        "xyz": [1.3242277025, 3.2373787632793185, 1.9966459691515146]
      },
      {
        "species": [{ "element": "Pr", "occu": 1 }],
        "abc": [0.75, 0.02385581, 0.70087717],
        "properties": { "magmom": -0.0 },
        "label": "Pr",
        "xyz": [3.9726831075, 0.16222547309739702, 6.975133441071254]
      },
      {
        "species": [{ "element": "Pr", "occu": 1 }],
        "abc": [0.75, 0.52384144, 0.79931253],
        "properties": { "magmom": 0.0 },
        "label": "Pr",
        "xyz": [3.9726831075, 3.561633827041337, 7.954776783311117]
      },
      {
        "species": [{ "element": "Al", "occu": 1 }],
        "abc": [0.25, 0.28752531, 0.89809889],
        "properties": { "magmom": -0.0 },
        "label": "Al",
        "xyz": [1.3242277025, 1.9549237611400794, 8.937892375530533]
      },
      {
        "species": [{ "element": "Al", "occu": 1 }],
        "abc": [0.25, 0.7875705, 0.60190521],
        "properties": { "magmom": 0.0 },
        "label": "Al",
        "xyz": [1.3242277025, 5.354720323584088, 5.990185729658044]
      },
      {
        "species": [{ "element": "Al", "occu": 1 }],
        "abc": [0.75, 0.71247642, 0.10185304],
        "properties": { "magmom": 0.0 },
        "label": "Al",
        "xyz": [3.9726831075, 4.844134179097296, 1.0136621416613045]
      },
      {
        "species": [{ "element": "Al", "occu": 1 }],
        "abc": [0.75, 0.21243106, 0.39814211],
        "properties": { "magmom": 0.0 },
        "label": "Al",
        "xyz": [3.9726831075, 1.4443364648690917, 3.9623181092401305]
      }
    ]
  },
  "task_ids": null,
  "uncorrected_energy_per_atom": null,
  "energy_per_atom": -22.12089542833333,
  "formation_energy_per_atom": -0.274225072777772,
  "energy_above_hull": 0.019855749444449,
  "is_stable": false,
  "equilibrium_reaction_energy_per_atom": null,
  "decomposes_to": null,
  "xas": null,
  "grain_boundaries": null,
  "band_gap": 0.0,
  "cbm": null,
  "vbm": null,
  "efermi": 4.1569396,
  "is_gap_direct": null,
  "is_metal": null,
  "es_source_calc_id": null,
  "bandstructure": null,
  "dos": null,
  "dos_energy_up": null,
  "dos_energy_down": null,
  "is_magnetic": null,
  "ordering": null,
  "total_magnetization": 5.099999999999999e-6,
  "total_magnetization_normalized_vol": null,
  "total_magnetization_normalized_formula_units": null,
  "num_magnetic_sites": null,
  "num_unique_magnetic_sites": null,
  "types_of_magnetic_species": null,
  "bulk_modulus": null,
  "shear_modulus": null,
  "universal_anisotropy": null,
  "homogeneous_poisson": null,
  "e_total": null,
  "e_ionic": null,
  "e_electronic": null,
  "n": null,
  "e_ij_max": null,
  "weighted_surface_energy_EV_PER_ANG2": null,
  "weighted_surface_energy": null,
  "weighted_work_function": null,
  "surface_anisotropy": null,
  "shape_factor": null,
  "has_reconstructed": null,
  "possible_species": null,
  "has_props": null,
  "theoretical": null,
  "database_IDs": null,
  "fields_not_requested": [
    "builder_meta",
    "nsites",
    "elements",
    "nelements",
    "composition",
    "composition_reduced",
    "chemsys",
    "symmetry",
    "property_name",
    "deprecated",
    "deprecation_reasons",
    "last_updated",
    "origins",
    "warnings",
    "task_ids",
    "uncorrected_energy_per_atom",
    "equilibrium_reaction_energy_per_atom",
    "decomposes_to",
    "xas",
    "grain_boundaries",
    "cbm",
    "vbm",
    "is_gap_direct",
    "is_metal",
    "es_source_calc_id",
    "bandstructure",
    "dos",
    "dos_energy_up",
    "dos_energy_down",
    "is_magnetic",
    "ordering",
    "total_magnetization_normalized_vol",
    "total_magnetization_normalized_formula_units",
    "num_magnetic_sites",
    "num_unique_magnetic_sites",
    "types_of_magnetic_species",
    "bulk_modulus",
    "shear_modulus",
    "universal_anisotropy",
    "homogeneous_poisson",
    "e_total",
    "e_ionic",
    "e_electronic",
    "n",
    "e_ij_max",
    "weighted_surface_energy_EV_PER_ANG2",
    "weighted_surface_energy",
    "weighted_work_function",
    "surface_anisotropy",
    "shape_factor",
    "has_reconstructed",
    "possible_species",
    "has_props",
    "theoretical",
    "database_IDs"
  ]
}
