{
  "builder_meta": null,
  "nsites": null,
  "elements": null,
  "nelements": null,
  "composition": null,
  "composition_reduced": null,
  "formula_pretty": "Pr2Au",
  "formula_anonymous": "AB2",
  "chemsys": null,
  "volume": 354.89659609828647,
  "density": 8.960762166725125,
  "density_atomic": 29.57471634152387,
  "symmetry": null,
  "property_name": null,
  "material_id": "mp-2714",
  "deprecated": null,
  "deprecation_reasons": null,
  "last_updated": null,
  "origins": null,
  "warnings": null,
  "structure": {
    "@module": "pymatgen.core.structure",
    "@class": "Structure",
    "charge": 0,
    "lattice": {
      "matrix": [
        [5.13435636, -0.0, 0.0],
        [-0.0, 7.37021731, 0.0],
        [0.0, 0.0, 9.37854642]
      ],
      "pbc": [true, true, true],
      "a": 5.13435636,
      "b": 7.37021731,
      "c": 9.37854642,
      "alpha": 90.0,
      "beta": 90.0,
      "gamma": 90.0,
      "volume": 354.89659609828647
    },
    "properties": {},
    "sites": [
      {
        "species": [{ "element": "Pr", "occu": 1 }],
        "abc": [0.25, 0.99682647, 0.67264369],
        "properties": { "magmom": -0.0 },
        "label": "Pr",
        "xyz": [1.28358909, 7.346827704260196, 6.30842007078509]
      },
      {
        "species": [{ "element": "Pr", "occu": 1 }],
        "abc": [0.75, 0.00317353, 0.32735631],
        "properties": { "magmom": -0.0 },
        "label": "Pr",
        "xyz": [3.85076727, 0.0233896057398043, 3.07012634921491]
      },
      {
        "species": [{ "element": "Pr", "occu": 1 }],
        "abc": [0.25, 0.49682647, 0.82735631],
        "properties": { "magmom": -0.0 },
        "label": "Pr",
        "xyz": [1.28358909, 3.661719049260196, 7.759399559214909]
      },
      {
        "species": [{ "element": "Pr", "occu": 1 }],
        "abc": [0.75, 0.50317353, 0.17264369000000002],
        "properties": { "magmom": -0.0 },
        "label": "Pr",
        "xyz": [3.85076727, 3.708498260739804, 1.6191468607850898]
      },
      {
        "species": [{ "element": "Pr", "occu": 1 }],
        "abc": [0.75, 0.14841714, 0.91030552],
        "properties": { "magmom": 0.0 },
        "label": "Pr",
        "xyz": [3.85076727, 1.0938665743286935, 8.537342575702237]
      },
      {
        "species": [{ "element": "Pr", "occu": 1 }],
        "abc": [0.25, 0.85158286, 0.08969448000000001],
        "properties": { "magmom": 0.0 },
        "label": "Pr",
        "xyz": [1.28358909, 6.276350735671307, 0.8412038442977616]
      },
      {
        "species": [{ "element": "Pr", "occu": 1 }],
        "abc": [0.75, 0.6484171400000001, 0.58969448],
        "properties": { "magmom": 0.0 },
        "label": "Pr",
        "xyz": [3.85076727, 4.778975229328694, 5.530477054297761]
      },
      {
        "species": [{ "element": "Pr", "occu": 1 }],
        "abc": [0.25, 0.35158286, 0.41030552000000003],
        "properties": { "magmom": 0.0 },
        "label": "Pr",
        "xyz": [1.28358909, 2.591242080671307, 3.8480693657022385]
      },
      {
        "species": [{ "element": "Au", "occu": 1 }],
        "abc": [0.25, 0.7583440300000001, 0.40661633],
        "properties": { "magmom": 0.0 },
        "label": "Au",
        "xyz": [1.28358909, 5.58916029684116, 3.8134701260350385]
      },
      {
        "species": [{ "element": "Au", "occu": 1 }],
        "abc": [0.75, 0.24165597, 0.59338367],
        "properties": { "magmom": 0.0 },
        "label": "Au",
        "xyz": [3.85076727, 1.7810570131588408, 5.565076293964961]
      },
      {
        "species": [{ "element": "Au", "occu": 1 }],
        "abc": [0.25, 0.25834403, 0.09338367],
        "properties": { "magmom": 0.0 },
        "label": "Au",
        "xyz": [1.28358909, 1.9040516418411593, 0.8758030839649613]
      },
      {
        "species": [{ "element": "Au", "occu": 1 }],
        "abc": [0.75, 0.74165597, 0.90661633],
        "properties": { "magmom": 0.0 },
        "label": "Au",
        "xyz": [3.85076727, 5.466165668158841, 8.502743336035037]
      }
    ]
  },
  "task_ids": null,
  "uncorrected_energy_per_atom": null,
  "energy_per_atom": -4.8163924133333325,
  "formation_energy_per_atom": -0.528117441111109,
  "energy_above_hull": 0.0,
  "is_stable": true,
  "equilibrium_reaction_energy_per_atom": null,
  "decomposes_to": null,
  "xas": null,
  "grain_boundaries": null,
  "band_gap": 0.0,
  "cbm": null,
  "vbm": null,
  "efermi": 4.13685706,
  "is_gap_direct": null,
  "is_metal": null,
  "es_source_calc_id": null,
  "bandstructure": null,
  "dos": null,
  "dos_energy_up": null,
  "dos_energy_down": null,
  "is_magnetic": null,
  "ordering": null,
  "total_magnetization": 3e-7,
  "total_magnetization_normalized_vol": null,
  "total_magnetization_normalized_formula_units": null,
  "num_magnetic_sites": null,
  "num_unique_magnetic_sites": null,
  "types_of_magnetic_species": null,
  "bulk_modulus": null,
  "shear_modulus": null,
  "universal_anisotropy": null,
  "homogeneous_poisson": null,
  "e_total": null,
  "e_ionic": null,
  "e_electronic": null,
  "n": null,
  "e_ij_max": null,
  "weighted_surface_energy_EV_PER_ANG2": null,
  "weighted_surface_energy": null,
  "weighted_work_function": null,
  "surface_anisotropy": null,
  "shape_factor": null,
  "has_reconstructed": null,
  "possible_species": null,
  "has_props": null,
  "theoretical": null,
  "database_IDs": null,
  "fields_not_requested": [
    "builder_meta",
    "nsites",
    "elements",
    "nelements",
    "composition",
    "composition_reduced",
    "chemsys",
    "symmetry",
    "property_name",
    "deprecated",
    "deprecation_reasons",
    "last_updated",
    "origins",
    "warnings",
    "task_ids",
    "uncorrected_energy_per_atom",
    "equilibrium_reaction_energy_per_atom",
    "decomposes_to",
    "xas",
    "grain_boundaries",
    "cbm",
    "vbm",
    "is_gap_direct",
    "is_metal",
    "es_source_calc_id",
    "bandstructure",
    "dos",
    "dos_energy_up",
    "dos_energy_down",
    "is_magnetic",
    "ordering",
    "total_magnetization_normalized_vol",
    "total_magnetization_normalized_formula_units",
    "num_magnetic_sites",
    "num_unique_magnetic_sites",
    "types_of_magnetic_species",
    "bulk_modulus",
    "shear_modulus",
    "universal_anisotropy",
    "homogeneous_poisson",
    "e_total",
    "e_ionic",
    "e_electronic",
    "n",
    "e_ij_max",
    "weighted_surface_energy_EV_PER_ANG2",
    "weighted_surface_energy",
    "weighted_work_function",
    "surface_anisotropy",
    "shape_factor",
    "has_reconstructed",
    "possible_species",
    "has_props",
    "theoretical",
    "database_IDs"
  ]
}
