{"builder_meta": null, "nsites": null, "elements": null, "nelements": null, "composition": null, "composition_reduced": null, "formula_pretty": "Pr2B5", "formula_anonymous": "A2B5", "chemsys": null, "volume": 390.6325490344928, "density": 5.711001357558811, "density_atomic": 13.9511624655176, "symmetry": null, "property_name": null, "material_id": "mp-16713", "deprecated": null, "deprecation_reasons": null, "last_updated": null, "origins": null, "warnings": null, "structure": {"@module": "pymatgen.core.structure", "@class": "Structure", "charge": 0, "lattice": {"matrix": [[6.61768929, -0.0, -3.17655936], [-1.08121384, 6.94148508, -2.25247926], [0.01117766, -0.016222010000000002, 8.50484532]], "pbc": [true, true, true], "a": 7.340595405454813, "b": 7.377459000252071, "c": 8.504868136004074, "alpha": 107.89692660457399, "beta": 115.56613592266812, "gamma": 90.0000033566115, "volume": 390.6325490344928}, "properties": {}, "sites": [{"species": [{"element": "Pr", "occu": 1}], "abc": [0.81765533, 0.77908917, 0.76349919], "properties": {"magmom": -0.054}, "label": "Pr", "xyz": [4.577161061410399, 5.395650358049411, 2.1412296240142874]}, {"species": [{"element": "Pr", "occu": 1}], "abc": [0.054155140000000004, 0.72091083, 0.23650081], "properties": {"magmom": -0.054}, "label": "Pr", "xyz": [-0.41843335118153197, 5.000355251950588, 0.21553909736121302]}, {"species": [{"element": "Pr", "occu": 1}], "abc": [0.18234467000000001, 0.22091083, 0.23650081], "properties": {"magmom": -0.054}, "label": "Pr", "xyz": [0.9704920485896018, 1.5296127119505882, 0.9345770759857122]}, {"species": [{"element": "Pr", "occu": 1}], "abc": [0.94584486, 0.27908917, 0.76349919], "properties": {"magmom": -0.054}, "label": "Pr", "xyz": [5.966086461181533, 1.9249078180494115, 2.8602676026387868]}, {"species": [{"element": "Pr", "occu": 1}], "abc": [0.30934466, 0.9075247, 0.76398256], "properties": {"magmom": -0.025}, "label": "Pr", "xyz": [1.0744581149204533, 6.28717583205333, 3.470721260100879]}, {"species": [{"element": "Pr", "occu": 1}], "abc": [0.5453621, 0.592475299999999, 0.23601744], "properties": {"magmom": -0.025}, "label": "Pr", "xyz": [2.9710825568221484, 4.108829777946663, -1.0596215886341511]}, {"species": [{"element": "Pr", "occu": 1}], "abc": [0.6906553400000001, 0.0924753, 0.23601744], "properties": {"magmom": -0.025}, "label": "Pr", "xyz": [4.473194995079547, 0.6380872379466695, -0.39491456010088033]}, {"species": [{"element": "Pr", "occu": 1}], "abc": [0.4546379, 0.407524699999999, 0.76398256], "properties": {"magmom": -0.025}, "label": "Pr", "xyz": [2.576570553177854, 2.8164332920533233, 4.135428288634154]}, {"species": [{"element": "B", "occu": 1}], "abc": [0.28849857, 0.84783812, 0.08762654], "properties": {"magmom": 0.011}, "label": "B", "xyz": [0.993479047116831, 5.883834181627104, -2.0809204453907135]}, {"species": [{"element": "B", "occu": 1}], "abc": [0.20087104, 0.65216188, 0.91237346], "properties": {"magmom": 0.011}, "label": "B", "xyz": [0.6343738798316461, 4.512171428372896, 5.6525352602456636]}, {"species": [{"element": "B", "occu": 1}], "abc": [0.71150143, 0.15216188, 0.91237346], "properties": {"magmom": 0.011}, "label": "B", "xyz": [4.554174062883169, 1.0414288883728957, 5.156727145390713]}, {"species": [{"element": "B", "occu": 1}], "abc": [0.79912896, 0.34783812000000003, 0.08762654], "properties": {"magmom": 0.011}, "label": "B", "xyz": [4.913279230168355, 2.4130916416271044, -2.576728560245664]}, {"species": [{"element": "B", "occu": 1}], "abc": [0.09386652000000001, 0.09367611, 0.50092556], "properties": {"magmom": 0.001}, "label": "B", "xyz": [0.5254947330791981, 0.6421253004738632, 3.7511183370052725]}, {"species": [{"element": "B", "occu": 1}], "abc": [0.59293996, 0.40632389, 0.49907444], "properties": {"magmom": 0.001}, "label": "B", "xyz": [3.490147893919401, 2.8123952295261367, 1.4458058004420735]}, {"species": [{"element": "B", "occu": 1}], "abc": [0.90613348, 0.90632389, 0.49907444], "properties": {"magmom": 0.001}, "label": "B", "xyz": [5.022158376920802, 6.283137769526137, -0.6753116370052732]}, {"species": [{"element": "B", "occu": 1}], "abc": [0.40706004, 0.59367611, 0.50092556], "properties": {"magmom": 0.001}, "label": "B", "xyz": [2.057505216080599, 4.112867840473863, 1.6300008995579254]}, {"species": [{"element": "B", "occu": 1}], "abc": [0.53908291, 0.16955576, 0.49775054], "properties": {"magmom": 0.002}, "label": "B", "xyz": [3.3897208518662523, 1.1688942640306752, 2.138941654256397]}, {"species": [{"element": "B", "occu": 1}], "abc": [0.04133437, 0.33044424, 0.50224946], "properties": {"magmom": 0.002}, "label": "B", "xyz": [-0.07812889427932065, 2.2856262659693245, 3.395934092253862]}, {"species": [{"element": "B", "occu": 1}], "abc": [0.46091709000000003, 0.8304442400000001, 0.50224946], "properties": {"magmom": 0.002}, "label": "B", "xyz": [2.1579322581337483, 5.756368805969325, 0.9368650457436023]}, {"species": [{"element": "B", "occu": 1}], "abc": [0.95866563, 0.66955576, 0.49775054], "properties": {"magmom": 0.002}, "label": "B", "xyz": [5.625782004279322, 4.639636804030675, -0.32012739225386255]}, {"species": [{"element": "B", "occu": 1}], "abc": [0.67038889, 0.95959328, 0.49949133], "properties": {"magmom": 0.001}, "label": "B", "xyz": [3.404482986640681, 6.652899682638089, -0.0428975642738072]}, {"species": [{"element": "B", "occu": 1}], "abc": [0.17089556, 0.54040672, 0.50050867], "properties": {"magmom": 0.001}, "label": "B", "xyz": [0.5522330079678599, 3.743105927361911, 2.496634000203855]}, {"species": [{"element": "B", "occu": 1}], "abc": [0.32961111, 0.04040672, 0.50050867], "properties": {"magmom": 0.001}, "label": "B", "xyz": [2.1431701233593192, 0.2723633873619109, 3.1187042642738074]}, {"species": [{"element": "B", "occu": 1}], "abc": [0.82910444, 0.45959328, 0.49949133], "properties": {"magmom": 0.001}, "label": "B", "xyz": [4.99542010203214, 3.1821571426380886, 0.5791726997961439]}, {"species": [{"element": "B", "occu": 1}], "abc": [0.58992886, 0.06287083, 0.6789257200000001], "properties": {"magmom": 0.002}, "label": "B", "xyz": [3.8435778880190377, 0.4254033885931192, 3.7585989497685146]}, {"species": [{"element": "B", "occu": 1}], "abc": [0.91100314, 0.43712917, 0.32107428], "properties": {"magmom": 0.002}, "label": "B", "xyz": [5.559694473399243, 3.0291171414068807, -1.1477928530920356]}, {"species": [{"element": "B", "occu": 1}], "abc": [0.41007114, 0.9371291700000001, 0.32107428], "properties": {"magmom": 0.002}, "label": "B", "xyz": [1.704075221980963, 6.499859681406881, -0.6827922497685157]}, {"species": [{"element": "B", "occu": 1}], "abc": [0.08899686, 0.56287083, 0.6789257200000001], "properties": {"magmom": 0.002}, "label": "B", "xyz": [-0.012041363399242645, 3.8961459285931195, 4.2235995530920345]}]}, "task_ids": null, "uncorrected_energy_per_atom": null, "energy_per_atom": -14.1954569775, "formation_energy_per_atom": -0.5469307311904731, "energy_above_hull": 0.0, "is_stable": true, "equilibrium_reaction_energy_per_atom": null, "decomposes_to": null, "xas": null, "grain_boundaries": null, "band_gap": 0.0, "cbm": null, "vbm": null, "efermi": 5.09814407, "is_gap_direct": null, "is_metal": null, "es_source_calc_id": null, "bandstructure": null, "dos": null, "dos_energy_up": null, "dos_energy_down": null, "is_magnetic": null, "ordering": null, "total_magnetization": 1.0292141, "total_magnetization_normalized_vol": null, "total_magnetization_normalized_formula_units": null, "num_magnetic_sites": null, "num_unique_magnetic_sites": null, "types_of_magnetic_species": null, "bulk_modulus": null, "shear_modulus": null, "universal_anisotropy": null, "homogeneous_poisson": null, "e_total": null, "e_ionic": null, "e_electronic": null, "n": null, "e_ij_max": null, "weighted_surface_energy_EV_PER_ANG2": null, "weighted_surface_energy": null, "weighted_work_function": null, "surface_anisotropy": null, "shape_factor": null, "has_reconstructed": null, "possible_species": null, "has_props": null, "theoretical": null, "database_IDs": null, "fields_not_requested": ["builder_meta", "nsites", "elements", "nelements", "composition", "composition_reduced", "chemsys", "symmetry", "property_name", "deprecated", "deprecation_reasons", "last_updated", "origins", "warnings", "task_ids", "uncorrected_energy_per_atom", "equilibrium_reaction_energy_per_atom", "decomposes_to", "xas", "grain_boundaries", "cbm", "vbm", "is_gap_direct", "is_metal", "es_source_calc_id", "bandstructure", "dos", "dos_energy_up", "dos_energy_down", "is_magnetic", "ordering", "total_magnetization_normalized_vol", "total_magnetization_normalized_formula_units", "num_magnetic_sites", "num_unique_magnetic_sites", "types_of_magnetic_species", "bulk_modulus", "shear_modulus", "universal_anisotropy", "homogeneous_poisson", "e_total", "e_ionic", "e_electronic", "n", "e_ij_max", "weighted_surface_energy_EV_PER_ANG2", "weighted_surface_energy", "weighted_work_function", "surface_anisotropy", "shape_factor", "has_reconstructed", "possible_species", "has_props", "theoretical", "database_IDs"]}