{"builder_meta": null, "nsites": null, "elements": null, "nelements": null, "composition": null, "composition_reduced": null, "formula_pretty": "Pr2Br5", "formula_anonymous": "A2B5", "chemsys": null, "volume": 450.45041546647974, "density": 5.023344831115257, "density_atomic": 32.175029676177125, "symmetry": null, "property_name": null, "material_id": "mp-23169", "deprecated": null, "deprecation_reasons": null, "last_updated": null, "origins": null, "warnings": null, "structure": {"@module": "pymatgen.core.structure", "@class": "Structure", "charge": 0, "lattice": {"matrix": [[4.20518785, 0.0, 0.0], [0.0, 7.93609921, -0.08158981], [0.0, 0.06520773, 13.49686586]], "pbc": [true, true, true], "a": 4.20518785, "b": 7.936518605034481, "c": 13.497023378911562, "alpha": 90.31221599341387, "beta": 90.0, "gamma": 90.0, "volume": 450.45041546647974}, "properties": {}, "sites": [{"species": [{"element": "Pr", "occu": 1}], "abc": [0.25, 0.92059994, 0.15973924], "properties": {"magmom": 0.197}, "label": "Pr", "xyz": [1.0512969625, 7.3163886897923724, 2.080867520667735]}, {"species": [{"element": "Pr", "occu": 1}], "abc": [0.75, 0.07940006000000001, 0.84026076], "properties": {"magmom": 0.197}, "label": "Pr", "xyz": [3.1538908875, 0.6849182502076275, 11.334408529332265]}, {"species": [{"element": "Pr", "occu": 1}], "abc": [0.25, 0.42379025000000003, 0.65899718], "properties": {"magmom": 0.221}, "label": "Pr", "xyz": [1.0512969625, 3.4062131784149043, 8.859819574600921]}, {"species": [{"element": "Pr", "occu": 1}], "abc": [0.75, 0.57620975, 0.34100282], "properties": {"magmom": 0.221}, "label": "Pr", "xyz": [3.1538908875, 4.595093761585096, 4.555456475399077]}, {"species": [{"element": "Br", "occu": 1}], "abc": [0.25, 0.33512898, 0.27323814], "properties": {"magmom": 0.01}, "label": "Br", "xyz": [1.0512969625, 2.677434072284928, 3.660515413612207]}, {"species": [{"element": "Br", "occu": 1}], "abc": [0.75, 0.66487102, 0.72676186], "properties": {"magmom": 0.01}, "label": "Br", "xyz": [3.1538908875, 5.323872867715072, 9.754760636387793]}, {"species": [{"element": "Br", "occu": 1}], "abc": [0.25, 0.852693399999999, 0.93014613], "properties": {"magmom": 0.005}, "label": "Br", "xyz": [1.0512969625, 6.827712135817792, 12.484486454313869]}, {"species": [{"element": "Br", "occu": 1}], "abc": [0.75, 0.147306599999999, 0.06985387], "properties": {"magmom": 0.005}, "label": "Br", "xyz": [3.1538908875, 1.1735948041821933, 0.9307895956861323]}, {"species": [{"element": "Br", "occu": 1}], "abc": [0.75, 0.3096733, 0.51140956], "properties": {"magmom": 0.008}, "label": "Br", "xyz": [3.1538908875, 2.490945887995992, 6.877160045132549]}, {"species": [{"element": "Br", "occu": 1}], "abc": [0.25, 0.6903267, 0.48859044], "properties": {"magmom": 0.008}, "label": "Br", "xyz": [1.0512969625, 5.510361052004009, 6.538116004867451]}, {"species": [{"element": "Br", "occu": 1}], "abc": [0.75, 0.9535987300000001, 0.31991451], "properties": {"magmom": 0.008}, "label": "Br", "xyz": [3.1538908875, 7.588715026801166, 4.240039288940688]}, {"species": [{"element": "Br", "occu": 1}], "abc": [0.25, 0.04640127, 0.68008449], "properties": {"magmom": 0.008}, "label": "Br", "xyz": [1.0512969625, 0.41259184799110443, 9.175223264193454]}, {"species": [{"element": "Br", "occu": 1}], "abc": [0.75, 0.65074739, 0.12063719], "properties": {"magmom": 0.007}, "label": "Br", "xyz": [3.1538908875, 5.17226232500204, 1.5751296152492376]}, {"species": [{"element": "Br", "occu": 1}], "abc": [0.25, 0.34925261, 0.87936281], "properties": {"magmom": 0.007}, "label": "Br", "xyz": [1.0512969625, 2.8290446149979593, 11.840146434750762]}]}, "task_ids": null, "uncorrected_energy_per_atom": null, "energy_per_atom": -4.7658429364285695, "formation_energy_per_atom": -2.226460709047617, "energy_above_hull": 0.0, "is_stable": true, "equilibrium_reaction_energy_per_atom": null, "decomposes_to": null, "xas": null, "grain_boundaries": null, "band_gap": 0.281699999999999, "cbm": null, "vbm": null, "efermi": 2.672309519999999, "is_gap_direct": null, "is_metal": null, "es_source_calc_id": null, "bandstructure": null, "dos": null, "dos_energy_up": null, "dos_energy_down": null, "is_magnetic": null, "ordering": null, "total_magnetization": 1.9995215, "total_magnetization_normalized_vol": null, "total_magnetization_normalized_formula_units": null, "num_magnetic_sites": null, "num_unique_magnetic_sites": null, "types_of_magnetic_species": null, "bulk_modulus": null, "shear_modulus": null, "universal_anisotropy": null, "homogeneous_poisson": null, "e_total": null, "e_ionic": null, "e_electronic": null, "n": null, "e_ij_max": null, "weighted_surface_energy_EV_PER_ANG2": null, "weighted_surface_energy": null, "weighted_work_function": null, "surface_anisotropy": null, "shape_factor": null, "has_reconstructed": null, "possible_species": null, "has_props": null, "theoretical": null, "database_IDs": null, "fields_not_requested": ["builder_meta", "nsites", "elements", "nelements", "composition", "composition_reduced", "chemsys", "symmetry", "property_name", "deprecated", "deprecation_reasons", "last_updated", "origins", "warnings", "task_ids", "uncorrected_energy_per_atom", "equilibrium_reaction_energy_per_atom", "decomposes_to", "xas", "grain_boundaries", "cbm", "vbm", "is_gap_direct", "is_metal", "es_source_calc_id", "bandstructure", "dos", "dos_energy_up", "dos_energy_down", "is_magnetic", "ordering", "total_magnetization_normalized_vol", "total_magnetization_normalized_formula_units", "num_magnetic_sites", "num_unique_magnetic_sites", "types_of_magnetic_species", "bulk_modulus", "shear_modulus", "universal_anisotropy", "homogeneous_poisson", "e_total", "e_ionic", "e_electronic", "n", "e_ij_max", "weighted_surface_energy_EV_PER_ANG2", "weighted_surface_energy", "weighted_work_function", "surface_anisotropy", "shape_factor", "has_reconstructed", "possible_species", "has_props", "theoretical", "database_IDs"]}