{"builder_meta": null, "nsites": null, "elements": null, "nelements": null, "composition": null, "composition_reduced": null, "formula_pretty": "Pr2Bi", "formula_anonymous": "AB2", "chemsys": null, "volume": 199.56376637938607, "density": 8.167669395655157, "density_atomic": 33.26062772989768, "symmetry": null, "property_name": null, "material_id": "mp-1077777", "deprecated": null, "deprecation_reasons": null, "last_updated": null, "origins": null, "warnings": null, "structure": {"@module": "pymatgen.core.structure", "@class": "Structure", "charge": 0, "lattice": {"matrix": [[-2.33290446, 2.33290446, 9.16701187], [2.33290446, -2.33290446, 9.16701187], [2.33290446, 2.33290446, -9.16701187]], "pbc": [true, true, true], "a": 9.742637890412261, "b": 9.742637890412261, "c": 9.742637890412261, "alpha": 152.2914763839795, "beta": 152.2914763839795, "gamma": 39.587802229458255, "volume": 199.56376637938607}, "properties": {}, "sites": [{"species": [{"element": "Pr", "occu": 1}], "abc": [-0.0, 0.5, 0.5], "properties": {"magmom": -0.279}, "label": "Pr", "xyz": [2.33290446, 0.0, 0.0]}, {"species": [{"element": "Pr", "occu": 1}], "abc": [0.5, -0.0, 0.5], "properties": {"magmom": -0.279}, "label": "Pr", "xyz": [0.0, 2.33290446, 0.0]}, {"species": [{"element": "Pr", "occu": 1}], "abc": [0.68002019, 0.68002019, -0.0], "properties": {"magmom": -0.163}, "label": "Pr", "xyz": [0.0, 0.0, 12.46750630713931]}, {"species": [{"element": "Pr", "occu": 1}], "abc": [0.31997981000000003, 0.31997981000000003, 0.0], "properties": {"magmom": -0.163}, "label": "Pr", "xyz": [0.0, 0.0, 5.8665174328606895]}, {"species": [{"element": "Bi", "occu": 1}], "abc": [0.86203564, 0.86203564, -0.0], "properties": {"magmom": 0.039}, "label": "Bi", "xyz": [0.0, 0.0, 15.804581888486092]}, {"species": [{"element": "Bi", "occu": 1}], "abc": [0.13796436, 0.13796436, 0.0], "properties": {"magmom": 0.039}, "label": "Bi", "xyz": [0.0, 0.0, 2.5294418515139063]}]}, "task_ids": null, "uncorrected_energy_per_atom": null, "energy_per_atom": -39.93107095833333, "formation_energy_per_atom": -0.8276754644444391, "energy_above_hull": 0.0, "is_stable": true, "equilibrium_reaction_energy_per_atom": null, "decomposes_to": null, "xas": null, "grain_boundaries": null, "band_gap": 0.0, "cbm": null, "vbm": null, "efermi": 4.65979665, "is_gap_direct": null, "is_metal": null, "es_source_calc_id": null, "bandstructure": null, "dos": null, "dos_energy_up": null, "dos_energy_down": null, "is_magnetic": null, "ordering": null, "total_magnetization": 1.752715499999999, "total_magnetization_normalized_vol": null, "total_magnetization_normalized_formula_units": null, "num_magnetic_sites": null, "num_unique_magnetic_sites": null, "types_of_magnetic_species": null, "bulk_modulus": null, "shear_modulus": null, "universal_anisotropy": null, "homogeneous_poisson": null, "e_total": null, "e_ionic": null, "e_electronic": null, "n": null, "e_ij_max": null, "weighted_surface_energy_EV_PER_ANG2": null, "weighted_surface_energy": null, "weighted_work_function": null, "surface_anisotropy": null, "shape_factor": null, "has_reconstructed": null, "possible_species": null, "has_props": null, "theoretical": null, "database_IDs": null, "fields_not_requested": ["builder_meta", "nsites", "elements", "nelements", "composition", "composition_reduced", "chemsys", "symmetry", "property_name", "deprecated", "deprecation_reasons", "last_updated", "origins", "warnings", "task_ids", "uncorrected_energy_per_atom", "equilibrium_reaction_energy_per_atom", "decomposes_to", "xas", "grain_boundaries", "cbm", "vbm", "is_gap_direct", "is_metal", "es_source_calc_id", "bandstructure", "dos", "dos_energy_up", "dos_energy_down", "is_magnetic", "ordering", "total_magnetization_normalized_vol", "total_magnetization_normalized_formula_units", "num_magnetic_sites", "num_unique_magnetic_sites", "types_of_magnetic_species", "bulk_modulus", "shear_modulus", "universal_anisotropy", "homogeneous_poisson", "e_total", "e_ionic", "e_electronic", "n", "e_ij_max", "weighted_surface_energy_EV_PER_ANG2", "weighted_surface_energy", "weighted_work_function", "surface_anisotropy", "shape_factor", "has_reconstructed", "possible_species", "has_props", "theoretical", "database_IDs"]}