{
  "builder_meta": null,
  "nsites": null,
  "elements": null,
  "nelements": null,
  "composition": null,
  "composition_reduced": null,
  "formula_pretty": "Pr2C3",
  "formula_anonymous": "A2B3",
  "chemsys": null,
  "volume": 328.77347709479074,
  "density": 6.421418535109679,
  "density_atomic": 16.438673854739537,
  "symmetry": null,
  "property_name": null,
  "material_id": "mp-683",
  "deprecated": null,
  "deprecation_reasons": null,
  "last_updated": null,
  "origins": null,
  "warnings": null,
  "structure": {
    "@module": "pymatgen.core.structure",
    "@class": "Structure",
    "charge": 0,
    "lattice": {
      "matrix": [
        [7.10008058, -3.0000000000000004e-8, -2.51025691],
        [-3.55004183, 6.14884993, -2.51025691],
        [1e-8, 2e-8, 7.53077381]
      ],
      "pbc": [true, true, true],
      "a": 7.5307724701185785,
      "b": 7.530773015475469,
      "c": 7.53077381,
      "alpha": 109.47121439302569,
      "beta": 109.4712158776423,
      "gamma": 109.47123576262156,
      "volume": 328.77347709479074
    },
    "properties": {},
    "sites": [
      {
        "species": [{ "element": "Pr", "occu": 1 }],
        "abc": [0.10342398, 0.10342398, 0.10342398],
        "properties": { "magmom": 0.0 },
        "label": "Pr",
        "xyz": [0.36715913771346476, 0.6359385311490816, 0.2596210790005603]
      },
      {
        "species": [{ "element": "Pr", "occu": 1 }],
        "abc": [0.89657602, 0.5, -0.0],
        "properties": { "magmom": 0.0 },
        "label": "Pr",
        "xyz": [4.590741073095693, 3.0744249381027196, -3.505764604545298]
      },
      {
        "species": [{ "element": "Pr", "occu": 1 }],
        "abc": [-0.0, 0.89657602, 0.5],
        "properties": { "magmom": 0.0 },
        "label": "Pr",
        "xyz": [-3.1828823697749167, 5.512911407816679, 1.5147507554547022]
      },
      {
        "species": [{ "element": "Pr", "occu": 1 }],
        "abc": [0.5, 0.0, 0.89657602],
        "properties": { "magmom": 0.0 },
        "label": "Pr",
        "xyz": [3.5500402989657602, 2.9315203999999987e-9, 5.496782755090036]
      },
      {
        "species": [{ "element": "Pr", "occu": 1 }],
        "abc": [-0.0, 0.39657602000000003, 0.5],
        "properties": { "magmom": 0.0 },
        "label": "Pr",
        "xyz": [-1.4078614547749169, 2.4384864428166786, 2.769879210454702]
      },
      {
        "species": [{ "element": "Pr", "occu": 1 }],
        "abc": [0.5, 0.0, 0.39657602000000003],
        "properties": { "magmom": 0.0 },
        "label": "Pr",
        "xyz": [3.5500402939657603, -7.0684796000000015e-9, 1.7313958500900366]
      },
      {
        "species": [{ "element": "Pr", "occu": 1 }],
        "abc": [0.39657602000000003, 0.5, -0.0],
        "properties": { "magmom": 0.0 },
        "label": "Pr",
        "xyz": [1.0407007830956918, 3.0744249531027195, -2.250636149545298]
      },
      {
        "species": [{ "element": "Pr", "occu": 1 }],
        "abc": [0.60342398, 0.60342398, 0.60342398],
        "properties": { "magmom": 0.0 },
        "label": "Pr",
        "xyz": [2.1421785177134645, 3.7103634911490815, 1.5147510740005603]
      },
      {
        "species": [{ "element": "C", "occu": 1 }],
        "abc": [0.25, 0.54905848, 0.29905848],
        "properties": { "magmom": -0.0 },
        "label": "C",
        "xyz": [-0.1741604231256336, 3.376078194795076, 0.24629969792831208]
      },
      {
        "species": [{ "element": "C", "occu": 1 }],
        "abc": [0.45094152, 0.25, 0.70094152],
        "properties": { "magmom": -0.0 },
        "label": "C",
        "xyz": [2.314210678377097, 1.5372124829905847, 3.519088747071688]
      },
      {
        "species": [{ "element": "C", "occu": 1 }],
        "abc": [0.04905848, 0.75, 0.79905848],
        "properties": { "magmom": -0.0 },
        "label": "C",
        "xyz": [-2.3142122033770973, 4.611637462009415, 4.011686602928313]
      },
      {
        "species": [{ "element": "C", "occu": 1 }],
        "abc": [0.79905848, 0.04905848, 0.75],
        "properties": { "magmom": -0.0 },
        "label": "C",
        "xyz": [5.499219947516099, 0.301653222342152, 3.519088898171807]
      },
      {
        "species": [{ "element": "C", "occu": 1 }],
        "abc": [0.70094152, 0.45094152, 0.25],
        "properties": { "magmom": -0.0 },
        "label": "C",
        "xyz": [3.3758800174839005, 2.7727717176578475, -1.0088289081718063]
      },
      {
        "species": [{ "element": "C", "occu": 1 }],
        "abc": [0.25, 0.70094152, 0.45094152],
        "properties": { "magmom": -0.0 },
        "label": "C",
        "xyz": [-0.7133515668743663, 4.3099842177049235, 1.0088310670716885]
      },
      {
        "species": [{ "element": "C", "occu": 1 }],
        "abc": [0.95094152, 0.20094152, 0.75],
        "properties": { "magmom": -0.0 },
        "label": "C",
        "xyz": [6.0384106249839, 1.235559237657848, 2.756557996828194]
      },
      {
        "species": [{ "element": "C", "occu": 1 }],
        "abc": [0.20094152, 0.75, 0.95094152],
        "properties": { "magmom": -0.0 },
        "label": "C",
        "xyz": [-1.2358303791229033, 4.611637460490584, 4.774217972071689]
      },
      {
        "species": [{ "element": "C", "occu": 1 }],
        "abc": [0.54905848, 0.29905848, 0.25],
        "properties": { "magmom": -0.0 },
        "label": "C",
        "xyz": [2.8366893400161004, 1.838865702342152, -0.24629800682819325]
      },
      {
        "species": [{ "element": "C", "occu": 1 }],
        "abc": [0.29905848, 0.25, 0.54905848],
        "properties": { "magmom": -0.0 },
        "label": "C",
        "xyz": [1.2358288541229037, 1.537212484509415, 2.7565573779283126]
      },
      {
        "species": [{ "element": "C", "occu": 1 }],
        "abc": [0.75, 0.95094152, 0.20094152],
        "properties": { "magmom": -0.0 },
        "label": "C",
        "xyz": [1.949178263125634, 5.847196680204924, -2.7565550679283115]
      },
      {
        "species": [{ "element": "C", "occu": 1 }],
        "abc": [0.75, 0.79905848, 0.04905848],
        "properties": { "magmom": -0.0 },
        "label": "C",
        "xyz": [2.4883694068743667, 4.913290657295076, -3.5190864370716874]
      }
    ]
  },
  "task_ids": null,
  "uncorrected_energy_per_atom": null,
  "energy_per_atom": -7.590082519000001,
  "formation_energy_per_atom": -0.13469464016666702,
  "energy_above_hull": 0.0,
  "is_stable": true,
  "equilibrium_reaction_energy_per_atom": null,
  "decomposes_to": null,
  "xas": null,
  "grain_boundaries": null,
  "band_gap": 0.0,
  "cbm": null,
  "vbm": null,
  "efermi": 5.22490877,
  "is_gap_direct": null,
  "is_metal": null,
  "es_source_calc_id": null,
  "bandstructure": null,
  "dos": null,
  "dos_energy_up": null,
  "dos_energy_down": null,
  "is_magnetic": null,
  "ordering": null,
  "total_magnetization": 1e-7,
  "total_magnetization_normalized_vol": null,
  "total_magnetization_normalized_formula_units": null,
  "num_magnetic_sites": null,
  "num_unique_magnetic_sites": null,
  "types_of_magnetic_species": null,
  "bulk_modulus": null,
  "shear_modulus": null,
  "universal_anisotropy": null,
  "homogeneous_poisson": null,
  "e_total": null,
  "e_ionic": null,
  "e_electronic": null,
  "n": null,
  "e_ij_max": null,
  "weighted_surface_energy_EV_PER_ANG2": null,
  "weighted_surface_energy": null,
  "weighted_work_function": null,
  "surface_anisotropy": null,
  "shape_factor": null,
  "has_reconstructed": null,
  "possible_species": null,
  "has_props": null,
  "theoretical": null,
  "database_IDs": null,
  "fields_not_requested": [
    "builder_meta",
    "nsites",
    "elements",
    "nelements",
    "composition",
    "composition_reduced",
    "chemsys",
    "symmetry",
    "property_name",
    "deprecated",
    "deprecation_reasons",
    "last_updated",
    "origins",
    "warnings",
    "task_ids",
    "uncorrected_energy_per_atom",
    "equilibrium_reaction_energy_per_atom",
    "decomposes_to",
    "xas",
    "grain_boundaries",
    "cbm",
    "vbm",
    "is_gap_direct",
    "is_metal",
    "es_source_calc_id",
    "bandstructure",
    "dos",
    "dos_energy_up",
    "dos_energy_down",
    "is_magnetic",
    "ordering",
    "total_magnetization_normalized_vol",
    "total_magnetization_normalized_formula_units",
    "num_magnetic_sites",
    "num_unique_magnetic_sites",
    "types_of_magnetic_species",
    "bulk_modulus",
    "shear_modulus",
    "universal_anisotropy",
    "homogeneous_poisson",
    "e_total",
    "e_ionic",
    "e_electronic",
    "n",
    "e_ij_max",
    "weighted_surface_energy_EV_PER_ANG2",
    "weighted_surface_energy",
    "weighted_work_function",
    "surface_anisotropy",
    "shape_factor",
    "has_reconstructed",
    "possible_species",
    "has_props",
    "theoretical",
    "database_IDs"
  ]
}
