{
  "builder_meta": null,
  "nsites": null,
  "elements": null,
  "nelements": null,
  "composition": null,
  "composition_reduced": null,
  "formula_pretty": "Pr2Co7",
  "formula_anonymous": "A2B7",
  "chemsys": null,
  "volume": 271.95562321466207,
  "density": 8.479261505285379,
  "density_atomic": 15.108645734147892,
  "symmetry": null,
  "property_name": null,
  "material_id": "mp-1106330",
  "deprecated": null,
  "deprecation_reasons": null,
  "last_updated": null,
  "origins": null,
  "warnings": null,
  "structure": {
    "@module": "pymatgen.core.structure",
    "@class": "Structure",
    "charge": 0,
    "lattice": {
      "matrix": [
        [-2.525176, -4.373733, 0.0],
        [-5.050352, 0.0, 0.0],
        [-2.525176, -1.457911, -12.311873]
      ],
      "pbc": [true, true, true],
      "a": 5.050351887370324,
      "b": 5.050352,
      "c": 12.652439886560456,
      "alpha": 78.48759088068266,
      "beta": 78.48759096743404,
      "gamma": 59.999999262277214,
      "volume": 271.95562321466207
    },
    "properties": {},
    "sites": [
      {
        "species": [{ "element": "Pr", "occu": 1 }],
        "abc": [0.94881, 0.94881, 0.153570999999999],
        "properties": { "magmom": -0.225 },
        "label": "Pr",
        "xyz": [-7.575530525175998, -4.373734457910999, -1.890746648482988]
      },
      {
        "species": [{ "element": "Pr", "occu": 1 }],
        "abc": [0.051190000000000006, 0.051190000000000006, 0.846429],
        "properties": { "magmom": -0.225 },
        "label": "Pr",
        "xyz": [-2.525173474824, -1.457909542089, -10.421126351517]
      },
      {
        "species": [{ "element": "Pr", "occu": 1 }],
        "abc": [0.851804999999999, 0.851804999999999, 0.444584999999999],
        "properties": { "magmom": -0.184 },
        "label": "Pr",
        "xyz": [-7.575527999999991, -4.373732999999994, -5.473674057704988]
      },
      {
        "species": [{ "element": "Pr", "occu": 1 }],
        "abc": [0.148195, 0.148195, 0.555415],
        "properties": { "magmom": -0.184 },
        "label": "Pr",
        "xyz": [-2.525176, -1.457911, -6.8381989422950005]
      },
      {
        "species": [{ "element": "Co", "occu": 1 }],
        "abc": [0.5, 0.5, 0.5],
        "properties": { "magmom": -0.194 },
        "label": "Co",
        "xyz": [-5.050352, -2.915822, -6.1559365]
      },
      {
        "species": [{ "element": "Co", "occu": 1 }],
        "abc": [0.721042, 0.721042, 0.836873],
        "properties": { "magmom": 1.451 },
        "label": "Co",
        "xyz": [-7.5755254748239995, -4.373731542088999, -10.303474093129]
      },
      {
        "species": [{ "element": "Co", "occu": 1 }],
        "abc": [0.278958, 0.278958, 0.163127],
        "properties": { "magmom": 1.451 },
        "label": "Co",
        "xyz": [-2.525178525176, -1.4579124579109999, -2.0083989068709998]
      },
      {
        "species": [{ "element": "Co", "occu": 1 }],
        "abc": [0.613143, 0.613143, 0.160571],
        "properties": { "magmom": 1.480999999999999 },
        "label": "Co",
        "xyz": [-5.050352, -2.915822, -1.976929759483]
      },
      {
        "species": [{ "element": "Co", "occu": 1 }],
        "abc": [0.386857, 0.386857, 0.839429],
        "properties": { "magmom": 1.480999999999999 },
        "label": "Co",
        "xyz": [-5.050352, -2.915822, -10.334943240517]
      },
      {
        "species": [{ "element": "Co", "occu": 1 }],
        "abc": [0.0, 0.5, 0.0],
        "properties": { "magmom": 1.404 },
        "label": "Co",
        "xyz": [-2.525176, 0.0, 0.0]
      },
      {
        "species": [{ "element": "Co", "occu": 1 }],
        "abc": [0.5, 0.0, 0.0],
        "properties": { "magmom": 1.404 },
        "label": "Co",
        "xyz": [-1.262588, -2.1868665, 0.0]
      },
      {
        "species": [{ "element": "Co", "occu": 1 }],
        "abc": [0.5, 0.5, 0.0],
        "properties": { "magmom": 1.404 },
        "label": "Co",
        "xyz": [-3.787764, -2.1868665, 0.0]
      },
      {
        "species": [{ "element": "Co", "occu": 1 }],
        "abc": [0.395356, 0.395356, 0.32148000000000004],
        "properties": { "magmom": 1.284 },
        "label": "Co",
        "xyz": [-3.8068240284480006, -2.197870812228, -3.9580209320400006]
      },
      {
        "species": [{ "element": "Co", "occu": 1 }],
        "abc": [0.887809, 0.395356, 0.32148000000000004],
        "properties": { "magmom": 1.284 },
        "label": "Co",
        "xyz": [-5.050354525176, -4.351728749276999, -3.9580209320400006]
      },
      {
        "species": [{ "element": "Co", "occu": 1 }],
        "abc": [0.395356, 0.887809, 0.32148000000000004],
        "properties": { "magmom": 1.284 },
        "label": "Co",
        "xyz": [-6.293885021904, -2.197870812228, -3.9580209320400006]
      },
      {
        "species": [{ "element": "Co", "occu": 1 }],
        "abc": [0.604644, 0.604644, 0.67852],
        "properties": { "magmom": 1.284 },
        "label": "Co",
        "xyz": [-6.293879971552, -3.6337731877719994, -8.35385206796]
      },
      {
        "species": [{ "element": "Co", "occu": 1 }],
        "abc": [0.112191, 0.604644, 0.67852],
        "properties": { "magmom": 1.284 },
        "label": "Co",
        "xyz": [-5.050349474824, -1.479915250723, -8.35385206796]
      },
      {
        "species": [{ "element": "Co", "occu": 1 }],
        "abc": [0.604644, 0.112191, 0.67852],
        "properties": { "magmom": 1.284 },
        "label": "Co",
        "xyz": [-3.8068189780960004, -3.6337731877719994, -8.35385206796]
      }
    ]
  },
  "task_ids": null,
  "uncorrected_energy_per_atom": null,
  "energy_per_atom": -16.787801757470344,
  "formation_energy_per_atom": 0.039701647714843004,
  "energy_above_hull": 0.041296095514404,
  "is_stable": false,
  "equilibrium_reaction_energy_per_atom": null,
  "decomposes_to": null,
  "xas": null,
  "grain_boundaries": null,
  "band_gap": 0.0,
  "cbm": null,
  "vbm": null,
  "efermi": 4.81333349,
  "is_gap_direct": null,
  "is_metal": null,
  "es_source_calc_id": null,
  "bandstructure": null,
  "dos": null,
  "dos_energy_up": null,
  "dos_energy_down": null,
  "is_magnetic": null,
  "ordering": null,
  "total_magnetization": 15.6261128,
  "total_magnetization_normalized_vol": null,
  "total_magnetization_normalized_formula_units": null,
  "num_magnetic_sites": null,
  "num_unique_magnetic_sites": null,
  "types_of_magnetic_species": null,
  "bulk_modulus": null,
  "shear_modulus": null,
  "universal_anisotropy": null,
  "homogeneous_poisson": null,
  "e_total": null,
  "e_ionic": null,
  "e_electronic": null,
  "n": null,
  "e_ij_max": null,
  "weighted_surface_energy_EV_PER_ANG2": null,
  "weighted_surface_energy": null,
  "weighted_work_function": null,
  "surface_anisotropy": null,
  "shape_factor": null,
  "has_reconstructed": null,
  "possible_species": null,
  "has_props": null,
  "theoretical": null,
  "database_IDs": null,
  "fields_not_requested": [
    "builder_meta",
    "nsites",
    "elements",
    "nelements",
    "composition",
    "composition_reduced",
    "chemsys",
    "symmetry",
    "property_name",
    "deprecated",
    "deprecation_reasons",
    "last_updated",
    "origins",
    "warnings",
    "task_ids",
    "uncorrected_energy_per_atom",
    "equilibrium_reaction_energy_per_atom",
    "decomposes_to",
    "xas",
    "grain_boundaries",
    "cbm",
    "vbm",
    "is_gap_direct",
    "is_metal",
    "es_source_calc_id",
    "bandstructure",
    "dos",
    "dos_energy_up",
    "dos_energy_down",
    "is_magnetic",
    "ordering",
    "total_magnetization_normalized_vol",
    "total_magnetization_normalized_formula_units",
    "num_magnetic_sites",
    "num_unique_magnetic_sites",
    "types_of_magnetic_species",
    "bulk_modulus",
    "shear_modulus",
    "universal_anisotropy",
    "homogeneous_poisson",
    "e_total",
    "e_ionic",
    "e_electronic",
    "n",
    "e_ij_max",
    "weighted_surface_energy_EV_PER_ANG2",
    "weighted_surface_energy",
    "weighted_work_function",
    "surface_anisotropy",
    "shape_factor",
    "has_reconstructed",
    "possible_species",
    "has_props",
    "theoretical",
    "database_IDs"
  ]
}
