{"builder_meta": null, "nsites": null, "elements": null, "nelements": null, "composition": null, "composition_reduced": null, "formula_pretty": "Pr2Ga", "formula_anonymous": "AB2", "chemsys": null, "volume": 345.64321726096347, "density": 6.755440887074256, "density_atomic": 28.803601438413622, "symmetry": null, "property_name": null, "material_id": "mp-623027", "deprecated": null, "deprecation_reasons": null, "last_updated": null, "origins": null, "warnings": null, "structure": {"@module": "pymatgen.core.structure", "@class": "Structure", "charge": 0, "lattice": {"matrix": [[5.24490353, -1.5e-07, 1.1e-07], [-2e-07, 6.78517071, 0.00037443000000000003], [2.1e-07, 0.00053614, 9.71247149]], "pbc": [true, true, true], "a": 5.244903530000003, "b": 6.785170720331197, "c": 9.712471504797787, "alpha": 89.99367541855933, "beta": 89.99999755960965, "gamma": 90.00000332739964, "volume": 345.6432172609635}, "properties": {}, "sites": [{"species": [{"element": "Pr", "occu": 1}], "abc": [0.25000002, 0.30661469, 0.41463111], "properties": {"magmom": -0.0}, "label": "Pr", "xyz": [1.3112260131476656, 2.0806552766670423, 4.027207667980433]}, {"species": [{"element": "Pr", "occu": 1}], "abc": [0.75000004, 1.00031379, 0.30749411], "properties": {"magmom": -0.0}, "label": "Pr", "xyz": [3.9336777218071464, 6.787464576109221, 2.986902406710318]}, {"species": [{"element": "Pr", "occu": 1}], "abc": [0.75000006, 0.50031371, 0.1926812], "properties": {"magmom": -0.0}, "label": "Pr", "xyz": [3.9336779025945217, 3.394817122501993, 1.87159807662143]}, {"species": [{"element": "Pr", "occu": 1}], "abc": [0.74999998, 0.69336906, 0.58537337], "properties": {"magmom": -0.0}, "label": "Pr", "xyz": [3.9336775268565254, 4.704941166710827, 5.6856818678073555]}, {"species": [{"element": "Pr", "occu": 1}], "abc": [0.75000006, 0.19332216, 0.91457478], "properties": {"magmom": -0.0}, "label": "Pr", "xyz": [3.9336781155904834, 1.3122140852484736, 8.882853944339399]}, {"species": [{"element": "Pr", "occu": 1}], "abc": [0.24999993, 0.49968153, 0.80738152], "properties": {"magmom": -0.0}, "label": "Pr", "xyz": [1.3112255849705663, 3.3908573137121296, 7.841857117808135]}, {"species": [{"element": "Pr", "occu": 1}], "abc": [0.24999995, -0.0003212, 0.69246034], "properties": {"magmom": 0.0}, "label": "Pr", "xyz": [1.311225765735735, -0.0018081786453569, 6.725501217438786]}, {"species": [{"element": "Pr", "occu": 1}], "abc": [0.24999997000000002, 0.8066659700000001, 0.08542858], "properties": {"magmom": -0.0}, "label": "Pr", "xyz": [1.311225581759702, 5.473412076576626, 0.8300247151203282]}, {"species": [{"element": "Ga", "occu": 1}], "abc": [0.75000001, 0.22052813000000002, 0.59446933], "properties": {"magmom": -0.0}, "label": "Ga", "xyz": [3.9336777806819696, 1.4966396146936571, 5.773849074152119]}, {"species": [{"element": "Ga", "occu": 1}], "abc": [0.25, 0.77949168, 0.40523802000000003], "properties": {"magmom": -0.0}, "label": "Ga", "xyz": [1.3112258117016482, 5.289201342636735, 3.936154608483793]}, {"species": [{"element": "Ga", "occu": 1}], "abc": [0.74999997, 0.720496399999999, 0.90549179], "properties": {"magmom": 0.0}, "label": "Ga", "xyz": [3.93367753620689, 4.889176427808732, 8.794833052771116]}, {"species": [{"element": "Ga", "occu": 1}], "abc": [0.25000001, 0.27952407, 0.09477684], "properties": {"magmom": 0.0}, "label": "Ga", "xyz": [1.311225898947358, 1.8966693086589859, 0.9206220461098228]}]}, "task_ids": null, "uncorrected_energy_per_atom": null, "energy_per_atom": -23.864467024166668, "formation_energy_per_atom": -0.44757079527777405, "energy_above_hull": 0.019296093703701, "is_stable": false, "equilibrium_reaction_energy_per_atom": null, "decomposes_to": null, "xas": null, "grain_boundaries": null, "band_gap": 0.0, "cbm": null, "vbm": null, "efermi": 3.67938899, "is_gap_direct": null, "is_metal": null, "es_source_calc_id": null, "bandstructure": null, "dos": null, "dos_energy_up": null, "dos_energy_down": null, "is_magnetic": null, "ordering": null, "total_magnetization": 1e-07, "total_magnetization_normalized_vol": null, "total_magnetization_normalized_formula_units": null, "num_magnetic_sites": null, "num_unique_magnetic_sites": null, "types_of_magnetic_species": null, "bulk_modulus": null, "shear_modulus": null, "universal_anisotropy": null, "homogeneous_poisson": null, "e_total": null, "e_ionic": null, "e_electronic": null, "n": null, "e_ij_max": null, "weighted_surface_energy_EV_PER_ANG2": null, "weighted_surface_energy": null, "weighted_work_function": null, "surface_anisotropy": null, "shape_factor": null, "has_reconstructed": null, "possible_species": null, "has_props": null, "theoretical": null, "database_IDs": null, "fields_not_requested": ["builder_meta", "nsites", "elements", "nelements", "composition", "composition_reduced", "chemsys", "symmetry", "property_name", "deprecated", "deprecation_reasons", "last_updated", "origins", "warnings", "task_ids", "uncorrected_energy_per_atom", "equilibrium_reaction_energy_per_atom", "decomposes_to", "xas", "grain_boundaries", "cbm", "vbm", "is_gap_direct", "is_metal", "es_source_calc_id", "bandstructure", "dos", "dos_energy_up", "dos_energy_down", "is_magnetic", "ordering", "total_magnetization_normalized_vol", "total_magnetization_normalized_formula_units", "num_magnetic_sites", "num_unique_magnetic_sites", "types_of_magnetic_species", "bulk_modulus", "shear_modulus", "universal_anisotropy", "homogeneous_poisson", "e_total", "e_ionic", "e_electronic", "n", "e_ij_max", "weighted_surface_energy_EV_PER_ANG2", "weighted_surface_energy", "weighted_work_function", "surface_anisotropy", "shape_factor", "has_reconstructed", "possible_species", "has_props", "theoretical", "database_IDs"]}