{
  "builder_meta": null,
  "nsites": null,
  "elements": null,
  "nelements": null,
  "composition": null,
  "composition_reduced": null,
  "formula_pretty": "Pr2Ho",
  "formula_anonymous": "AB2",
  "chemsys": null,
  "volume": 412.89580898759067,
  "density": 7.186690091734341,
  "density_atomic": 34.40798408229922,
  "symmetry": null,
  "property_name": null,
  "material_id": "mp-1219889",
  "deprecated": null,
  "deprecation_reasons": null,
  "last_updated": null,
  "origins": null,
  "warnings": null,
  "structure": {
    "@module": "pymatgen.core.structure",
    "@class": "Structure",
    "charge": 0,
    "lattice": {
      "matrix": [
        [1.8344955600000001, -3.17744126, -0.0],
        [1.8344955600000001, 3.17744126, 0.0],
        [-0.0, -0.0, 35.41736795]
      ],
      "pbc": [true, true, true],
      "a": 3.668992630192939,
      "b": 3.668992630192939,
      "c": 35.41736795,
      "alpha": 90.0,
      "beta": 90.0,
      "gamma": 120.0000272318764,
      "volume": 412.8958089875907
    },
    "properties": {},
    "sites": [
      {
        "species": [{ "element": "Pr", "occu": 1 }],
        "abc": [0.333333, 0.666667, 0.66721053],
        "properties": { "magmom": -0.0 },
        "label": "Pr",
        "xyz": [1.8344955600000001, 1.05914920496084, 23.630840841124513]
      },
      {
        "species": [{ "element": "Pr", "occu": 1 }],
        "abc": [0.333333, 0.666667, 0.33278947000000003],
        "properties": { "magmom": -0.0 },
        "label": "Pr",
        "xyz": [1.8344955600000001, 1.05914920496084, 11.786527108875488]
      },
      {
        "species": [{ "element": "Pr", "occu": 1 }],
        "abc": [0.0, -0.0, 0.91796572],
        "properties": { "magmom": -0.0 },
        "label": "Pr",
        "xyz": [0.0, 0.0, 32.51192967072667]
      },
      {
        "species": [{ "element": "Pr", "occu": 1 }],
        "abc": [0.0, -0.0, 0.58149362],
        "properties": { "magmom": 0.0 },
        "label": "Pr",
        "xyz": [0.0, 0.0, 20.59497350011748]
      },
      {
        "species": [{ "element": "Pr", "occu": 1 }],
        "abc": [0.0, -0.0, 0.24632461],
        "properties": { "magmom": 0.0 },
        "label": "Pr",
        "xyz": [0.0, 0.0, 8.72416934751025]
      },
      {
        "species": [{ "element": "Pr", "occu": 1 }],
        "abc": [0.0, -0.0, 0.08203428],
        "properties": { "magmom": -0.0 },
        "label": "Pr",
        "xyz": [0.0, 0.0, 2.905438279273326]
      },
      {
        "species": [{ "element": "Pr", "occu": 1 }],
        "abc": [0.0, -0.0, 0.7536753900000001],
        "properties": { "magmom": 0.0 },
        "label": "Pr",
        "xyz": [0.0, 0.0, 26.69319860248975]
      },
      {
        "species": [{ "element": "Pr", "occu": 1 }],
        "abc": [0.0, -0.0, 0.41850638],
        "properties": { "magmom": 0.0 },
        "label": "Pr",
        "xyz": [0.0, 0.0, 14.822394449882522]
      },
      {
        "species": [{ "element": "Ho", "occu": 1 }],
        "abc": [0.666667, 0.333333, 0.83562818],
        "properties": { "magmom": 0.0 },
        "label": "Ho",
        "xyz": [1.8344955600000001, -1.05914920496084, 29.595750720448834]
      },
      {
        "species": [{ "element": "Ho", "occu": 1 }],
        "abc": [0.666667, 0.333333, 0.5],
        "properties": { "magmom": -0.0 },
        "label": "Ho",
        "xyz": [1.8344955600000001, -1.05914920496084, 17.708683975]
      },
      {
        "species": [{ "element": "Ho", "occu": 1 }],
        "abc": [0.666667, 0.333333, 0.16437182],
        "properties": { "magmom": 0.0 },
        "label": "Ho",
        "xyz": [1.8344955600000001, -1.05914920496084, 5.821617229551169]
      },
      {
        "species": [{ "element": "Ho", "occu": 1 }],
        "abc": [0.333333, 0.666667, 0.0],
        "properties": { "magmom": 0.0 },
        "label": "Ho",
        "xyz": [1.8344955600000001, 1.05914920496084, 0.0]
      }
    ]
  },
  "task_ids": null,
  "uncorrected_energy_per_atom": null,
  "energy_per_atom": -30.53983605333333,
  "formation_energy_per_atom": 0.023249497222228,
  "energy_above_hull": 0.023249497222227,
  "is_stable": false,
  "equilibrium_reaction_energy_per_atom": null,
  "decomposes_to": null,
  "xas": null,
  "grain_boundaries": null,
  "band_gap": 0.0,
  "cbm": null,
  "vbm": null,
  "efermi": 3.4518961,
  "is_gap_direct": null,
  "is_metal": null,
  "es_source_calc_id": null,
  "bandstructure": null,
  "dos": null,
  "dos_energy_up": null,
  "dos_energy_down": null,
  "is_magnetic": null,
  "ordering": null,
  "total_magnetization": 4.52e-5,
  "total_magnetization_normalized_vol": null,
  "total_magnetization_normalized_formula_units": null,
  "num_magnetic_sites": null,
  "num_unique_magnetic_sites": null,
  "types_of_magnetic_species": null,
  "bulk_modulus": null,
  "shear_modulus": null,
  "universal_anisotropy": null,
  "homogeneous_poisson": null,
  "e_total": null,
  "e_ionic": null,
  "e_electronic": null,
  "n": null,
  "e_ij_max": null,
  "weighted_surface_energy_EV_PER_ANG2": null,
  "weighted_surface_energy": null,
  "weighted_work_function": null,
  "surface_anisotropy": null,
  "shape_factor": null,
  "has_reconstructed": null,
  "possible_species": null,
  "has_props": null,
  "theoretical": null,
  "database_IDs": null,
  "fields_not_requested": [
    "builder_meta",
    "nsites",
    "elements",
    "nelements",
    "composition",
    "composition_reduced",
    "chemsys",
    "symmetry",
    "property_name",
    "deprecated",
    "deprecation_reasons",
    "last_updated",
    "origins",
    "warnings",
    "task_ids",
    "uncorrected_energy_per_atom",
    "equilibrium_reaction_energy_per_atom",
    "decomposes_to",
    "xas",
    "grain_boundaries",
    "cbm",
    "vbm",
    "is_gap_direct",
    "is_metal",
    "es_source_calc_id",
    "bandstructure",
    "dos",
    "dos_energy_up",
    "dos_energy_down",
    "is_magnetic",
    "ordering",
    "total_magnetization_normalized_vol",
    "total_magnetization_normalized_formula_units",
    "num_magnetic_sites",
    "num_unique_magnetic_sites",
    "types_of_magnetic_species",
    "bulk_modulus",
    "shear_modulus",
    "universal_anisotropy",
    "homogeneous_poisson",
    "e_total",
    "e_ionic",
    "e_electronic",
    "n",
    "e_ij_max",
    "weighted_surface_energy_EV_PER_ANG2",
    "weighted_surface_energy",
    "weighted_work_function",
    "surface_anisotropy",
    "shape_factor",
    "has_reconstructed",
    "possible_species",
    "has_props",
    "theoretical",
    "database_IDs"
  ]
}
