{"builder_meta": null, "nsites": null, "elements": null, "nelements": null, "composition": null, "composition_reduced": null, "formula_pretty": "Pr2I5", "formula_anonymous": "A2B5", "chemsys": null, "volume": 583.9953100326672, "density": 5.21105029400432, "density_atomic": 41.71395071661909, "symmetry": null, "property_name": null, "material_id": "mp-22854", "deprecated": null, "deprecation_reasons": null, "last_updated": null, "origins": null, "warnings": null, "structure": {"@module": "pymatgen.core.structure", "@class": "Structure", "charge": 0, "lattice": {"matrix": [[4.37736226, 0.0, 0.0], [0.0, 9.01812715, -0.22637583], [0.0, -0.23133003, 14.79963324]], "pbc": [true, true, true], "a": 4.37736226, "b": 9.020967980764333, "c": 14.801441065696702, "alpha": 92.33346012685185, "beta": 90.0, "gamma": 90.0, "volume": 583.9953100326672}, "properties": {}, "sites": [{"species": [{"element": "Pr", "occu": 1}], "abc": [0.75, 0.89937323, 0.84641253], "properties": {"magmom": 0.20800000000000002}, "label": "Pr", "xyz": [3.283021695, 7.9148615074889195, 12.322998652319468]}, {"species": [{"element": "Pr", "occu": 1}], "abc": [0.25, 0.10062677, 0.15358747], "properties": {"magmom": 0.20800000000000002}, "label": "Pr", "xyz": [1.094340565, 0.8719356125110813, 2.2502587576805335]}, {"species": [{"element": "Pr", "occu": 1}], "abc": [0.75, 0.41479958, 0.34182842], "properties": {"magmom": 0.195}, "label": "Pr", "xyz": [3.283021695, 3.6616401755531442, 4.96503464780253]}, {"species": [{"element": "Pr", "occu": 1}], "abc": [0.25, 0.58520042, 0.65817158], "properties": {"magmom": 0.195}, "label": "Pr", "xyz": [1.094340565, 5.125156944446856, 9.60822276219747]}, {"species": [{"element": "I", "occu": 1}], "abc": [0.75, 0.35246061, 0.7174552200000001], "properties": {"magmom": 0.009000000000000001}, "label": "I", "xyz": [3.283021695, 3.012565658780305, 10.538285558992456]}, {"species": [{"element": "I", "occu": 1}], "abc": [0.25, 0.64753939, 0.28254478], "properties": {"magmom": 0.009000000000000001}, "label": "I", "xyz": [1.094340565, 5.774231461219696, 4.034971851007543]}, {"species": [{"element": "I", "occu": 1}], "abc": [0.75, 0.86144463, 0.07285125], "properties": {"magmom": 0.001}, "label": "I", "xyz": [3.283021695, 7.751764524176667, 0.8831615379602573]}, {"species": [{"element": "I", "occu": 1}], "abc": [0.25, 0.13855537, 0.92714875], "properties": {"magmom": 0.001}, "label": "I", "xyz": [1.094340565, 1.035032595823333, 13.690095872039743]}, {"species": [{"element": "I", "occu": 1}], "abc": [0.25, 0.31275234, 0.48751019], "properties": {"magmom": 0.003}, "label": "I", "xyz": [1.094340565, 2.7076646217020253, 7.144172442210773]}, {"species": [{"element": "I", "occu": 1}], "abc": [0.75, 0.68724766, 0.51248981], "properties": {"magmom": 0.003}, "label": "I", "xyz": [3.283021695, 6.079132498297975, 7.429084967789228]}, {"species": [{"element": "I", "occu": 1}], "abc": [0.25, 0.94569854, 0.6875421700000001], "properties": {"magmom": 0.003}, "label": "I", "xyz": [1.094340565, 8.369380528476995, 9.961288661111444]}, {"species": [{"element": "I", "occu": 1}], "abc": [0.75, 0.05430146, 0.31245783], "properties": {"magmom": 0.003}, "label": "I", "xyz": [3.283021695, 0.41741659152300414, 4.6119687488885575]}, {"species": [{"element": "I", "occu": 1}], "abc": [0.25, 0.6428818, 0.8779076], "properties": {"magmom": 0.002}, "label": "I", "xyz": [1.094340565, 5.594503423375642, 12.847177597541732]}, {"species": [{"element": "I", "occu": 1}], "abc": [0.75, 0.3571182, 0.122092399999999], "properties": {"magmom": 0.002}, "label": "I", "xyz": [3.283021695, 3.192293696624358, 1.7260798124582553]}]}, "task_ids": null, "uncorrected_energy_per_atom": null, "energy_per_atom": -4.137448417857144, "formation_energy_per_atom": -1.678733276190476, "energy_above_hull": 0.0, "is_stable": true, "equilibrium_reaction_energy_per_atom": null, "decomposes_to": null, "xas": null, "grain_boundaries": null, "band_gap": 0.1283, "cbm": null, "vbm": null, "efermi": 3.68632037, "is_gap_direct": null, "is_metal": null, "es_source_calc_id": null, "bandstructure": null, "dos": null, "dos_energy_up": null, "dos_energy_down": null, "is_magnetic": null, "ordering": null, "total_magnetization": 1.9993535, "total_magnetization_normalized_vol": null, "total_magnetization_normalized_formula_units": null, "num_magnetic_sites": null, "num_unique_magnetic_sites": null, "types_of_magnetic_species": null, "bulk_modulus": null, "shear_modulus": null, "universal_anisotropy": null, "homogeneous_poisson": null, "e_total": null, "e_ionic": null, "e_electronic": null, "n": null, "e_ij_max": null, "weighted_surface_energy_EV_PER_ANG2": null, "weighted_surface_energy": null, "weighted_work_function": null, "surface_anisotropy": null, "shape_factor": null, "has_reconstructed": null, "possible_species": null, "has_props": null, "theoretical": null, "database_IDs": null, "fields_not_requested": ["builder_meta", "nsites", "elements", "nelements", "composition", "composition_reduced", "chemsys", "symmetry", "property_name", "deprecated", "deprecation_reasons", "last_updated", "origins", "warnings", "task_ids", "uncorrected_energy_per_atom", "equilibrium_reaction_energy_per_atom", "decomposes_to", "xas", "grain_boundaries", "cbm", "vbm", "is_gap_direct", "is_metal", "es_source_calc_id", "bandstructure", "dos", "dos_energy_up", "dos_energy_down", "is_magnetic", "ordering", "total_magnetization_normalized_vol", "total_magnetization_normalized_formula_units", "num_magnetic_sites", "num_unique_magnetic_sites", "types_of_magnetic_species", "bulk_modulus", "shear_modulus", "universal_anisotropy", "homogeneous_poisson", "e_total", "e_ionic", "e_electronic", "n", "e_ij_max", "weighted_surface_energy_EV_PER_ANG2", "weighted_surface_energy", "weighted_work_function", "surface_anisotropy", "shape_factor", "has_reconstructed", "possible_species", "has_props", "theoretical", "database_IDs"]}