{"builder_meta": null, "nsites": null, "elements": null, "nelements": null, "composition": null, "composition_reduced": null, "formula_pretty": "Pr2Mg", "formula_anonymous": "AB2", "chemsys": null, "volume": 195.6333049315547, "density": 5.196709398812815, "density_atomic": 32.60555082192578, "symmetry": null, "property_name": null, "material_id": "mp-1186685", "deprecated": null, "deprecation_reasons": null, "last_updated": null, "origins": null, "warnings": null, "structure": {"@module": "pymatgen.core.structure", "@class": "Structure", "charge": 0, "lattice": {"matrix": [[1.95244016, -8.84241423, 0.0], [1.95244016, 8.84241423, -0.0], [0.0, -0.0, 5.66583872]], "pbc": [true, true, true], "a": 9.055402365068451, "b": 9.055402365068451, "c": 5.66583872, "alpha": 90.0, "beta": 90.0, "gamma": 155.09730283929974, "volume": 195.6333049315547}, "properties": {}, "sites": [{"species": [{"element": "Pr", "occu": 1}], "abc": [0.0860866, 0.9139134, 0.25], "properties": {"magmom": 0.0}, "label": "Pr", "xyz": [1.95244016, 7.319987476295363, 1.41645968]}, {"species": [{"element": "Pr", "occu": 1}], "abc": [0.77213241, 0.22786759, 0.25], "properties": {"magmom": 0.0}, "label": "Pr", "xyz": [1.95244016, -4.812614989256389, 1.41645968]}, {"species": [{"element": "Pr", "occu": 1}], "abc": [0.9139124, 0.0860876, 0.75], "properties": {"magmom": 0.0}, "label": "Pr", "xyz": [1.9524401599999999, -7.319969791466903, 4.24937904]}, {"species": [{"element": "Pr", "occu": 1}], "abc": [0.22786759, 0.77213241, 0.75], "properties": {"magmom": 0.0}, "label": "Pr", "xyz": [1.95244016, 4.812614989256389, 4.24937904]}, {"species": [{"element": "Mg", "occu": 1}], "abc": [0.429994899999999, 0.570005099999999, 0.25], "properties": {"magmom": 0.0}, "label": "Mg", "xyz": [1.9524401599999963, 1.2380281848251462, 1.41645968]}, {"species": [{"element": "Mg", "occu": 1}], "abc": [0.570005099999999, 0.429994899999999, 0.75], "properties": {"magmom": 0.0}, "label": "Mg", "xyz": [1.9524401599999963, -1.2380281848251462, 4.24937904]}]}, "task_ids": null, "uncorrected_energy_per_atom": null, "energy_per_atom": -3.779324198333332, "formation_energy_per_atom": -0.038853221111109004, "energy_above_hull": 0.021479591111112, "is_stable": false, "equilibrium_reaction_energy_per_atom": null, "decomposes_to": null, "xas": null, "grain_boundaries": null, "band_gap": 0.0, "cbm": null, "vbm": null, "efermi": 3.29942017, "is_gap_direct": null, "is_metal": null, "es_source_calc_id": null, "bandstructure": null, "dos": null, "dos_energy_up": null, "dos_energy_down": null, "is_magnetic": null, "ordering": null, "total_magnetization": 0.0003004, "total_magnetization_normalized_vol": null, "total_magnetization_normalized_formula_units": null, "num_magnetic_sites": null, "num_unique_magnetic_sites": null, "types_of_magnetic_species": null, "bulk_modulus": null, "shear_modulus": null, "universal_anisotropy": null, "homogeneous_poisson": null, "e_total": null, "e_ionic": null, "e_electronic": null, "n": null, "e_ij_max": null, "weighted_surface_energy_EV_PER_ANG2": null, "weighted_surface_energy": null, "weighted_work_function": null, "surface_anisotropy": null, "shape_factor": null, "has_reconstructed": null, "possible_species": null, "has_props": null, "theoretical": null, "database_IDs": null, "fields_not_requested": ["builder_meta", "nsites", "elements", "nelements", "composition", "composition_reduced", "chemsys", "symmetry", "property_name", "deprecated", "deprecation_reasons", "last_updated", "origins", "warnings", "task_ids", "uncorrected_energy_per_atom", "equilibrium_reaction_energy_per_atom", "decomposes_to", "xas", "grain_boundaries", "cbm", "vbm", "is_gap_direct", "is_metal", "es_source_calc_id", "bandstructure", "dos", "dos_energy_up", "dos_energy_down", "is_magnetic", "ordering", "total_magnetization_normalized_vol", "total_magnetization_normalized_formula_units", "num_magnetic_sites", "num_unique_magnetic_sites", "types_of_magnetic_species", "bulk_modulus", "shear_modulus", "universal_anisotropy", "homogeneous_poisson", "e_total", "e_ionic", "e_electronic", "n", "e_ij_max", "weighted_surface_energy_EV_PER_ANG2", "weighted_surface_energy", "weighted_work_function", "surface_anisotropy", "shape_factor", "has_reconstructed", "possible_species", "has_props", "theoretical", "database_IDs"]}