{"builder_meta": null, "nsites": null, "elements": null, "nelements": null, "composition": null, "composition_reduced": null, "formula_pretty": "Pr2Os3", "formula_anonymous": "A2B3", "chemsys": null, "volume": 120.7099299315952, "density": 11.727439125644144, "density_atomic": 24.14198598631904, "symmetry": null, "property_name": null, "material_id": "mp-1069751", "deprecated": null, "deprecation_reasons": null, "last_updated": null, "origins": null, "warnings": null, "structure": {"@module": "pymatgen.core.structure", "@class": "Structure", "charge": 0, "lattice": {"matrix": [[2.267417, 2.897394, 0.0], [-2.267417, 2.897394, 0.0], [0.0, 1.57315, 9.187007]], "pbc": [true, true, true], "a": 3.6791400956099785, "b": 3.6791400956099785, "c": 9.320724142498209, "alpha": 82.36179182353852, "beta": 82.36179182353852, "gamma": 76.0914179257022, "volume": 120.7099299315952}, "properties": {}, "sites": [{"species": [{"element": "Pr", "occu": 1}], "abc": [0.6189600000000001, 0.6189600000000001, 0.807901], "properties": {"magmom": 0.0}, "label": "Pr", "xyz": [0.0, 4.857691438630001, 7.422192142306999]}, {"species": [{"element": "Pr", "occu": 1}], "abc": [0.38104000000000005, 0.38104000000000005, 0.192099], "properties": {"magmom": 0.0}, "label": "Pr", "xyz": [0.0, 2.5102465613700002, 1.7648148576929998]}, {"species": [{"element": "Os", "occu": 1}], "abc": [0.0, 0.0, 0.0], "properties": {"magmom": -0.0}, "label": "Os", "xyz": [0.0, 0.0, 0.0]}, {"species": [{"element": "Os", "occu": 1}], "abc": [0.699566, 0.699566, 0.463232], "properties": {"magmom": 0.0}, "label": "Os", "xyz": [0.0, 4.782570082808, 4.255715626623999]}, {"species": [{"element": "Os", "occu": 1}], "abc": [0.300434, 0.300434, 0.536768], "properties": {"magmom": 0.0}, "label": "Os", "xyz": [0.0, 2.585367917192, 4.931291373376]}]}, "task_ids": null, "uncorrected_energy_per_atom": null, "energy_per_atom": -43.1768654099, "formation_energy_per_atom": 0.375854447433329, "energy_above_hull": 0.48130604269999805, "is_stable": false, "equilibrium_reaction_energy_per_atom": null, "decomposes_to": null, "xas": null, "grain_boundaries": null, "band_gap": 0.0, "cbm": null, "vbm": null, "efermi": 4.63761896, "is_gap_direct": null, "is_metal": null, "es_source_calc_id": null, "bandstructure": null, "dos": null, "dos_energy_up": null, "dos_energy_down": null, "is_magnetic": null, "ordering": null, "total_magnetization": 0.000318, "total_magnetization_normalized_vol": null, "total_magnetization_normalized_formula_units": null, "num_magnetic_sites": null, "num_unique_magnetic_sites": null, "types_of_magnetic_species": null, "bulk_modulus": null, "shear_modulus": null, "universal_anisotropy": null, "homogeneous_poisson": null, "e_total": null, "e_ionic": null, "e_electronic": null, "n": null, "e_ij_max": null, "weighted_surface_energy_EV_PER_ANG2": null, "weighted_surface_energy": null, "weighted_work_function": null, "surface_anisotropy": null, "shape_factor": null, "has_reconstructed": null, "possible_species": null, "has_props": null, "theoretical": null, "database_IDs": null, "fields_not_requested": ["builder_meta", "nsites", "elements", "nelements", "composition", "composition_reduced", "chemsys", "symmetry", "property_name", "deprecated", "deprecation_reasons", "last_updated", "origins", "warnings", "task_ids", "uncorrected_energy_per_atom", "equilibrium_reaction_energy_per_atom", "decomposes_to", "xas", "grain_boundaries", "cbm", "vbm", "is_gap_direct", "is_metal", "es_source_calc_id", "bandstructure", "dos", "dos_energy_up", "dos_energy_down", "is_magnetic", "ordering", "total_magnetization_normalized_vol", "total_magnetization_normalized_formula_units", "num_magnetic_sites", "num_unique_magnetic_sites", "types_of_magnetic_species", "bulk_modulus", "shear_modulus", "universal_anisotropy", "homogeneous_poisson", "e_total", "e_ionic", "e_electronic", "n", "e_ij_max", "weighted_surface_energy_EV_PER_ANG2", "weighted_surface_energy", "weighted_work_function", "surface_anisotropy", "shape_factor", "has_reconstructed", "possible_species", "has_props", "theoretical", "database_IDs"]}