{"builder_meta": null, "nsites": null, "elements": null, "nelements": null, "composition": null, "composition_reduced": null, "formula_pretty": "Pr2S3", "formula_anonymous": "A2B3", "chemsys": null, "volume": 488.706204242634, "density": 5.137654200236373, "density_atomic": 24.4353102121317, "symmetry": null, "property_name": null, "material_id": "mp-15179", "deprecated": null, "deprecation_reasons": null, "last_updated": null, "origins": null, "warnings": null, "structure": {"@module": "pymatgen.core.structure", "@class": "Structure", "charge": 0, "lattice": {"matrix": [[4.09351827, -0.0, 0.0], [0.0, 7.56486891, 0.0], [0.0, 0.0, 15.78155208]], "pbc": [true, true, true], "a": 4.09351827, "b": 7.56486891, "c": 15.78155208, "alpha": 90.0, "beta": 90.0, "gamma": 90.0, "volume": 488.706204242634}, "properties": {}, "sites": [{"species": [{"element": "Pr", "occu": 1}], "abc": [0.25, 0.76467597, 0.54425744], "properties": {"magmom": 0.0}, "label": "Pr", "xyz": [1.0233795675, 5.784673471677093, 8.589227134287475]}, {"species": [{"element": "Pr", "occu": 1}], "abc": [0.75, 0.23532403000000002, 0.45574256], "properties": {"magmom": 0.0}, "label": "Pr", "xyz": [3.0701387024999995, 1.7801954383229075, 7.192324945712525]}, {"species": [{"element": "Pr", "occu": 1}], "abc": [0.25, 0.26467597, 0.95574256], "properties": {"magmom": 0.0}, "label": "Pr", "xyz": [1.0233795675, 2.0022390166770925, 15.083100985712527]}, {"species": [{"element": "Pr", "occu": 1}], "abc": [0.75, 0.73532403, 0.04425744], "properties": {"magmom": 0.0}, "label": "Pr", "xyz": [3.0701387024999995, 5.5626298933229075, 0.6984510942874753]}, {"species": [{"element": "Pr", "occu": 1}], "abc": [0.25, 0.64500046, 0.29568229], "properties": {"magmom": -0.0}, "label": "Pr", "xyz": [1.0233795675, 4.879343926789699, 4.666325458768664]}, {"species": [{"element": "Pr", "occu": 1}], "abc": [0.75, 0.35499954, 0.70431771], "properties": {"magmom": -0.0}, "label": "Pr", "xyz": [3.0701387024999995, 2.6855249832103016, 11.115226621231336]}, {"species": [{"element": "Pr", "occu": 1}], "abc": [0.25, 0.14500046, 0.20431771], "properties": {"magmom": -0.0}, "label": "Pr", "xyz": [1.0233795675, 1.0969094717896986, 3.2244505812313373]}, {"species": [{"element": "Pr", "occu": 1}], "abc": [0.75, 0.85499954, 0.79568229], "properties": {"magmom": -0.0}, "label": "Pr", "xyz": [3.0701387024999995, 6.467959438210301, 12.557101498768665]}, {"species": [{"element": "S", "occu": 1}], "abc": [0.25, 0.64565525, 0.71898848], "properties": {"magmom": 0.0}, "label": "S", "xyz": [1.0233795675, 4.884297327303278, 11.346754142040039]}, {"species": [{"element": "S", "occu": 1}], "abc": [0.75, 0.35434475, 0.28101152], "properties": {"magmom": 0.0}, "label": "S", "xyz": [3.0701387024999995, 2.6805715826967225, 4.434797937959962]}, {"species": [{"element": "S", "occu": 1}], "abc": [0.25, 0.14565525, 0.7810115200000001], "properties": {"magmom": 0.0}, "label": "S", "xyz": [1.0233795675, 1.1018628723032777, 12.325573977959964]}, {"species": [{"element": "S", "occu": 1}], "abc": [0.75, 0.85434475, 0.21898848], "properties": {"magmom": 0.0}, "label": "S", "xyz": [3.0701387024999995, 6.463006037696723, 3.4559781020400386]}, {"species": [{"element": "S", "occu": 1}], "abc": [0.25, 0.87332591, 0.93278344], "properties": {"magmom": -0.0}, "label": "S", "xyz": [1.0233795675, 6.606596024856459, 14.720770437721557]}, {"species": [{"element": "S", "occu": 1}], "abc": [0.75, 0.12667409, 0.06721656], "properties": {"magmom": -0.0}, "label": "S", "xyz": [3.0701387024999995, 0.9582728851435419, 1.0607816422784448]}, {"species": [{"element": "S", "occu": 1}], "abc": [0.25, 0.37332591, 0.56721656], "properties": {"magmom": -0.0}, "label": "S", "xyz": [1.0233795675, 2.824161569856458, 8.951557682278445]}, {"species": [{"element": "S", "occu": 1}], "abc": [0.75, 0.62667409, 0.43278344], "properties": {"magmom": -0.0}, "label": "S", "xyz": [3.0701387024999995, 4.740707340143542, 6.829994397721556]}, {"species": [{"element": "S", "occu": 1}], "abc": [0.75, 0.99028237, 0.60929544], "properties": {"magmom": 0.0}, "label": "S", "xyz": [3.0701387024999995, 7.4913563129341165, 9.615627718466516]}, {"species": [{"element": "S", "occu": 1}], "abc": [0.25, 0.00971763, 0.39070456000000003], "properties": {"magmom": 0.0}, "label": "S", "xyz": [1.0233795675, 0.0735125970658833, 6.165924361533485]}, {"species": [{"element": "S", "occu": 1}], "abc": [0.75, 0.49028237, 0.89070456], "properties": {"magmom": 0.0}, "label": "S", "xyz": [3.0701387024999995, 3.708921857934117, 14.056700401533485]}, {"species": [{"element": "S", "occu": 1}], "abc": [0.25, 0.50971763, 0.10929544000000001], "properties": {"magmom": 0.0}, "label": "S", "xyz": [1.0233795675, 3.8559470520658836, 1.7248516784665153]}]}, "task_ids": null, "uncorrected_energy_per_atom": null, "energy_per_atom": -18.9473471115, "formation_energy_per_atom": -2.364765114854165, "energy_above_hull": 0.0, "is_stable": true, "equilibrium_reaction_energy_per_atom": null, "decomposes_to": null, "xas": null, "grain_boundaries": null, "band_gap": 0.7775000000000001, "cbm": null, "vbm": null, "efermi": 3.90446601, "is_gap_direct": null, "is_metal": null, "es_source_calc_id": null, "bandstructure": null, "dos": null, "dos_energy_up": null, "dos_energy_down": null, "is_magnetic": null, "ordering": null, "total_magnetization": 0.0, "total_magnetization_normalized_vol": null, "total_magnetization_normalized_formula_units": null, "num_magnetic_sites": null, "num_unique_magnetic_sites": null, "types_of_magnetic_species": null, "bulk_modulus": null, "shear_modulus": null, "universal_anisotropy": null, "homogeneous_poisson": null, "e_total": null, "e_ionic": null, "e_electronic": null, "n": null, "e_ij_max": null, "weighted_surface_energy_EV_PER_ANG2": null, "weighted_surface_energy": null, "weighted_work_function": null, "surface_anisotropy": null, "shape_factor": null, "has_reconstructed": null, "possible_species": null, "has_props": null, "theoretical": null, "database_IDs": null, "fields_not_requested": ["builder_meta", "nsites", "elements", "nelements", "composition", "composition_reduced", "chemsys", "symmetry", "property_name", "deprecated", "deprecation_reasons", "last_updated", "origins", "warnings", "task_ids", "uncorrected_energy_per_atom", "equilibrium_reaction_energy_per_atom", "decomposes_to", "xas", "grain_boundaries", "cbm", "vbm", "is_gap_direct", "is_metal", "es_source_calc_id", "bandstructure", "dos", "dos_energy_up", "dos_energy_down", "is_magnetic", "ordering", "total_magnetization_normalized_vol", "total_magnetization_normalized_formula_units", "num_magnetic_sites", "num_unique_magnetic_sites", "types_of_magnetic_species", "bulk_modulus", "shear_modulus", "universal_anisotropy", "homogeneous_poisson", "e_total", "e_ionic", "e_electronic", "n", "e_ij_max", "weighted_surface_energy_EV_PER_ANG2", "weighted_surface_energy", "weighted_work_function", "surface_anisotropy", "shape_factor", "has_reconstructed", "possible_species", "has_props", "theoretical", "database_IDs"]}