{
  "builder_meta": null,
  "nsites": null,
  "elements": null,
  "nelements": null,
  "composition": null,
  "composition_reduced": null,
  "formula_pretty": "Pr2Sb",
  "formula_anonymous": "AB2",
  "chemsys": null,
  "volume": 190.56431131375933,
  "density": 7.033347926951816,
  "density_atomic": 31.760718552293223,
  "symmetry": null,
  "property_name": null,
  "material_id": "mp-1071848",
  "deprecated": null,
  "deprecation_reasons": null,
  "last_updated": null,
  "origins": null,
  "warnings": null,
  "structure": {
    "@module": "pymatgen.core.structure",
    "@class": "Structure",
    "charge": 0,
    "lattice": {
      "matrix": [
        [4.60181531, 0.0, -1e-8],
        [0.0, 4.6020441, -0.00076071],
        [-2.30090869, -2.30250585, 8.99870424]
      ],
      "pbc": [true, true, true],
      "a": 4.60181531,
      "b": 4.602044162872028,
      "c": 9.569346476536197,
      "alpha": 103.93187817182901,
      "beta": 103.91285048979263,
      "gamma": 89.99999999997941,
      "volume": 190.56431131375933
    },
    "properties": {},
    "sites": [
      {
        "species": [{ "element": "Pr", "occu": 1 }],
        "abc": [0.5, 0.0, 0.0],
        "properties": { "magmom": 0.0 },
        "label": "Pr",
        "xyz": [2.300907655, 0.0, -5e-9]
      },
      {
        "species": [{ "element": "Pr", "occu": 1 }],
        "abc": [0.0, 0.5, 0.0],
        "properties": { "magmom": 0.0 },
        "label": "Pr",
        "xyz": [0.0, 2.30102205, -0.000380355]
      },
      {
        "species": [{ "element": "Pr", "occu": 1 }],
        "abc": [0.67930846, 0.67916539, 0.35861791],
        "properties": { "magmom": -0.001 },
        "label": "Pr",
        "xyz": [2.300905005931885, 2.299829240283925, 3.2265798525600267]
      },
      {
        "species": [{ "element": "Pr", "occu": 1 }],
        "abc": [0.32069154, 0.32083461, 0.64138209],
        "properties": { "magmom": -0.001 },
        "label": "Pr",
        "xyz": [
          1.6140681153853365e-6, -0.00029099028392565174, 5.7713636674399735
        ]
      },
      {
        "species": [{ "element": "Sb", "occu": 1 }],
        "abc": [0.861430199999999, 0.86147104, 0.7228614],
        "properties": { "magmom": 0.0 },
        "label": "Sb",
        "xyz": [2.300904605930792, 2.3001351147136733, 6.504160606863195]
      },
      {
        "species": [{ "element": "Sb", "occu": 1 }],
        "abc": [0.1385698, 0.13852896, 0.2771386],
        "properties": { "magmom": 0.0 },
        "label": "Sb",
        "xyz": [2.014069203859492e-6, -0.0005968647136741501, 2.493782913136805]
      }
    ]
  },
  "task_ids": null,
  "uncorrected_energy_per_atom": null,
  "energy_per_atom": -29.172418715000003,
  "formation_energy_per_atom": -1.001009226111108,
  "energy_above_hull": 0.0,
  "is_stable": true,
  "equilibrium_reaction_energy_per_atom": null,
  "decomposes_to": null,
  "xas": null,
  "grain_boundaries": null,
  "band_gap": 0.0,
  "cbm": null,
  "vbm": null,
  "efermi": 4.88666057,
  "is_gap_direct": null,
  "is_metal": null,
  "es_source_calc_id": null,
  "bandstructure": null,
  "dos": null,
  "dos_energy_up": null,
  "dos_energy_down": null,
  "is_magnetic": null,
  "ordering": null,
  "total_magnetization": 0.0043897,
  "total_magnetization_normalized_vol": null,
  "total_magnetization_normalized_formula_units": null,
  "num_magnetic_sites": null,
  "num_unique_magnetic_sites": null,
  "types_of_magnetic_species": null,
  "bulk_modulus": null,
  "shear_modulus": null,
  "universal_anisotropy": null,
  "homogeneous_poisson": null,
  "e_total": null,
  "e_ionic": null,
  "e_electronic": null,
  "n": null,
  "e_ij_max": null,
  "weighted_surface_energy_EV_PER_ANG2": null,
  "weighted_surface_energy": null,
  "weighted_work_function": null,
  "surface_anisotropy": null,
  "shape_factor": null,
  "has_reconstructed": null,
  "possible_species": null,
  "has_props": null,
  "theoretical": null,
  "database_IDs": null,
  "fields_not_requested": [
    "builder_meta",
    "nsites",
    "elements",
    "nelements",
    "composition",
    "composition_reduced",
    "chemsys",
    "symmetry",
    "property_name",
    "deprecated",
    "deprecation_reasons",
    "last_updated",
    "origins",
    "warnings",
    "task_ids",
    "uncorrected_energy_per_atom",
    "equilibrium_reaction_energy_per_atom",
    "decomposes_to",
    "xas",
    "grain_boundaries",
    "cbm",
    "vbm",
    "is_gap_direct",
    "is_metal",
    "es_source_calc_id",
    "bandstructure",
    "dos",
    "dos_energy_up",
    "dos_energy_down",
    "is_magnetic",
    "ordering",
    "total_magnetization_normalized_vol",
    "total_magnetization_normalized_formula_units",
    "num_magnetic_sites",
    "num_unique_magnetic_sites",
    "types_of_magnetic_species",
    "bulk_modulus",
    "shear_modulus",
    "universal_anisotropy",
    "homogeneous_poisson",
    "e_total",
    "e_ionic",
    "e_electronic",
    "n",
    "e_ij_max",
    "weighted_surface_energy_EV_PER_ANG2",
    "weighted_surface_energy",
    "weighted_work_function",
    "surface_anisotropy",
    "shape_factor",
    "has_reconstructed",
    "possible_species",
    "has_props",
    "theoretical",
    "database_IDs"
  ]
}
