{"builder_meta": null, "nsites": null, "elements": null, "nelements": null, "composition": null, "composition_reduced": null, "formula_pretty": "Pr2Sn3", "formula_anonymous": "A2B3", "chemsys": null, "volume": 581.6275380024427, "density": 7.285302182507101, "density_atomic": 29.081376900122137, "symmetry": null, "property_name": null, "material_id": "mp-1209336", "deprecated": null, "deprecation_reasons": null, "last_updated": null, "origins": null, "warnings": null, "structure": {"@module": "pymatgen.core.structure", "@class": "Structure", "charge": 0, "lattice": {"matrix": [[6.44475325, -0.01009295, -0.76733514], [-1.81127838, 8.02031738, -2.56808996], [-0.00827727, -0.0319809, 11.26852575]], "pbc": [true, true, true], "a": 6.490281160173577, "b": 8.614018010686898, "c": 11.26857417198718, "alpha": 107.49459808266482, "beta": 96.83166991272077, "gamma": 100.07846078311195, "volume": 581.6275380024427}, "properties": {}, "sites": [{"species": [{"element": "Pr", "occu": 1}], "abc": [0.33043934, 0.034848, 0.74519262], "properties": {"magmom": -0.0}, "label": "Pr", "xyz": [2.060312420888868, 0.25232498166062894, 8.054171711033478]}, {"species": [{"element": "Pr", "occu": 1}], "abc": [0.66956162, 0.96514376, 0.25479791], "properties": {"magmom": -0.0}, "label": "Pr", "xyz": [2.5649063693938503, 7.725852754094051, -0.12115734955279356]}, {"species": [{"element": "Pr", "occu": 1}], "abc": [0.95914505, 0.25368642, 0.0544104], "properties": {"magmom": -0.0}, "label": "Pr", "xyz": [5.7215060807917055, 2.023224906802222, -0.7743502559446003]}, {"species": [{"element": "Pr", "occu": 1}], "abc": [0.04082721, 0.74626227, 0.94549876], "properties": {"magmom": -0.0}, "label": "Pr", "xyz": [-1.0963935696459755, 5.954610285836399, 8.706580327638102]}, {"species": [{"element": "Pr", "occu": 1}], "abc": [0.55621268, 0.4306653, 0.33560878], "properties": {"magmom": 0.0}, "label": "Pr", "xyz": [2.8018208057285654, 3.437725492952006, 2.249027411628122]}, {"species": [{"element": "Pr", "occu": 1}], "abc": [0.44378988, 0.56933658, 0.66439856], "properties": {"magmom": -0.0}, "label": "Pr", "xyz": [1.8233898268812385, 4.54053285466691, 5.6841491569638]}, {"species": [{"element": "Pr", "occu": 1}], "abc": [0.12849039, 0.75056492, 0.38061658], "properties": {"magmom": 0.0}, "label": "Pr", "xyz": [-0.5345436200352986, 6.006299564829236, 2.262874305827427]}, {"species": [{"element": "Pr", "occu": 1}], "abc": [0.8715112500000001, 0.24944562, 0.61942051], "properties": {"magmom": 0.0}, "label": "Pr", "xyz": [5.159732391552559, 1.9720272965919292, 5.6706159676948324]}, {"species": [{"element": "Sn", "occu": 1}], "abc": [0.04784424, 0.35151881, 0.38145726], "properties": {"magmom": 0.0}, "label": "Sn", "xyz": [-0.33151152421702806, 2.806610185231476, 3.359016463523704]}, {"species": [{"element": "Sn", "occu": 1}], "abc": [0.95218421, 0.6484888400000001, 0.61862397], "properties": {"magmom": 0.0}, "label": "Sn", "xyz": [4.956877948804741, 5.1716918152435465, 4.574958052250042]}, {"species": [{"element": "Sn", "occu": 1}], "abc": [0.35198872000000003, 0.164825399999999, 0.49703448], "properties": {"magmom": 0.0}, "label": "Sn", "xyz": [1.9658216750982203, 1.302503805732488, 4.907466067885258]}, {"species": [{"element": "Sn", "occu": 1}], "abc": [0.6480193200000001, 0.8352286, 0.50303373], "properties": {"magmom": 0.0}, "label": "Sn", "xyz": [2.6593293670928055, 6.676170558841517, 3.0262583620237864]}, {"species": [{"element": "Sn", "occu": 1}], "abc": [0.43806767, 0.16535732, 0.05296871], "properties": {"magmom": 0.0}, "label": "Sn", "xyz": [2.5232914649474645, 1.320102805398656, -0.16391791761414853]}, {"species": [{"element": "Sn", "occu": 1}], "abc": [0.56192841, 0.83465038, 0.9470006400000001], "properties": {"magmom": 0.0}, "label": "Sn", "xyz": [2.1018671784745955, 6.6582035008241185, 8.096656420960969]}, {"species": [{"element": "Sn", "occu": 1}], "abc": [0.32842061, 0.60025929, 0.13631058000000001], "properties": {"magmom": -0.0}, "label": "Sn", "xyz": [1.0282248398188154, 4.806595948269839, -0.2575092500715286]}, {"species": [{"element": "Sn", "occu": 1}], "abc": [0.67154389, 0.39973646, 0.86365842], "properties": {"magmom": -0.0}, "label": "Sn", "xyz": [3.5967519259692944, 3.1716148450889214, 8.19029873055308]}, {"species": [{"element": "Sn", "occu": 1}], "abc": [0.22467576, 0.40685738, 0.86499288], "properties": {"magmom": 0.0}, "label": "Sn", "xyz": [0.703888078702938, 3.2331944239873804, 8.529946583362548]}, {"species": [{"element": "Sn", "occu": 1}], "abc": [0.77535194, 0.59313689, 0.13498011000000001], "properties": {"magmom": -0.0}, "label": "Sn", "xyz": [3.9214986431562666, 4.7450037338234266, -0.5971568362709632]}, {"species": [{"element": "Sn", "occu": 1}], "abc": [0.17910461, 0.04211583, 0.22355671], "properties": {"magmom": 0.0}, "label": "Sn", "xyz": [1.0761510858037453, 0.3288250846617869, 2.27356404205122]}, {"species": [{"element": "Sn", "occu": 1}], "abc": [0.82089221, 0.9578729300000001, 0.77643839], "properties": {"magmom": 0.0}, "label": "Sn", "xyz": [3.549046419208533, 7.649328485772853, 5.659512697629501]}]}, "task_ids": null, "uncorrected_energy_per_atom": null, "energy_per_atom": -5.024650465999997, "formation_energy_per_atom": -0.700718769666663, "energy_above_hull": 0.0, "is_stable": true, "equilibrium_reaction_energy_per_atom": null, "decomposes_to": null, "xas": null, "grain_boundaries": null, "band_gap": 0.0, "cbm": null, "vbm": null, "efermi": 6.31820132, "is_gap_direct": null, "is_metal": null, "es_source_calc_id": null, "bandstructure": null, "dos": null, "dos_energy_up": null, "dos_energy_down": null, "is_magnetic": null, "ordering": null, "total_magnetization": 1e-07, "total_magnetization_normalized_vol": null, "total_magnetization_normalized_formula_units": null, "num_magnetic_sites": null, "num_unique_magnetic_sites": null, "types_of_magnetic_species": null, "bulk_modulus": null, "shear_modulus": null, "universal_anisotropy": null, "homogeneous_poisson": null, "e_total": null, "e_ionic": null, "e_electronic": null, "n": null, "e_ij_max": null, "weighted_surface_energy_EV_PER_ANG2": null, "weighted_surface_energy": null, "weighted_work_function": null, "surface_anisotropy": null, "shape_factor": null, "has_reconstructed": null, "possible_species": null, "has_props": null, "theoretical": null, "database_IDs": null, "fields_not_requested": ["builder_meta", "nsites", "elements", "nelements", "composition", "composition_reduced", "chemsys", "symmetry", "property_name", "deprecated", "deprecation_reasons", "last_updated", "origins", "warnings", "task_ids", "uncorrected_energy_per_atom", "equilibrium_reaction_energy_per_atom", "decomposes_to", "xas", "grain_boundaries", "cbm", "vbm", "is_gap_direct", "is_metal", "es_source_calc_id", "bandstructure", "dos", "dos_energy_up", "dos_energy_down", "is_magnetic", "ordering", "total_magnetization_normalized_vol", "total_magnetization_normalized_formula_units", "num_magnetic_sites", "num_unique_magnetic_sites", "types_of_magnetic_species", "bulk_modulus", "shear_modulus", "universal_anisotropy", "homogeneous_poisson", "e_total", "e_ionic", "e_electronic", "n", "e_ij_max", "weighted_surface_energy_EV_PER_ANG2", "weighted_surface_energy", "weighted_work_function", "surface_anisotropy", "shape_factor", "has_reconstructed", "possible_species", "has_props", "theoretical", "database_IDs"]}