{
  "builder_meta": null,
  "nsites": null,
  "elements": null,
  "nelements": null,
  "composition": null,
  "composition_reduced": null,
  "formula_pretty": "Pr2Sn5",
  "formula_anonymous": "A2B5",
  "chemsys": null,
  "volume": 388.93538100493896,
  "density": 7.474651827459072,
  "density_atomic": 27.781098643209926,
  "symmetry": null,
  "property_name": null,
  "material_id": "mp-1209313",
  "deprecated": null,
  "deprecation_reasons": null,
  "last_updated": null,
  "origins": null,
  "warnings": null,
  "structure": {
    "@module": "pymatgen.core.structure",
    "@class": "Structure",
    "charge": 0,
    "lattice": {
      "matrix": [
        [4.61885339, 0.00278246, 3.4110000000000004e-5],
        [3.4710000000000005e-5, -5.127e-5, 4.6937342300000005],
        [-2.31960487, -17.94149407, 0.00018188000000000001]
      ],
      "pbc": [true, true, true],
      "a": 4.618854228221718,
      "b": 4.693734230408353,
      "c": 18.09082022048346,
      "alpha": 89.99885761117997,
      "beta": 97.4012604429308,
      "gamma": 89.99915355044162,
      "volume": 388.93538100493896
    },
    "properties": {},
    "sites": [
      {
        "species": [{ "element": "Pr", "occu": 1 }],
        "abc": [0.93124587, 0.50000372, 0.86307782],
        "properties": { "magmom": 0.0 },
        "label": "Pr",
        "xyz": [2.2993059842411374, -15.482340070285812, 2.347073317081864]
      },
      {
        "species": [{ "element": "Pr", "occu": 1 }],
        "abc": [0.06874985, 0.49999723, 0.13699723],
        "properties": { "magmom": 0.0 },
        "label": "Pr",
        "xyz": [-0.0002166092461653446, -2.457769330801777, 2.346881375469759]
      },
      {
        "species": [{ "element": "Pr", "occu": 1 }],
        "abc": [0.79737764, 0.50000263, 0.59543236],
        "properties": { "magmom": 0.0 },
        "label": "Pr",
        "xyz": [2.3018199687038936, -10.680753119772751, 2.3470149553099624]
      },
      {
        "species": [{ "element": "Pr", "occu": 1 }],
        "abc": [0.20254909000000001, 0.49999633, 0.40450784],
        "properties": { "magmom": 0.0 },
        "label": "Pr",
        "xyz": [-0.002736449756651327, -7.256937062699387, 2.3469303698307753]
      },
      {
        "species": [{ "element": "Sn", "occu": 1 }],
        "abc": [0.63734078, 0.49999889000000003, 0.27392131000000003],
        "properties": { "magmom": -0.0 },
        "label": "Sn",
        "xyz": [2.308411772576936, -4.912809818728005, 2.346933465456874]
      },
      {
        "species": [{ "element": "Sn", "occu": 1 }],
        "abc": [0.36264083, 0.50000324, 0.72609201],
        "properties": { "magmom": 0.0 },
        "label": "Sn",
        "xyz": [-0.009244380353714554, -13.026192093251655, 2.3470267539923952]
      },
      {
        "species": [{ "element": "Sn", "occu": 1 }],
        "abc": [0.72325121, 9.199999999999999e-7, 0.44509743],
        "properties": { "magmom": -0.0 },
        "label": "Sn",
        "xyz": [2.3081411369095512, -7.983700483402632, 0.00010994265483310002]
      },
      {
        "species": [{ "element": "Sn", "occu": 1 }],
        "abc": [0.27675023, 4.43e-6, 0.5548384],
        "properties": { "magmom": -0.0 },
        "label": "Sn",
        "xyz": [
          -0.008737116530463052, -9.953859817190448, 0.00013114720117620002
        ]
      },
      {
        "species": [{ "element": "Sn", "occu": 1 }],
        "abc": [0.50002232, 0.49999891, -5.91e-6],
        "properties": { "magmom": -0.0 },
        "label": "Sn",
        "xyz": [2.3095608516346124, 0.0014716913903452002, 2.346879053516114]
      },
      {
        "species": [{ "element": "Sn", "occu": 1 }],
        "abc": [0.57300153, 0.99999759, 0.14448754],
        "properties": { "magmom": 0.0 },
        "label": "Sn",
        "xyz": [2.3114907677937153, -2.5907792581381632, 4.693768742576469]
      },
      {
        "species": [{ "element": "Sn", "occu": 1 }],
        "abc": [0.42702457, 4.62e-6, 0.85554852],
        "properties": { "magmom": 0.0 },
        "label": "Sn",
        "xyz": [-0.01217063059514012, -15.348630519629104, 0.0001918580250429]
      },
      {
        "species": [{ "element": "Sn", "occu": 1 }],
        "abc": [0.86368188, -5.75e-6, 0.72527146],
        "properties": { "magmom": -0.0 },
        "label": "Sn",
        "xyz": [2.3068767684319806, -13.010050438151616, 0.0001343835902491]
      },
      {
        "species": [{ "element": "Sn", "occu": 1 }],
        "abc": [0.13631949000000002, -1.7e-6, 0.274737599999999],
        "properties": { "magmom": -0.0 },
        "label": "Sn",
        "xyz": [
          -0.007642936481545681, -4.928823717590711, 4.6639784300899825e-5
        ]
      },
      {
        "species": [{ "element": "Sn", "occu": 1 }],
        "abc": [4.3710000000000013e-5, -1.06e-6, -3.62e-6],
        "properties": { "magmom": 0.0 },
        "label": "Sn",
        "xyz": [0.00021028701451370006, 6.506988420620001e-5, -4.9745257413e-6]
      }
    ]
  },
  "task_ids": null,
  "uncorrected_energy_per_atom": null,
  "energy_per_atom": -4.772983832142858,
  "formation_energy_per_atom": -0.538869233333333,
  "energy_above_hull": 0.021208527857142,
  "is_stable": false,
  "equilibrium_reaction_energy_per_atom": null,
  "decomposes_to": null,
  "xas": null,
  "grain_boundaries": null,
  "band_gap": 0.0,
  "cbm": null,
  "vbm": null,
  "efermi": 7.16845971,
  "is_gap_direct": null,
  "is_metal": null,
  "es_source_calc_id": null,
  "bandstructure": null,
  "dos": null,
  "dos_energy_up": null,
  "dos_energy_down": null,
  "is_magnetic": null,
  "ordering": null,
  "total_magnetization": 2e-7,
  "total_magnetization_normalized_vol": null,
  "total_magnetization_normalized_formula_units": null,
  "num_magnetic_sites": null,
  "num_unique_magnetic_sites": null,
  "types_of_magnetic_species": null,
  "bulk_modulus": null,
  "shear_modulus": null,
  "universal_anisotropy": null,
  "homogeneous_poisson": null,
  "e_total": null,
  "e_ionic": null,
  "e_electronic": null,
  "n": null,
  "e_ij_max": null,
  "weighted_surface_energy_EV_PER_ANG2": null,
  "weighted_surface_energy": null,
  "weighted_work_function": null,
  "surface_anisotropy": null,
  "shape_factor": null,
  "has_reconstructed": null,
  "possible_species": null,
  "has_props": null,
  "theoretical": null,
  "database_IDs": null,
  "fields_not_requested": [
    "builder_meta",
    "nsites",
    "elements",
    "nelements",
    "composition",
    "composition_reduced",
    "chemsys",
    "symmetry",
    "property_name",
    "deprecated",
    "deprecation_reasons",
    "last_updated",
    "origins",
    "warnings",
    "task_ids",
    "uncorrected_energy_per_atom",
    "equilibrium_reaction_energy_per_atom",
    "decomposes_to",
    "xas",
    "grain_boundaries",
    "cbm",
    "vbm",
    "is_gap_direct",
    "is_metal",
    "es_source_calc_id",
    "bandstructure",
    "dos",
    "dos_energy_up",
    "dos_energy_down",
    "is_magnetic",
    "ordering",
    "total_magnetization_normalized_vol",
    "total_magnetization_normalized_formula_units",
    "num_magnetic_sites",
    "num_unique_magnetic_sites",
    "types_of_magnetic_species",
    "bulk_modulus",
    "shear_modulus",
    "universal_anisotropy",
    "homogeneous_poisson",
    "e_total",
    "e_ionic",
    "e_electronic",
    "n",
    "e_ij_max",
    "weighted_surface_energy_EV_PER_ANG2",
    "weighted_surface_energy",
    "weighted_work_function",
    "surface_anisotropy",
    "shape_factor",
    "has_reconstructed",
    "possible_species",
    "has_props",
    "theoretical",
    "database_IDs"
  ]
}
