{
  "builder_meta": null,
  "nsites": null,
  "elements": null,
  "nelements": null,
  "composition": null,
  "composition_reduced": null,
  "formula_pretty": "Pr2Se3",
  "formula_anonymous": "A2B3",
  "chemsys": null,
  "volume": 1094.1215182398767,
  "density": 6.297756108096001,
  "density_atomic": 27.353037955996918,
  "symmetry": null,
  "property_name": null,
  "material_id": "mp-32689",
  "deprecated": null,
  "deprecation_reasons": null,
  "last_updated": null,
  "origins": null,
  "warnings": null,
  "structure": {
    "@module": "pymatgen.core.structure",
    "@class": "Structure",
    "charge": 0,
    "lattice": {
      "matrix": [
        [23.38628204, 0.00873516, 0.015111910000000001],
        [5.1997111, 7.35403263, -0.0002292],
        [5.19968617, -3.67721101, 6.36861925]
      ],
      "pbc": [true, true, true],
      "a": 23.386288553921304,
      "b": 9.00659710984679,
      "c": 9.006549185455274,
      "alpha": 90.00489026244433,
      "beta": 54.71618471635412,
      "gamma": 54.71616810645064,
      "volume": 1094.1215182398769
    },
    "properties": {},
    "sites": [
      {
        "species": [{ "element": "Pr", "occu": 1 }],
        "abc": [0.08425751000000001, 0.62361945, 0.37352223],
        "properties": { "magmom": -0.0 },
        "label": "Pr",
        "xyz": [7.155309242707574, 3.2133337301979523, 2.3799512226109316]
      },
      {
        "species": [{ "element": "Pr", "occu": 1 }],
        "abc": [0.16663146, 0.25006007, 0.63077782],
        "properties": { "magmom": 0.0 },
        "label": "Pr",
        "xyz": [8.476977148939506, -0.4790976778635805, 4.0196445727836805]
      },
      {
        "species": [{ "element": "Pr", "occu": 1 }],
        "abc": [0.33770505, 0.378884799999999, 0.25166629],
        "properties": { "magmom": -0.0 },
        "label": "Pr",
        "xyz": [11.176342773381787, 1.8638510374217214, 1.607783306996068]
      },
      {
        "species": [{ "element": "Pr", "occu": 1 }],
        "abc": [0.24907265, 0.87637626, 0.12633771],
        "properties": { "magmom": -0.0 },
        "label": "Pr",
        "xyz": [11.038703051685163, 5.982504883456551, 0.808159869938387]
      },
      {
        "species": [{ "element": "Pr", "occu": 1 }],
        "abc": [0.33778435, 0.10775288, 0.7352476],
        "properties": { "magmom": -0.0 },
        "label": "Pr",
        "xyz": [12.282860701236734, -1.9082917739568561, 4.687591888612812]
      },
      {
        "species": [{ "element": "Pr", "occu": 1 }],
        "abc": [0.16664348, 0.7500076800000001, 0.8692354600000001],
        "properties": { "magmom": -0.0 },
        "label": "Pr",
        "xyz": [12.316746282023937, 2.3206744051369412, 5.538176082850197]
      },
      {
        "species": [{ "element": "Pr", "occu": 1 }],
        "abc": [0.49559638, 0.26471519, 0.62108268],
        "properties": { "magmom": -0.0 },
        "label": "Pr",
        "xyz": [16.19603425408716, -0.3327988104249364, 3.962867846858928]
      },
      {
        "species": [{ "element": "Pr", "occu": 1 }],
        "abc": [0.6666434800000001, 0.36923546, 0.25000768],
        "properties": { "magmom": -0.0 },
        "label": "Pr",
        "xyz": [18.81019163937249, 1.8018618649732598, 1.602193351000255]
      },
      {
        "species": [{ "element": "Pr", "occu": 1 }],
        "abc": [0.58425751, 0.8735222300000001, 0.12361945],
        "properties": { "magmom": -0.0 },
        "label": "Pr",
        "xyz": [18.848456492783882, 5.974439762691272, 0.7959142445572407]
      },
      {
        "species": [{ "element": "Pr", "occu": 1 }],
        "abc": [0.66663046, 0.13077782, 0.75006007],
        "properties": { "magmom": 0.0 },
        "label": "Pr",
        "xyz": [20.170091808950975, -1.7905616682761307, 4.786891085696782]
      },
      {
        "species": [{ "element": "Pr", "occu": 1 }],
        "abc": [0.49558751, 0.7485356400000001, 0.89219814],
        "properties": { "magmom": -0.0 },
        "label": "Pr",
        "xyz": [20.12126868987265, 2.228283733962263, 5.689387958697751]
      },
      {
        "species": [{ "element": "Pr", "occu": 1 }],
        "abc": [0.74907265, 0.62633771, 0.37637626],
        "properties": { "magmom": -0.0 },
        "label": "Pr",
        "xyz": [22.731837838224113, 3.2286362990142283, 2.408173456546135]
      },
      {
        "species": [{ "element": "Pr", "occu": 1 }],
        "abc": [0.8377843500000001, 0.2352476, 0.60775188],
        "properties": { "magmom": -0.0 },
        "label": "Pr",
        "xyz": [23.975999699993935, -0.4974951976122648, 3.883146925138379]
      },
      {
        "species": [{ "element": "Pr", "occu": 1 }],
        "abc": [0.99558851, 0.39219714, 0.24853464],
        "properties": { "magmom": -0.0 },
        "label": "Pr",
        "xyz": [26.614727643263546, 1.9790128753073033, 1.5977778449714861]
      },
      {
        "species": [{ "element": "Pr", "occu": 1 }],
        "abc": [0.99559738, 0.12108368, 0.76471519],
        "properties": { "magmom": -0.0 },
        "label": "Pr",
        "xyz": [27.889200279321827, -1.9128690800918826, 4.885197505424747]
      },
      {
        "species": [{ "element": "Pr", "occu": 1 }],
        "abc": [0.8377050500000001, 0.7516662900000001, 0.8788838],
        "properties": { "magmom": -0.0 },
        "label": "Pr",
        "xyz": [28.06917405713817, 2.3032547253049627, 5.609763328601628]
      },
      {
        "species": [{ "element": "Se", "occu": 1 }],
        "abc": [0.05008993, 0.9991144200000001, 0.35381407],
        "properties": { "magmom": 0.0 },
        "label": "Se",
        "xyz": [8.20624569671833, 6.046908595639552, 2.2538350546118497]
      },
      {
        "species": [{ "element": "Se", "occu": 1 }],
        "abc": [0.12547845, 0.4892955, 0.99277451],
        "properties": { "magmom": -0.0 },
        "label": "Se",
        "xyz": [10.640785553747616, -0.05125021156988829, 6.324386927810058]
      },
      {
        "species": [{ "element": "Se", "occu": 1 }],
        "abc": [0.04994878, 0.35091812, 0.49625831000000004],
        "properties": { "magmom": 0.0 },
        "label": "Se",
        "xyz": [5.573176571643616, 0.7562530941873671, 3.1611546170733336]
      },
      {
        "species": [{ "element": "Se", "occu": 1 }],
        "abc": [0.28316619, 0.14948637, 0.14656463],
        "properties": { "magmom": -0.0 },
        "label": "Se",
        "xyz": [8.161580400542102, 0.5628520735839172, 0.9376592436894464]
      },
      {
        "species": [{ "element": "Se", "occu": 1 }],
        "abc": [0.28329126, 0.50068251, 0.0039175600000000005],
        "properties": { "magmom": 0.0 },
        "label": "Se",
        "xyz": [9.248903793201976, 3.6701044155286673, 0.029115763622644602]
      },
      {
        "species": [{ "element": "Se", "occu": 1 }],
        "abc": [0.12521519, 0.63466767, 0.63117354],
        "properties": { "magmom": -0.0 },
        "label": "Se",
        "xyz": [9.510310604350266, 2.3475022385964768, 4.021450731786594]
      },
      {
        "species": [{ "element": "Se", "occu": 1 }],
        "abc": [0.38418516, 0.00095673, 0.34393965],
        "properties": { "magmom": 0.0 },
        "label": "Se",
        "xyz": [10.77801546836287, -1.254346925275221, 2.196226228107002]
      },
      {
        "species": [{ "element": "Se", "occu": 1 }],
        "abc": [0.207983399999999, 0.86525997, 0.50692517],
        "properties": { "magmom": 0.0 },
        "label": "Se",
        "xyz": [11.998912118106679, 4.500896004719043, 3.231358104808693]
      },
      {
        "species": [{ "element": "Se", "occu": 1 }],
        "abc": [0.44921566, 0.49632408, -0.00130252],
        "properties": { "magmom": 0.0 },
        "label": "Se",
        "xyz": [13.079453254287886, 3.658697090924081, -0.001620504800135398]
      },
      {
        "species": [{ "element": "Se", "occu": 1 }],
        "abc": [0.38417643, 0.3461776, 0.50365596],
        "properties": { "magmom": 0.0 },
        "label": "Se",
        "xyz": [13.403334784041752, 0.6971079673952467, 3.2133193379615914]
      },
      {
        "species": [{ "element": "Se", "occu": 1 }],
        "abc": [0.20801125, 0.01076447, 0.868993599999999],
        "properties": { "magmom": 0.0 },
        "label": "Se",
        "xyz": [9.439075897876073, -3.1144935583643263, 5.537430349159258]
      },
      {
        "species": [{ "element": "Se", "occu": 1 }],
        "abc": [0.62521419, 0.13117454, 0.13466767],
        "properties": { "magmom": -0.0 },
        "label": "Se",
        "xyz": [16.003734715670667, 0.47492175455411395, 0.8670652308800824]
      },
      {
        "species": [{ "element": "Se", "occu": 1 }],
        "abc": [0.62547845, 0.49277351, 0.9892955],
        "properties": { "magmom": -0.0 },
        "label": "Se",
        "xyz": [22.333921460768234, -0.008512178666522097, 6.3097855955932225]
      },
      {
        "species": [{ "element": "Se", "occu": 1 }],
        "abc": [0.44929593, 0.65602536, 0.65359981],
        "properties": { "magmom": 0.0 },
        "label": "Se",
        "xyz": [17.31701757744922, 2.424932157917487, 4.169167690407357]
      },
      {
        "species": [{ "element": "Se", "occu": 1 }],
        "abc": [0.707983399999999, 0.0069251700000000005, 0.36525897],
        "properties": { "magmom": 0.0 },
        "label": "Se",
        "xyz": [18.49234037013395, -1.2860220315606188, 2.3368927017505023]
      },
      {
        "species": [{ "element": "Se", "occu": 1 }],
        "abc": [0.5500899300000001, 0.85381407, 0.49911442],
        "properties": { "magmom": 0.0 },
        "label": "Se",
        "xyz": [19.89938309438061, 4.448432613812278, 3.1867869184938074]
      },
      {
        "species": [{ "element": "Se", "occu": 1 }],
        "abc": [0.78329126, 0.50391856, 0.00068251],
        "properties": { "magmom": 0.0 },
        "label": "Se",
        "xyz": [20.942050093562877, 3.7101659742988793, 0.0160681752152721]
      },
      {
        "species": [{ "element": "Se", "occu": 1 }],
        "abc": [0.70801125, 0.3689926, 0.51076347],
        "properties": { "magmom": 0.0 },
        "label": "Se",
        "xyz": [21.13221544913102, 0.8415831567892831, 3.263472896423865]
      },
      {
        "species": [{ "element": "Se", "occu": 1 }],
        "abc": [0.54994878, 0.99625831, 0.85091812],
        "properties": { "magmom": 0.0 },
        "label": "Se",
        "xyz": [22.466019849974554, 4.202314530761258, 5.427255953269127]
      },
      {
        "species": [{ "element": "Se", "occu": 1 }],
        "abc": [0.94929593, 0.15359981, 0.15602636],
        "properties": { "magmom": 0.0 },
        "label": "Se",
        "xyz": [23.81046510166643, 0.5641284176954753, 1.0079829493845043]
      },
      {
        "species": [{ "element": "Se", "occu": 1 }],
        "abc": [0.94921566, 0.49869648, 0.9963240800000001],
        "properties": { "magmom": 0.0 },
        "label": "Se",
        "xyz": [29.97227530374565, 0.012027860546627078, 6.359438875517835]
      },
      {
        "species": [{ "element": "Se", "occu": 1 }],
        "abc": [0.78316619, 0.6465636300000001, 0.64948637],
        "properties": { "magmom": -0.0 },
        "label": "Se",
        "xyz": [25.054414782992023, 2.373392683758554, 4.14801834318895]
      },
      {
        "species": [{ "element": "Se", "occu": 1 }],
        "abc": [0.88418516, 0.84393865, 0.50095673],
        "properties": { "magmom": 0.0 },
        "label": "Se",
        "xyz": [27.67085847421597, 4.371952265570778, 3.203570969917728]
      },
      {
        "species": [{ "element": "Se", "occu": 1 }],
        "abc": [0.88417643, 0.00365596, 0.8461776],
        "properties": { "magmom": 0.0 },
        "label": "Se",
        "xyz": [25.096467264977264, -3.076964115417123, 5.40234370896705]
      }
    ]
  },
  "task_ids": null,
  "uncorrected_energy_per_atom": null,
  "energy_per_atom": -22.53929639975,
  "formation_energy_per_atom": -2.190777713854166,
  "energy_above_hull": 0.0,
  "is_stable": true,
  "equilibrium_reaction_energy_per_atom": null,
  "decomposes_to": null,
  "xas": null,
  "grain_boundaries": null,
  "band_gap": 1.475099999999999,
  "cbm": null,
  "vbm": null,
  "efermi": 4.11208238,
  "is_gap_direct": null,
  "is_metal": null,
  "es_source_calc_id": null,
  "bandstructure": null,
  "dos": null,
  "dos_energy_up": null,
  "dos_energy_down": null,
  "is_magnetic": null,
  "ordering": null,
  "total_magnetization": 0.0,
  "total_magnetization_normalized_vol": null,
  "total_magnetization_normalized_formula_units": null,
  "num_magnetic_sites": null,
  "num_unique_magnetic_sites": null,
  "types_of_magnetic_species": null,
  "bulk_modulus": null,
  "shear_modulus": null,
  "universal_anisotropy": null,
  "homogeneous_poisson": null,
  "e_total": null,
  "e_ionic": null,
  "e_electronic": null,
  "n": null,
  "e_ij_max": null,
  "weighted_surface_energy_EV_PER_ANG2": null,
  "weighted_surface_energy": null,
  "weighted_work_function": null,
  "surface_anisotropy": null,
  "shape_factor": null,
  "has_reconstructed": null,
  "possible_species": null,
  "has_props": null,
  "theoretical": null,
  "database_IDs": null,
  "fields_not_requested": [
    "builder_meta",
    "nsites",
    "elements",
    "nelements",
    "composition",
    "composition_reduced",
    "chemsys",
    "symmetry",
    "property_name",
    "deprecated",
    "deprecation_reasons",
    "last_updated",
    "origins",
    "warnings",
    "task_ids",
    "uncorrected_energy_per_atom",
    "equilibrium_reaction_energy_per_atom",
    "decomposes_to",
    "xas",
    "grain_boundaries",
    "cbm",
    "vbm",
    "is_gap_direct",
    "is_metal",
    "es_source_calc_id",
    "bandstructure",
    "dos",
    "dos_energy_up",
    "dos_energy_down",
    "is_magnetic",
    "ordering",
    "total_magnetization_normalized_vol",
    "total_magnetization_normalized_formula_units",
    "num_magnetic_sites",
    "num_unique_magnetic_sites",
    "types_of_magnetic_species",
    "bulk_modulus",
    "shear_modulus",
    "universal_anisotropy",
    "homogeneous_poisson",
    "e_total",
    "e_ionic",
    "e_electronic",
    "n",
    "e_ij_max",
    "weighted_surface_energy_EV_PER_ANG2",
    "weighted_surface_energy",
    "weighted_work_function",
    "surface_anisotropy",
    "shape_factor",
    "has_reconstructed",
    "possible_species",
    "has_props",
    "theoretical",
    "database_IDs"
  ]
}
