{
  "builder_meta": null,
  "nsites": null,
  "elements": null,
  "nelements": null,
  "composition": null,
  "composition_reduced": null,
  "formula_pretty": "Pr2Tl",
  "formula_anonymous": "AB2",
  "chemsys": null,
  "volume": 190.4990073630373,
  "density": 8.476178228977773,
  "density_atomic": 31.749834560506216,
  "symmetry": null,
  "property_name": null,
  "material_id": "mp-12600",
  "deprecated": null,
  "deprecation_reasons": null,
  "last_updated": null,
  "origins": null,
  "warnings": null,
  "structure": {
    "@module": "pymatgen.core.structure",
    "@class": "Structure",
    "charge": 0,
    "lattice": {
      "matrix": [
        [5.61686858, 0.0, 0.0],
        [-2.80843429, 4.86435083, -0.0],
        [0.0, 0.0, 6.97225985]
      ],
      "pbc": [true, true, true],
      "a": 5.61686858,
      "b": 5.616868536699919,
      "c": 6.97225985,
      "alpha": 90.0,
      "beta": 90.0,
      "gamma": 120.00000025500957,
      "volume": 190.4990073630373
    },
    "properties": {},
    "sites": [
      {
        "species": [{ "element": "Pr", "occu": 1 }],
        "abc": [0.666667, 0.333333, 0.24997303],
        "properties": { "magmom": 0.185 },
        "label": "Pr",
        "xyz": [2.80843709843429, 1.62144865521639, 1.7428769206518457]
      },
      {
        "species": [{ "element": "Pr", "occu": 1 }],
        "abc": [0.333333, 0.666667, 0.7500269700000001],
        "properties": { "magmom": 0.185 },
        "label": "Pr",
        "xyz": [-2.8084342900136505e-6, 3.24290217478361, 5.229382929348155]
      },
      {
        "species": [{ "element": "Pr", "occu": 1 }],
        "abc": [-0.0, 0.0, 0.0],
        "properties": { "magmom": 0.365 },
        "label": "Pr",
        "xyz": [0.0, 0.0, 0.0]
      },
      {
        "species": [{ "element": "Pr", "occu": 1 }],
        "abc": [-0.0, 0.0, 0.5],
        "properties": { "magmom": 0.365 },
        "label": "Pr",
        "xyz": [0.0, 0.0, 3.486129925]
      },
      {
        "species": [{ "element": "Tl", "occu": 1 }],
        "abc": [0.666667, 0.333333, 0.74997609],
        "properties": { "magmom": -0.038 },
        "label": "Tl",
        "xyz": [2.80843709843429, 1.62144865521639, 5.229028180766987]
      },
      {
        "species": [{ "element": "Tl", "occu": 1 }],
        "abc": [0.333333, 0.666667, 0.25002391],
        "properties": { "magmom": -0.038 },
        "label": "Tl",
        "xyz": [-2.8084342900136505e-6, 3.24290217478361, 1.7432316692330136]
      }
    ]
  },
  "task_ids": null,
  "uncorrected_energy_per_atom": null,
  "energy_per_atom": -37.70829379,
  "formation_energy_per_atom": -0.37922135111110805,
  "energy_above_hull": 0.014744817592593001,
  "is_stable": false,
  "equilibrium_reaction_energy_per_atom": null,
  "decomposes_to": null,
  "xas": null,
  "grain_boundaries": null,
  "band_gap": 0.0,
  "cbm": null,
  "vbm": null,
  "efermi": 4.76314837,
  "is_gap_direct": null,
  "is_metal": null,
  "es_source_calc_id": null,
  "bandstructure": null,
  "dos": null,
  "dos_energy_up": null,
  "dos_energy_down": null,
  "is_magnetic": null,
  "ordering": null,
  "total_magnetization": 2.0428822,
  "total_magnetization_normalized_vol": null,
  "total_magnetization_normalized_formula_units": null,
  "num_magnetic_sites": null,
  "num_unique_magnetic_sites": null,
  "types_of_magnetic_species": null,
  "bulk_modulus": null,
  "shear_modulus": null,
  "universal_anisotropy": null,
  "homogeneous_poisson": null,
  "e_total": null,
  "e_ionic": null,
  "e_electronic": null,
  "n": null,
  "e_ij_max": null,
  "weighted_surface_energy_EV_PER_ANG2": null,
  "weighted_surface_energy": null,
  "weighted_work_function": null,
  "surface_anisotropy": null,
  "shape_factor": null,
  "has_reconstructed": null,
  "possible_species": null,
  "has_props": null,
  "theoretical": null,
  "database_IDs": null,
  "fields_not_requested": [
    "builder_meta",
    "nsites",
    "elements",
    "nelements",
    "composition",
    "composition_reduced",
    "chemsys",
    "symmetry",
    "property_name",
    "deprecated",
    "deprecation_reasons",
    "last_updated",
    "origins",
    "warnings",
    "task_ids",
    "uncorrected_energy_per_atom",
    "equilibrium_reaction_energy_per_atom",
    "decomposes_to",
    "xas",
    "grain_boundaries",
    "cbm",
    "vbm",
    "is_gap_direct",
    "is_metal",
    "es_source_calc_id",
    "bandstructure",
    "dos",
    "dos_energy_up",
    "dos_energy_down",
    "is_magnetic",
    "ordering",
    "total_magnetization_normalized_vol",
    "total_magnetization_normalized_formula_units",
    "num_magnetic_sites",
    "num_unique_magnetic_sites",
    "types_of_magnetic_species",
    "bulk_modulus",
    "shear_modulus",
    "universal_anisotropy",
    "homogeneous_poisson",
    "e_total",
    "e_ionic",
    "e_electronic",
    "n",
    "e_ij_max",
    "weighted_surface_energy_EV_PER_ANG2",
    "weighted_surface_energy",
    "weighted_work_function",
    "surface_anisotropy",
    "shape_factor",
    "has_reconstructed",
    "possible_species",
    "has_props",
    "theoretical",
    "database_IDs"
  ]
}
