{
  "builder_meta": null,
  "nsites": null,
  "elements": null,
  "nelements": null,
  "composition": null,
  "composition_reduced": null,
  "formula_pretty": "Pr2Te3",
  "formula_anonymous": "A2B3",
  "chemsys": null,
  "volume": 1335.6738985908535,
  "density": 6.610114466259504,
  "density_atomic": 33.39184746477134,
  "symmetry": null,
  "property_name": null,
  "material_id": "mp-32581",
  "deprecated": null,
  "deprecation_reasons": null,
  "last_updated": null,
  "origins": null,
  "warnings": null,
  "structure": {
    "@module": "pymatgen.core.structure",
    "@class": "Structure",
    "charge": 0,
    "lattice": {
      "matrix": [
        [24.99761889, -0.01822489, -0.03167991],
        [5.54928618, 7.84706398, -0.00049597],
        [5.54924676, -3.9239413, 6.7953715]
      ],
      "pbc": [true, true, true],
      "a": 24.997645607796706,
      "b": 9.610982804049682,
      "c": 9.610854735778105,
      "alpha": 90.00026695957062,
      "beta": 54.77458908646466,
      "gamma": 54.77461651530987,
      "volume": 1335.6738985908535
    },
    "properties": {},
    "sites": [
      {
        "species": [{ "element": "Pr", "occu": 1 }],
        "abc": [0.08181436, 0.6271917, 0.37732459],
        "properties": { "magmom": -0.0 },
        "label": "Pr",
        "xyz": [7.619497682555795, 3.439522797706978, 2.5611578253062284]
      },
      {
        "species": [{ "element": "Pr", "occu": 1 }],
        "abc": [0.16665037, 0.2500902, 0.6314977900000001],
        "properties": { "magmom": -0.0 },
        "label": "Pr",
        "xyz": [9.058021592855585, -0.5185236435304408, 4.2858585785194245]
      },
      {
        "species": [{ "element": "Pr", "occu": 1 }],
        "abc": [0.25148832, 0.8726985500000001, 0.12286502],
        "properties": { "magmom": 0.0 },
        "label": "Pr",
        "xyz": [11.811271495619739, 6.361422883831619, 0.8265134956114353]
      },
      {
        "species": [{ "element": "Pr", "occu": 1 }],
        "abc": [0.33639751, 0.37580389000000003, 0.25229694],
        "properties": { "magmom": -0.0 },
        "label": "Pr",
        "xyz": [11.89463806054512, 1.9528279784172362, 1.7036080053168627]
      },
      {
        "species": [{ "element": "Pr", "occu": 1 }],
        "abc": [0.33640352, 0.11494933, 0.73869622],
        "properties": { "magmom": -0.0 },
        "label": "Pr",
        "xyz": [13.146381320043, -2.0027167759913653, 5.009000995889246]
      },
      {
        "species": [{ "element": "Pr", "occu": 1 }],
        "abc": [0.16666622, 0.7499686600000001, 0.86859022],
        "properties": { "magmom": -0.0 },
        "label": "Pr",
        "xyz": [13.148070833870701, 2.473717547454566, 5.8967412933607894]
      },
      {
        "species": [{ "element": "Pr", "occu": 1 }],
        "abc": [0.49687839, 0.26146276, 0.624370499999999],
        "properties": { "magmom": -0.0 },
        "label": "Pr",
        "xyz": [17.336494282714018, -0.4073337393453884, 4.226958760779522]
      },
      {
        "species": [{ "element": "Pr", "occu": 1 }],
        "abc": [0.58181925, 0.87730954, 0.12717666],
        "properties": { "magmom": 0.0 },
        "label": "Pr",
        "xyz": [20.11827224872241, 6.374666750243179, 0.8453455501403687]
      },
      {
        "species": [{ "element": "Pr", "occu": 1 }],
        "abc": [0.66665359, 0.3686027, 0.24998282],
        "properties": { "magmom": -0.0 },
        "label": "Pr",
        "xyz": [20.097450597431664, 1.899381370066425, 1.6774237889041341]
      },
      {
        "species": [{ "element": "Pr", "occu": 1 }],
        "abc": [0.6666574200000001, 0.13149456, 0.750065099999999],
        "properties": { "magmom": -0.0 },
        "label": "Pr",
        "xyz": [21.556845385867916, -1.9235149563838612, 5.075786139261289]
      },
      {
        "species": [{ "element": "Pr", "occu": 1 }],
        "abc": [0.49696738, 0.74771974, 0.88489679],
        "properties": { "magmom": 0.0 },
        "label": "Pr",
        "xyz": [21.482822630538898, 2.3860644025364492, 5.997087698776702]
      },
      {
        "species": [{ "element": "Pr", "occu": 1 }],
        "abc": [0.75149222, 0.622869799999999, 0.37268561],
        "properties": { "magmom": 0.0 },
        "label": "Pr",
        "xyz": [24.31012330123052, 3.411606851769748, 2.508421042024109]
      },
      {
        "species": [{ "element": "Pr", "occu": 1 }],
        "abc": [0.8363859, 0.23872352, 0.61499257],
        "properties": { "magmom": -0.0 },
        "label": "Pr",
        "xyz": [25.645146630043175, -0.5551590506703825, 4.152487953148271]
      },
      {
        "species": [{ "element": "Pr", "occu": 1 }],
        "abc": [0.99697082, 0.38490635, 0.24772065000000001],
        "properties": { "magmom": 0.0 },
        "label": "Pr",
        "xyz": [28.43251510585763, 2.030173781832718, 1.6515789971188395]
      },
      {
        "species": [{ "element": "Pr", "occu": 1 }],
        "abc": [0.9968798600000001, 0.12436365, 0.76147642],
        "properties": { "magmom": -0.0 },
        "label": "Pr",
        "xyz": [29.835372860137312, -2.0302672808695346, 5.142872417504927]
      },
      {
        "species": [{ "element": "Pr", "occu": 1 }],
        "abc": [0.83638131, 0.75231357, 0.87581012],
        "properties": { "magmom": -0.0 },
        "label": "Pr",
        "xyz": [29.942431001911622, 2.4515822586134464, 5.924585519271785]
      },
      {
        "species": [{ "element": "Te", "occu": 1 }],
        "abc": [0.050482360000000004, 0.99938086, 0.35217162],
        "properties": { "magmom": 0.0 },
        "label": "Te",
        "xyz": [8.762076412151247, 6.459384748943576, 2.391042050110308]
      },
      {
        "species": [{ "element": "Te", "occu": 1 }],
        "abc": [0.12338192, 0.491560999999999, 0.99449548],
        "properties": { "magmom": -0.0 },
        "label": "Te",
        "xyz": [11.330767698228088, -0.04727989148254075, 6.753813714040422]
      },
      {
        "species": [{ "element": "Te", "occu": 1 }],
        "abc": [0.05056403, 0.34888572, 0.49612798],
        "properties": { "magmom": -0.0 },
        "label": "Te",
        "xyz": [5.953183641438221, 0.7900299718560848, 3.3695990348743843]
      },
      {
        "species": [{ "element": "Te", "occu": 1 }],
        "abc": [0.28278379, 0.15101523, 0.14797575],
        "properties": { "magmom": 0.0 },
        "label": "Te",
        "xyz": [8.728102090744382, 0.5992243114744074, 0.9965167302008429]
      },
      {
        "species": [{ "element": "Te", "occu": 1 }],
        "abc": [0.28275698, 0.50048422, 0.00391914],
        "properties": { "magmom": 0.0 },
        "label": "Te",
        "xyz": [9.867329664828418, 3.9068000051566814, 0.0174260714236448]
      },
      {
        "species": [{ "element": "Te", "occu": 1 }],
        "abc": [0.21016003, 0.007891780000000001, 0.86413167],
        "properties": { "magmom": 0.0 },
        "label": "Te",
        "xyz": [10.092573951501457, -3.3327047894040334, 5.865433957643281]
      },
      {
        "species": [{ "element": "Te", "occu": 1 }],
        "abc": [0.12332429, 0.63846356, 0.63541492],
        "properties": { "magmom": 0.0 },
        "label": "Te",
        "xyz": [10.151904797307099, 2.5144859853747947, 4.313656876862913]
      },
      {
        "species": [{ "element": "Te", "occu": 1 }],
        "abc": [0.38447731, 0.99778437, 0.34346586],
        "properties": { "magmom": -0.0 },
        "label": "Te",
        "xyz": [17.053985093069006, 6.474930859757728, 2.321303038575159]
      },
      {
        "species": [{ "element": "Te", "occu": 1 }],
        "abc": [0.21005865, 0.86157597, 0.50562302],
        "properties": { "magmom": 0.0 },
        "label": "Te",
        "xyz": [12.837924606105409, 4.772978414022036, 3.4288143048913677]
      },
      {
        "species": [{ "element": "Te", "occu": 1 }],
        "abc": [0.44876868000000003, 0.49691246, 0.00247976],
        "properties": { "magmom": -0.0 },
        "label": "Te",
        "xyz": [13.989418679501744, 3.881394673572658, 0.002387485364834999]
      },
      {
        "species": [{ "element": "Te", "occu": 1 }],
        "abc": [0.38455483, 0.34850282, 0.5031616800000001],
        "properties": { "magmom": 0.0 },
        "label": "Te",
        "xyz": [14.339065287861924, 0.7533385595453204, 3.40681503081602]
      },
      {
        "species": [{ "element": "Te", "occu": 1 }],
        "abc": [0.6233200000000001, 0.13543142, 0.13842983],
        "properties": { "magmom": 0.0 },
        "label": "Te",
        "xyz": [17.101244799473427, 0.5081885521184725, 0.9208682301092677]
      },
      {
        "species": [{ "element": "Te", "occu": 1 }],
        "abc": [0.62335901, 0.49452945000000004, 0.9915607200000001],
        "properties": { "magmom": 0.0 },
        "label": "Te",
        "xyz": [23.829191518918964, -0.02158247590928397, 6.718030228101674]
      },
      {
        "species": [{ "element": "Te", "occu": 1 }],
        "abc": [0.55056326, 0.9961191300000001, 0.84887002],
        "properties": { "magmom": 0.0 },
        "label": "Te",
        "xyz": [24.00110987820474, 4.47566046015057, 5.750451301381418]
      },
      {
        "species": [{ "element": "Te", "occu": 1 }],
        "abc": [0.44878565000000004, 0.65666405, 0.6514222],
        "properties": { "magmom": -0.0 },
        "label": "Te",
        "xyz": [18.477491912310832, 2.5885632702942303, 4.41211267767713]
      },
      {
        "species": [{ "element": "Te", "occu": 1 }],
        "abc": [0.71004802, 0.00562118, 0.3616011],
        "properties": { "magmom": -0.0 },
        "label": "Te",
        "xyz": [19.787317066635826, -1.3877322783715513, 2.434716764002727]
      },
      {
        "species": [{ "element": "Te", "occu": 1 }],
        "abc": [0.55049499, 0.85211749, 0.49937728000000003],
        "properties": { "magmom": 0.0 },
        "label": "Te",
        "xyz": [21.26087552492526, 4.717060618595045, 3.3755918798093543]
      },
      {
        "species": [{ "element": "Te", "occu": 1 }],
        "abc": [0.78275524, 0.50390903, 0.00049434],
        "properties": { "magmom": -0.0 },
        "label": "Te",
        "xyz": [22.366095804470028, 3.9380010092215736, -0.0216883153695275]
      },
      {
        "species": [{ "element": "Te", "occu": 1 }],
        "abc": [0.71015779, 0.36412179, 0.50790156],
        "properties": { "magmom": 0.0 },
        "label": "Te",
        "xyz": [22.591340889497463, 0.8513685274183027, 3.4287014572723544]
      },
      {
        "species": [{ "element": "Te", "occu": 1 }],
        "abc": [0.94880692, 0.15141215, 0.15668293],
        "properties": { "magmom": 0.0 },
        "label": "Te",
        "xyz": [25.427615379483612, 0.5560343066191091, 1.0345855033414824]
      },
      {
        "species": [{ "element": "Te", "occu": 1 }],
        "abc": [0.94876249, 0.50250008, 0.99690405],
        "properties": { "magmom": 0.0 },
        "label": "Te",
        "xyz": [32.037386461033705, 0.014066211766476933, 6.7440274343453215]
      },
      {
        "species": [{ "element": "Te", "occu": 1 }],
        "abc": [0.8845440999999991, 0.00316473, 0.8485423],
        "properties": { "magmom": 0.0 },
        "label": "Te",
        "xyz": [26.837828904648404, -3.320917055900214, 5.738136314874281]
      },
      {
        "species": [{ "element": "Te", "occu": 1 }],
        "abc": [0.78277527, 0.6479900000000001, 0.65102565],
        "properties": { "magmom": -0.0 },
        "label": "Te",
        "xyz": [26.776101806694445, 2.515966559815385, 4.398841514074849]
      },
      {
        "species": [{ "element": "Te", "occu": 1 }],
        "abc": [0.88447293, 0.84349501, 0.4977771],
        "properties": { "magmom": 0.0 },
        "label": "Te",
        "xyz": [29.55280038393081, 4.649591767539282, 3.354141947652704]
      }
    ]
  },
  "task_ids": null,
  "uncorrected_energy_per_atom": null,
  "energy_per_atom": -28.728732279000003,
  "formation_energy_per_atom": -1.716815145666669,
  "energy_above_hull": 0.0,
  "is_stable": true,
  "equilibrium_reaction_energy_per_atom": null,
  "decomposes_to": null,
  "xas": null,
  "grain_boundaries": null,
  "band_gap": 0.9258999999999991,
  "cbm": null,
  "vbm": null,
  "efermi": 5.45178626,
  "is_gap_direct": null,
  "is_metal": null,
  "es_source_calc_id": null,
  "bandstructure": null,
  "dos": null,
  "dos_energy_up": null,
  "dos_energy_down": null,
  "is_magnetic": null,
  "ordering": null,
  "total_magnetization": 0.0,
  "total_magnetization_normalized_vol": null,
  "total_magnetization_normalized_formula_units": null,
  "num_magnetic_sites": null,
  "num_unique_magnetic_sites": null,
  "types_of_magnetic_species": null,
  "bulk_modulus": null,
  "shear_modulus": null,
  "universal_anisotropy": null,
  "homogeneous_poisson": null,
  "e_total": null,
  "e_ionic": null,
  "e_electronic": null,
  "n": null,
  "e_ij_max": null,
  "weighted_surface_energy_EV_PER_ANG2": null,
  "weighted_surface_energy": null,
  "weighted_work_function": null,
  "surface_anisotropy": null,
  "shape_factor": null,
  "has_reconstructed": null,
  "possible_species": null,
  "has_props": null,
  "theoretical": null,
  "database_IDs": null,
  "fields_not_requested": [
    "builder_meta",
    "nsites",
    "elements",
    "nelements",
    "composition",
    "composition_reduced",
    "chemsys",
    "symmetry",
    "property_name",
    "deprecated",
    "deprecation_reasons",
    "last_updated",
    "origins",
    "warnings",
    "task_ids",
    "uncorrected_energy_per_atom",
    "equilibrium_reaction_energy_per_atom",
    "decomposes_to",
    "xas",
    "grain_boundaries",
    "cbm",
    "vbm",
    "is_gap_direct",
    "is_metal",
    "es_source_calc_id",
    "bandstructure",
    "dos",
    "dos_energy_up",
    "dos_energy_down",
    "is_magnetic",
    "ordering",
    "total_magnetization_normalized_vol",
    "total_magnetization_normalized_formula_units",
    "num_magnetic_sites",
    "num_unique_magnetic_sites",
    "types_of_magnetic_species",
    "bulk_modulus",
    "shear_modulus",
    "universal_anisotropy",
    "homogeneous_poisson",
    "e_total",
    "e_ionic",
    "e_electronic",
    "n",
    "e_ij_max",
    "weighted_surface_energy_EV_PER_ANG2",
    "weighted_surface_energy",
    "weighted_work_function",
    "surface_anisotropy",
    "shape_factor",
    "has_reconstructed",
    "possible_species",
    "has_props",
    "theoretical",
    "database_IDs"
  ]
}
