{"builder_meta": null, "nsites": null, "elements": null, "nelements": null, "composition": null, "composition_reduced": null, "formula_pretty": "Pr2Te5", "formula_anonymous": "A2B5", "chemsys": null, "volume": 449.39934021697275, "density": 6.797469880436256, "density_atomic": 32.09995287264091, "symmetry": null, "property_name": null, "material_id": "mp-1104180", "deprecated": null, "deprecation_reasons": null, "last_updated": null, "origins": null, "warnings": null, "structure": {"@module": "pymatgen.core.structure", "@class": "Structure", "charge": 0, "lattice": {"matrix": [[2.23259, -22.54212, 0.0], [2.23259, 22.54212, 0.0], [0.0, 0.0, 4.464766]], "pbc": [true, true, true], "a": 22.652408971288242, "b": 22.652408971288242, "c": 4.464766, "alpha": 90.0, "beta": 90.0, "gamma": 168.68764995145855, "volume": 449.39934021697275}, "properties": {}, "sites": [{"species": [{"element": "Pr", "occu": 1}], "abc": [0.097714, 0.902285999999999, 0.25], "properties": {"magmom": 0.0}, "label": "Pr", "xyz": [2.2325899999999983, 18.13675857263998, 1.1161915]}, {"species": [{"element": "Pr", "occu": 1}], "abc": [0.902285999999999, 0.097714, 0.75], "properties": {"magmom": 0.0}, "label": "Pr", "xyz": [2.2325899999999983, -18.13675857263998, 3.3485745]}, {"species": [{"element": "Pr", "occu": 1}], "abc": [0.306756, 0.693244, 0.25], "properties": {"magmom": -0.0}, "label": "Pr", "xyz": [2.23259, 8.71225887456, 1.1161915]}, {"species": [{"element": "Pr", "occu": 1}], "abc": [0.693244, 0.306756, 0.75], "properties": {"magmom": -0.0}, "label": "Pr", "xyz": [2.23259, -8.71225887456, 3.3485745]}, {"species": [{"element": "Te", "occu": 1}], "abc": [0.958615999999999, 0.041384, 0.25], "properties": {"magmom": -0.0}, "label": "Te", "xyz": [2.232589999999998, -20.676353811839977, 1.1161915]}, {"species": [{"element": "Te", "occu": 1}], "abc": [0.041384, 0.958615999999999, 0.75], "properties": {"magmom": -0.0}, "label": "Te", "xyz": [2.232589999999998, 20.676353811839977, 3.3485745]}, {"species": [{"element": "Te", "occu": 1}], "abc": [0.541839, 0.458161, 0.25], "properties": {"magmom": -0.0}, "label": "Te", "xyz": [2.23259, -1.8862795173600002, 1.1161915]}, {"species": [{"element": "Te", "occu": 1}], "abc": [0.458161, 0.541839, 0.75], "properties": {"magmom": -0.0}, "label": "Te", "xyz": [2.23259, 1.8862795173600002, 3.3485745]}, {"species": [{"element": "Te", "occu": 1}], "abc": [0.749985999999999, 0.250014, 0.25], "properties": {"magmom": -0.0}, "label": "Te", "xyz": [2.232589999999998, -11.27042882063998, 1.1161915]}, {"species": [{"element": "Te", "occu": 1}], "abc": [0.250014, 0.749985999999999, 0.75], "properties": {"magmom": -0.0}, "label": "Te", "xyz": [2.232589999999998, 11.27042882063998, 3.3485745]}, {"species": [{"element": "Te", "occu": 1}], "abc": [0.172586, 0.827414, 0.25], "properties": {"magmom": -0.0}, "label": "Te", "xyz": [2.23259, 14.76121135536, 1.1161915]}, {"species": [{"element": "Te", "occu": 1}], "abc": [0.827414, 0.172586, 0.75], "properties": {"magmom": -0.0}, "label": "Te", "xyz": [2.23259, -14.76121135536, 3.3485745]}, {"species": [{"element": "Te", "occu": 1}], "abc": [0.380193, 0.619807, 0.25], "properties": {"magmom": -0.0}, "label": "Te", "xyz": [2.23259, 5.401407541680001, 1.1161915]}, {"species": [{"element": "Te", "occu": 1}], "abc": [0.619807, 0.380193, 0.75], "properties": {"magmom": -0.0}, "label": "Te", "xyz": [2.23259, -5.401407541680001, 3.3485745]}]}, "task_ids": null, "uncorrected_energy_per_atom": null, "energy_per_atom": -27.81693798071429, "formation_energy_per_atom": -1.260647368333337, "energy_above_hull": 0.033755743571425, "is_stable": false, "equilibrium_reaction_energy_per_atom": null, "decomposes_to": null, "xas": null, "grain_boundaries": null, "band_gap": 0.0, "cbm": null, "vbm": null, "efermi": 5.61080088, "is_gap_direct": null, "is_metal": null, "es_source_calc_id": null, "bandstructure": null, "dos": null, "dos_energy_up": null, "dos_energy_down": null, "is_magnetic": null, "ordering": null, "total_magnetization": 3.66e-05, "total_magnetization_normalized_vol": null, "total_magnetization_normalized_formula_units": null, "num_magnetic_sites": null, "num_unique_magnetic_sites": null, "types_of_magnetic_species": null, "bulk_modulus": null, "shear_modulus": null, "universal_anisotropy": null, "homogeneous_poisson": null, "e_total": null, "e_ionic": null, "e_electronic": null, "n": null, "e_ij_max": null, "weighted_surface_energy_EV_PER_ANG2": null, "weighted_surface_energy": null, "weighted_work_function": null, "surface_anisotropy": null, "shape_factor": null, "has_reconstructed": null, "possible_species": null, "has_props": null, "theoretical": null, "database_IDs": null, "fields_not_requested": ["builder_meta", "nsites", "elements", "nelements", "composition", "composition_reduced", "chemsys", "symmetry", "property_name", "deprecated", "deprecation_reasons", "last_updated", "origins", "warnings", "task_ids", "uncorrected_energy_per_atom", "equilibrium_reaction_energy_per_atom", "decomposes_to", "xas", "grain_boundaries", "cbm", "vbm", "is_gap_direct", "is_metal", "es_source_calc_id", "bandstructure", "dos", "dos_energy_up", "dos_energy_down", "is_magnetic", "ordering", "total_magnetization_normalized_vol", "total_magnetization_normalized_formula_units", "num_magnetic_sites", "num_unique_magnetic_sites", "types_of_magnetic_species", "bulk_modulus", "shear_modulus", "universal_anisotropy", "homogeneous_poisson", "e_total", "e_ionic", "e_electronic", "n", "e_ij_max", "weighted_surface_energy_EV_PER_ANG2", "weighted_surface_energy", "weighted_work_function", "surface_anisotropy", "shape_factor", "has_reconstructed", "possible_species", "has_props", "theoretical", "database_IDs"]}