{"builder_meta": null, "nsites": null, "elements": null, "nelements": null, "composition": null, "composition_reduced": null, "formula_pretty": "Pr2Y", "formula_anonymous": "AB2", "chemsys": null, "volume": 106.44169274700018, "density": 5.783419414919326, "density_atomic": 35.48056424900006, "symmetry": null, "property_name": null, "material_id": "mp-1219836", "deprecated": null, "deprecation_reasons": null, "last_updated": null, "origins": null, "warnings": null, "structure": {"@module": "pymatgen.core.structure", "@class": "Structure", "charge": 0, "lattice": {"matrix": [[8.99589606, -1.85475675, -0.025889080000000002], [8.99589606, 1.85475675, -0.025889080000000002], [8.62266759, 0.0, 3.16488906]], "pbc": [true, true, true], "a": 9.185147727089495, "b": 9.185147727089495, "c": 9.185146658042218, "alpha": 23.299682819610407, "beta": 23.299682819610407, "gamma": 23.299684170793213, "volume": 106.44169274700018}, "properties": {}, "sites": [{"species": [{"element": "Pr", "occu": 1}], "abc": [0.77646003, 0.77646003, 0.77646003], "properties": {"magmom": 0.0}, "label": "Pr", "xyz": [20.66506418486039, 0.0, 2.4172061828073272]}, {"species": [{"element": "Pr", "occu": 1}], "abc": [0.22353997, 0.22353997, 0.22353997], "properties": {"magmom": 0.0}, "label": "Pr", "xyz": [5.949395525139608, 0.0, 0.6959047171926731]}, {"species": [{"element": "Y", "occu": 1}], "abc": [0.0, 0.0, 0.0], "properties": {"magmom": -0.0}, "label": "Y", "xyz": [0.0, 0.0, 0.0]}]}, "task_ids": null, "uncorrected_energy_per_atom": null, "energy_per_atom": -26.317768803333333, "formation_energy_per_atom": 0.056069095555557, "energy_above_hull": 0.056069095555557, "is_stable": false, "equilibrium_reaction_energy_per_atom": null, "decomposes_to": null, "xas": null, "grain_boundaries": null, "band_gap": 0.0, "cbm": null, "vbm": null, "efermi": 3.56807964, "is_gap_direct": null, "is_metal": null, "es_source_calc_id": null, "bandstructure": null, "dos": null, "dos_energy_up": null, "dos_energy_down": null, "is_magnetic": null, "ordering": null, "total_magnetization": 3.6200000000000006e-05, "total_magnetization_normalized_vol": null, "total_magnetization_normalized_formula_units": null, "num_magnetic_sites": null, "num_unique_magnetic_sites": null, "types_of_magnetic_species": null, "bulk_modulus": null, "shear_modulus": null, "universal_anisotropy": null, "homogeneous_poisson": null, "e_total": null, "e_ionic": null, "e_electronic": null, "n": null, "e_ij_max": null, "weighted_surface_energy_EV_PER_ANG2": null, "weighted_surface_energy": null, "weighted_work_function": null, "surface_anisotropy": null, "shape_factor": null, "has_reconstructed": null, "possible_species": null, "has_props": null, "theoretical": null, "database_IDs": null, "fields_not_requested": ["builder_meta", "nsites", "elements", "nelements", "composition", "composition_reduced", "chemsys", "symmetry", "property_name", "deprecated", "deprecation_reasons", "last_updated", "origins", "warnings", "task_ids", "uncorrected_energy_per_atom", "equilibrium_reaction_energy_per_atom", "decomposes_to", "xas", "grain_boundaries", "cbm", "vbm", "is_gap_direct", "is_metal", "es_source_calc_id", "bandstructure", "dos", "dos_energy_up", "dos_energy_down", "is_magnetic", "ordering", "total_magnetization_normalized_vol", "total_magnetization_normalized_formula_units", "num_magnetic_sites", "num_unique_magnetic_sites", "types_of_magnetic_species", "bulk_modulus", "shear_modulus", "universal_anisotropy", "homogeneous_poisson", "e_total", "e_ionic", "e_electronic", "n", "e_ij_max", "weighted_surface_energy_EV_PER_ANG2", "weighted_surface_energy", "weighted_work_function", "surface_anisotropy", "shape_factor", "has_reconstructed", "possible_species", "has_props", "theoretical", "database_IDs"]}