{"builder_meta": null, "nsites": null, "elements": null, "nelements": null, "composition": null, "composition_reduced": null, "formula_pretty": "Pr3Au", "formula_anonymous": "AB3", "chemsys": null, "volume": 235.81556233643724, "density": 8.727317614381748, "density_atomic": 29.476945292054655, "symmetry": null, "property_name": null, "material_id": "mp-1186701", "deprecated": null, "deprecation_reasons": null, "last_updated": null, "origins": null, "warnings": null, "structure": {"@module": "pymatgen.core.structure", "@class": "Structure", "charge": 0, "lattice": {"matrix": [[3.55518, -6.157753, 0.0], [3.55518, 6.157753, 0.0], [0.0, 0.0, 5.385904]], "pbc": [true, true, true], "a": 7.110360528229845, "b": 7.110360528229845, "c": 5.385904, "alpha": 90.0, "beta": 90.0, "gamma": 120.00000491499758, "volume": 235.81556233643724}, "properties": {}, "sites": [{"species": [{"element": "Pr", "occu": 1}], "abc": [0.177044999999999, 0.35409, 0.25], "properties": {"magmom": 0.0}, "label": "Pr", "xyz": [1.8882805292999967, 1.0901993798850063, 1.346476]}, {"species": [{"element": "Pr", "occu": 1}], "abc": [0.6459100000000001, 0.822955, 0.25], "properties": {"magmom": 0.0}, "label": "Pr", "xyz": [5.222079470700001, 1.0901993798849992, 1.346476]}, {"species": [{"element": "Pr", "occu": 1}], "abc": [0.177044999999999, 0.822955, 0.25], "properties": {"magmom": 0.0}, "label": "Pr", "xyz": [3.5551799999999965, 3.9773542402300057, 1.346476]}, {"species": [{"element": "Pr", "occu": 1}], "abc": [0.822955, 0.6459100000000001, 0.75], "properties": {"magmom": 0.0}, "label": "Pr", "xyz": [5.222079470700001, -1.0901993798849992, 4.039428]}, {"species": [{"element": "Pr", "occu": 1}], "abc": [0.35409, 0.177044999999999, 0.75], "properties": {"magmom": 0.0}, "label": "Pr", "xyz": [1.8882805292999967, -1.0901993798850063, 4.039428]}, {"species": [{"element": "Pr", "occu": 1}], "abc": [0.822955, 0.177044999999999, 0.75], "properties": {"magmom": 0.0}, "label": "Pr", "xyz": [3.5551799999999965, -3.9773542402300057, 4.039428]}, {"species": [{"element": "Au", "occu": 1}], "abc": [0.333333, 0.666667, 0.75], "properties": {"magmom": 0.0}, "label": "Au", "xyz": [3.55518, 2.0525884385019997, 4.039428]}, {"species": [{"element": "Au", "occu": 1}], "abc": [0.666667, 0.333333, 0.25], "properties": {"magmom": 0.0}, "label": "Au", "xyz": [3.55518, -2.0525884385019997, 1.346476]}]}, "task_ids": null, "uncorrected_energy_per_atom": null, "energy_per_atom": -4.62238798375, "formation_energy_per_atom": -0.20731389, "energy_above_hull": 0.18877419083333202, "is_stable": false, "equilibrium_reaction_energy_per_atom": null, "decomposes_to": null, "xas": null, "grain_boundaries": null, "band_gap": 0.0, "cbm": null, "vbm": null, "efermi": 4.22766554, "is_gap_direct": null, "is_metal": null, "es_source_calc_id": null, "bandstructure": null, "dos": null, "dos_energy_up": null, "dos_energy_down": null, "is_magnetic": null, "ordering": null, "total_magnetization": 0.0045993, "total_magnetization_normalized_vol": null, "total_magnetization_normalized_formula_units": null, "num_magnetic_sites": null, "num_unique_magnetic_sites": null, "types_of_magnetic_species": null, "bulk_modulus": null, "shear_modulus": null, "universal_anisotropy": null, "homogeneous_poisson": null, "e_total": null, "e_ionic": null, "e_electronic": null, "n": null, "e_ij_max": null, "weighted_surface_energy_EV_PER_ANG2": null, "weighted_surface_energy": null, "weighted_work_function": null, "surface_anisotropy": null, "shape_factor": null, "has_reconstructed": null, "possible_species": null, "has_props": null, "theoretical": null, "database_IDs": null, "fields_not_requested": ["builder_meta", "nsites", "elements", "nelements", "composition", "composition_reduced", "chemsys", "symmetry", "property_name", "deprecated", "deprecation_reasons", "last_updated", "origins", "warnings", "task_ids", "uncorrected_energy_per_atom", "equilibrium_reaction_energy_per_atom", "decomposes_to", "xas", "grain_boundaries", "cbm", "vbm", "is_gap_direct", "is_metal", "es_source_calc_id", "bandstructure", "dos", "dos_energy_up", "dos_energy_down", "is_magnetic", "ordering", "total_magnetization_normalized_vol", "total_magnetization_normalized_formula_units", "num_magnetic_sites", "num_unique_magnetic_sites", "types_of_magnetic_species", "bulk_modulus", "shear_modulus", "universal_anisotropy", "homogeneous_poisson", "e_total", "e_ionic", "e_electronic", "n", "e_ij_max", "weighted_surface_energy_EV_PER_ANG2", "weighted_surface_energy", "weighted_work_function", "surface_anisotropy", "shape_factor", "has_reconstructed", "possible_species", "has_props", "theoretical", "database_IDs"]}