{"builder_meta": null, "nsites": null, "elements": null, "nelements": null, "composition": null, "composition_reduced": null, "formula_pretty": "Pr3Co", "formula_anonymous": "AB3", "chemsys": null, "volume": 465.047594767578, "density": 6.879371956241885, "density_atomic": 29.065474672973625, "symmetry": null, "property_name": null, "material_id": "mp-862762", "deprecated": null, "deprecation_reasons": null, "last_updated": null, "origins": null, "warnings": null, "structure": {"@module": "pymatgen.core.structure", "@class": "Structure", "charge": 0, "lattice": {"matrix": [[7.08385495, -0.00041354, 0.00023403], [-0.00063132, 9.98496244, 0.00267693], [0.00017655, 0.00172885, 6.57478173]], "pbc": [true, true, true], "a": 7.0838549659366175, "b": 9.984962818795568, "c": 6.574781959672428, "alpha": 89.96957329775934, "beta": 89.99656945265737, "gamma": 90.0069669396166, "volume": 465.047594767578}, "properties": {}, "sites": [{"species": [{"element": "Pr", "occu": 1}], "abc": [0.44612986, 0.7499448200000001, 0.14430032], "properties": {"magmom": 0.018000000000000002}, "label": "Pr", "xyz": [3.1598712381615406, 7.488235840838489, 0.950855065127292]}, {"species": [{"element": "Pr", "occu": 1}], "abc": [0.16074615, 0.07039783, 0.17764673], "properties": {"magmom": 0.002}, "label": "Pr", "xyz": [1.1386893303430883, 0.7031603379937946, 1.1682145442827894]}, {"species": [{"element": "Pr", "occu": 1}], "abc": [0.16086417, 0.42976628, 0.17780779], "properties": {"magmom": 0.001}, "label": "Pr", "xyz": [1.1392985188495763, 4.291441043007403, 1.1702355104333022]}, {"species": [{"element": "Pr", "occu": 1}], "abc": [0.66060514, 0.07025583, 0.32212388000000003], "properties": {"magmom": 0.0}, "label": "Pr", "xyz": [4.679643508044862, 0.7017855409613677, 2.1182368723806286]}, {"species": [{"element": "Pr", "occu": 1}], "abc": [0.6605133400000001, 0.42970481, 0.32221547], "properties": {"magmom": 0.001}, "label": "Pr", "xyz": [4.678766299000613, 4.290870301666023, 2.1198012549133565]}, {"species": [{"element": "Pr", "occu": 1}], "abc": [0.94625094, 0.75001469, 0.35558205], "properties": {"magmom": 0.017}, "label": "Pr", "xyz": [6.70269368399799, 7.489091944511658, 2.3401035537875363]}, {"species": [{"element": "Pr", "occu": 1}], "abc": [0.05377992, 0.24998653, 0.64433647], "properties": {"magmom": 0.018000000000000002}, "label": "Pr", "xyz": [0.3809250886102629, 2.4971978335139764, 4.237053433485124]}, {"species": [{"element": "Pr", "occu": 1}], "abc": [0.33931178, 0.57019315, 0.67776647], "properties": {"magmom": 0.001}, "label": "Pr", "xyz": [2.4033951176771318, 5.694388623863445, 4.457772380447496]}, {"species": [{"element": "Pr", "occu": 1}], "abc": [0.339235, 0.9298798300000001, 0.67785006], "properties": {"magmom": 0.0}, "label": "Pr", "xyz": [2.4026241566570676, 9.285846790097919, 4.459284804547775]}, {"species": [{"element": "Pr", "occu": 1}], "abc": [0.83923446, 0.57016216, 0.8222032300000001], "properties": {"magmom": 0.001}, "label": "Pr", "xyz": [5.944800388886982, 5.6941221613448665, 5.4075294651826304]}, {"species": [{"element": "Pr", "occu": 1}], "abc": [0.8393542700000001, 0.92965776, 0.82232477], "properties": {"magmom": 0.002}, "label": "Pr", "xyz": [5.945422170244237, 9.283672385268334, 5.409290936749738]}, {"species": [{"element": "Pr", "occu": 1}], "abc": [0.55376008, 0.25003762, 0.8557978900000001], "properties": {"magmom": 0.018000000000000002}, "label": "Pr", "xyz": [3.9227493211876174, 2.4978667885256365, 5.627483261422179]}, {"species": [{"element": "Co", "occu": 1}], "abc": [0.88553843, 0.25022396, 0.05345275], "properties": {"magmom": 0.377}, "label": "Co", "xyz": [6.272877256463314, 2.4982030484125577, 0.3523172387022732]}, {"species": [{"element": "Co", "occu": 1}], "abc": [0.38572809, 0.24976459999999903, 0.44651146], "properties": {"magmom": 0.395}, "label": "Co", "xyz": [2.7323629899115365, 2.494502587184897, 2.9364742637392065]}, {"species": [{"element": "Co", "occu": 1}], "abc": [0.61440683, 0.75024555, 0.5534705], "properties": {"magmom": 0.395}, "label": "Co", "xyz": [4.351992934205457, 7.49187642320059, 3.641099875944551]}, {"species": [{"element": "Co", "occu": 1}], "abc": [0.11454054, 0.74976259, 0.94661617], "properties": {"magmom": 0.378}, "label": "Co", "xyz": [0.8110823562211678, 7.487940490337713, 6.225828567731199]}]}, "task_ids": null, "uncorrected_energy_per_atom": null, "energy_per_atom": -25.3112626, "formation_energy_per_atom": 0.050262458750001, "energy_above_hull": 0.050774959828434, "is_stable": false, "equilibrium_reaction_energy_per_atom": null, "decomposes_to": null, "xas": null, "grain_boundaries": null, "band_gap": 0.0, "cbm": null, "vbm": null, "efermi": 3.8220845, "is_gap_direct": null, "is_metal": null, "es_source_calc_id": null, "bandstructure": null, "dos": null, "dos_energy_up": null, "dos_energy_down": null, "is_magnetic": null, "ordering": null, "total_magnetization": 1.8891702, "total_magnetization_normalized_vol": null, "total_magnetization_normalized_formula_units": null, "num_magnetic_sites": null, "num_unique_magnetic_sites": null, "types_of_magnetic_species": null, "bulk_modulus": null, "shear_modulus": null, "universal_anisotropy": null, "homogeneous_poisson": null, "e_total": null, "e_ionic": null, "e_electronic": null, "n": null, "e_ij_max": null, "weighted_surface_energy_EV_PER_ANG2": null, "weighted_surface_energy": null, "weighted_work_function": null, "surface_anisotropy": null, "shape_factor": null, "has_reconstructed": null, "possible_species": null, "has_props": null, "theoretical": null, "database_IDs": null, "fields_not_requested": ["builder_meta", "nsites", "elements", "nelements", "composition", "composition_reduced", "chemsys", "symmetry", "property_name", "deprecated", "deprecation_reasons", "last_updated", "origins", "warnings", "task_ids", "uncorrected_energy_per_atom", "equilibrium_reaction_energy_per_atom", "decomposes_to", "xas", "grain_boundaries", "cbm", "vbm", "is_gap_direct", "is_metal", "es_source_calc_id", "bandstructure", "dos", "dos_energy_up", "dos_energy_down", "is_magnetic", "ordering", "total_magnetization_normalized_vol", "total_magnetization_normalized_formula_units", "num_magnetic_sites", "num_unique_magnetic_sites", "types_of_magnetic_species", "bulk_modulus", "shear_modulus", "universal_anisotropy", "homogeneous_poisson", "e_total", "e_ionic", "e_electronic", "n", "e_ij_max", "weighted_surface_energy_EV_PER_ANG2", "weighted_surface_energy", "weighted_work_function", "surface_anisotropy", "shape_factor", "has_reconstructed", "possible_species", "has_props", "theoretical", "database_IDs"]}