{"builder_meta": null, "nsites": null, "elements": null, "nelements": null, "composition": null, "composition_reduced": null, "formula_pretty": "Pr3Eu", "formula_anonymous": "AB3", "chemsys": null, "volume": 167.26411093219164, "density": 5.70528923522074, "density_atomic": 41.81602773304791, "symmetry": null, "property_name": null, "material_id": "mp-1186790", "deprecated": null, "deprecation_reasons": null, "last_updated": null, "origins": null, "warnings": null, "structure": {"@module": "pymatgen.core.structure", "@class": "Structure", "charge": 0, "lattice": {"matrix": [[-2.736317, 2.736317, 5.58483], [2.736317, -2.736317, 5.58483], [2.736317, 2.736317, -5.58483]], "pbc": [true, true, true], "a": 6.794496859803381, "b": 6.794496859803381, "c": 6.794496859803381, "alpha": 132.5026555046986, "beta": 132.5026555046986, "gamma": 69.43628639479488, "volume": 167.26411093219164}, "properties": {}, "sites": [{"species": [{"element": "Pr", "occu": 1}], "abc": [0.75, 0.25, 0.5], "properties": {"magmom": -0.009000000000000001}, "label": "Pr", "xyz": [-2.220446049250313e-16, 2.7363170000000006, 2.792415]}, {"species": [{"element": "Pr", "occu": 1}], "abc": [0.25, 0.75, 0.5], "properties": {"magmom": -0.009000000000000001}, "label": "Pr", "xyz": [2.7363170000000006, -2.220446049250313e-16, 2.792415]}, {"species": [{"element": "Pr", "occu": 1}], "abc": [0.5, 0.5, 0.0], "properties": {"magmom": -0.01}, "label": "Pr", "xyz": [0.0, 0.0, 5.58483]}, {"species": [{"element": "Eu", "occu": 1}], "abc": [0.0, 0.0, 0.0], "properties": {"magmom": -6.8629999999999995}, "label": "Eu", "xyz": [0.0, 0.0, 0.0]}]}, "task_ids": null, "uncorrected_energy_per_atom": null, "energy_per_atom": -31.59453308125, "formation_energy_per_atom": 0.088654873750002, "energy_above_hull": 0.088654873750002, "is_stable": false, "equilibrium_reaction_energy_per_atom": null, "decomposes_to": null, "xas": null, "grain_boundaries": null, "band_gap": 0.0, "cbm": null, "vbm": null, "efermi": 3.13670838, "is_gap_direct": null, "is_metal": null, "es_source_calc_id": null, "bandstructure": null, "dos": null, "dos_energy_up": null, "dos_energy_down": null, "is_magnetic": null, "ordering": null, "total_magnetization": 7.2464646, "total_magnetization_normalized_vol": null, "total_magnetization_normalized_formula_units": null, "num_magnetic_sites": null, "num_unique_magnetic_sites": null, "types_of_magnetic_species": null, "bulk_modulus": null, "shear_modulus": null, "universal_anisotropy": null, "homogeneous_poisson": null, "e_total": null, "e_ionic": null, "e_electronic": null, "n": null, "e_ij_max": null, "weighted_surface_energy_EV_PER_ANG2": null, "weighted_surface_energy": null, "weighted_work_function": null, "surface_anisotropy": null, "shape_factor": null, "has_reconstructed": null, "possible_species": null, "has_props": null, "theoretical": null, "database_IDs": null, "fields_not_requested": ["builder_meta", "nsites", "elements", "nelements", "composition", "composition_reduced", "chemsys", "symmetry", "property_name", "deprecated", "deprecation_reasons", "last_updated", "origins", "warnings", "task_ids", "uncorrected_energy_per_atom", "equilibrium_reaction_energy_per_atom", "decomposes_to", "xas", "grain_boundaries", "cbm", "vbm", "is_gap_direct", "is_metal", "es_source_calc_id", "bandstructure", "dos", "dos_energy_up", "dos_energy_down", "is_magnetic", "ordering", "total_magnetization_normalized_vol", "total_magnetization_normalized_formula_units", "num_magnetic_sites", "num_unique_magnetic_sites", "types_of_magnetic_species", "bulk_modulus", "shear_modulus", "universal_anisotropy", "homogeneous_poisson", "e_total", "e_ionic", "e_electronic", "n", "e_ij_max", "weighted_surface_energy_EV_PER_ANG2", "weighted_surface_energy", "weighted_work_function", "surface_anisotropy", "shape_factor", "has_reconstructed", "possible_species", "has_props", "theoretical", "database_IDs"]}