{"builder_meta": null, "nsites": null, "elements": null, "nelements": null, "composition": null, "composition_reduced": null, "formula_pretty": "Pr3Er", "formula_anonymous": "AB3", "chemsys": null, "volume": 285.9444718583797, "density": 6.852295973387867, "density_atomic": 35.74305898229746, "symmetry": null, "property_name": null, "material_id": "mp-975599", "deprecated": null, "deprecation_reasons": null, "last_updated": null, "origins": null, "warnings": null, "structure": {"@module": "pymatgen.core.structure", "@class": "Structure", "charge": 0, "lattice": {"matrix": [[7.47879896, -1.741e-05, -3.2e-07], [-3.73941327, 6.47680651, -5.4400000000000004e-06], [-3.1e-07, -5.15e-06, 5.90322731]], "pbc": [true, true, true], "a": 7.478798960020272, "b": 7.478785608095746, "c": 5.903227310002254, "alpha": 90.00008346027711, "beta": 90.000005460244, "gamma": 120.00031442744542, "volume": 285.94447185837964}, "properties": {}, "sites": [{"species": [{"element": "Pr", "occu": 1}], "abc": [0.16876108, 0.33751268, 0.25000164], "properties": {"magmom": 0.14300000000000002}, "label": "Pr", "xyz": [3.0717706704763425e-05, 2.186000097392698, 1.4758146187202639]}, {"species": [{"element": "Pr", "occu": 1}], "abc": [0.66248226, 0.83123723, 0.25000091], "properties": {"magmom": 0.14300000000000002}, "label": "Pr", "xyz": [1.8462320312261244, 5.383749881297534, 1.475807465511998]}, {"species": [{"element": "Pr", "occu": 1}], "abc": [0.16875843000000001, 0.83124086, 0.25000089000000003], "properties": {"magmom": 0.14300000000000002}, "label": "Pr", "xyz": [-1.8462428091752552, 5.383781987837148, 1.47580750541933]}, {"species": [{"element": "Pr", "occu": 1}], "abc": [0.8312394200000001, 0.66248487, 0.7499995700000001], "properties": {"magmom": 0.14300000000000002}, "label": "Pr", "xyz": [3.7393675632549117, 4.290767984416417, 4.42741407419795]}, {"species": [{"element": "Pr", "occu": 1}], "abc": [0.33751492, 0.1687622, 0.7500001900000001], "properties": {"magmom": 0.14300000000000002}, "label": "Pr", "xyz": [1.8931343900260302, 1.0930303769661864, 4.427420578042047]}, {"species": [{"element": "Pr", "occu": 1}], "abc": [0.83124113, 0.16876155, 0.74999975], "properties": {"magmom": 0.14300000000000002}, "label": "Pr", "xyz": [5.585615886517534, 1.093017571270905, 4.4274178226331795]}, {"species": [{"element": "Er", "occu": 1}], "abc": [0.33333675, 0.66666822, 0.74999942], "properties": {"magmom": 0.24}, "label": "Er", "xyz": [1.0318174680531106e-05, 4.317871401416282, 4.427413325285284]}, {"species": [{"element": "Er", "occu": 1}], "abc": [0.66667001, 0.33333439, 0.25000164], "properties": {"magmom": 0.24}, "label": "Er", "xyz": [3.7394158586373263, 2.1589294529255585, 1.4758144821193038]}]}, "task_ids": null, "uncorrected_energy_per_atom": null, "energy_per_atom": -30.4934398675, "formation_energy_per_atom": 0.040886200416665006, "energy_above_hull": 0.040886200416665006, "is_stable": false, "equilibrium_reaction_energy_per_atom": null, "decomposes_to": null, "xas": null, "grain_boundaries": null, "band_gap": 0.0, "cbm": null, "vbm": null, "efermi": 3.34104637, "is_gap_direct": null, "is_metal": null, "es_source_calc_id": null, "bandstructure": null, "dos": null, "dos_energy_up": null, "dos_energy_down": null, "is_magnetic": null, "ordering": null, "total_magnetization": 2.5704082, "total_magnetization_normalized_vol": null, "total_magnetization_normalized_formula_units": null, "num_magnetic_sites": null, "num_unique_magnetic_sites": null, "types_of_magnetic_species": null, "bulk_modulus": null, "shear_modulus": null, "universal_anisotropy": null, "homogeneous_poisson": null, "e_total": null, "e_ionic": null, "e_electronic": null, "n": null, "e_ij_max": null, "weighted_surface_energy_EV_PER_ANG2": null, "weighted_surface_energy": null, "weighted_work_function": null, "surface_anisotropy": null, "shape_factor": null, "has_reconstructed": null, "possible_species": null, "has_props": null, "theoretical": null, "database_IDs": null, "fields_not_requested": ["builder_meta", "nsites", "elements", "nelements", "composition", "composition_reduced", "chemsys", "symmetry", "property_name", "deprecated", "deprecation_reasons", "last_updated", "origins", "warnings", "task_ids", "uncorrected_energy_per_atom", "equilibrium_reaction_energy_per_atom", "decomposes_to", "xas", "grain_boundaries", "cbm", "vbm", "is_gap_direct", "is_metal", "es_source_calc_id", "bandstructure", "dos", "dos_energy_up", "dos_energy_down", "is_magnetic", "ordering", "total_magnetization_normalized_vol", "total_magnetization_normalized_formula_units", "num_magnetic_sites", "num_unique_magnetic_sites", "types_of_magnetic_species", "bulk_modulus", "shear_modulus", "universal_anisotropy", "homogeneous_poisson", "e_total", "e_ionic", "e_electronic", "n", "e_ij_max", "weighted_surface_energy_EV_PER_ANG2", "weighted_surface_energy", "weighted_work_function", "surface_anisotropy", "shape_factor", "has_reconstructed", "possible_species", "has_props", "theoretical", "database_IDs"]}