{
  "builder_meta": null,
  "nsites": null,
  "elements": null,
  "nelements": null,
  "composition": null,
  "composition_reduced": null,
  "formula_pretty": "Pr3Gd",
  "formula_anonymous": "AB3",
  "chemsys": null,
  "volume": 294.205849138587,
  "density": 6.546897309254998,
  "density_atomic": 36.77573114232337,
  "symmetry": null,
  "property_name": null,
  "material_id": "mp-1186794",
  "deprecated": null,
  "deprecation_reasons": null,
  "last_updated": null,
  "origins": null,
  "warnings": null,
  "structure": {
    "@module": "pymatgen.core.structure",
    "@class": "Structure",
    "charge": 0,
    "lattice": {
      "matrix": [
        [3.74915943, -6.49496076, 0.0],
        [3.74915943, 6.49496076, 0.0],
        [-0.0, -0.0, 6.04102825]
      ],
      "pbc": [true, true, true],
      "a": 7.499380754802206,
      "b": 7.499380754802206,
      "c": 6.04102825,
      "alpha": 90.0,
      "beta": 90.0,
      "gamma": 120.00936780503345,
      "volume": 294.205849138587
    },
    "properties": {},
    "sites": [
      {
        "species": [{ "element": "Pr", "occu": 1 }],
        "abc": [0.16888535000000002, 0.33880735, 0.25],
        "properties": { "magmom": 0.199 },
        "label": "Pr",
        "xyz": [1.9034208737471614, 1.10363672226072, 1.5102570625]
      },
      {
        "species": [{ "element": "Pr", "occu": 1 }],
        "abc": [0.66119265, 0.8311146500000001, 0.25],
        "properties": { "magmom": 0.199 },
        "label": "Pr",
        "xyz": [5.59489798625284, 1.1036367222607204, 1.5102570625]
      },
      {
        "species": [{ "element": "Pr", "occu": 1 }],
        "abc": [0.16954409, 0.83045591, 0.25],
        "properties": { "magmom": 0.212 },
        "label": "Pr",
        "xyz": [3.74915943, 4.292596336720182, 1.5102570625]
      },
      {
        "species": [{ "element": "Pr", "occu": 1 }],
        "abc": [0.83116651, 0.66228529, 0.75],
        "properties": { "magmom": 0.259 },
        "label": "Pr",
        "xyz": [5.599188899220474, -1.0968768970009268, 4.5307711875]
      },
      {
        "species": [{ "element": "Pr", "occu": 1 }],
        "abc": [0.33771471000000003, 0.16883349, 0.75],
        "properties": { "magmom": 0.259 },
        "label": "Pr",
        "xyz": [1.8991299607795262, -1.0968768970009273, 4.5307711875]
      },
      {
        "species": [{ "element": "Pr", "occu": 1 }],
        "abc": [0.831478899999999, 0.168521099999999, 0.75],
        "properties": { "magmom": 0.247 },
        "label": "Pr",
        "xyz": [3.7491594299999926, -4.305884896535928, 4.5307711875]
      },
      {
        "species": [{ "element": "Gd", "occu": 1 }],
        "abc": [0.33302566, 0.66697434, 0.75],
        "properties": { "magmom": -0.777 },
        "label": "Gd",
        "xyz": [3.7491594299999997, 2.1689835724537967, 4.5307711875]
      },
      {
        "species": [{ "element": "Gd", "occu": 1 }],
        "abc": [0.66699113, 0.33300887, 0.25],
        "properties": { "magmom": 7.434 },
        "label": "Gd",
        "xyz": [3.74915943, -2.1692016732361172, 1.5102570625]
      }
    ]
  },
  "task_ids": null,
  "uncorrected_energy_per_atom": null,
  "energy_per_atom": -32.28740407375,
  "formation_energy_per_atom": 0.6148145275000011,
  "energy_above_hull": 0.6148145275000011,
  "is_stable": false,
  "equilibrium_reaction_energy_per_atom": null,
  "decomposes_to": null,
  "xas": null,
  "grain_boundaries": null,
  "band_gap": 0.0,
  "cbm": null,
  "vbm": null,
  "efermi": 2.95109391,
  "is_gap_direct": null,
  "is_metal": null,
  "es_source_calc_id": null,
  "bandstructure": null,
  "dos": null,
  "dos_energy_up": null,
  "dos_energy_down": null,
  "is_magnetic": null,
  "ordering": null,
  "total_magnetization": 10.5966439,
  "total_magnetization_normalized_vol": null,
  "total_magnetization_normalized_formula_units": null,
  "num_magnetic_sites": null,
  "num_unique_magnetic_sites": null,
  "types_of_magnetic_species": null,
  "bulk_modulus": null,
  "shear_modulus": null,
  "universal_anisotropy": null,
  "homogeneous_poisson": null,
  "e_total": null,
  "e_ionic": null,
  "e_electronic": null,
  "n": null,
  "e_ij_max": null,
  "weighted_surface_energy_EV_PER_ANG2": null,
  "weighted_surface_energy": null,
  "weighted_work_function": null,
  "surface_anisotropy": null,
  "shape_factor": null,
  "has_reconstructed": null,
  "possible_species": null,
  "has_props": null,
  "theoretical": null,
  "database_IDs": null,
  "fields_not_requested": [
    "builder_meta",
    "nsites",
    "elements",
    "nelements",
    "composition",
    "composition_reduced",
    "chemsys",
    "symmetry",
    "property_name",
    "deprecated",
    "deprecation_reasons",
    "last_updated",
    "origins",
    "warnings",
    "task_ids",
    "uncorrected_energy_per_atom",
    "equilibrium_reaction_energy_per_atom",
    "decomposes_to",
    "xas",
    "grain_boundaries",
    "cbm",
    "vbm",
    "is_gap_direct",
    "is_metal",
    "es_source_calc_id",
    "bandstructure",
    "dos",
    "dos_energy_up",
    "dos_energy_down",
    "is_magnetic",
    "ordering",
    "total_magnetization_normalized_vol",
    "total_magnetization_normalized_formula_units",
    "num_magnetic_sites",
    "num_unique_magnetic_sites",
    "types_of_magnetic_species",
    "bulk_modulus",
    "shear_modulus",
    "universal_anisotropy",
    "homogeneous_poisson",
    "e_total",
    "e_ionic",
    "e_electronic",
    "n",
    "e_ij_max",
    "weighted_surface_energy_EV_PER_ANG2",
    "weighted_surface_energy",
    "weighted_work_function",
    "surface_anisotropy",
    "shape_factor",
    "has_reconstructed",
    "possible_species",
    "has_props",
    "theoretical",
    "database_IDs"
  ]
}
