{
  "builder_meta": null,
  "nsites": null,
  "elements": null,
  "nelements": null,
  "composition": null,
  "composition_reduced": null,
  "formula_pretty": "Pr3Ge5",
  "formula_anonymous": "A3B5",
  "chemsys": null,
  "volume": 383.65904316424877,
  "density": 6.803206050085513,
  "density_atomic": 23.978690197765548,
  "symmetry": null,
  "property_name": null,
  "material_id": "mp-1209801",
  "deprecated": null,
  "deprecation_reasons": null,
  "last_updated": null,
  "origins": null,
  "warnings": null,
  "structure": {
    "@module": "pymatgen.core.structure",
    "@class": "Structure",
    "charge": 0,
    "lattice": {
      "matrix": [
        [-5.99868807, 0.0, 0.0],
        [-2.99934352, 0.0, -7.11663775],
        [-2.99934352, -8.98699086, 0.0]
      ],
      "pbc": [true, true, true],
      "a": 5.99868807,
      "b": 7.7228618021877775,
      "c": 9.474284472649613,
      "alpha": 82.9376268257599,
      "beta": 71.54393897698131,
      "gamma": 67.1467597480101,
      "volume": 383.65904316424877
    },
    "properties": {},
    "sites": [
      {
        "species": [{ "element": "Pr", "occu": 1 }],
        "abc": [0.0247491, 0.61457325, 0.8364313800000001],
        "properties": { "magmom": 0.0 },
        "label": "Pr",
        "xyz": [-4.5005234653937345, -7.517001167077188, -4.373695191090187]
      },
      {
        "species": [{ "element": "Pr", "occu": 1 }],
        "abc": [0.36067565, 0.61457325, 0.16356862],
        "properties": { "magmom": 0.0 },
        "label": "Pr",
        "xyz": [-4.497495494219677, -1.4699896929228133, -4.373695191090187]
      },
      {
        "species": [{ "element": "Pr", "occu": 1 }],
        "abc": [0.11118047, 0.11457325, 0.66356862],
        "properties": { "magmom": 0.0 },
        "label": "Pr",
        "xyz": [-3.0008517344311754, -5.963485122922814, -0.8153763160901875]
      },
      {
        "species": [{ "element": "Pr", "occu": 1 }],
        "abc": [0.77424627, 0.11457325, 0.33643138],
        "properties": { "magmom": 0.0 },
        "label": "Pr",
        "xyz": [-5.997179677571497, -3.023505737077187, -0.8153763160901875]
      },
      {
        "species": [{ "element": "Pr", "occu": 1 }],
        "abc": [0.44837178, 0.10325844, 0.0],
        "properties": { "magmom": -0.0 },
        "label": "Pr",
        "xyz": [-2.9993499805099733, 0.0, -0.7348529121101101]
      },
      {
        "species": [{ "element": "Pr", "occu": 1 }],
        "abc": [0.69837178, 0.6032584400000001, 0.5],
        "properties": { "magmom": -0.0 },
        "label": "Pr",
        "xyz": [-7.498365518009973, -4.49349543, -4.2931717871101105]
      },
      {
        "species": [{ "element": "Ge", "occu": 1 }],
        "abc": [0.5090507, 0.27599709, 0.67462302],
        "properties": { "magmom": 0.0 },
        "label": "Ge",
        "xyz": [-5.904872628025336, -6.062830914685597, -1.9641713095841475]
      },
      {
        "species": [{ "element": "Ge", "occu": 1 }],
        "abc": [0.21495121, 0.27599709, 0.32537698],
        "properties": { "magmom": 0.0 },
        "label": "Ge",
        "xyz": [-3.093152679009591, -2.9241599453144027, -1.9641713095841475]
      },
      {
        "species": [{ "element": "Ge", "occu": 1 }],
        "abc": [0.43367272, 0.7759970900000001, 0.82537698],
        "properties": { "magmom": 0.0 },
        "label": "Ge",
        "xyz": [-7.404538311698977, -7.417655375314403, -5.522490184584147]
      },
      {
        "species": [{ "element": "Ge", "occu": 1 }],
        "abc": [0.7903292, 0.7759970900000001, 0.17462302],
        "properties": { "magmom": 0.0 },
        "label": "Ge",
        "xyz": [-7.592174610322831, -1.5693354846855971, -5.522490184584147]
      },
      {
        "species": [{ "element": "Ge", "occu": 1 }],
        "abc": [0.33055009, 0.9255350800000001, 0.35236422],
        "properties": { "magmom": -0.0 },
        "label": "Ge",
        "xyz": [-5.815725866087963, -3.1666940245310293, -6.5866978892772705]
      },
      {
        "species": [{ "element": "Ge", "occu": 1 }],
        "abc": [0.74391383, 0.9255350800000001, 0.64763578],
        "properties": { "magmom": -0.0 },
        "label": "Ge",
        "xyz": [-9.180986841922834, -5.820296835468971, -6.5866978892772705]
      },
      {
        "species": [{ "element": "Ge", "occu": 1 }],
        "abc": [0.9329153, 0.42553508, 0.14763578],
        "properties": { "magmom": -0.0 },
        "label": "Ge",
        "xyz": [-7.315404185224298, -1.3268014054689707, -3.02837901427727]
      },
      {
        "species": [{ "element": "Ge", "occu": 1 }],
        "abc": [0.64154961, 0.42553508, 0.85236422],
        "properties": { "magmom": -0.0 },
        "label": "Ge",
        "xyz": [-7.6813149764876885, -7.66018945453103, -3.02837901427727]
      },
      {
        "species": [{ "element": "Ge", "occu": 1 }],
        "abc": [0.00923665, 0.98152571, 0.0],
        "properties": { "magmom": -0.0 },
        "label": "Ge",
        "xyz": [-2.9993405601636645, 0.0, -6.985162920381552]
      },
      {
        "species": [{ "element": "Ge", "occu": 1 }],
        "abc": [0.25923665, 0.48152571, 0.5],
        "properties": { "magmom": -0.0 },
        "label": "Ge",
        "xyz": [-4.499012577663665, -4.49349543, -3.4268440453815523]
      }
    ]
  },
  "task_ids": null,
  "uncorrected_energy_per_atom": null,
  "energy_per_atom": -20.51018461375,
  "formation_energy_per_atom": -0.8137149881249991,
  "energy_above_hull": 0.0,
  "is_stable": true,
  "equilibrium_reaction_energy_per_atom": null,
  "decomposes_to": null,
  "xas": null,
  "grain_boundaries": null,
  "band_gap": 0.0,
  "cbm": null,
  "vbm": null,
  "efermi": 3.8649546900000002,
  "is_gap_direct": null,
  "is_metal": null,
  "es_source_calc_id": null,
  "bandstructure": null,
  "dos": null,
  "dos_energy_up": null,
  "dos_energy_down": null,
  "is_magnetic": null,
  "ordering": null,
  "total_magnetization": 0.0,
  "total_magnetization_normalized_vol": null,
  "total_magnetization_normalized_formula_units": null,
  "num_magnetic_sites": null,
  "num_unique_magnetic_sites": null,
  "types_of_magnetic_species": null,
  "bulk_modulus": null,
  "shear_modulus": null,
  "universal_anisotropy": null,
  "homogeneous_poisson": null,
  "e_total": null,
  "e_ionic": null,
  "e_electronic": null,
  "n": null,
  "e_ij_max": null,
  "weighted_surface_energy_EV_PER_ANG2": null,
  "weighted_surface_energy": null,
  "weighted_work_function": null,
  "surface_anisotropy": null,
  "shape_factor": null,
  "has_reconstructed": null,
  "possible_species": null,
  "has_props": null,
  "theoretical": null,
  "database_IDs": null,
  "fields_not_requested": [
    "builder_meta",
    "nsites",
    "elements",
    "nelements",
    "composition",
    "composition_reduced",
    "chemsys",
    "symmetry",
    "property_name",
    "deprecated",
    "deprecation_reasons",
    "last_updated",
    "origins",
    "warnings",
    "task_ids",
    "uncorrected_energy_per_atom",
    "equilibrium_reaction_energy_per_atom",
    "decomposes_to",
    "xas",
    "grain_boundaries",
    "cbm",
    "vbm",
    "is_gap_direct",
    "is_metal",
    "es_source_calc_id",
    "bandstructure",
    "dos",
    "dos_energy_up",
    "dos_energy_down",
    "is_magnetic",
    "ordering",
    "total_magnetization_normalized_vol",
    "total_magnetization_normalized_formula_units",
    "num_magnetic_sites",
    "num_unique_magnetic_sites",
    "types_of_magnetic_species",
    "bulk_modulus",
    "shear_modulus",
    "universal_anisotropy",
    "homogeneous_poisson",
    "e_total",
    "e_ionic",
    "e_electronic",
    "n",
    "e_ij_max",
    "weighted_surface_energy_EV_PER_ANG2",
    "weighted_surface_energy",
    "weighted_work_function",
    "surface_anisotropy",
    "shape_factor",
    "has_reconstructed",
    "possible_species",
    "has_props",
    "theoretical",
    "database_IDs"
  ]
}
