{"builder_meta": null, "nsites": null, "elements": null, "nelements": null, "composition": null, "composition_reduced": null, "formula_pretty": "Pr3Ir", "formula_anonymous": "AB3", "chemsys": null, "volume": 491.9713811532701, "density": 8.302367574262814, "density_atomic": 30.74821132207938, "symmetry": null, "property_name": null, "material_id": "mp-1106395", "deprecated": null, "deprecation_reasons": null, "last_updated": null, "origins": null, "warnings": null, "structure": {"@module": "pymatgen.core.structure", "@class": "Structure", "charge": 0, "lattice": {"matrix": [[-0.0, 0.0, 6.63348854], [7.4010739, 0.0, 0.0], [0.0, 10.02081665, 0.0]], "pbc": [true, true, true], "a": 6.63348854, "b": 7.4010739, "c": 10.02081665, "alpha": 90.0, "beta": 90.0, "gamma": 90.0, "volume": 491.9713811532701}, "properties": {}, "sites": [{"species": [{"element": "Pr", "occu": 1}], "abc": [0.32390271, 0.668179699999999, 0.06664115], "properties": {"magmom": -0.055}, "label": "Pr", "xyz": [4.945247338179823, 0.6677987454951475, 2.1486049148599435]}, {"species": [{"element": "Pr", "occu": 1}], "abc": [0.17609729000000002, 0.1681797, 0.43335885], "properties": {"magmom": -0.055}, "label": "Pr", "xyz": [1.2447103881798298, 4.3426095795048525, 1.1681393551400567]}, {"species": [{"element": "Pr", "occu": 1}], "abc": [0.67609729, 0.3318203, 0.56664115], "properties": {"magmom": -0.055}, "label": "Pr", "xyz": [2.45582656182017, 5.678207070495148, 4.484883625140056]}, {"species": [{"element": "Pr", "occu": 1}], "abc": [0.82390271, 0.8318203, 0.9333588500000001], "properties": {"magmom": -0.055}, "label": "Pr", "xyz": [6.15636351182017, 9.353017904504854, 5.465349184859944]}, {"species": [{"element": "Pr", "occu": 1}], "abc": [0.67609729, 0.3318203, 0.9333588500000001], "properties": {"magmom": -0.055}, "label": "Pr", "xyz": [2.45582656182017, 9.353017904504854, 4.484883625140056]}, {"species": [{"element": "Pr", "occu": 1}], "abc": [0.82390271, 0.8318203, 0.56664115], "properties": {"magmom": -0.055}, "label": "Pr", "xyz": [6.15636351182017, 5.678207070495148, 5.465349184859944]}, {"species": [{"element": "Pr", "occu": 1}], "abc": [0.32390271, 0.668179699999999, 0.43335885], "properties": {"magmom": -0.055}, "label": "Pr", "xyz": [4.945247338179823, 4.3426095795048525, 2.1486049148599435]}, {"species": [{"element": "Pr", "occu": 1}], "abc": [0.17609729000000002, 0.1681797, 0.06664115], "properties": {"magmom": -0.055}, "label": "Pr", "xyz": [1.2447103881798298, 0.6677987454951475, 1.1681393551400567]}, {"species": [{"element": "Pr", "occu": 1}], "abc": [0.85456716, 0.5411583, 0.25], "properties": {"magmom": -0.082}, "label": "Pr", "xyz": [4.00515256989837, 2.5052041625, 5.668761462520346]}, {"species": [{"element": "Pr", "occu": 1}], "abc": [0.64543284, 0.041159299999999004, 0.25], "properties": {"magmom": -0.082}, "label": "Pr", "xyz": [0.3046230209722626, 2.5052041625, 4.281471347479654]}, {"species": [{"element": "Pr", "occu": 1}], "abc": [0.14543284, 0.458841699999999, 0.75], "properties": {"magmom": -0.082}, "label": "Pr", "xyz": [3.395921330101623, 7.5156124875, 0.9647270774796537]}, {"species": [{"element": "Pr", "occu": 1}], "abc": [0.35456716, 0.958841699999999, 0.75], "properties": {"magmom": -0.082}, "label": "Pr", "xyz": [7.096458280101623, 7.5156124875, 2.3520171925203464]}, {"species": [{"element": "Ir", "occu": 1}], "abc": [0.06156681, 0.87951693, 0.25], "properties": {"magmom": -0.012}, "label": "Ir", "xyz": [6.509369795231127, 2.5052041625, 0.4084027285793574]}, {"species": [{"element": "Ir", "occu": 1}], "abc": [0.43843319000000003, 0.37951693000000003, 0.25], "properties": {"magmom": -0.012}, "label": "Ir", "xyz": [2.808832845231127, 2.5052041625, 2.908341541420643]}, {"species": [{"element": "Ir", "occu": 1}], "abc": [0.93843319, 0.12048307, 0.75], "properties": {"magmom": -0.012}, "label": "Ir", "xyz": [0.891704104768873, 7.5156124875, 6.225085811420643]}, {"species": [{"element": "Ir", "occu": 1}], "abc": [0.56156681, 0.62048307, 0.75], "properties": {"magmom": -0.012}, "label": "Ir", "xyz": [4.5922410547688735, 7.5156124875, 3.725146998579357]}]}, "task_ids": null, "uncorrected_energy_per_atom": null, "energy_per_atom": -35.618464050625, "formation_energy_per_atom": -0.475658411874995, "energy_above_hull": 0.0033311404166620003, "is_stable": false, "equilibrium_reaction_energy_per_atom": null, "decomposes_to": null, "xas": null, "grain_boundaries": null, "band_gap": 0.0, "cbm": null, "vbm": null, "efermi": 4.23400582, "is_gap_direct": null, "is_metal": null, "es_source_calc_id": null, "bandstructure": null, "dos": null, "dos_energy_up": null, "dos_energy_down": null, "is_magnetic": null, "ordering": null, "total_magnetization": 2.0113682, "total_magnetization_normalized_vol": null, "total_magnetization_normalized_formula_units": null, "num_magnetic_sites": null, "num_unique_magnetic_sites": null, "types_of_magnetic_species": null, "bulk_modulus": null, "shear_modulus": null, "universal_anisotropy": null, "homogeneous_poisson": null, "e_total": null, "e_ionic": null, "e_electronic": null, "n": null, "e_ij_max": null, "weighted_surface_energy_EV_PER_ANG2": null, "weighted_surface_energy": null, "weighted_work_function": null, "surface_anisotropy": null, "shape_factor": null, "has_reconstructed": null, "possible_species": null, "has_props": null, "theoretical": null, "database_IDs": null, "fields_not_requested": ["builder_meta", "nsites", "elements", "nelements", "composition", "composition_reduced", "chemsys", "symmetry", "property_name", "deprecated", "deprecation_reasons", "last_updated", "origins", "warnings", "task_ids", "uncorrected_energy_per_atom", "equilibrium_reaction_energy_per_atom", "decomposes_to", "xas", "grain_boundaries", "cbm", "vbm", "is_gap_direct", "is_metal", "es_source_calc_id", "bandstructure", "dos", "dos_energy_up", "dos_energy_down", "is_magnetic", "ordering", "total_magnetization_normalized_vol", "total_magnetization_normalized_formula_units", "num_magnetic_sites", "num_unique_magnetic_sites", "types_of_magnetic_species", "bulk_modulus", "shear_modulus", "universal_anisotropy", "homogeneous_poisson", "e_total", "e_ionic", "e_electronic", "n", "e_ij_max", "weighted_surface_energy_EV_PER_ANG2", "weighted_surface_energy", "weighted_work_function", "surface_anisotropy", "shape_factor", "has_reconstructed", "possible_species", "has_props", "theoretical", "database_IDs"]}