{
  "builder_meta": null,
  "nsites": null,
  "elements": null,
  "nelements": null,
  "composition": null,
  "composition_reduced": null,
  "formula_pretty": "Pr3In5",
  "formula_anonymous": "A3B5",
  "chemsys": null,
  "volume": 453.2919809311596,
  "density": 7.303225802351756,
  "density_atomic": 28.330748808197477,
  "symmetry": null,
  "property_name": null,
  "material_id": "mp-1189599",
  "deprecated": null,
  "deprecation_reasons": null,
  "last_updated": null,
  "origins": null,
  "warnings": null,
  "structure": {
    "@module": "pymatgen.core.structure",
    "@class": "Structure",
    "charge": 0,
    "lattice": {
      "matrix": [
        [5.12361851, 4.17941402, 0.0001223],
        [-5.12361906, 4.17941466, 0.00012245],
        [-1.399999999999999e-7, 0.00031223, 10.58414554]
      ],
      "pbc": [true, true, true],
      "a": 6.612032078078907,
      "b": 6.6120329088119485,
      "c": 10.58414554460536,
      "alpha": 89.99786996635402,
      "beta": 89.99787244059426,
      "gamma": 101.59069507284973,
      "volume": 453.2919809311597
    },
    "properties": {},
    "sites": [
      {
        "species": [{ "element": "Pr", "occu": 1 }],
        "abc": [0.63403767, 0.63403781, 0.25008871],
        "properties": { "magmom": 0.0 },
        "label": "Pr",
        "xyz": [-1.1010398066531434e-6, 5.299890930512352, 2.647130485287729]
      },
      {
        "species": [{ "element": "Pr", "occu": 1 }],
        "abc": [0.36596233, 0.36596219, 0.74991129],
        "properties": { "magmom": 0.0 },
        "label": "Pr",
        "xyz": [4.110398062209942e-7, 3.059249979487649, 7.937259804712271]
      },
      {
        "species": [{ "element": "Pr", "occu": 1 }],
        "abc": [0.79756659, 0.20243327, 0.49999998],
        "properties": { "magmom": -0.0 },
        "label": "Pr",
        "xyz": [3.0492359129314566, 4.179569679433086, 5.292194888664958]
      },
      {
        "species": [{ "element": "Pr", "occu": 1 }],
        "abc": [0.79758222, 0.20241768000000002, -4e-8],
        "properties": { "magmom": -0.0 },
        "label": "Pr",
        "xyz": [3.049395942309917, 4.179413731593424, 0.00012190698460039999]
      },
      {
        "species": [{ "element": "Pr", "occu": 1 }],
        "abc": [0.20243341, 0.79756673, 0.50000002],
        "properties": { "magmom": -0.0 },
        "label": "Pr",
        "xyz": [-3.0492366029314577, 4.179571230566915, 5.292195401335042]
      },
      {
        "species": [{ "element": "Pr", "occu": 1 }],
        "abc": [0.20241778, 0.7975823200000001, 4e-8],
        "properties": { "magmom": -0.0 },
        "label": "Pr",
        "xyz": [-3.0493964923099175, 4.179414948406577, 0.0001228430153996]
      },
      {
        "species": [{ "element": "In", "occu": 1 }],
        "abc": [0.01524064, 0.01524067, 0.25003113],
        "properties": { "magmom": 0.0 },
        "label": "In",
        "xyz": [-1.970952819942669e-7, 0.12747209133571488, 2.6463695996009737]
      },
      {
        "species": [{ "element": "In", "occu": 1 }],
        "abc": [0.98475936, 0.98475933, 0.74996887],
        "properties": { "magmom": 0.0 },
        "label": "In",
        "xyz": [-4.929047191040161e-7, 8.231668818664286, 7.938020690399026]
      },
      {
        "species": [{ "element": "In", "occu": 1 }],
        "abc": [0.30944865, 0.30944867, 0.05127706],
        "properties": { "magmom": 0.0 },
        "label": "In",
        "xyz": [-2.798479272232894e-7, 2.586644344432019, 0.5427996034628488]
      },
      {
        "species": [{ "element": "In", "occu": 1 }],
        "abc": [0.69055035, 0.69055033, 0.94872394],
        "properties": { "magmom": 0.0 },
        "label": "In",
        "xyz": [-4.101516632043734e-7, 5.7724882070515315, 10.041601270437942]
      },
      {
        "species": [{ "element": "In", "occu": 1 }],
        "abc": [0.30939222, 0.30939226000000003, 0.44873747],
        "properties": { "magmom": 0.0 },
        "label": "In",
        "xyz": [-4.3793372936364536e-7, 2.586296838381714, 4.749578415482127]
      },
      {
        "species": [{ "element": "In", "occu": 1 }],
        "abc": [0.69060678, 0.69060674, 0.55126253],
        "properties": { "magmom": 0.0 },
        "label": "In",
        "xyz": [-2.520657210640174e-7, 5.772835712789606, 5.834811874273123]
      },
      {
        "species": [{ "element": "In", "occu": 1 }],
        "abc": [0.08058735, 0.50048704, 0.25004545],
        "properties": { "magmom": 0.0 },
        "label": "In",
        "xyz": [-2.151406134301497, 2.428628844231507, 2.6465885748857456]
      },
      {
        "species": [{ "element": "In", "occu": 1 }],
        "abc": [0.49951297, 0.91941264, 0.74995456],
        "properties": { "magmom": -0.0 },
        "label": "In",
        "xyz": [-2.151406332225482, 5.93051233450741, 7.937801883940662]
      },
      {
        "species": [{ "element": "In", "occu": 1 }],
        "abc": [0.91941265, 0.49951296, 0.74995455],
        "properties": { "magmom": 0.0 },
        "label": "In",
        "xyz": [2.151405444301497, 5.930512065768493, 7.9378017151142535]
      },
      {
        "species": [{ "element": "In", "occu": 1 }],
        "abc": [0.50048703, 0.08058736, 0.25004544],
        "properties": { "magmom": -0.0 },
        "label": "In",
        "xyz": [2.151405642225482, 2.4286285754925894, 2.6465884060593385]
      }
    ]
  },
  "task_ids": null,
  "uncorrected_energy_per_atom": null,
  "energy_per_atom": -25.801199013125,
  "formation_energy_per_atom": -0.663096387499997,
  "energy_above_hull": 0.0,
  "is_stable": true,
  "equilibrium_reaction_energy_per_atom": null,
  "decomposes_to": null,
  "xas": null,
  "grain_boundaries": null,
  "band_gap": 0.0,
  "cbm": null,
  "vbm": null,
  "efermi": 5.85100125,
  "is_gap_direct": null,
  "is_metal": null,
  "es_source_calc_id": null,
  "bandstructure": null,
  "dos": null,
  "dos_energy_up": null,
  "dos_energy_down": null,
  "is_magnetic": null,
  "ordering": null,
  "total_magnetization": 4e-7,
  "total_magnetization_normalized_vol": null,
  "total_magnetization_normalized_formula_units": null,
  "num_magnetic_sites": null,
  "num_unique_magnetic_sites": null,
  "types_of_magnetic_species": null,
  "bulk_modulus": null,
  "shear_modulus": null,
  "universal_anisotropy": null,
  "homogeneous_poisson": null,
  "e_total": null,
  "e_ionic": null,
  "e_electronic": null,
  "n": null,
  "e_ij_max": null,
  "weighted_surface_energy_EV_PER_ANG2": null,
  "weighted_surface_energy": null,
  "weighted_work_function": null,
  "surface_anisotropy": null,
  "shape_factor": null,
  "has_reconstructed": null,
  "possible_species": null,
  "has_props": null,
  "theoretical": null,
  "database_IDs": null,
  "fields_not_requested": [
    "builder_meta",
    "nsites",
    "elements",
    "nelements",
    "composition",
    "composition_reduced",
    "chemsys",
    "symmetry",
    "property_name",
    "deprecated",
    "deprecation_reasons",
    "last_updated",
    "origins",
    "warnings",
    "task_ids",
    "uncorrected_energy_per_atom",
    "equilibrium_reaction_energy_per_atom",
    "decomposes_to",
    "xas",
    "grain_boundaries",
    "cbm",
    "vbm",
    "is_gap_direct",
    "is_metal",
    "es_source_calc_id",
    "bandstructure",
    "dos",
    "dos_energy_up",
    "dos_energy_down",
    "is_magnetic",
    "ordering",
    "total_magnetization_normalized_vol",
    "total_magnetization_normalized_formula_units",
    "num_magnetic_sites",
    "num_unique_magnetic_sites",
    "types_of_magnetic_species",
    "bulk_modulus",
    "shear_modulus",
    "universal_anisotropy",
    "homogeneous_poisson",
    "e_total",
    "e_ionic",
    "e_electronic",
    "n",
    "e_ij_max",
    "weighted_surface_energy_EV_PER_ANG2",
    "weighted_surface_energy",
    "weighted_work_function",
    "surface_anisotropy",
    "shape_factor",
    "has_reconstructed",
    "possible_species",
    "has_props",
    "theoretical",
    "database_IDs"
  ]
}
