{"builder_meta": null, "nsites": null, "elements": null, "nelements": null, "composition": null, "composition_reduced": null, "formula_pretty": "Pr3I", "formula_anonymous": "AB3", "chemsys": null, "volume": 259.5321138835408, "density": 7.033255263309031, "density_atomic": 32.4415142354426, "symmetry": null, "property_name": null, "material_id": "mp-975592", "deprecated": null, "deprecation_reasons": null, "last_updated": null, "origins": null, "warnings": null, "structure": {"@module": "pymatgen.core.structure", "@class": "Structure", "charge": 0, "lattice": {"matrix": [[3.574004, -6.190357, 0.0], [3.574004, 6.190357, 0.0], [0.0, 0.0, 5.865302]], "pbc": [true, true, true], "a": 7.14800842049483, "b": 7.14800842049483, "c": 5.865302, "alpha": 90.0, "beta": 90.0, "gamma": 120.00000389195313, "volume": 259.5321138835408}, "properties": {}, "sites": [{"species": [{"element": "Pr", "occu": 1}], "abc": [0.833151, 0.166849, 0.75], "properties": {"magmom": -0.0}, "label": "Pr", "xyz": [3.5740039999999995, -4.124647249813999, 4.3989765]}, {"species": [{"element": "Pr", "occu": 1}], "abc": [0.333698, 0.166849, 0.75], "properties": {"magmom": -0.0}, "label": "Pr", "xyz": [1.788956980188, -1.032854875093, 4.3989765]}, {"species": [{"element": "Pr", "occu": 1}], "abc": [0.833151, 0.666302, 0.75], "properties": {"magmom": -0.0}, "label": "Pr", "xyz": [5.359051019812, -1.0328548750930002, 4.3989765]}, {"species": [{"element": "Pr", "occu": 1}], "abc": [0.166849, 0.833151, 0.25], "properties": {"magmom": -0.0}, "label": "Pr", "xyz": [3.5740039999999995, 4.124647249813999, 1.4663255]}, {"species": [{"element": "Pr", "occu": 1}], "abc": [0.666302, 0.833151, 0.25], "properties": {"magmom": -0.0}, "label": "Pr", "xyz": [5.359051019812, 1.0328548750930002, 1.4663255]}, {"species": [{"element": "Pr", "occu": 1}], "abc": [0.166849, 0.333698, 0.25], "properties": {"magmom": -0.0}, "label": "Pr", "xyz": [1.788956980188, 1.032854875093, 1.4663255]}, {"species": [{"element": "I", "occu": 1}], "abc": [0.666667, 0.333333, 0.25], "properties": {"magmom": 0.0}, "label": "I", "xyz": [3.5740040000000004, -2.063456460238, 1.4663255]}, {"species": [{"element": "I", "occu": 1}], "abc": [0.333333, 0.666667, 0.75], "properties": {"magmom": 0.0}, "label": "I", "xyz": [3.5740040000000004, 2.063456460238, 4.3989765]}]}, "task_ids": null, "uncorrected_energy_per_atom": null, "energy_per_atom": -4.22127016125, "formation_energy_per_atom": -0.24366341375000003, "energy_above_hull": 0.34426400239583205, "is_stable": false, "equilibrium_reaction_energy_per_atom": null, "decomposes_to": null, "xas": null, "grain_boundaries": null, "band_gap": 0.0, "cbm": null, "vbm": null, "efermi": 5.26086959, "is_gap_direct": null, "is_metal": null, "es_source_calc_id": null, "bandstructure": null, "dos": null, "dos_energy_up": null, "dos_energy_down": null, "is_magnetic": null, "ordering": null, "total_magnetization": 0.0016516, "total_magnetization_normalized_vol": null, "total_magnetization_normalized_formula_units": null, "num_magnetic_sites": null, "num_unique_magnetic_sites": null, "types_of_magnetic_species": null, "bulk_modulus": null, "shear_modulus": null, "universal_anisotropy": null, "homogeneous_poisson": null, "e_total": null, "e_ionic": null, "e_electronic": null, "n": null, "e_ij_max": null, "weighted_surface_energy_EV_PER_ANG2": null, "weighted_surface_energy": null, "weighted_work_function": null, "surface_anisotropy": null, "shape_factor": null, "has_reconstructed": null, "possible_species": null, "has_props": null, "theoretical": null, "database_IDs": null, "fields_not_requested": ["builder_meta", "nsites", "elements", "nelements", "composition", "composition_reduced", "chemsys", "symmetry", "property_name", "deprecated", "deprecation_reasons", "last_updated", "origins", "warnings", "task_ids", "uncorrected_energy_per_atom", "equilibrium_reaction_energy_per_atom", "decomposes_to", "xas", "grain_boundaries", "cbm", "vbm", "is_gap_direct", "is_metal", "es_source_calc_id", "bandstructure", "dos", "dos_energy_up", "dos_energy_down", "is_magnetic", "ordering", "total_magnetization_normalized_vol", "total_magnetization_normalized_formula_units", "num_magnetic_sites", "num_unique_magnetic_sites", "types_of_magnetic_species", "bulk_modulus", "shear_modulus", "universal_anisotropy", "homogeneous_poisson", "e_total", "e_ionic", "e_electronic", "n", "e_ij_max", "weighted_surface_energy_EV_PER_ANG2", "weighted_surface_energy", "weighted_work_function", "surface_anisotropy", "shape_factor", "has_reconstructed", "possible_species", "has_props", "theoretical", "database_IDs"]}