{"builder_meta": null, "nsites": null, "elements": null, "nelements": null, "composition": null, "composition_reduced": null, "formula_pretty": "Pr3Lu", "formula_anonymous": "AB3", "chemsys": null, "volume": 282.56337989116844, "density": 7.024884201706994, "density_atomic": 35.320422486396055, "symmetry": null, "property_name": null, "material_id": "mp-1186721", "deprecated": null, "deprecation_reasons": null, "last_updated": null, "origins": null, "warnings": null, "structure": {"@module": "pymatgen.core.structure", "@class": "Structure", "charge": 0, "lattice": {"matrix": [[3.73218321, -6.46433128, -0.0], [3.73218321, 6.46433128, 0.0], [0.0, -0.0, 5.85597645]], "pbc": [true, true, true], "a": 7.4643667119583785, "b": 7.4643667119583785, "c": 5.85597645, "alpha": 90.0, "beta": 90.0, "gamma": 120.00000258773605, "volume": 282.56337989116844}, "properties": {}, "sites": [{"species": [{"element": "Pr", "occu": 1}], "abc": [0.16939699, 0.33879499, 0.25], "properties": {"magmom": 0.138}, "label": "Pr", "xyz": [1.8966655752126558, 1.09504479016944, 1.4639941125]}, {"species": [{"element": "Pr", "occu": 1}], "abc": [0.66120501, 0.83060301, 0.25], "properties": {"magmom": 0.138}, "label": "Pr", "xyz": [5.567700844787344, 1.0950447901694407, 1.4639941125]}, {"species": [{"element": "Pr", "occu": 1}], "abc": [0.16939699, 0.83060301, 0.25], "properties": {"magmom": 0.138}, "label": "Pr", "xyz": [3.73218321, 4.274254757610306, 1.4639941125]}, {"species": [{"element": "Pr", "occu": 1}], "abc": [0.83060301, 0.66120501, 0.75], "properties": {"magmom": 0.138}, "label": "Pr", "xyz": [5.567700844787344, -1.0950447901694407, 4.3919823375]}, {"species": [{"element": "Pr", "occu": 1}], "abc": [0.33879499, 0.16939699, 0.75], "properties": {"magmom": 0.138}, "label": "Pr", "xyz": [1.8966655752126558, -1.09504479016944, 4.3919823375]}, {"species": [{"element": "Pr", "occu": 1}], "abc": [0.83060301, 0.16939699, 0.75], "properties": {"magmom": 0.138}, "label": "Pr", "xyz": [3.73218321, -4.274254757610306, 4.3919823375]}, {"species": [{"element": "Lu", "occu": 1}], "abc": [0.333333, 0.666667, 0.75], "properties": {"magmom": 0.192}, "label": "Lu", "xyz": [3.7321832099999996, 2.15478140288752, 4.3919823375]}, {"species": [{"element": "Lu", "occu": 1}], "abc": [0.666667, 0.333333, 0.25], "properties": {"magmom": 0.192}, "label": "Lu", "xyz": [3.7321832099999996, -2.15478140288752, 1.4639941125]}]}, "task_ids": null, "uncorrected_energy_per_atom": null, "energy_per_atom": -31.53956446125, "formation_energy_per_atom": 0.033372860833335, "energy_above_hull": 0.033372860833335, "is_stable": false, "equilibrium_reaction_energy_per_atom": null, "decomposes_to": null, "xas": null, "grain_boundaries": null, "band_gap": 0.0, "cbm": null, "vbm": null, "efermi": 3.32829813, "is_gap_direct": null, "is_metal": null, "es_source_calc_id": null, "bandstructure": null, "dos": null, "dos_energy_up": null, "dos_energy_down": null, "is_magnetic": null, "ordering": null, "total_magnetization": 2.4585761, "total_magnetization_normalized_vol": null, "total_magnetization_normalized_formula_units": null, "num_magnetic_sites": null, "num_unique_magnetic_sites": null, "types_of_magnetic_species": null, "bulk_modulus": null, "shear_modulus": null, "universal_anisotropy": null, "homogeneous_poisson": null, "e_total": null, "e_ionic": null, "e_electronic": null, "n": null, "e_ij_max": null, "weighted_surface_energy_EV_PER_ANG2": null, "weighted_surface_energy": null, "weighted_work_function": null, "surface_anisotropy": null, "shape_factor": null, "has_reconstructed": null, "possible_species": null, "has_props": null, "theoretical": null, "database_IDs": null, "fields_not_requested": ["builder_meta", "nsites", "elements", "nelements", "composition", "composition_reduced", "chemsys", "symmetry", "property_name", "deprecated", "deprecation_reasons", "last_updated", "origins", "warnings", "task_ids", "uncorrected_energy_per_atom", "equilibrium_reaction_energy_per_atom", "decomposes_to", "xas", "grain_boundaries", "cbm", "vbm", "is_gap_direct", "is_metal", "es_source_calc_id", "bandstructure", "dos", "dos_energy_up", "dos_energy_down", "is_magnetic", "ordering", "total_magnetization_normalized_vol", "total_magnetization_normalized_formula_units", "num_magnetic_sites", "num_unique_magnetic_sites", "types_of_magnetic_species", "bulk_modulus", "shear_modulus", "universal_anisotropy", "homogeneous_poisson", "e_total", "e_ionic", "e_electronic", "n", "e_ij_max", "weighted_surface_energy_EV_PER_ANG2", "weighted_surface_energy", "weighted_work_function", "surface_anisotropy", "shape_factor", "has_reconstructed", "possible_species", "has_props", "theoretical", "database_IDs"]}