{"builder_meta": null, "nsites": null, "elements": null, "nelements": null, "composition": null, "composition_reduced": null, "formula_pretty": "Pr3Ni", "formula_anonymous": "AB3", "chemsys": null, "volume": 469.1483909371314, "density": 6.815844810876517, "density_atomic": 29.321774433570713, "symmetry": null, "property_name": null, "material_id": "mp-1106122", "deprecated": null, "deprecation_reasons": null, "last_updated": null, "origins": null, "warnings": null, "structure": {"@module": "pymatgen.core.structure", "@class": "Structure", "charge": 0, "lattice": {"matrix": [[0.0, 0.0, 6.61512624], [7.04148607, 0.0, 0.0], [0.0, 10.0718157, 0.0]], "pbc": [true, true, true], "a": 6.61512624, "b": 7.04148607, "c": 10.0718157, "alpha": 90.0, "beta": 90.0, "gamma": 90.0, "volume": 469.1483909371314}, "properties": {}, "sites": [{"species": [{"element": "Pr", "occu": 1}], "abc": [0.32352124, 0.67118655, 0.06712809], "properties": {"magmom": 0.0}, "label": "Pr", "xyz": [4.726150742196359, 0.676101750773013, 2.1401338439213378]}, {"species": [{"element": "Pr", "occu": 1}], "abc": [0.17647876, 0.17118655, 0.43287191], "properties": {"magmom": 0.0}, "label": "Pr", "xyz": [1.2054077071963585, 4.359806099226987, 1.1674292760786626]}, {"species": [{"element": "Pr", "occu": 1}], "abc": [0.6764787600000001, 0.32881345, 0.56712809], "properties": {"magmom": 0.0}, "label": "Pr", "xyz": [2.3153353278036417, 5.712009600773013, 4.4749923960786635]}, {"species": [{"element": "Pr", "occu": 1}], "abc": [0.82352124, 0.8288134500000001, 0.93287191], "properties": {"magmom": 0.0}, "label": "Pr", "xyz": [5.836078362803642, 9.395713949226987, 5.447696963921338]}, {"species": [{"element": "Pr", "occu": 1}], "abc": [0.6764787600000001, 0.32881345, 0.93287191], "properties": {"magmom": 0.0}, "label": "Pr", "xyz": [2.3153353278036417, 9.395713949226987, 4.4749923960786635]}, {"species": [{"element": "Pr", "occu": 1}], "abc": [0.82352124, 0.8288134500000001, 0.56712809], "properties": {"magmom": 0.0}, "label": "Pr", "xyz": [5.836078362803642, 5.712009600773013, 5.447696963921338]}, {"species": [{"element": "Pr", "occu": 1}], "abc": [0.32352124, 0.67118655, 0.43287191], "properties": {"magmom": 0.0}, "label": "Pr", "xyz": [4.726150742196359, 4.359806099226987, 2.1401338439213378]}, {"species": [{"element": "Pr", "occu": 1}], "abc": [0.17647876, 0.17118655, 0.06712809], "properties": {"magmom": 0.0}, "label": "Pr", "xyz": [1.2054077071963585, 0.676101750773013, 1.1674292760786626]}, {"species": [{"element": "Pr", "occu": 1}], "abc": [0.8558067500000001, 0.53514027, 0.25], "properties": {"magmom": 0.0}, "label": "Pr", "xyz": [3.768182756701039, 2.517953925, 5.661269688294121]}, {"species": [{"element": "Pr", "occu": 1}], "abc": [0.64419325, 0.03514027, 0.25], "properties": {"magmom": 0.0}, "label": "Pr", "xyz": [0.24743972170103892, 2.517953925, 4.26141967170588]}, {"species": [{"element": "Pr", "occu": 1}], "abc": [0.14419325, 0.46485973, 0.75], "properties": {"magmom": 0.0}, "label": "Pr", "xyz": [3.2733033132989613, 7.553861775, 0.95385655170588]}, {"species": [{"element": "Pr", "occu": 1}], "abc": [0.35580675, 0.96485973, 0.75], "properties": {"magmom": 0.0}, "label": "Pr", "xyz": [6.794046348298962, 7.553861775, 2.35370656829412]}, {"species": [{"element": "Ni", "occu": 1}], "abc": [0.06670355, 0.8852171600000001, 0.25], "properties": {"magmom": 0.0}, "label": "Ni", "xyz": [6.233244301064962, 2.517953925, 0.441252403906152]}, {"species": [{"element": "Ni", "occu": 1}], "abc": [0.43329645, 0.38521716, 0.25], "properties": {"magmom": 0.0}, "label": "Ni", "xyz": [2.7125012660649612, 2.517953925, 2.866310716093848]}, {"species": [{"element": "Ni", "occu": 1}], "abc": [0.93329645, 0.11478284, 0.75], "properties": {"magmom": 0.0}, "label": "Ni", "xyz": [0.8082417689350389, 7.553861775, 6.173873836093849]}, {"species": [{"element": "Ni", "occu": 1}], "abc": [0.5667035500000001, 0.61478284, 0.75], "properties": {"magmom": 0.0}, "label": "Ni", "xyz": [4.32898480393504, 7.553861775, 3.7488155239061527]}]}, "task_ids": null, "uncorrected_energy_per_atom": null, "energy_per_atom": -5.185590440624999, "formation_energy_per_atom": -0.14395267687499802, "energy_above_hull": 0.0, "is_stable": true, "equilibrium_reaction_energy_per_atom": null, "decomposes_to": null, "xas": null, "grain_boundaries": null, "band_gap": 0.0, "cbm": null, "vbm": null, "efermi": 4.08915163, "is_gap_direct": null, "is_metal": null, "es_source_calc_id": null, "bandstructure": null, "dos": null, "dos_energy_up": null, "dos_energy_down": null, "is_magnetic": null, "ordering": null, "total_magnetization": 0.0007499, "total_magnetization_normalized_vol": null, "total_magnetization_normalized_formula_units": null, "num_magnetic_sites": null, "num_unique_magnetic_sites": null, "types_of_magnetic_species": null, "bulk_modulus": null, "shear_modulus": null, "universal_anisotropy": null, "homogeneous_poisson": null, "e_total": null, "e_ionic": null, "e_electronic": null, "n": null, "e_ij_max": null, "weighted_surface_energy_EV_PER_ANG2": null, "weighted_surface_energy": null, "weighted_work_function": null, "surface_anisotropy": null, "shape_factor": null, "has_reconstructed": null, "possible_species": null, "has_props": null, "theoretical": null, "database_IDs": null, "fields_not_requested": ["builder_meta", "nsites", "elements", "nelements", "composition", "composition_reduced", "chemsys", "symmetry", "property_name", "deprecated", "deprecation_reasons", "last_updated", "origins", "warnings", "task_ids", "uncorrected_energy_per_atom", "equilibrium_reaction_energy_per_atom", "decomposes_to", "xas", "grain_boundaries", "cbm", "vbm", "is_gap_direct", "is_metal", "es_source_calc_id", "bandstructure", "dos", "dos_energy_up", "dos_energy_down", "is_magnetic", "ordering", "total_magnetization_normalized_vol", "total_magnetization_normalized_formula_units", "num_magnetic_sites", "num_unique_magnetic_sites", "types_of_magnetic_species", "bulk_modulus", "shear_modulus", "universal_anisotropy", "homogeneous_poisson", "e_total", "e_ionic", "e_electronic", "n", "e_ij_max", "weighted_surface_energy_EV_PER_ANG2", "weighted_surface_energy", "weighted_work_function", "surface_anisotropy", "shape_factor", "has_reconstructed", "possible_species", "has_props", "theoretical", "database_IDs"]}