{"builder_meta": null, "nsites": null, "elements": null, "nelements": null, "composition": null, "composition_reduced": null, "formula_pretty": "Pr3Os", "formula_anonymous": "AB3", "chemsys": null, "volume": 485.89281172592524, "density": 8.379068756726857, "density_atomic": 30.368300732870328, "symmetry": null, "property_name": null, "material_id": "mp-1189967", "deprecated": null, "deprecation_reasons": null, "last_updated": null, "origins": null, "warnings": null, "structure": {"@module": "pymatgen.core.structure", "@class": "Structure", "charge": 0, "lattice": {"matrix": [[0.0, 0.0, 6.63479493], [7.4977807, 0.0, 0.0], [0.0, 9.7674284, 0.0]], "pbc": [true, true, true], "a": 6.63479493, "b": 7.4977807, "c": 9.7674284, "alpha": 90.0, "beta": 90.0, "gamma": 90.0, "volume": 485.89281172592524}, "properties": {}, "sites": [{"species": [{"element": "Pr", "occu": 1}], "abc": [0.32641696000000003, 0.67181511, 0.06791236], "properties": {"magmom": -0.0}, "label": "Pr", "xyz": [5.037122365726377, 0.663329113775024, 2.165709591274013]}, {"species": [{"element": "Pr", "occu": 1}], "abc": [0.17358304, 0.17181511, 0.43208764], "properties": {"magmom": -0.0}, "label": "Pr", "xyz": [1.288232015726377, 4.220385086224976, 1.1516878737259872]}, {"species": [{"element": "Pr", "occu": 1}], "abc": [0.67358304, 0.32818489, 0.56791236], "properties": {"magmom": -0.0}, "label": "Pr", "xyz": [2.460658334273623, 5.547043313775024, 4.4690853387259875]}, {"species": [{"element": "Pr", "occu": 1}], "abc": [0.82641696, 0.8281848900000001, 0.93208764], "properties": {"magmom": -0.0}, "label": "Pr", "xyz": [6.209548684273623, 9.104099286224976, 5.4831070562740125]}, {"species": [{"element": "Pr", "occu": 1}], "abc": [0.67358304, 0.32818489, 0.93208764], "properties": {"magmom": -0.0}, "label": "Pr", "xyz": [2.460658334273623, 9.104099286224976, 4.4690853387259875]}, {"species": [{"element": "Pr", "occu": 1}], "abc": [0.82641696, 0.8281848900000001, 0.56791236], "properties": {"magmom": -0.0}, "label": "Pr", "xyz": [6.209548684273623, 5.547043313775024, 5.4831070562740125]}, {"species": [{"element": "Pr", "occu": 1}], "abc": [0.32641696000000003, 0.67181511, 0.43208764], "properties": {"magmom": -0.0}, "label": "Pr", "xyz": [5.037122365726377, 4.220385086224976, 2.165709591274013]}, {"species": [{"element": "Pr", "occu": 1}], "abc": [0.17358304, 0.17181511, 0.06791236], "properties": {"magmom": -0.0}, "label": "Pr", "xyz": [1.288232015726377, 0.663329113775024, 1.1516878737259872]}, {"species": [{"element": "Pr", "occu": 1}], "abc": [0.8586769, 0.54762562, 0.25], "properties": {"magmom": 0.0}, "label": "Pr", "xyz": [4.105976804461534, 2.4418571, 5.697145142628116]}, {"species": [{"element": "Pr", "occu": 1}], "abc": [0.641323099999999, 0.04762562, 0.25], "properties": {"magmom": 0.0}, "label": "Pr", "xyz": [0.357086454461534, 2.4418571, 4.2550472523718765]}, {"species": [{"element": "Pr", "occu": 1}], "abc": [0.1413231, 0.45237438, 0.75], "properties": {"magmom": 0.0}, "label": "Pr", "xyz": [3.391803895538466, 7.3255713, 0.9376497873718831]}, {"species": [{"element": "Pr", "occu": 1}], "abc": [0.358676899999999, 0.95237438, 0.75], "properties": {"magmom": 0.0}, "label": "Pr", "xyz": [7.140694245538466, 7.3255713, 2.3797476776281106]}, {"species": [{"element": "Os", "occu": 1}], "abc": [0.04595936, 0.88862719, 0.25], "properties": {"magmom": 0.0}, "label": "Os", "xyz": [6.662731794677233, 2.4418571, 0.30493092871404476]}, {"species": [{"element": "Os", "occu": 1}], "abc": [0.45404064, 0.38862719, 0.25], "properties": {"magmom": 0.0}, "label": "Os", "xyz": [2.913841444677233, 2.4418571, 3.012466536285955]}, {"species": [{"element": "Os", "occu": 1}], "abc": [0.95404064, 0.11137281, 0.75], "properties": {"magmom": 0.0}, "label": "Os", "xyz": [0.835048905322767, 7.3255713, 6.329864001285955]}, {"species": [{"element": "Os", "occu": 1}], "abc": [0.54595936, 0.61137281, 0.75], "properties": {"magmom": 0.0}, "label": "Os", "xyz": [4.5839392553227665, 7.3255713, 3.622328393714045]}]}, "task_ids": null, "uncorrected_energy_per_atom": null, "energy_per_atom": -35.400867214375, "formation_energy_per_atom": -0.10159272562499601, "energy_above_hull": 0.0, "is_stable": true, "equilibrium_reaction_energy_per_atom": null, "decomposes_to": null, "xas": null, "grain_boundaries": null, "band_gap": 0.0, "cbm": null, "vbm": null, "efermi": 4.08324707, "is_gap_direct": null, "is_metal": null, "es_source_calc_id": null, "bandstructure": null, "dos": null, "dos_energy_up": null, "dos_energy_down": null, "is_magnetic": null, "ordering": null, "total_magnetization": 5e-07, "total_magnetization_normalized_vol": null, "total_magnetization_normalized_formula_units": null, "num_magnetic_sites": null, "num_unique_magnetic_sites": null, "types_of_magnetic_species": null, "bulk_modulus": null, "shear_modulus": null, "universal_anisotropy": null, "homogeneous_poisson": null, "e_total": null, "e_ionic": null, "e_electronic": null, "n": null, "e_ij_max": null, "weighted_surface_energy_EV_PER_ANG2": null, "weighted_surface_energy": null, "weighted_work_function": null, "surface_anisotropy": null, "shape_factor": null, "has_reconstructed": null, "possible_species": null, "has_props": null, "theoretical": null, "database_IDs": null, "fields_not_requested": ["builder_meta", "nsites", "elements", "nelements", "composition", "composition_reduced", "chemsys", "symmetry", "property_name", "deprecated", "deprecation_reasons", "last_updated", "origins", "warnings", "task_ids", "uncorrected_energy_per_atom", "equilibrium_reaction_energy_per_atom", "decomposes_to", "xas", "grain_boundaries", "cbm", "vbm", "is_gap_direct", "is_metal", "es_source_calc_id", "bandstructure", "dos", "dos_energy_up", "dos_energy_down", "is_magnetic", "ordering", "total_magnetization_normalized_vol", "total_magnetization_normalized_formula_units", "num_magnetic_sites", "num_unique_magnetic_sites", "types_of_magnetic_species", "bulk_modulus", "shear_modulus", "universal_anisotropy", "homogeneous_poisson", "e_total", "e_ionic", "e_electronic", "n", "e_ij_max", "weighted_surface_energy_EV_PER_ANG2", "weighted_surface_energy", "weighted_work_function", "surface_anisotropy", "shape_factor", "has_reconstructed", "possible_species", "has_props", "theoretical", "database_IDs"]}