{"builder_meta": null, "nsites": null, "elements": null, "nelements": null, "composition": null, "composition_reduced": null, "formula_pretty": "Pr3Pt2", "formula_anonymous": "A2B3", "chemsys": null, "volume": 407.53980761250045, "density": 9.936480958277683, "density_atomic": 27.16932050750003, "symmetry": null, "property_name": null, "material_id": "mp-1104177", "deprecated": null, "deprecation_reasons": null, "last_updated": null, "origins": null, "warnings": null, "structure": {"@module": "pymatgen.core.structure", "@class": "Structure", "charge": 0, "lattice": {"matrix": [[4.5275831, 2.61359662, 5.73896296], [-4.52769619, 2.61435838, 5.73927011], [-0.00048055, -5.22795532, 5.73911749]], "pbc": [true, true, true], "a": 7.76309164416684, "b": 7.763641151132383, "c": 7.763310287684534, "alpha": 71.3512475949418, "beta": 71.35201790340628, "gamma": 71.35266590604407, "volume": 407.53980761250045}, "properties": {}, "sites": [{"species": [{"element": "Pr", "occu": 1}], "abc": [0.0, -0.0, 0.0], "properties": {"magmom": 0.0}, "label": "Pr", "xyz": [0.0, 0.0, 0.0]}, {"species": [{"element": "Pr", "occu": 1}], "abc": [0.80095207, 0.80110868, 0.80096872], "properties": {"magmom": -0.0}, "label": "Pr", "xyz": [-0.0011845676883080077, 0.0003221329051514843, 13.791266954345794]}, {"species": [{"element": "Pr", "occu": 1}], "abc": [0.19904793, 0.19889132, 0.19903128], "properties": {"magmom": -0.0}, "label": "Pr", "xyz": [0.0005909276883081918, -0.0003224529051515379, 3.426083605654205]}, {"species": [{"element": "Pr", "occu": 1}], "abc": [0.6044740200000001, 0.33263044, 0.8381849], "properties": {"magmom": -0.0}, "label": "Pr", "xyz": [1.230353991721344, -1.9325267732917686, 10.18855157247435]}, {"species": [{"element": "Pr", "occu": 1}], "abc": [0.3326992, 0.83825207, 0.60442016], "properties": {"magmom": -0.0}, "label": "Pr", "xyz": [-2.2893178824029814, -0.0988487626337009, 10.189141747182857]}, {"species": [{"element": "Pr", "occu": 1}], "abc": [0.83814521, 0.60452026, 0.33272071000000003], "properties": {"magmom": -0.0}, "label": "Pr", "xyz": [1.057528121224951, 2.0315570896172916, 10.18911262044507]}, {"species": [{"element": "Pr", "occu": 1}], "abc": [0.39552598, 0.66736956, 0.1618151], "properties": {"magmom": -0.0}, "label": "Pr", "xyz": [-1.2309476317213435, 1.9325264532917688, 7.028798987525651]}, {"species": [{"element": "Pr", "occu": 1}], "abc": [0.667300799999999, 0.16174793, 0.39557984], "properties": {"magmom": -0.0}, "label": "Pr", "xyz": [2.288724242402977, 0.09884844263369796, 7.028208812817136]}, {"species": [{"element": "Pr", "occu": 1}], "abc": [0.16185479, 0.39547974, 0.66727929], "properties": {"magmom": -0.0}, "label": "Pr", "xyz": [-1.0581217612249512, -2.031557409617292, 7.0282379395549315]}, {"species": [{"element": "Pt", "occu": 1}], "abc": [0.95773641, 0.16545279000000002, 0.5883495400000001], "properties": {"magmom": -0.0}, "label": "Pt", "xyz": [3.5868284858913544, -0.14017557560473914, 9.822599169943935]}, {"species": [{"element": "Pt", "occu": 1}], "abc": [0.16550379, 0.58837108, 0.95771704], "properties": {"magmom": 0.0}, "label": "Pt", "xyz": [-1.9150935655558088, -3.036128884633813, 9.823091288317066]}, {"species": [{"element": "Pt", "occu": 1}], "abc": [0.58832479, 0.95774529, 0.16547823], "properties": {"magmom": 0.0}, "label": "Pt", "xyz": [-1.6727698445718229, 3.1764203145505556, 9.822832098157303]}, {"species": [{"element": "Pt", "occu": 1}], "abc": [0.042263590000000004, 0.83454721, 0.41165046], "properties": {"magmom": -0.0}, "label": "Pt", "xyz": [-3.5874221258913543, 0.14017525560473842, 7.394751390056065]}, {"species": [{"element": "Pt", "occu": 1}], "abc": [0.8344962100000001, 0.41162892, 0.04228296], "properties": {"magmom": 0.0}, "label": "Pt", "xyz": [1.9144999255558086, 3.036128564633813, 7.394259271682934]}, {"species": [{"element": "Pt", "occu": 1}], "abc": [0.41167521, 0.04225471, 0.83452177], "properties": {"magmom": 0.0}, "label": "Pt", "xyz": [1.6721762045718227, -3.1764206345505563, 7.394518461842697]}]}, "task_ids": null, "uncorrected_energy_per_atom": null, "energy_per_atom": -6.2022248339999955, "formation_energy_per_atom": -0.8964886309999951, "energy_above_hull": 0.011333295875005001, "is_stable": false, "equilibrium_reaction_energy_per_atom": null, "decomposes_to": null, "xas": null, "grain_boundaries": null, "band_gap": 0.0, "cbm": null, "vbm": null, "efermi": 4.61740303, "is_gap_direct": null, "is_metal": null, "es_source_calc_id": null, "bandstructure": null, "dos": null, "dos_energy_up": null, "dos_energy_down": null, "is_magnetic": null, "ordering": null, "total_magnetization": 3.299999999999999e-06, "total_magnetization_normalized_vol": null, "total_magnetization_normalized_formula_units": null, "num_magnetic_sites": null, "num_unique_magnetic_sites": null, "types_of_magnetic_species": null, "bulk_modulus": null, "shear_modulus": null, "universal_anisotropy": null, "homogeneous_poisson": null, "e_total": null, "e_ionic": null, "e_electronic": null, "n": null, "e_ij_max": null, "weighted_surface_energy_EV_PER_ANG2": null, "weighted_surface_energy": null, "weighted_work_function": null, "surface_anisotropy": null, "shape_factor": null, "has_reconstructed": null, "possible_species": null, "has_props": null, "theoretical": null, "database_IDs": null, "fields_not_requested": ["builder_meta", "nsites", "elements", "nelements", "composition", "composition_reduced", "chemsys", "symmetry", "property_name", "deprecated", "deprecation_reasons", "last_updated", "origins", "warnings", "task_ids", "uncorrected_energy_per_atom", "equilibrium_reaction_energy_per_atom", "decomposes_to", "xas", "grain_boundaries", "cbm", "vbm", "is_gap_direct", "is_metal", "es_source_calc_id", "bandstructure", "dos", "dos_energy_up", "dos_energy_down", "is_magnetic", "ordering", "total_magnetization_normalized_vol", "total_magnetization_normalized_formula_units", "num_magnetic_sites", "num_unique_magnetic_sites", "types_of_magnetic_species", "bulk_modulus", "shear_modulus", "universal_anisotropy", "homogeneous_poisson", "e_total", "e_ionic", "e_electronic", "n", "e_ij_max", "weighted_surface_energy_EV_PER_ANG2", "weighted_surface_energy", "weighted_work_function", "surface_anisotropy", "shape_factor", "has_reconstructed", "possible_species", "has_props", "theoretical", "database_IDs"]}