{
  "builder_meta": null,
  "nsites": null,
  "elements": null,
  "nelements": null,
  "composition": null,
  "composition_reduced": null,
  "formula_pretty": "Pr3Pa",
  "formula_anonymous": "AB3",
  "chemsys": null,
  "volume": 263.9567264944968,
  "density": 8.225530690329585,
  "density_atomic": 32.9945908118121,
  "symmetry": null,
  "property_name": null,
  "material_id": "mp-1186732",
  "deprecated": null,
  "deprecation_reasons": null,
  "last_updated": null,
  "origins": null,
  "warnings": null,
  "structure": {
    "@module": "pymatgen.core.structure",
    "@class": "Structure",
    "charge": 0,
    "lattice": {
      "matrix": [
        [3.592427, -6.222265, 0.0],
        [3.592427, 6.222265, 0.0],
        [0.0, 0.0, 5.904271]
      ],
      "pbc": [true, true, true],
      "a": 7.184853059078801,
      "b": 7.184853059078801,
      "c": 5.904271,
      "alpha": 90.0,
      "beta": 90.0,
      "gamma": 119.99999133582187,
      "volume": 263.9567264944968
    },
    "properties": {},
    "sites": [
      {
        "species": [{ "element": "Pr", "occu": 1 }],
        "abc": [0.829944999999999, 0.170054999999999, 0.75],
        "properties": { "magmom": 0.0 },
        "label": "Pr",
        "xyz": [3.5924269999999927, -4.10601045085, 4.428203249999999]
      },
      {
        "species": [{ "element": "Pr", "occu": 1 }],
        "abc": [0.340109, 0.170054999999999, 0.75],
        "properties": { "magmom": 0.011 },
        "label": "Pr",
        "xyz": [1.8327269280279963, -1.0581210523100062, 4.428203249999999]
      },
      {
        "species": [{ "element": "Pr", "occu": 1 }],
        "abc": [0.829944999999999, 0.659891, 0.75],
        "properties": { "magmom": 0.009000000000000001 },
        "label": "Pr",
        "xyz": [5.352127071971996, -1.0581210523099935, 4.428203249999999]
      },
      {
        "species": [{ "element": "Pr", "occu": 1 }],
        "abc": [0.170054999999999, 0.829944999999999, 0.25],
        "properties": { "magmom": 0.0 },
        "label": "Pr",
        "xyz": [3.5924269999999927, 4.10601045085, 1.47606775]
      },
      {
        "species": [{ "element": "Pr", "occu": 1 }],
        "abc": [0.659891, 0.829944999999999, 0.25],
        "properties": { "magmom": 0.011 },
        "label": "Pr",
        "xyz": [5.352127071971996, 1.0581210523099935, 1.47606775]
      },
      {
        "species": [{ "element": "Pr", "occu": 1 }],
        "abc": [0.170054999999999, 0.340109, 0.25],
        "properties": { "magmom": 0.009000000000000001 },
        "label": "Pr",
        "xyz": [1.8327269280279963, 1.0581210523100062, 1.47606775]
      },
      {
        "species": [{ "element": "Pa", "occu": 1 }],
        "abc": [0.666667, 0.333333, 0.25],
        "properties": { "magmom": 0.251 },
        "label": "Pa",
        "xyz": [3.592427, -2.07409248151, 1.47606775]
      },
      {
        "species": [{ "element": "Pa", "occu": 1 }],
        "abc": [0.333333, 0.666667, 0.75],
        "properties": { "magmom": 0.251 },
        "label": "Pa",
        "xyz": [3.592427, 2.07409248151, 4.428203249999999]
      }
    ]
  },
  "task_ids": null,
  "uncorrected_energy_per_atom": null,
  "energy_per_atom": -40.9458015175,
  "formation_energy_per_atom": 0.32117030375000105,
  "energy_above_hull": 0.32117030375000105,
  "is_stable": false,
  "equilibrium_reaction_energy_per_atom": null,
  "decomposes_to": null,
  "xas": null,
  "grain_boundaries": null,
  "band_gap": 0.0,
  "cbm": null,
  "vbm": null,
  "efermi": 5.35989179,
  "is_gap_direct": null,
  "is_metal": null,
  "es_source_calc_id": null,
  "bandstructure": null,
  "dos": null,
  "dos_energy_up": null,
  "dos_energy_down": null,
  "is_magnetic": null,
  "ordering": null,
  "total_magnetization": 0.669406899999999,
  "total_magnetization_normalized_vol": null,
  "total_magnetization_normalized_formula_units": null,
  "num_magnetic_sites": null,
  "num_unique_magnetic_sites": null,
  "types_of_magnetic_species": null,
  "bulk_modulus": null,
  "shear_modulus": null,
  "universal_anisotropy": null,
  "homogeneous_poisson": null,
  "e_total": null,
  "e_ionic": null,
  "e_electronic": null,
  "n": null,
  "e_ij_max": null,
  "weighted_surface_energy_EV_PER_ANG2": null,
  "weighted_surface_energy": null,
  "weighted_work_function": null,
  "surface_anisotropy": null,
  "shape_factor": null,
  "has_reconstructed": null,
  "possible_species": null,
  "has_props": null,
  "theoretical": null,
  "database_IDs": null,
  "fields_not_requested": [
    "builder_meta",
    "nsites",
    "elements",
    "nelements",
    "composition",
    "composition_reduced",
    "chemsys",
    "symmetry",
    "property_name",
    "deprecated",
    "deprecation_reasons",
    "last_updated",
    "origins",
    "warnings",
    "task_ids",
    "uncorrected_energy_per_atom",
    "equilibrium_reaction_energy_per_atom",
    "decomposes_to",
    "xas",
    "grain_boundaries",
    "cbm",
    "vbm",
    "is_gap_direct",
    "is_metal",
    "es_source_calc_id",
    "bandstructure",
    "dos",
    "dos_energy_up",
    "dos_energy_down",
    "is_magnetic",
    "ordering",
    "total_magnetization_normalized_vol",
    "total_magnetization_normalized_formula_units",
    "num_magnetic_sites",
    "num_unique_magnetic_sites",
    "types_of_magnetic_species",
    "bulk_modulus",
    "shear_modulus",
    "universal_anisotropy",
    "homogeneous_poisson",
    "e_total",
    "e_ionic",
    "e_electronic",
    "n",
    "e_ij_max",
    "weighted_surface_energy_EV_PER_ANG2",
    "weighted_surface_energy",
    "weighted_work_function",
    "surface_anisotropy",
    "shape_factor",
    "has_reconstructed",
    "possible_species",
    "has_props",
    "theoretical",
    "database_IDs"
  ]
}
