{
  "builder_meta": null,
  "nsites": null,
  "elements": null,
  "nelements": null,
  "composition": null,
  "composition_reduced": null,
  "formula_pretty": "Pr3Pd4",
  "formula_anonymous": "A3B4",
  "chemsys": null,
  "volume": 320.6096958704598,
  "density": 8.788294682534522,
  "density_atomic": 22.9006925621757,
  "symmetry": null,
  "property_name": null,
  "material_id": "mp-1104184",
  "deprecated": null,
  "deprecation_reasons": null,
  "last_updated": null,
  "origins": null,
  "warnings": null,
  "structure": {
    "@module": "pymatgen.core.structure",
    "@class": "Structure",
    "charge": 0,
    "lattice": {
      "matrix": [
        [0.00048697000000000004, 0.00093001, -5.82894811],
        [0.00102113, -7.96940542, 1.94425341],
        [-6.90279388, 3.9854106700000003, 1.942922869999999]
      ],
      "pbc": [true, true, true],
      "a": 5.828948204533212,
      "b": 8.203142392603489,
      "c": 8.204085009133214,
      "alpha": 114.57703457410136,
      "beta": 103.69873028844339,
      "gamma": 103.71946742791883,
      "volume": 320.6096958704598
    },
    "properties": {},
    "sites": [
      {
        "species": [{ "element": "Pr", "occu": 1 }],
        "abc": [0.40542279999999903, 0.12385649, 0.37603995],
        "properties": { "magmom": 0.0 },
        "label": "Pr",
        "xyz": [-2.5954023631769565, 0.5119880936263187, -1.3917634418891152]
      },
      {
        "species": [{ "element": "Pr", "occu": 1 }],
        "abc": [0.02936845, 0.62397364, 0.74786063],
        "properties": { "magmom": -0.0 },
        "label": "Pr",
        "xyz": [-5.161676320099835, -1.9921398611260224, 2.4950112277985905]
      },
      {
        "species": [{ "element": "Pr", "occu": 1 }],
        "abc": [0.28142652, 0.25215889, 0.876105999999999],
        "properties": { "magmom": -0.0 },
        "label": "Pr",
        "xyz": [-6.047184601751483, 1.4823475052616977, 0.552046583830655]
      },
      {
        "species": [{ "element": "Pr", "occu": 1 }],
        "abc": [0.5945772, 0.87614351, 0.62396005],
        "properties": { "magmom": 0.0 },
        "label": "Pr",
        "xyz": [-4.305883416823043, -4.4950528336263185, -0.5500083881108797]
      },
      {
        "species": [{ "element": "Pr", "occu": 1 }],
        "abc": [0.97063155, 0.37602636, 0.25213937000000003],
        "properties": { "magmom": -0.0 },
        "label": "Pr",
        "xyz": [-1.7396094599001655, -1.9909248788739777, -4.436783057798591]
      },
      {
        "species": [{ "element": "Pr", "occu": 1 }],
        "abc": [0.71857348, 0.74784111, 0.123893999999999],
        "properties": { "magmom": -0.0 },
        "label": "Pr",
        "xyz": [-0.8541011782485032, -5.465412245261706, -2.4938184138306596]
      },
      {
        "species": [{ "element": "Pd", "occu": 1 }],
        "abc": [0.0, -0.0, -0.0],
        "properties": { "magmom": 0.0 },
        "label": "Pd",
        "xyz": [0.0, 0.0, 0.0]
      },
      {
        "species": [{ "element": "Pd", "occu": 1 }],
        "abc": [0.5, -0.0, -0.0],
        "properties": { "magmom": 0.0 },
        "label": "Pd",
        "xyz": [0.00024348500000000002, 0.000465005, -2.914474055]
      },
      {
        "species": [{ "element": "Pd", "occu": 1 }],
        "abc": [0.22061545000000002, 0.66453999, 0.16414853000000001],
        "properties": { "magmom": 0.0 },
        "label": "Pd",
        "xyz": [-1.132297453469321, -4.641584120611276, 0.3250060643384473]
      },
      {
        "species": [{ "element": "Pd", "occu": 1 }],
        "abc": [0.05646387, 0.83584381, 0.50037735],
        "properties": { "magmom": 0.0 },
        "label": "Pd",
        "xyz": [-3.453120707870139, -4.666916448007386, 2.2681618064451]
      },
      {
        "species": [{ "element": "Pd", "occu": 1 }],
        "abc": [0.55611344, 0.49965878, 0.33550099],
        "properties": { "magmom": -0.0 },
        "label": "Pd",
        "xyz": [-2.315113153374043, -2.64435697308069, -1.6182405518035172]
      },
      {
        "species": [{ "element": "Pd", "occu": 1 }],
        "abc": [0.7793845500000001, 0.33546001000000003, 0.83585147],
        "properties": { "magmom": 0.0 },
        "label": "Pd",
        "xyz": [-5.768988326530679, 0.6585193806112759, -2.266777894338448]
      },
      {
        "species": [{ "element": "Pd", "occu": 1 }],
        "abc": [0.94353613, 0.16415619, 0.49962265],
        "properties": { "magmom": 0.0 },
        "label": "Pd",
        "xyz": [-3.448165072129861, 0.6838517080073871, -4.209933636445101]
      },
      {
        "species": [{ "element": "Pd", "occu": 1 }],
        "abc": [0.44388656, 0.50034122, 0.66449901],
        "properties": { "magmom": -0.0 },
        "label": "Pd",
        "xyz": [-4.586172626625957, -1.3387077669193101, -0.323531278196483]
      }
    ]
  },
  "task_ids": null,
  "uncorrected_energy_per_atom": null,
  "energy_per_atom": -5.8025165800000025,
  "formation_energy_per_atom": -0.78738206357143,
  "energy_above_hull": 0.0,
  "is_stable": true,
  "equilibrium_reaction_energy_per_atom": null,
  "decomposes_to": null,
  "xas": null,
  "grain_boundaries": null,
  "band_gap": 0.0,
  "cbm": null,
  "vbm": null,
  "efermi": 4.53804406,
  "is_gap_direct": null,
  "is_metal": null,
  "es_source_calc_id": null,
  "bandstructure": null,
  "dos": null,
  "dos_energy_up": null,
  "dos_energy_down": null,
  "is_magnetic": null,
  "ordering": null,
  "total_magnetization": 1e-7,
  "total_magnetization_normalized_vol": null,
  "total_magnetization_normalized_formula_units": null,
  "num_magnetic_sites": null,
  "num_unique_magnetic_sites": null,
  "types_of_magnetic_species": null,
  "bulk_modulus": null,
  "shear_modulus": null,
  "universal_anisotropy": null,
  "homogeneous_poisson": null,
  "e_total": null,
  "e_ionic": null,
  "e_electronic": null,
  "n": null,
  "e_ij_max": null,
  "weighted_surface_energy_EV_PER_ANG2": null,
  "weighted_surface_energy": null,
  "weighted_work_function": null,
  "surface_anisotropy": null,
  "shape_factor": null,
  "has_reconstructed": null,
  "possible_species": null,
  "has_props": null,
  "theoretical": null,
  "database_IDs": null,
  "fields_not_requested": [
    "builder_meta",
    "nsites",
    "elements",
    "nelements",
    "composition",
    "composition_reduced",
    "chemsys",
    "symmetry",
    "property_name",
    "deprecated",
    "deprecation_reasons",
    "last_updated",
    "origins",
    "warnings",
    "task_ids",
    "uncorrected_energy_per_atom",
    "equilibrium_reaction_energy_per_atom",
    "decomposes_to",
    "xas",
    "grain_boundaries",
    "cbm",
    "vbm",
    "is_gap_direct",
    "is_metal",
    "es_source_calc_id",
    "bandstructure",
    "dos",
    "dos_energy_up",
    "dos_energy_down",
    "is_magnetic",
    "ordering",
    "total_magnetization_normalized_vol",
    "total_magnetization_normalized_formula_units",
    "num_magnetic_sites",
    "num_unique_magnetic_sites",
    "types_of_magnetic_species",
    "bulk_modulus",
    "shear_modulus",
    "universal_anisotropy",
    "homogeneous_poisson",
    "e_total",
    "e_ionic",
    "e_electronic",
    "n",
    "e_ij_max",
    "weighted_surface_energy_EV_PER_ANG2",
    "weighted_surface_energy",
    "weighted_work_function",
    "surface_anisotropy",
    "shape_factor",
    "has_reconstructed",
    "possible_species",
    "has_props",
    "theoretical",
    "database_IDs"
  ]
}
