{"builder_meta": null, "nsites": null, "elements": null, "nelements": null, "composition": null, "composition_reduced": null, "formula_pretty": "Pr3Pt4", "formula_anonymous": "A3B4", "chemsys": null, "volume": 319.3517268515347, "density": 12.51113564090111, "density_atomic": 22.81083763225248, "symmetry": null, "property_name": null, "material_id": "mp-570734", "deprecated": null, "deprecation_reasons": null, "last_updated": null, "origins": null, "warnings": null, "structure": {"@module": "pymatgen.core.structure", "@class": "Structure", "charge": 0, "lattice": {"matrix": [[7.45348289, -0.017655360000000002, -3.40032844], [-5.28364671, 5.25708368, -3.40045726], [-0.00736999, -0.01759859, 8.19247089]], "pbc": [true, true, true], "a": 8.19249366207459, "b": 8.192494183806472, "c": 8.192493107145099, "alpha": 114.5739259916967, "beta": 114.57391751670522, "gamma": 114.5739153673773, "volume": 319.3517268515347}, "properties": {}, "sites": [{"species": [{"element": "Pr", "occu": 1}], "abc": [0.71662377, 0.59498473, 0.96935614], "properties": {"magmom": 0.0}, "label": "Pr", "xyz": [2.1905097520393184, 3.098172962016456, 3.4814456283641055]}, {"species": [{"element": "Pr", "occu": 1}], "abc": [0.96935614, 0.71662377, 0.59498473], "properties": {"magmom": 0.0}, "label": "Pr", "xyz": [3.4343075476278955, 3.7397659020276324, -0.8585826721961833]}, {"species": [{"element": "Pr", "occu": 1}], "abc": [0.030643860000000002, 0.28337623, 0.40501527], "properties": {"magmom": 0.0}, "label": "Pr", "xyz": [-1.2718413576278953, 1.4820638279723677, 2.250267862196181]}, {"species": [{"element": "Pr", "occu": 1}], "abc": [0.28337623, 0.40501527, 0.030643860000000002], "properties": {"magmom": 0.0}, "label": "Pr", "xyz": [-0.028043562039318494, 2.1236567679835434, -2.089760438364106]}, {"species": [{"element": "Pr", "occu": 1}], "abc": [0.59498473, 0.96935614, 0.71662377], "properties": {"magmom": 0.0}, "label": "Pr", "xyz": [-0.6923083850816927, 5.0728701061866595, 0.5515217522337563]}, {"species": [{"element": "Pr", "occu": 1}], "abc": [0.40501527, 0.030643860000000002, 0.28337623], "properties": {"magmom": 0.0}, "label": "Pr", "xyz": [2.854774575081692, 0.1489596238133419, 0.8401634377662424]}, {"species": [{"element": "Pt", "occu": 1}], "abc": [0.05763216, 0.55813709, 0.22102577], "properties": {"magmom": -0.0}, "label": "Pt", "xyz": [-2.5210678385483742, 2.9292661286036488, -0.28314240580756866]}, {"species": [{"element": "Pt", "occu": 1}], "abc": [0.55813709, 0.22102577, 0.05763216], "properties": {"magmom": -0.0}, "label": "Pt", "xyz": [2.991818419660795, 1.151082612318477, -2.1772883116616075]}, {"species": [{"element": "Pt", "occu": 1}], "abc": [0.22102577, 0.05763216, 0.55813709], "properties": {"magmom": -0.0}, "label": "Pt", "xyz": [1.3387903575979525, 0.28925237242981855, 3.6249859538689293]}, {"species": [{"element": "Pt", "occu": 1}], "abc": [0.5, 0.5, 0.5], "properties": {"magmom": 0.0}, "label": "Pt", "xyz": [1.081233095, 2.610914865, 0.6958425949999993]}, {"species": [{"element": "Pt", "occu": 1}], "abc": [0.77897423, 0.9423678400000001, 0.44186291], "properties": {"magmom": -0.0}, "label": "Pt", "xyz": [0.8236758324020469, 4.932577357570182, -2.2333007638689306]}, {"species": [{"element": "Pt", "occu": 1}], "abc": [0.9423678400000001, 0.44186291, 0.77897423], "properties": {"magmom": -0.0}, "label": "Pt", "xyz": [4.683534028548374, 2.2925636013963513, 1.6748275958075682]}, {"species": [{"element": "Pt", "occu": 1}], "abc": [0.44186291, 0.77897423, 0.9423678400000001], "properties": {"magmom": -0.0}, "label": "Pt", "xyz": [-0.8293522296607947, 4.070747117681523, 3.568973501661607]}, {"species": [{"element": "Pt", "occu": 1}], "abc": [0.0, 0.0, 0.0], "properties": {"magmom": -0.0}, "label": "Pt", "xyz": [0.0, 0.0, 0.0]}]}, "task_ids": null, "uncorrected_energy_per_atom": null, "energy_per_atom": -6.57245579785715, "formation_energy_per_atom": -1.04803470428572, "energy_above_hull": 0.018971912857138, "is_stable": false, "equilibrium_reaction_energy_per_atom": null, "decomposes_to": null, "xas": null, "grain_boundaries": null, "band_gap": 0.0, "cbm": null, "vbm": null, "efermi": 5.26011353, "is_gap_direct": null, "is_metal": null, "es_source_calc_id": null, "bandstructure": null, "dos": null, "dos_energy_up": null, "dos_energy_down": null, "is_magnetic": null, "ordering": null, "total_magnetization": 0.0, "total_magnetization_normalized_vol": null, "total_magnetization_normalized_formula_units": null, "num_magnetic_sites": null, "num_unique_magnetic_sites": null, "types_of_magnetic_species": null, "bulk_modulus": null, "shear_modulus": null, "universal_anisotropy": null, "homogeneous_poisson": null, "e_total": null, "e_ionic": null, "e_electronic": null, "n": null, "e_ij_max": null, "weighted_surface_energy_EV_PER_ANG2": null, "weighted_surface_energy": null, "weighted_work_function": null, "surface_anisotropy": null, "shape_factor": null, "has_reconstructed": null, "possible_species": null, "has_props": null, "theoretical": null, "database_IDs": null, "fields_not_requested": ["builder_meta", "nsites", "elements", "nelements", "composition", "composition_reduced", "chemsys", "symmetry", "property_name", "deprecated", "deprecation_reasons", "last_updated", "origins", "warnings", "task_ids", "uncorrected_energy_per_atom", "equilibrium_reaction_energy_per_atom", "decomposes_to", "xas", "grain_boundaries", "cbm", "vbm", "is_gap_direct", "is_metal", "es_source_calc_id", "bandstructure", "dos", "dos_energy_up", "dos_energy_down", "is_magnetic", "ordering", "total_magnetization_normalized_vol", "total_magnetization_normalized_formula_units", "num_magnetic_sites", "num_unique_magnetic_sites", "types_of_magnetic_species", "bulk_modulus", "shear_modulus", "universal_anisotropy", "homogeneous_poisson", "e_total", "e_ionic", "e_electronic", "n", "e_ij_max", "weighted_surface_energy_EV_PER_ANG2", "weighted_surface_energy", "weighted_work_function", "surface_anisotropy", "shape_factor", "has_reconstructed", "possible_species", "has_props", "theoretical", "database_IDs"]}