{
  "builder_meta": null,
  "nsites": null,
  "elements": null,
  "nelements": null,
  "composition": null,
  "composition_reduced": null,
  "formula_pretty": "Pr3Ru",
  "formula_anonymous": "AB3",
  "chemsys": null,
  "volume": 482.21744681741245,
  "density": 7.214825278721155,
  "density_atomic": 30.138590426088278,
  "symmetry": null,
  "property_name": null,
  "material_id": "mp-1105741",
  "deprecated": null,
  "deprecation_reasons": null,
  "last_updated": null,
  "origins": null,
  "warnings": null,
  "structure": {
    "@module": "pymatgen.core.structure",
    "@class": "Structure",
    "charge": 0,
    "lattice": {
      "matrix": [
        [0.0, 0.0, 6.55759791],
        [7.41278685, 0.0, 0.0],
        [0.0, 9.92011309, 0.0]
      ],
      "pbc": [true, true, true],
      "a": 6.55759791,
      "b": 7.41278685,
      "c": 9.92011309,
      "alpha": 90.0,
      "beta": 90.0,
      "gamma": 90.0,
      "volume": 482.21744681741245
    },
    "properties": {},
    "sites": [
      {
        "species": [{ "element": "Pr", "occu": 1 }],
        "abc": [0.32615926, 0.67336732, 0.06939929],
        "properties": { "magmom": -0.0 },
        "label": "Pr",
        "xyz": [4.9915284149157415, 0.6884488051657061, 2.1388212817031467]
      },
      {
        "species": [{ "element": "Pr", "occu": 1 }],
        "abc": [0.17384074, 0.17336732, 0.43060071],
        "properties": { "magmom": -0.0 },
        "label": "Pr",
        "xyz": [1.2851349899157418, 4.271607739834294, 1.1399776732968534]
      },
      {
        "species": [{ "element": "Pr", "occu": 1 }],
        "abc": [0.67384074, 0.32663268, 0.56939929],
        "properties": { "magmom": -0.0 },
        "label": "Pr",
        "xyz": [2.421258435084258, 5.648505350165705, 4.418776628296854]
      },
      {
        "species": [{ "element": "Pr", "occu": 1 }],
        "abc": [0.8261592600000001, 0.82663268, 0.93060071],
        "properties": { "magmom": -0.0 },
        "label": "Pr",
        "xyz": [6.127651860084258, 9.231664284834293, 5.417620236703147]
      },
      {
        "species": [{ "element": "Pr", "occu": 1 }],
        "abc": [0.67384074, 0.32663268, 0.93060071],
        "properties": { "magmom": -0.0 },
        "label": "Pr",
        "xyz": [2.421258435084258, 9.231664284834293, 4.418776628296854]
      },
      {
        "species": [{ "element": "Pr", "occu": 1 }],
        "abc": [0.8261592600000001, 0.82663268, 0.56939929],
        "properties": { "magmom": -0.0 },
        "label": "Pr",
        "xyz": [6.127651860084258, 5.648505350165705, 5.417620236703147]
      },
      {
        "species": [{ "element": "Pr", "occu": 1 }],
        "abc": [0.32615926, 0.67336732, 0.43060071],
        "properties": { "magmom": -0.0 },
        "label": "Pr",
        "xyz": [4.9915284149157415, 4.271607739834294, 2.1388212817031467]
      },
      {
        "species": [{ "element": "Pr", "occu": 1 }],
        "abc": [0.17384074, 0.17336732, 0.06939929],
        "properties": { "magmom": -0.0 },
        "label": "Pr",
        "xyz": [1.2851349899157418, 0.6884488051657061, 1.1399776732968534]
      },
      {
        "species": [{ "element": "Pr", "occu": 1 }],
        "abc": [0.85401837, 0.54643461, 0.25],
        "properties": { "magmom": -0.0 },
        "label": "Pr",
        "xyz": [4.0506032913928784, 2.4800282725, 5.600309078213607]
      },
      {
        "species": [{ "element": "Pr", "occu": 1 }],
        "abc": [0.64598163, 0.04643461, 0.25],
        "properties": { "magmom": -0.0 },
        "label": "Pr",
        "xyz": [0.3442098663928785, 2.4800282725, 4.236087786786393]
      },
      {
        "species": [{ "element": "Pr", "occu": 1 }],
        "abc": [0.14598163, 0.45356539, 0.75],
        "properties": { "magmom": -0.0 },
        "label": "Pr",
        "xyz": [3.3621835586071214, 7.440084817499999, 0.9572888317863933]
      },
      {
        "species": [{ "element": "Pr", "occu": 1 }],
        "abc": [0.35401837, 0.9535653900000001, 0.75],
        "properties": { "magmom": -0.0 },
        "label": "Pr",
        "xyz": [7.068576983607122, 7.440084817499999, 2.321510123213607]
      },
      {
        "species": [{ "element": "Ru", "occu": 1 }],
        "abc": [0.04914714, 0.88715539, 0.25],
        "properties": { "magmom": 0.0 },
        "label": "Ru",
        "xyz": [6.576293808898622, 2.4800282725, 0.3222871825464774]
      },
      {
        "species": [{ "element": "Ru", "occu": 1 }],
        "abc": [0.45085286, 0.38715539, 0.25],
        "properties": { "magmom": 0.0 },
        "label": "Ru",
        "xyz": [2.8699003838986212, 2.4800282725, 2.956511772453523]
      },
      {
        "species": [{ "element": "Ru", "occu": 1 }],
        "abc": [0.95085286, 0.11284461, 0.75],
        "properties": { "magmom": 0.0 },
        "label": "Ru",
        "xyz": [0.8364930411013785, 7.440084817499999, 6.235310727453522]
      },
      {
        "species": [{ "element": "Ru", "occu": 1 }],
        "abc": [0.54914714, 0.61284461, 0.75],
        "properties": { "magmom": 0.0 },
        "label": "Ru",
        "xyz": [4.542886466101378, 7.440084817499999, 3.6010861375464773]
      }
    ]
  },
  "task_ids": null,
  "uncorrected_energy_per_atom": null,
  "energy_per_atom": -28.573031760625,
  "formation_energy_per_atom": -0.163930660624998,
  "energy_above_hull": 0.006458701041665,
  "is_stable": false,
  "equilibrium_reaction_energy_per_atom": null,
  "decomposes_to": null,
  "xas": null,
  "grain_boundaries": null,
  "band_gap": 0.0,
  "cbm": null,
  "vbm": null,
  "efermi": 4.10575332,
  "is_gap_direct": null,
  "is_metal": null,
  "es_source_calc_id": null,
  "bandstructure": null,
  "dos": null,
  "dos_energy_up": null,
  "dos_energy_down": null,
  "is_magnetic": null,
  "ordering": null,
  "total_magnetization": 4.299999999999999e-6,
  "total_magnetization_normalized_vol": null,
  "total_magnetization_normalized_formula_units": null,
  "num_magnetic_sites": null,
  "num_unique_magnetic_sites": null,
  "types_of_magnetic_species": null,
  "bulk_modulus": null,
  "shear_modulus": null,
  "universal_anisotropy": null,
  "homogeneous_poisson": null,
  "e_total": null,
  "e_ionic": null,
  "e_electronic": null,
  "n": null,
  "e_ij_max": null,
  "weighted_surface_energy_EV_PER_ANG2": null,
  "weighted_surface_energy": null,
  "weighted_work_function": null,
  "surface_anisotropy": null,
  "shape_factor": null,
  "has_reconstructed": null,
  "possible_species": null,
  "has_props": null,
  "theoretical": null,
  "database_IDs": null,
  "fields_not_requested": [
    "builder_meta",
    "nsites",
    "elements",
    "nelements",
    "composition",
    "composition_reduced",
    "chemsys",
    "symmetry",
    "property_name",
    "deprecated",
    "deprecation_reasons",
    "last_updated",
    "origins",
    "warnings",
    "task_ids",
    "uncorrected_energy_per_atom",
    "equilibrium_reaction_energy_per_atom",
    "decomposes_to",
    "xas",
    "grain_boundaries",
    "cbm",
    "vbm",
    "is_gap_direct",
    "is_metal",
    "es_source_calc_id",
    "bandstructure",
    "dos",
    "dos_energy_up",
    "dos_energy_down",
    "is_magnetic",
    "ordering",
    "total_magnetization_normalized_vol",
    "total_magnetization_normalized_formula_units",
    "num_magnetic_sites",
    "num_unique_magnetic_sites",
    "types_of_magnetic_species",
    "bulk_modulus",
    "shear_modulus",
    "universal_anisotropy",
    "homogeneous_poisson",
    "e_total",
    "e_ionic",
    "e_electronic",
    "n",
    "e_ij_max",
    "weighted_surface_energy_EV_PER_ANG2",
    "weighted_surface_energy",
    "weighted_work_function",
    "surface_anisotropy",
    "shape_factor",
    "has_reconstructed",
    "possible_species",
    "has_props",
    "theoretical",
    "database_IDs"
  ]
}
