{
  "builder_meta": null,
  "nsites": null,
  "elements": null,
  "nelements": null,
  "composition": null,
  "composition_reduced": null,
  "formula_pretty": "Pr3Rh2",
  "formula_anonymous": "A2B3",
  "chemsys": null,
  "volume": 389.5416834423647,
  "density": 8.037947334181766,
  "density_atomic": 25.969445562824312,
  "symmetry": null,
  "property_name": null,
  "material_id": "mp-1104158",
  "deprecated": null,
  "deprecation_reasons": null,
  "last_updated": null,
  "origins": null,
  "warnings": null,
  "structure": {
    "@module": "pymatgen.core.structure",
    "@class": "Structure",
    "charge": 0,
    "lattice": {
      "matrix": [
        [4.4637048, 2.57735191, 5.64334721],
        [-4.46394298, 2.57704429, 5.64347617],
        [1.899999999999999e-6, -5.15448604, 5.64345269]
      ],
      "pbc": [true, true, true],
      "a": 7.642955654858824,
      "b": 7.643086253776726,
      "c": 7.643120082847497,
      "alpha": 71.46964292841719,
      "beta": 71.4716903178583,
      "gamma": 71.47028662810011,
      "volume": 389.5416834423647
    },
    "properties": {},
    "sites": [
      {
        "species": [{ "element": "Pr", "occu": 1 }],
        "abc": [0.0, 0.0, -0.0],
        "properties": { "magmom": -0.004 },
        "label": "Pr",
        "xyz": [0.0, 0.0, 0.0]
      },
      {
        "species": [{ "element": "Pr", "occu": 1 }],
        "abc": [0.79621779, 0.7962048700000001, 0.79620725],
        "properties": { "magmom": 0.009000000000000001 },
        "label": "Pr",
        "xyz": [
          -0.00013045621614540738, -5.0499335618958696e-5, 13.480054600841816
        ]
      },
      {
        "species": [{ "element": "Pr", "occu": 1 }],
        "abc": [0.20378321, 0.20379513, 0.20379175],
        "properties": { "magmom": 0.009000000000000001 },
        "label": "Pr",
        "xyz": [
          -0.00010136008095423005, -3.1608826431384074e-5, 3.4502214690527033
        ]
      },
      {
        "species": [{ "element": "Pr", "occu": 1 }],
        "abc": [0.38937553, 0.16260751, 0.66777664],
        "properties": { "magmom": 0.021 },
        "label": "Pr",
        "xyz": [1.0121880382793804, -2.0194408476087253, 6.88361879394297]
      },
      {
        "species": [{ "element": "Pr", "occu": 1 }],
        "abc": [0.16261742, 0.6677657100000001, 0.38936549],
        "properties": { "magmom": 0.021 },
        "label": "Pr",
        "xyz": [-2.2549911554271684, 0.13300514538680863, 6.8835921569161975]
      },
      {
        "species": [{ "element": "Pr", "occu": 1 }],
        "abc": [0.6677593, 0.38937179, 0.162617899999999],
        "properties": { "magmom": 0.021 },
        "label": "Pr",
        "xyz": [1.2425472330481158, 1.8862673599777309, 6.883534425938942]
      },
      {
        "species": [{ "element": "Pr", "occu": 1 }],
        "abc": [0.61062447, 0.83739249, 0.33222436],
        "properties": { "magmom": 0.021 },
        "label": "Pr",
        "xyz": [-1.01242431827748, 2.019345853122685, 10.04666291950972]
      },
      {
        "species": [{ "element": "Pr", "occu": 1 }],
        "abc": [0.83738258, 0.33223529, 0.61063251],
        "properties": { "magmom": 0.021 },
        "label": "Pr",
        "xyz": [2.2547504114803885, -0.13308209937043847, 10.046678269654592]
      },
      {
        "species": [{ "element": "Pr", "occu": 1 }],
        "abc": [0.3322407, 0.61062721, 0.8373811],
        "properties": { "magmom": 0.021 },
        "label": "Pr",
        "xyz": [-1.2427790491070354, -1.8863546225359764, 10.04673035713219]
      },
      {
        "species": [{ "element": "Rh", "occu": 1 }],
        "abc": [0.16100066, 0.95720285, 0.58986573],
        "properties": { "magmom": 0.01 },
        "label": "Rh",
        "xyz": [-3.5542384031034375, -0.15874517323292192, 9.639413439957556]
      },
      {
        "species": [{ "element": "Rh", "occu": 1 }],
        "abc": [0.9571972, 0.58985955, 0.16101799],
        "properties": { "magmom": 0.01 },
        "label": "Rh",
        "xyz": [1.6395466447122828, 3.157163235252262, 9.639351870915629]
      },
      {
        "species": [{ "element": "Rh", "occu": 1 }],
        "abc": [0.58985748, 0.16102484, 0.95719904],
        "properties": { "magmom": 0.01 },
        "label": "Rh",
        "xyz": [1.9141457793464576, -2.998630642005451, 9.639417908527111]
      },
      {
        "species": [{ "element": "Rh", "occu": 1 }],
        "abc": [0.8389983400000001, 0.04279815, 0.41013327],
        "properties": { "magmom": 0.01 },
        "label": "Rh",
        "xyz": [3.5539931954537587, 0.1586604874113422, 7.290856986718714]
      },
      {
        "species": [{ "element": "Rh", "occu": 1 }],
        "abc": [0.042803799999999004, 0.41013945, 0.83898401],
        "properties": { "magmom": 0.01 },
        "label": "Rh",
        "xyz": [-1.6397739970607064, -3.1572633839167246, 7.290935485860786]
      },
      {
        "species": [{ "element": "Rh", "occu": 1 }],
        "abc": [0.41014252, 0.83897616, 0.04280096],
        "properties": { "magmom": 0.01 },
        "label": "Rh",
        "xyz": [-1.9143865232894361, 2.998543379049741, 7.290863804949059]
      }
    ]
  },
  "task_ids": null,
  "uncorrected_energy_per_atom": null,
  "energy_per_atom": -6.396748607333333,
  "formation_energy_per_atom": -0.573742584333331,
  "energy_above_hull": 0.0,
  "is_stable": true,
  "equilibrium_reaction_energy_per_atom": null,
  "decomposes_to": null,
  "xas": null,
  "grain_boundaries": null,
  "band_gap": 0.0,
  "cbm": null,
  "vbm": null,
  "efermi": 4.49176897,
  "is_gap_direct": null,
  "is_metal": null,
  "es_source_calc_id": null,
  "bandstructure": null,
  "dos": null,
  "dos_energy_up": null,
  "dos_energy_down": null,
  "is_magnetic": null,
  "ordering": null,
  "total_magnetization": 0.4938566,
  "total_magnetization_normalized_vol": null,
  "total_magnetization_normalized_formula_units": null,
  "num_magnetic_sites": null,
  "num_unique_magnetic_sites": null,
  "types_of_magnetic_species": null,
  "bulk_modulus": null,
  "shear_modulus": null,
  "universal_anisotropy": null,
  "homogeneous_poisson": null,
  "e_total": null,
  "e_ionic": null,
  "e_electronic": null,
  "n": null,
  "e_ij_max": null,
  "weighted_surface_energy_EV_PER_ANG2": null,
  "weighted_surface_energy": null,
  "weighted_work_function": null,
  "surface_anisotropy": null,
  "shape_factor": null,
  "has_reconstructed": null,
  "possible_species": null,
  "has_props": null,
  "theoretical": null,
  "database_IDs": null,
  "fields_not_requested": [
    "builder_meta",
    "nsites",
    "elements",
    "nelements",
    "composition",
    "composition_reduced",
    "chemsys",
    "symmetry",
    "property_name",
    "deprecated",
    "deprecation_reasons",
    "last_updated",
    "origins",
    "warnings",
    "task_ids",
    "uncorrected_energy_per_atom",
    "equilibrium_reaction_energy_per_atom",
    "decomposes_to",
    "xas",
    "grain_boundaries",
    "cbm",
    "vbm",
    "is_gap_direct",
    "is_metal",
    "es_source_calc_id",
    "bandstructure",
    "dos",
    "dos_energy_up",
    "dos_energy_down",
    "is_magnetic",
    "ordering",
    "total_magnetization_normalized_vol",
    "total_magnetization_normalized_formula_units",
    "num_magnetic_sites",
    "num_unique_magnetic_sites",
    "types_of_magnetic_species",
    "bulk_modulus",
    "shear_modulus",
    "universal_anisotropy",
    "homogeneous_poisson",
    "e_total",
    "e_ionic",
    "e_electronic",
    "n",
    "e_ij_max",
    "weighted_surface_energy_EV_PER_ANG2",
    "weighted_surface_energy",
    "weighted_work_function",
    "surface_anisotropy",
    "shape_factor",
    "has_reconstructed",
    "possible_species",
    "has_props",
    "theoretical",
    "database_IDs"
  ]
}
