{
  "builder_meta": null,
  "nsites": null,
  "elements": null,
  "nelements": null,
  "composition": null,
  "composition_reduced": null,
  "formula_pretty": "Pr3Si",
  "formula_anonymous": "AB3",
  "chemsys": null,
  "volume": 227.27983394661368,
  "density": 6.587342394435484,
  "density_atomic": 28.40997924332671,
  "symmetry": null,
  "property_name": null,
  "material_id": "mp-1186731",
  "deprecated": null,
  "deprecation_reasons": null,
  "last_updated": null,
  "origins": null,
  "warnings": null,
  "structure": {
    "@module": "pymatgen.core.structure",
    "@class": "Structure",
    "charge": 0,
    "lattice": {
      "matrix": [
        [7.152284, 0.0, 0.0],
        [-3.576142, 6.194059, 0.0],
        [0.0, 0.0, 5.130277]
      ],
      "pbc": [true, true, true],
      "a": 7.152284,
      "b": 7.152283446539643,
      "c": 5.130277,
      "alpha": 90.0,
      "beta": 90.0,
      "gamma": 120.00000255978692,
      "volume": 227.27983394661368
    },
    "properties": {},
    "sites": [
      {
        "species": [{ "element": "Pr", "occu": 1 }],
        "abc": [0.182558, 0.365116999999999, 0.25],
        "properties": { "magmom": 0.0 },
        "label": "Pr",
        "xyz": [-3.5761419965307795e-6, 2.261556239902994, 1.28256925]
      },
      {
        "species": [{ "element": "Pr", "occu": 1 }],
        "abc": [0.634884999999999, 0.817442999999999, 0.25],
        "properties": { "magmom": 0.0 },
        "label": "Pr",
        "xyz": [1.6175855824339966, 5.063290171136994, 1.28256925]
      },
      {
        "species": [{ "element": "Pr", "occu": 1 }],
        "abc": [0.182558, 0.817442999999999, 0.25],
        "properties": { "magmom": 0.0 },
        "label": "Pr",
        "xyz": [-1.6175855824339964, 5.063290171136994, 1.28256925]
      },
      {
        "species": [{ "element": "Pr", "occu": 1 }],
        "abc": [0.817442999999999, 0.634884, 0.750000999999999],
        "properties": { "magmom": 0.0 },
        "label": "Pr",
        "xyz": [3.576149152283993, 3.9325089541560003, 3.8477128802769953]
      },
      {
        "species": [{ "element": "Pr", "occu": 1 }],
        "abc": [0.365116, 0.182557, 0.750000999999999],
        "properties": { "magmom": 0.0 },
        "label": "Pr",
        "xyz": [1.95856356985, 1.130768828863, 3.8477128802769953]
      },
      {
        "species": [{ "element": "Pr", "occu": 1 }],
        "abc": [0.817442, 0.182557, 0.750000999999999],
        "properties": { "magmom": 0.0 },
        "label": "Pr",
        "xyz": [5.193727582434001, 1.130768828863, 3.8477128802769953]
      },
      {
        "species": [{ "element": "Si", "occu": 1 }],
        "abc": [0.333333999999999, 0.666667999999999, 0.750000999999999],
        "properties": { "magmom": -0.0 },
        "label": "Si",
        "xyz": [-3.552713678800501e-15, 4.129380925411994, 3.8477128802769953]
      },
      {
        "species": [{ "element": "Si", "occu": 1 }],
        "abc": [0.666667, 0.333331999999999, 0.25],
        "properties": { "magmom": -0.0 },
        "label": "Si",
        "xyz": [3.576149152284004, 2.064678074587994, 1.28256925]
      }
    ]
  },
  "task_ids": null,
  "uncorrected_energy_per_atom": null,
  "energy_per_atom": -5.154778858749999,
  "formation_energy_per_atom": -0.20184575749999903,
  "energy_above_hull": 0.156097020624999,
  "is_stable": false,
  "equilibrium_reaction_energy_per_atom": null,
  "decomposes_to": null,
  "xas": null,
  "grain_boundaries": null,
  "band_gap": 0.0,
  "cbm": null,
  "vbm": null,
  "efermi": 4.73796371,
  "is_gap_direct": null,
  "is_metal": null,
  "es_source_calc_id": null,
  "bandstructure": null,
  "dos": null,
  "dos_energy_up": null,
  "dos_energy_down": null,
  "is_magnetic": null,
  "ordering": null,
  "total_magnetization": 0.0069586,
  "total_magnetization_normalized_vol": null,
  "total_magnetization_normalized_formula_units": null,
  "num_magnetic_sites": null,
  "num_unique_magnetic_sites": null,
  "types_of_magnetic_species": null,
  "bulk_modulus": null,
  "shear_modulus": null,
  "universal_anisotropy": null,
  "homogeneous_poisson": null,
  "e_total": null,
  "e_ionic": null,
  "e_electronic": null,
  "n": null,
  "e_ij_max": null,
  "weighted_surface_energy_EV_PER_ANG2": null,
  "weighted_surface_energy": null,
  "weighted_work_function": null,
  "surface_anisotropy": null,
  "shape_factor": null,
  "has_reconstructed": null,
  "possible_species": null,
  "has_props": null,
  "theoretical": null,
  "database_IDs": null,
  "fields_not_requested": [
    "builder_meta",
    "nsites",
    "elements",
    "nelements",
    "composition",
    "composition_reduced",
    "chemsys",
    "symmetry",
    "property_name",
    "deprecated",
    "deprecation_reasons",
    "last_updated",
    "origins",
    "warnings",
    "task_ids",
    "uncorrected_energy_per_atom",
    "equilibrium_reaction_energy_per_atom",
    "decomposes_to",
    "xas",
    "grain_boundaries",
    "cbm",
    "vbm",
    "is_gap_direct",
    "is_metal",
    "es_source_calc_id",
    "bandstructure",
    "dos",
    "dos_energy_up",
    "dos_energy_down",
    "is_magnetic",
    "ordering",
    "total_magnetization_normalized_vol",
    "total_magnetization_normalized_formula_units",
    "num_magnetic_sites",
    "num_unique_magnetic_sites",
    "types_of_magnetic_species",
    "bulk_modulus",
    "shear_modulus",
    "universal_anisotropy",
    "homogeneous_poisson",
    "e_total",
    "e_ionic",
    "e_electronic",
    "n",
    "e_ij_max",
    "weighted_surface_energy_EV_PER_ANG2",
    "weighted_surface_energy",
    "weighted_work_function",
    "surface_anisotropy",
    "shape_factor",
    "has_reconstructed",
    "possible_species",
    "has_props",
    "theoretical",
    "database_IDs"
  ]
}
