{"builder_meta": null, "nsites": null, "elements": null, "nelements": null, "composition": null, "composition_reduced": null, "formula_pretty": "Pr3Si2", "formula_anonymous": "A2B3", "chemsys": null, "volume": 271.83651330245493, "density": 5.8507380268565665, "density_atomic": 27.183651330245493, "symmetry": null, "property_name": null, "material_id": "mp-1079937", "deprecated": null, "deprecation_reasons": null, "last_updated": null, "origins": null, "warnings": null, "structure": {"@module": "pymatgen.core.structure", "@class": "Structure", "charge": 0, "lattice": {"matrix": [[0.0, 0.0, 4.41077905], [7.85048059, 0.00021969, 0.0], [0.00021969, 7.85048059, 0.0]], "pbc": [true, true, true], "a": 4.41077905, "b": 7.850480593073932, "c": 7.850480593073932, "alpha": 89.99679323841293, "beta": 90.0, "gamma": 90.0, "volume": 271.83651330245493}, "properties": {}, "sites": [{"species": [{"element": "Pr", "occu": 1}], "abc": [0.0, 0.5, 0.5], "properties": {"magmom": 0.162}, "label": "Pr", "xyz": [3.92535014, 3.92535014, 0.0]}, {"species": [{"element": "Pr", "occu": 1}], "abc": [0.0, -0.0, -0.0], "properties": {"magmom": 0.162}, "label": "Pr", "xyz": [0.0, 0.0, 0.0]}, {"species": [{"element": "Pr", "occu": 1}], "abc": [0.5, 0.17669141, 0.67669141], "properties": {"magmom": 0.12}, "label": "Pr", "xyz": [1.3872611469605947, 5.312391596960595, 2.205389525]}, {"species": [{"element": "Pr", "occu": 1}], "abc": [0.5, 0.82330859, 0.32330859], "properties": {"magmom": 0.12}, "label": "Pr", "xyz": [6.463439133039405, 2.5383086830394053, 2.205389525]}, {"species": [{"element": "Pr", "occu": 1}], "abc": [0.5, 0.32332123, 0.17667877], "properties": {"magmom": 0.12}, "label": "Pr", "xyz": [2.538265855008907, 1.3870842849910932, 2.205389525]}, {"species": [{"element": "Pr", "occu": 1}], "abc": [0.5, 0.67667877, 0.82332123], "properties": {"magmom": 0.12}, "label": "Pr", "xyz": [5.312434424991093, 6.463615995008907, 2.205389525]}, {"species": [{"element": "Si", "occu": 1}], "abc": [0.0, 0.60970411, 0.10970411000000001], "properties": {"magmom": -0.007}, "label": "Si", "xyz": [4.786494382094151, 0.8613639320941509, 0.0]}, {"species": [{"element": "Si", "occu": 1}], "abc": [0.0, 0.39029589000000003, 0.89029589], "properties": {"magmom": -0.007}, "label": "Si", "xyz": [3.0642058979058495, 6.989336347905849, 0.0]}, {"species": [{"element": "Si", "occu": 1}], "abc": [0.0, 0.89027937, 0.60972063], "properties": {"magmom": -0.007}, "label": "Si", "xyz": [6.989254863387633, 4.786795556612367, 0.0]}, {"species": [{"element": "Si", "occu": 1}], "abc": [0.0, 0.10972063, 0.39027937], "properties": {"magmom": -0.007}, "label": "Si", "xyz": [0.861445416612367, 3.0639047233876333, 0.0]}]}, "task_ids": null, "uncorrected_energy_per_atom": null, "energy_per_atom": -5.620118531999998, "formation_energy_per_atom": -0.5727084449999971, "energy_above_hull": 0.0, "is_stable": true, "equilibrium_reaction_energy_per_atom": null, "decomposes_to": null, "xas": null, "grain_boundaries": null, "band_gap": 0.0, "cbm": null, "vbm": null, "efermi": 4.64219176, "is_gap_direct": null, "is_metal": null, "es_source_calc_id": null, "bandstructure": null, "dos": null, "dos_energy_up": null, "dos_energy_down": null, "is_magnetic": null, "ordering": null, "total_magnetization": 1.8061892, "total_magnetization_normalized_vol": null, "total_magnetization_normalized_formula_units": null, "num_magnetic_sites": null, "num_unique_magnetic_sites": null, "types_of_magnetic_species": null, "bulk_modulus": null, "shear_modulus": null, "universal_anisotropy": null, "homogeneous_poisson": null, "e_total": null, "e_ionic": null, "e_electronic": null, "n": null, "e_ij_max": null, "weighted_surface_energy_EV_PER_ANG2": null, "weighted_surface_energy": null, "weighted_work_function": null, "surface_anisotropy": null, "shape_factor": null, "has_reconstructed": null, "possible_species": null, "has_props": null, "theoretical": null, "database_IDs": null, "fields_not_requested": ["builder_meta", "nsites", "elements", "nelements", "composition", "composition_reduced", "chemsys", "symmetry", "property_name", "deprecated", "deprecation_reasons", "last_updated", "origins", "warnings", "task_ids", "uncorrected_energy_per_atom", "equilibrium_reaction_energy_per_atom", "decomposes_to", "xas", "grain_boundaries", "cbm", "vbm", "is_gap_direct", "is_metal", "es_source_calc_id", "bandstructure", "dos", "dos_energy_up", "dos_energy_down", "is_magnetic", "ordering", "total_magnetization_normalized_vol", "total_magnetization_normalized_formula_units", "num_magnetic_sites", "num_unique_magnetic_sites", "types_of_magnetic_species", "bulk_modulus", "shear_modulus", "universal_anisotropy", "homogeneous_poisson", "e_total", "e_ionic", "e_electronic", "n", "e_ij_max", "weighted_surface_energy_EV_PER_ANG2", "weighted_surface_energy", "weighted_work_function", "surface_anisotropy", "shape_factor", "has_reconstructed", "possible_species", "has_props", "theoretical", "database_IDs"]}