{
  "builder_meta": null,
  "nsites": null,
  "elements": null,
  "nelements": null,
  "composition": null,
  "composition_reduced": null,
  "formula_pretty": "Pr3Se4",
  "formula_anonymous": "A3B4",
  "chemsys": null,
  "volume": 365.4767387993458,
  "density": 6.711303354885564,
  "density_atomic": 26.105481342810414,
  "symmetry": null,
  "property_name": null,
  "material_id": "mp-722",
  "deprecated": null,
  "deprecation_reasons": null,
  "last_updated": null,
  "origins": null,
  "warnings": null,
  "structure": {
    "@module": "pymatgen.core.structure",
    "@class": "Structure",
    "charge": 0,
    "lattice": {
      "matrix": [
        [7.35502675, 0.0, -2.60039432],
        [-3.67751286, 6.36964027, -2.60039432],
        [1e-8, 2e-8, 7.80118501]
      ],
      "pbc": [true, true, true],
      "a": 7.8011838276446115,
      "b": 7.801183796332408,
      "c": 7.80118501,
      "alpha": 109.47121837232164,
      "beta": 109.47121830805712,
      "gamma": 109.47121918637018,
      "volume": 365.47673879934575
    },
    "properties": {},
    "sites": [
      {
        "species": [{ "element": "Pr", "occu": 1 }],
        "abc": [0.75, 0.875, 0.125],
        "properties": { "magmom": 0.0 },
        "label": "Pr",
        "xyz": [2.29844631125, 5.57343523875, -3.25049264375]
      },
      {
        "species": [{ "element": "Pr", "occu": 1 }],
        "abc": [0.625, 0.375, 0.25],
        "properties": { "magmom": 0.0 },
        "label": "Pr",
        "xyz": [3.2178243987500004, 2.38861510625, -0.6500980674999999]
      },
      {
        "species": [{ "element": "Pr", "occu": 1 }],
        "abc": [0.875, 0.125, 0.75],
        "properties": { "magmom": 0.0 },
        "label": "Pr",
        "xyz": [5.97595930625, 0.79620504875, 3.2504944375]
      },
      {
        "species": [{ "element": "Pr", "occu": 1 }],
        "abc": [0.125, 0.75, 0.875],
        "properties": { "magmom": 0.0 },
        "label": "Pr",
        "xyz": [-1.8387562925, 4.77723022, 4.550691853750001]
      },
      {
        "species": [{ "element": "Pr", "occu": 1 }],
        "abc": [0.375, 0.25, 0.625],
        "properties": { "magmom": 0.0 },
        "label": "Pr",
        "xyz": [1.8387568225000002, 1.5924100799999998, 3.25049418125]
      },
      {
        "species": [{ "element": "Pr", "occu": 1 }],
        "abc": [0.25, 0.625, 0.375],
        "properties": { "magmom": 0.0 },
        "label": "Pr",
        "xyz": [-0.45968884625000006, 3.9810251762499997, 0.65009934875]
      },
      {
        "species": [{ "element": "Se", "occu": 1 }],
        "abc": [0.64829311, 0.64829311, 0.64829311],
        "properties": { "magmom": -0.0 },
        "label": "Se",
        "xyz": [2.3841069232992287, 4.129393913185401, 1.6858190499400107]
      },
      {
        "species": [{ "element": "Se", "occu": 1 }],
        "abc": [0.35170689, 0.5, 0.0],
        "properties": { "magmom": -0.0 },
        "label": "Se",
        "xyz": [0.7480571541093073, 3.184820135, -2.214773759060865]
      },
      {
        "species": [{ "element": "Se", "occu": 1 }],
        "abc": [0.5, 0.0, 0.35170689],
        "properties": { "magmom": -0.0 },
        "label": "Se",
        "xyz": [3.677513378517069, 7.0341378e-9, 1.4435333581817191]
      },
      {
        "species": [{ "element": "Se", "occu": 1 }],
        "abc": [0.0, 0.35170689, 0.5],
        "properties": { "magmom": -0.0 },
        "label": "Se",
        "xyz": [-1.2934066059256055, 2.24024637978046, 2.9860159059391354]
      },
      {
        "species": [{ "element": "Se", "occu": 1 }],
        "abc": [0.5, 0.0, 0.85170689],
        "properties": { "magmom": -0.0 },
        "label": "Se",
        "xyz": [3.677513383517069, 1.70341378e-8, 5.344125863181719]
      },
      {
        "species": [{ "element": "Se", "occu": 1 }],
        "abc": [0.0, 0.85170689, 0.5],
        "properties": { "magmom": -0.0 },
        "label": "Se",
        "xyz": [-3.1321630359256054, 5.42506651478046, 1.6858187459391352]
      },
      {
        "species": [{ "element": "Se", "occu": 1 }],
        "abc": [0.14829311, 0.14829311, 0.14829311],
        "properties": { "magmom": -0.0 },
        "label": "Se",
        "xyz": [0.5453499732992291, 0.944573768185402, 0.3856208649400108]
      },
      {
        "species": [{ "element": "Se", "occu": 1 }],
        "abc": [0.85170689, 0.5, 0.0],
        "properties": { "magmom": -0.0 },
        "label": "Se",
        "xyz": [4.425570529109308, 3.184820135, -3.5149709190608647]
      }
    ]
  },
  "task_ids": null,
  "uncorrected_energy_per_atom": null,
  "energy_per_atom": -22.92847535285714,
  "formation_energy_per_atom": -2.148745348749997,
  "energy_above_hull": 0.018690621098901003,
  "is_stable": false,
  "equilibrium_reaction_energy_per_atom": null,
  "decomposes_to": null,
  "xas": null,
  "grain_boundaries": null,
  "band_gap": 0.0,
  "cbm": null,
  "vbm": null,
  "efermi": 5.56074953,
  "is_gap_direct": null,
  "is_metal": null,
  "es_source_calc_id": null,
  "bandstructure": null,
  "dos": null,
  "dos_energy_up": null,
  "dos_energy_down": null,
  "is_magnetic": null,
  "ordering": null,
  "total_magnetization": 1.3e-6,
  "total_magnetization_normalized_vol": null,
  "total_magnetization_normalized_formula_units": null,
  "num_magnetic_sites": null,
  "num_unique_magnetic_sites": null,
  "types_of_magnetic_species": null,
  "bulk_modulus": null,
  "shear_modulus": null,
  "universal_anisotropy": null,
  "homogeneous_poisson": null,
  "e_total": null,
  "e_ionic": null,
  "e_electronic": null,
  "n": null,
  "e_ij_max": null,
  "weighted_surface_energy_EV_PER_ANG2": null,
  "weighted_surface_energy": null,
  "weighted_work_function": null,
  "surface_anisotropy": null,
  "shape_factor": null,
  "has_reconstructed": null,
  "possible_species": null,
  "has_props": null,
  "theoretical": null,
  "database_IDs": null,
  "fields_not_requested": [
    "builder_meta",
    "nsites",
    "elements",
    "nelements",
    "composition",
    "composition_reduced",
    "chemsys",
    "symmetry",
    "property_name",
    "deprecated",
    "deprecation_reasons",
    "last_updated",
    "origins",
    "warnings",
    "task_ids",
    "uncorrected_energy_per_atom",
    "equilibrium_reaction_energy_per_atom",
    "decomposes_to",
    "xas",
    "grain_boundaries",
    "cbm",
    "vbm",
    "is_gap_direct",
    "is_metal",
    "es_source_calc_id",
    "bandstructure",
    "dos",
    "dos_energy_up",
    "dos_energy_down",
    "is_magnetic",
    "ordering",
    "total_magnetization_normalized_vol",
    "total_magnetization_normalized_formula_units",
    "num_magnetic_sites",
    "num_unique_magnetic_sites",
    "types_of_magnetic_species",
    "bulk_modulus",
    "shear_modulus",
    "universal_anisotropy",
    "homogeneous_poisson",
    "e_total",
    "e_ionic",
    "e_electronic",
    "n",
    "e_ij_max",
    "weighted_surface_energy_EV_PER_ANG2",
    "weighted_surface_energy",
    "weighted_work_function",
    "surface_anisotropy",
    "shape_factor",
    "has_reconstructed",
    "possible_species",
    "has_props",
    "theoretical",
    "database_IDs"
  ]
}
