{"builder_meta": null, "nsites": null, "elements": null, "nelements": null, "composition": null, "composition_reduced": null, "formula_pretty": "Pr3S4", "formula_anonymous": "A3B4", "chemsys": null, "volume": 323.9239193117605, "density": 5.64903459707118, "density_atomic": 23.137422807982894, "symmetry": null, "property_name": null, "material_id": "mp-1449", "deprecated": null, "deprecation_reasons": null, "last_updated": null, "origins": null, "warnings": null, "structure": {"@module": "pymatgen.core.structure", "@class": "Structure", "charge": 0, "lattice": {"matrix": [[7.06499746, -2e-08, -2.4978536], [-3.53249976, 6.11846829, -2.4978536], [1e-08, 1e-08, 7.49356183]], "pbc": [true, true, true], "a": 7.493561350708981, "b": 7.49356266252365, "c": 7.49356183, "alpha": 109.47121557160165, "beta": 109.47121906931581, "gamma": 109.47122658482981, "volume": 323.92391931176047}, "properties": {}, "sites": [{"species": [{"element": "Pr", "occu": 1}], "abc": [0.75, 0.875, 0.125], "properties": {"magmom": -0.0}, "label": "Pr", "xyz": [2.20781080625, 5.3536597399999994, -3.1223168712500002]}, {"species": [{"element": "Pr", "occu": 1}], "abc": [0.625, 0.375, 0.25], "properties": {"magmom": -0.0}, "label": "Pr", "xyz": [3.0909360049999997, 2.29442559875, -0.6244631425]}, {"species": [{"element": "Pr", "occu": 1}], "abc": [0.875, 0.125, 0.75], "properties": {"magmom": -0.0}, "label": "Pr", "xyz": [5.740310314999999, 0.76480852625, 3.1223177724999998]}, {"species": [{"element": "Pr", "occu": 1}], "abc": [0.125, 0.75, 0.875], "properties": {"magmom": -0.0}, "label": "Pr", "xyz": [-1.7662501287499996, 4.58885122375, 4.37124470125]}, {"species": [{"element": "Pr", "occu": 1}], "abc": [0.375, 0.25, 0.625], "properties": {"magmom": -0.0}, "label": "Pr", "xyz": [1.7662491137499998, 1.5296170712500001, 3.12231764375]}, {"species": [{"element": "Pr", "occu": 1}], "abc": [0.25, 0.625, 0.375], "properties": {"magmom": -0.0}, "label": "Pr", "xyz": [-0.4415629812499998, 3.82404268, 0.6244637862499998]}, {"species": [{"element": "S", "occu": 1}], "abc": [0.64861486, 0.64861486, 0.64861486], "properties": {"magmom": -0.0}, "label": "S", "xyz": [2.291230507621971, 3.968529446846641, 1.6201456311378024]}, {"species": [{"element": "S", "occu": 1}], "abc": [0.35138514, 0.5, -0.0], "properties": {"magmom": -0.0}, "label": "S", "xyz": [0.7162852415817442, 3.059234137972297, -2.126635436935504]}, {"species": [{"element": "S", "occu": 1}], "abc": [0.5, 0.0, 0.35138514], "properties": {"magmom": -0.0}, "label": "S", "xyz": [3.5324987335138514, -6.4861486e-09, 1.384199472733206]}, {"species": [{"element": "S", "occu": 1}], "abc": [0.0, 0.35138514, 0.5], "properties": {"magmom": -0.0}, "label": "S", "xyz": [-1.2412679177175663, 2.1499388416672103, 2.869072278064496]}, {"species": [{"element": "S", "occu": 1}], "abc": [0.5, 0.0, 0.85138514], "properties": {"magmom": -0.0}, "label": "S", "xyz": [3.5324987385138513, -1.4861486000000003e-09, 5.1309803877332065]}, {"species": [{"element": "S", "occu": 1}], "abc": [0.0, 0.85138514, 0.5], "properties": {"magmom": -0.0}, "label": "S", "xyz": [-3.007517797717566, 5.209172986667211, 1.620145478064496]}, {"species": [{"element": "S", "occu": 1}], "abc": [0.14861486000000002, 0.14861486000000002, 0.14861486000000002], "properties": {"magmom": -0.0}, "label": "S", "xyz": [0.5249816526219707, 0.909295306846641, 0.37121831613780176]}, {"species": [{"element": "S", "occu": 1}], "abc": [0.85138514, 0.5, -0.0], "properties": {"magmom": -0.0}, "label": "S", "xyz": [4.248783971581744, 3.059234127972297, -3.375562236935504]}]}, "task_ids": null, "uncorrected_energy_per_atom": null, "energy_per_atom": -19.50073244857143, "formation_energy_per_atom": -2.307608815178572, "energy_above_hull": 0.033799941071428, "is_stable": false, "equilibrium_reaction_energy_per_atom": null, "decomposes_to": null, "xas": null, "grain_boundaries": null, "band_gap": 0.0, "cbm": null, "vbm": null, "efermi": 6.37683068, "is_gap_direct": null, "is_metal": null, "es_source_calc_id": null, "bandstructure": null, "dos": null, "dos_energy_up": null, "dos_energy_down": null, "is_magnetic": null, "ordering": null, "total_magnetization": 2.8e-06, "total_magnetization_normalized_vol": null, "total_magnetization_normalized_formula_units": null, "num_magnetic_sites": null, "num_unique_magnetic_sites": null, "types_of_magnetic_species": null, "bulk_modulus": null, "shear_modulus": null, "universal_anisotropy": null, "homogeneous_poisson": null, "e_total": null, "e_ionic": null, "e_electronic": null, "n": null, "e_ij_max": null, "weighted_surface_energy_EV_PER_ANG2": null, "weighted_surface_energy": null, "weighted_work_function": null, "surface_anisotropy": null, "shape_factor": null, "has_reconstructed": null, "possible_species": null, "has_props": null, "theoretical": null, "database_IDs": null, "fields_not_requested": ["builder_meta", "nsites", "elements", "nelements", "composition", "composition_reduced", "chemsys", "symmetry", "property_name", "deprecated", "deprecation_reasons", "last_updated", "origins", "warnings", "task_ids", "uncorrected_energy_per_atom", "equilibrium_reaction_energy_per_atom", "decomposes_to", "xas", "grain_boundaries", "cbm", "vbm", "is_gap_direct", "is_metal", "es_source_calc_id", "bandstructure", "dos", "dos_energy_up", "dos_energy_down", "is_magnetic", "ordering", "total_magnetization_normalized_vol", "total_magnetization_normalized_formula_units", "num_magnetic_sites", "num_unique_magnetic_sites", "types_of_magnetic_species", "bulk_modulus", "shear_modulus", "universal_anisotropy", "homogeneous_poisson", "e_total", "e_ionic", "e_electronic", "n", "e_ij_max", "weighted_surface_energy_EV_PER_ANG2", "weighted_surface_energy", "weighted_work_function", "surface_anisotropy", "shape_factor", "has_reconstructed", "possible_species", "has_props", "theoretical", "database_IDs"]}