{"builder_meta": null, "nsites": null, "elements": null, "nelements": null, "composition": null, "composition_reduced": null, "formula_pretty": "Pr3Sn5", "formula_anonymous": "A3B5", "chemsys": null, "volume": 454.9361320441791, "density": 7.418891650663386, "density_atomic": 28.433508252761193, "symmetry": null, "property_name": null, "material_id": "mp-1190005", "deprecated": null, "deprecation_reasons": null, "last_updated": null, "origins": null, "warnings": null, "structure": {"@module": "pymatgen.core.structure", "@class": "Structure", "charge": 0, "lattice": {"matrix": [[4.12362754, -5.17970959, 0.00078467], [4.12362754, 5.17970959, 0.00078467], [0.00202989, 0.0, 10.64965671]], "pbc": [true, true, true], "a": 6.6207020882298755, "b": 6.6207020882298755, "c": 10.649656903454751, "alpha": 89.98640746628878, "beta": 89.98640746628878, "gamma": 102.95258327119801, "volume": 454.9361320441791}, "properties": {}, "sites": [{"species": [{"element": "Pr", "occu": 1}], "abc": [0.6366539, 0.6366539, 0.24991483], "properties": {"magmom": 0.0}, "label": "Pr", "xyz": [5.251154410591081, 0.0, 2.6625062726694355]}, {"species": [{"element": "Pr", "occu": 1}], "abc": [0.36332993, 0.36332993, 0.75007992], "properties": {"magmom": -0.0}, "label": "Pr", "xyz": [2.9979971906373537, 0.0, 7.988663841256609]}, {"species": [{"element": "Pr", "occu": 1}], "abc": [0.20071454, 0.79927685, 0.50000171], "properties": {"magmom": -0.0}, "label": "Pr", "xyz": [4.124606984037993, 3.1003789373195536, 5.325631229156967]}, {"species": [{"element": "Pr", "occu": 1}], "abc": [0.20078211, 0.79921565, 0.9999996800000001], "properties": {"magmom": 0.0}, "label": "Pr", "xyz": [4.125648192424746, 3.099711946115649, 10.650437970352193]}, {"species": [{"element": "Pr", "occu": 1}], "abc": [0.79927685, 0.20071454, 0.50000171], "properties": {"magmom": -0.0}, "label": "Pr", "xyz": [4.124606984037993, -3.1003789373195536, 5.325631229156967]}, {"species": [{"element": "Pr", "occu": 1}], "abc": [0.79921565, 0.20078211, 0.9999996800000001], "properties": {"magmom": 0.0}, "label": "Pr", "xyz": [4.125648192424746, -3.099711946115649, 10.650437970352193]}, {"species": [{"element": "Sn", "occu": 1}], "abc": [0.02725806, 0.02725806, 0.25010096], "properties": {"magmom": -0.0}, "label": "Sn", "xyz": [0.2253118512436392, 0.0, 2.663532144005322]}, {"species": [{"element": "Sn", "occu": 1}], "abc": [0.9727566, 0.9727566, 0.749898899999999], "properties": {"magmom": -0.0}, "label": "Sn", "xyz": [8.02409402323165, 0.0, 7.987692438049253]}, {"species": [{"element": "Sn", "occu": 1}], "abc": [0.32260932000000003, 0.32260932000000003, 0.04874381], "properties": {"magmom": -0.0}, "label": "Sn", "xyz": [2.660740297797827, 0.0, 0.5196111269477138]}, {"species": [{"element": "Sn", "occu": 1}], "abc": [0.6773821, 0.6773821, 0.95123145], "properties": {"magmom": -0.0}, "label": "Sn", "xyz": [5.588473860534109, 0.0, 10.131351437080344]}, {"species": [{"element": "Sn", "occu": 1}], "abc": [0.32278487, 0.32278487, 0.45137293], "properties": {"magmom": -0.0}, "label": "Sn", "xyz": [2.6630053962515174, 0.0, 4.807473311894746]}, {"species": [{"element": "Sn", "occu": 1}], "abc": [0.67721341, 0.67721341, 0.54865379], "properties": {"magmom": 0.0}, "label": "Sn", "xyz": [5.586265442708407, 0.0, 5.844037294233281]}, {"species": [{"element": "Sn", "occu": 1}], "abc": [0.49365364, 0.07245218, 0.25011152000000003], "properties": {"magmom": -0.0}, "label": "Sn", "xyz": [2.334917248779616, -2.181701241684001, 2.664046033470079]}, {"species": [{"element": "Sn", "occu": 1}], "abc": [0.92757478, 0.5063410700000001, 0.74988779], "properties": {"magmom": -0.0}, "label": "Sn", "xyz": [5.914457078828553, -2.1818682873182786, 7.9871726852705915]}, {"species": [{"element": "Sn", "occu": 1}], "abc": [0.5063410700000001, 0.92757478, 0.74988779], "properties": {"magmom": -0.0}, "label": "Sn", "xyz": [5.914457078828553, 2.1818682873182786, 7.9871726852705915]}, {"species": [{"element": "Sn", "occu": 1}], "abc": [0.07245218, 0.49365364, 0.25011152000000003], "properties": {"magmom": -0.0}, "label": "Sn", "xyz": [2.334917248779616, 2.181701241684001, 2.664046033470079]}]}, "task_ids": null, "uncorrected_energy_per_atom": null, "energy_per_atom": -4.962358052500001, "formation_energy_per_atom": -0.6580738462499991, "energy_above_hull": 0.018011508749998, "is_stable": false, "equilibrium_reaction_energy_per_atom": null, "decomposes_to": null, "xas": null, "grain_boundaries": null, "band_gap": 0.0, "cbm": null, "vbm": null, "efermi": 6.8048487, "is_gap_direct": null, "is_metal": null, "es_source_calc_id": null, "bandstructure": null, "dos": null, "dos_energy_up": null, "dos_energy_down": null, "is_magnetic": null, "ordering": null, "total_magnetization": 4.8e-06, "total_magnetization_normalized_vol": null, "total_magnetization_normalized_formula_units": null, "num_magnetic_sites": null, "num_unique_magnetic_sites": null, "types_of_magnetic_species": null, "bulk_modulus": null, "shear_modulus": null, "universal_anisotropy": null, "homogeneous_poisson": null, "e_total": null, "e_ionic": null, "e_electronic": null, "n": null, "e_ij_max": null, "weighted_surface_energy_EV_PER_ANG2": null, "weighted_surface_energy": null, "weighted_work_function": null, "surface_anisotropy": null, "shape_factor": null, "has_reconstructed": null, "possible_species": null, "has_props": null, "theoretical": null, "database_IDs": null, "fields_not_requested": ["builder_meta", "nsites", "elements", "nelements", "composition", "composition_reduced", "chemsys", "symmetry", "property_name", "deprecated", "deprecation_reasons", "last_updated", "origins", "warnings", "task_ids", "uncorrected_energy_per_atom", "equilibrium_reaction_energy_per_atom", "decomposes_to", "xas", "grain_boundaries", "cbm", "vbm", "is_gap_direct", "is_metal", "es_source_calc_id", "bandstructure", "dos", "dos_energy_up", "dos_energy_down", "is_magnetic", "ordering", "total_magnetization_normalized_vol", "total_magnetization_normalized_formula_units", "num_magnetic_sites", "num_unique_magnetic_sites", "types_of_magnetic_species", "bulk_modulus", "shear_modulus", "universal_anisotropy", "homogeneous_poisson", "e_total", "e_ionic", "e_electronic", "n", "e_ij_max", "weighted_surface_energy_EV_PER_ANG2", "weighted_surface_energy", "weighted_work_function", "surface_anisotropy", "shape_factor", "has_reconstructed", "possible_species", "has_props", "theoretical", "database_IDs"]}