{
  "builder_meta": null,
  "nsites": null,
  "elements": null,
  "nelements": null,
  "composition": null,
  "composition_reduced": null,
  "formula_pretty": "Pr3Sc",
  "formula_anonymous": "AB3",
  "chemsys": null,
  "volume": 269.94673486589267,
  "density": 5.753720424585525,
  "density_atomic": 33.74334185823658,
  "symmetry": null,
  "property_name": null,
  "material_id": "mp-1186730",
  "deprecated": null,
  "deprecation_reasons": null,
  "last_updated": null,
  "origins": null,
  "warnings": null,
  "structure": {
    "@module": "pymatgen.core.structure",
    "@class": "Structure",
    "charge": 0,
    "lattice": {
      "matrix": [
        [3.67751436, -6.36964108, 0.0],
        [3.67751436, 6.36964108, 0.0],
        [0.0, 0.0, 5.76207285]
      ],
      "pbc": [true, true, true],
      "a": 7.355028168268955,
      "b": 7.355028168268955,
      "c": 5.76207285,
      "alpha": 90.0,
      "beta": 90.0,
      "gamma": 119.99999503710498,
      "volume": 269.94673486589267
    },
    "properties": {},
    "sites": [
      {
        "species": [{ "element": "Pr", "occu": 1 }],
        "abc": [0.17117564, 0.34235229, 0.25],
        "properties": { "magmom": -0.0 },
        "label": "Pr",
        "xyz": [1.8885063368360748, 1.090333821776782, 1.4405182125]
      },
      {
        "species": [{ "element": "Pr", "occu": 1 }],
        "abc": [0.17117564, 0.82882436, 0.25],
        "properties": { "magmom": -0.0 },
        "label": "Pr",
        "xyz": [3.67751436, 4.188986303121418, 1.4405182125]
      },
      {
        "species": [{ "element": "Pr", "occu": 1 }],
        "abc": [0.65764771, 0.82882436, 0.25],
        "properties": { "magmom": -0.0 },
        "label": "Pr",
        "xyz": [5.466522383163925, 1.0903338217767828, 1.4405182125]
      },
      {
        "species": [{ "element": "Pr", "occu": 1 }],
        "abc": [0.82882436, 0.65764771, 0.75],
        "properties": { "magmom": -0.0 },
        "label": "Pr",
        "xyz": [5.466522383163925, -1.0903338217767828, 4.3215546375]
      },
      {
        "species": [{ "element": "Pr", "occu": 1 }],
        "abc": [0.34235229, 0.17117564, 0.75],
        "properties": { "magmom": -0.0 },
        "label": "Pr",
        "xyz": [1.8885063368360748, -1.090333821776782, 4.3215546375]
      },
      {
        "species": [{ "element": "Pr", "occu": 1 }],
        "abc": [0.82882436, 0.17117564, 0.75],
        "properties": { "magmom": -0.0 },
        "label": "Pr",
        "xyz": [3.67751436, -4.188986303121418, 4.3215546375]
      },
      {
        "species": [{ "element": "Sc", "occu": 1 }],
        "abc": [0.333333, 0.666667, 0.75],
        "properties": { "magmom": -0.0 },
        "label": "Sc",
        "xyz": [3.67751436, 2.1232179397607203, 4.3215546375]
      },
      {
        "species": [{ "element": "Sc", "occu": 1 }],
        "abc": [0.666667, 0.333333, 0.25],
        "properties": { "magmom": -0.0 },
        "label": "Sc",
        "xyz": [3.67751436, -2.1232179397607203, 1.4405182125]
      }
    ]
  },
  "task_ids": null,
  "uncorrected_energy_per_atom": null,
  "energy_per_atom": -24.835183295,
  "formation_energy_per_atom": 0.067405820000001,
  "energy_above_hull": 0.067405820000001,
  "is_stable": false,
  "equilibrium_reaction_energy_per_atom": null,
  "decomposes_to": null,
  "xas": null,
  "grain_boundaries": null,
  "band_gap": 0.0,
  "cbm": null,
  "vbm": null,
  "efermi": 3.5341561500000003,
  "is_gap_direct": null,
  "is_metal": null,
  "es_source_calc_id": null,
  "bandstructure": null,
  "dos": null,
  "dos_energy_up": null,
  "dos_energy_down": null,
  "is_magnetic": null,
  "ordering": null,
  "total_magnetization": 0.004395,
  "total_magnetization_normalized_vol": null,
  "total_magnetization_normalized_formula_units": null,
  "num_magnetic_sites": null,
  "num_unique_magnetic_sites": null,
  "types_of_magnetic_species": null,
  "bulk_modulus": null,
  "shear_modulus": null,
  "universal_anisotropy": null,
  "homogeneous_poisson": null,
  "e_total": null,
  "e_ionic": null,
  "e_electronic": null,
  "n": null,
  "e_ij_max": null,
  "weighted_surface_energy_EV_PER_ANG2": null,
  "weighted_surface_energy": null,
  "weighted_work_function": null,
  "surface_anisotropy": null,
  "shape_factor": null,
  "has_reconstructed": null,
  "possible_species": null,
  "has_props": null,
  "theoretical": null,
  "database_IDs": null,
  "fields_not_requested": [
    "builder_meta",
    "nsites",
    "elements",
    "nelements",
    "composition",
    "composition_reduced",
    "chemsys",
    "symmetry",
    "property_name",
    "deprecated",
    "deprecation_reasons",
    "last_updated",
    "origins",
    "warnings",
    "task_ids",
    "uncorrected_energy_per_atom",
    "equilibrium_reaction_energy_per_atom",
    "decomposes_to",
    "xas",
    "grain_boundaries",
    "cbm",
    "vbm",
    "is_gap_direct",
    "is_metal",
    "es_source_calc_id",
    "bandstructure",
    "dos",
    "dos_energy_up",
    "dos_energy_down",
    "is_magnetic",
    "ordering",
    "total_magnetization_normalized_vol",
    "total_magnetization_normalized_formula_units",
    "num_magnetic_sites",
    "num_unique_magnetic_sites",
    "types_of_magnetic_species",
    "bulk_modulus",
    "shear_modulus",
    "universal_anisotropy",
    "homogeneous_poisson",
    "e_total",
    "e_ionic",
    "e_electronic",
    "n",
    "e_ij_max",
    "weighted_surface_energy_EV_PER_ANG2",
    "weighted_surface_energy",
    "weighted_work_function",
    "surface_anisotropy",
    "shape_factor",
    "has_reconstructed",
    "possible_species",
    "has_props",
    "theoretical",
    "database_IDs"
  ]
}
