{"builder_meta": null, "nsites": null, "elements": null, "nelements": null, "composition": null, "composition_reduced": null, "formula_pretty": "Pr3Tl5", "formula_anonymous": "A3B5", "chemsys": null, "volume": 464.50847185228497, "density": 10.328682421272987, "density_atomic": 29.03177949076781, "symmetry": null, "property_name": null, "material_id": "mp-1189377", "deprecated": null, "deprecation_reasons": null, "last_updated": null, "origins": null, "warnings": null, "structure": {"@module": "pymatgen.core.structure", "@class": "Structure", "charge": 0.0, "lattice": {"matrix": [[5.18040403, 4.20685877, -0.0], [-5.18040403, 4.20685877, -0.0], [0.0, -0.0, 10.65717454]], "pbc": [true, true, true], "a": 6.673398431441521, "b": 6.673398431441521, "c": 10.65717454, "alpha": 90.0, "beta": 90.0, "gamma": 101.8418614736606, "volume": 464.50847185228497}, "properties": {}, "sites": [{"species": [{"element": "Pr", "occu": 1}], "abc": [0.62892108, 0.62892108, 0.25], "properties": {"magmom": -0.0}, "label": "Pr", "xyz": [0.0, 5.291564322071744, 2.664293635]}, {"species": [{"element": "Pr", "occu": 1}], "abc": [0.37107892000000003, 0.37107892000000003, 0.75], "properties": {"magmom": -0.0}, "label": "Pr", "xyz": [0.0, 3.122153217928257, 7.992880905]}, {"species": [{"element": "Pr", "occu": 1}], "abc": [0.79673201, 0.20326799, 0.5], "properties": {"magmom": -0.0}, "label": "Pr", "xyz": [3.074383400868001, 4.20685877, 5.32858727]}, {"species": [{"element": "Pr", "occu": 1}], "abc": [0.79673201, 0.20326799, -0.0], "properties": {"magmom": -0.0}, "label": "Pr", "xyz": [3.074383400868001, 4.20685877, 0.0]}, {"species": [{"element": "Pr", "occu": 1}], "abc": [0.20326799, 0.79673201, 0.5], "properties": {"magmom": -0.0}, "label": "Pr", "xyz": [-3.074383400868001, 4.20685877, 5.32858727]}, {"species": [{"element": "Pr", "occu": 1}], "abc": [0.20326799, 0.79673201, -0.0], "properties": {"magmom": -0.0}, "label": "Pr", "xyz": [-3.074383400868001, 4.20685877, 0.0]}, {"species": [{"element": "Tl", "occu": 1}], "abc": [0.00957541, 0.00957541, 0.25], "properties": {"magmom": -0.0}, "label": "Tl", "xyz": [0.0, 0.0805647950696914, 2.664293635]}, {"species": [{"element": "Tl", "occu": 1}], "abc": [0.99042459, 0.99042459, 0.75], "properties": {"magmom": -0.0}, "label": "Tl", "xyz": [0.0, 8.33315274493031, 7.992880905]}, {"species": [{"element": "Tl", "occu": 1}], "abc": [0.3070133, 0.3070133, 0.04543482], "properties": {"magmom": -0.0}, "label": "Tl", "xyz": [0.0, 2.583123187223282, 0.4842068069334828]}, {"species": [{"element": "Tl", "occu": 1}], "abc": [0.6929867, 0.6929867, 0.95456518], "properties": {"magmom": -0.0}, "label": "Tl", "xyz": [0.0, 5.830594352776718, 10.172967733066518]}, {"species": [{"element": "Tl", "occu": 1}], "abc": [0.3070133, 0.3070133, 0.45456518], "properties": {"magmom": -0.0}, "label": "Tl", "xyz": [0.0, 2.583123187223282, 4.844380463066517]}, {"species": [{"element": "Tl", "occu": 1}], "abc": [0.6929867, 0.6929867, 0.54543482], "properties": {"magmom": -0.0}, "label": "Tl", "xyz": [0.0, 5.830594352776718, 5.812794076933483]}, {"species": [{"element": "Tl", "occu": 1}], "abc": [0.07530193, 0.5066997, 0.25], "properties": {"magmom": 0.0}, "label": "Tl", "xyz": [-2.234814746241013, 2.4483986613197954, 2.664293635]}, {"species": [{"element": "Tl", "occu": 1}], "abc": [0.493300299999999, 0.92469807, 0.75], "properties": {"magmom": 0.0}, "label": "Tl", "xyz": [-2.2348147462410184, 5.965318878680201, 7.992880905]}, {"species": [{"element": "Tl", "occu": 1}], "abc": [0.92469807, 0.493300299999999, 0.75], "properties": {"magmom": 0.0}, "label": "Tl", "xyz": [2.2348147462410184, 5.965318878680201, 7.992880905]}, {"species": [{"element": "Tl", "occu": 1}], "abc": [0.5066997, 0.07530193, 0.25], "properties": {"magmom": 0.0}, "label": "Tl", "xyz": [2.234814746241013, 2.4483986613197954, 2.664293635]}]}, "task_ids": null, "uncorrected_energy_per_atom": null, "energy_per_atom": -44.762727936875, "formation_energy_per_atom": -0.49917893625000404, "energy_above_hull": 0.0, "is_stable": true, "equilibrium_reaction_energy_per_atom": null, "decomposes_to": null, "xas": null, "grain_boundaries": null, "band_gap": 0.0, "cbm": null, "vbm": null, "efermi": 5.60299854, "is_gap_direct": null, "is_metal": null, "es_source_calc_id": null, "bandstructure": null, "dos": null, "dos_energy_up": null, "dos_energy_down": null, "is_magnetic": null, "ordering": null, "total_magnetization": 8.7e-06, "total_magnetization_normalized_vol": null, "total_magnetization_normalized_formula_units": null, "num_magnetic_sites": null, "num_unique_magnetic_sites": null, "types_of_magnetic_species": null, "bulk_modulus": null, "shear_modulus": null, "universal_anisotropy": null, "homogeneous_poisson": null, "e_total": null, "e_ionic": null, "e_electronic": null, "n": null, "e_ij_max": null, "weighted_surface_energy_EV_PER_ANG2": null, "weighted_surface_energy": null, "weighted_work_function": null, "surface_anisotropy": null, "shape_factor": null, "has_reconstructed": null, "possible_species": null, "has_props": null, "theoretical": null, "database_IDs": null, "fields_not_requested": ["builder_meta", "nsites", "elements", "nelements", "composition", "composition_reduced", "chemsys", "symmetry", "property_name", "deprecated", "deprecation_reasons", "last_updated", "origins", "warnings", "task_ids", "uncorrected_energy_per_atom", "equilibrium_reaction_energy_per_atom", "decomposes_to", "xas", "grain_boundaries", "cbm", "vbm", "is_gap_direct", "is_metal", "es_source_calc_id", "bandstructure", "dos", "dos_energy_up", "dos_energy_down", "is_magnetic", "ordering", "total_magnetization_normalized_vol", "total_magnetization_normalized_formula_units", "num_magnetic_sites", "num_unique_magnetic_sites", "types_of_magnetic_species", "bulk_modulus", "shear_modulus", "universal_anisotropy", "homogeneous_poisson", "e_total", "e_ionic", "e_electronic", "n", "e_ij_max", "weighted_surface_energy_EV_PER_ANG2", "weighted_surface_energy", "weighted_work_function", "surface_anisotropy", "shape_factor", "has_reconstructed", "possible_species", "has_props", "theoretical", "database_IDs"]}