{"builder_meta": null, "nsites": null, "elements": null, "nelements": null, "composition": null, "composition_reduced": null, "formula_pretty": "Pr3Te4", "formula_anonymous": "A3B4", "chemsys": null, "volume": 444.8147823768404, "density": 6.966886775374007, "density_atomic": 31.772484455488602, "symmetry": null, "property_name": null, "material_id": "mp-2127", "deprecated": null, "deprecation_reasons": null, "last_updated": null, "origins": null, "warnings": null, "structure": {"@module": "pymatgen.core.structure", "@class": "Structure", "charge": 0, "lattice": {"matrix": [[7.85276998, 0.00086692, -2.7764339700000003], [-3.92556624, 6.80079286, -2.77624483], [-0.00021198, -0.00013574, 8.32870261]], "pbc": [true, true, true], "a": 8.329140573919343, "b": 8.328768767672472, "c": 8.328702613803767, "alpha": 109.4712169766057, "beta": 109.47307139470679, "gamma": 109.46139531760318, "volume": 444.8147823768404}, "properties": {}, "sites": [{"species": [{"element": "Pr", "occu": 1}], "abc": [0.7499759300000001, 0.87497543, 0.12500276], "properties": {"magmom": -0.0}, "label": "Pr", "xyz": [2.4545879619040334, 5.9511598582780225, -3.470293849179666]}, {"species": [{"element": "Pr", "occu": 1}], "abc": [0.6249534, 0.37495944000000003, 0.24995461], "properties": {"magmom": -0.0}, "label": "Pr", "xyz": [3.4356341940073984, 2.550529338104365, -0.6943234434981611]}, {"species": [{"element": "Pr", "occu": 1}], "abc": [0.87497734, 0.12499775, 0.74997301], "properties": {"magmom": -0.0}, "label": "Pr", "xyz": [6.380149861977634, 0.8507405397352804, 3.4699609988611844]}, {"species": [{"element": "Pr", "occu": 1}], "abc": [0.12503431, 0.75004319, 0.87501366], "properties": {"magmom": -0.0}, "label": "Pr", "xyz": [-1.9626640345635384, 5.100877991633439, 4.858275519613935]}, {"species": [{"element": "Pr", "occu": 1}], "abc": [0.37504442, 0.25002574, 0.62502356], "properties": {"magmom": -0.0}, "label": "Pr", "xyz": [1.9635124659732452, 1.7006135602187682, 3.4702166194946207]}, {"species": [{"element": "Pr", "occu": 1}], "abc": [0.25002824, 0.62502504, 0.37502426], "properties": {"magmom": -0.0}, "label": "Pr", "xyz": [-0.49024243659704947, 4.250831678041983, 0.6940560981594626]}, {"species": [{"element": "Te", "occu": 1}], "abc": [0.64860584, 0.64862327, 0.64862154], "properties": {"magmom": 0.0}, "label": "Te", "xyz": [2.5470013632202284, 4.411626748932824, 1.8006276258286409]}, {"species": [{"element": "Te", "occu": 1}], "abc": [0.35138925, 0.49998822, 0.99999662], "properties": {"magmom": -0.0}, "label": "Te", "xyz": [0.7964300975815142, 3.4004852034875204, 5.964975697756453]}, {"species": [{"element": "Te", "occu": 1}], "abc": [0.49998634000000003, 0.9999912, 0.35139688], "properties": {"magmom": -0.0}, "label": "Te", "xyz": [0.0006715370343628013, 6.801118762568213, -1.2377193463556089]}, {"species": [{"element": "Te", "occu": 1}], "abc": [2.038e-05, 0.35138744, 0.49999399], "properties": {"magmom": -0.0}, "label": "Te", "xyz": [-1.3793406208978336, 2.389645341529305, 3.1887071021460707]}, {"species": [{"element": "Te", "occu": 1}], "abc": [0.50001532, 6.45e-06, 0.8514139], "properties": {"magmom": 0.0}, "label": "Te", "xyz": [3.926299491815324, 0.0003617674723754, 5.7028957443727055]}, {"species": [{"element": "Te", "occu": 1}], "abc": [0.99995824, 0.8513672, 0.49997138], "properties": {"magmom": -0.0}, "label": "Te", "xyz": [4.510237726229174, 5.790770992680491, -0.9758088760176866]}, {"species": [{"element": "Te", "occu": 1}], "abc": [0.14862954, 0.14860926, 0.14861648], "properties": {"magmom": -0.0}, "label": "Te", "xyz": [0.5837465921243965, 1.010769471057705, 0.41254667129841327]}, {"species": [{"element": "Te", "occu": 1}], "abc": [0.85138046, 0.50000235, 0.99999637], "properties": {"magmom": 0.0}, "label": "Te", "xyz": [4.722690593535414, 3.4010147511043405, 4.576741807095949]}]}, "task_ids": null, "uncorrected_energy_per_atom": null, "energy_per_atom": -28.818625537857145, "formation_energy_per_atom": -1.692801774285718, "energy_above_hull": 0.011497425714285001, "is_stable": false, "equilibrium_reaction_energy_per_atom": null, "decomposes_to": null, "xas": null, "grain_boundaries": null, "band_gap": 0.0, "cbm": null, "vbm": null, "efermi": 6.57914564, "is_gap_direct": null, "is_metal": null, "es_source_calc_id": null, "bandstructure": null, "dos": null, "dos_energy_up": null, "dos_energy_down": null, "is_magnetic": null, "ordering": null, "total_magnetization": 4e-07, "total_magnetization_normalized_vol": null, "total_magnetization_normalized_formula_units": null, "num_magnetic_sites": null, "num_unique_magnetic_sites": null, "types_of_magnetic_species": null, "bulk_modulus": null, "shear_modulus": null, "universal_anisotropy": null, "homogeneous_poisson": null, "e_total": null, "e_ionic": null, "e_electronic": null, "n": null, "e_ij_max": null, "weighted_surface_energy_EV_PER_ANG2": null, "weighted_surface_energy": null, "weighted_work_function": null, "surface_anisotropy": null, "shape_factor": null, "has_reconstructed": null, "possible_species": null, "has_props": null, "theoretical": null, "database_IDs": null, "fields_not_requested": ["builder_meta", "nsites", "elements", "nelements", "composition", "composition_reduced", "chemsys", "symmetry", "property_name", "deprecated", "deprecation_reasons", "last_updated", "origins", "warnings", "task_ids", "uncorrected_energy_per_atom", "equilibrium_reaction_energy_per_atom", "decomposes_to", "xas", "grain_boundaries", "cbm", "vbm", "is_gap_direct", "is_metal", "es_source_calc_id", "bandstructure", "dos", "dos_energy_up", "dos_energy_down", "is_magnetic", "ordering", "total_magnetization_normalized_vol", "total_magnetization_normalized_formula_units", "num_magnetic_sites", "num_unique_magnetic_sites", "types_of_magnetic_species", "bulk_modulus", "shear_modulus", "universal_anisotropy", "homogeneous_poisson", "e_total", "e_ionic", "e_electronic", "n", "e_ij_max", "weighted_surface_energy_EV_PER_ANG2", "weighted_surface_energy", "weighted_work_function", "surface_anisotropy", "shape_factor", "has_reconstructed", "possible_species", "has_props", "theoretical", "database_IDs"]}