{
  "builder_meta": null,
  "nsites": null,
  "elements": null,
  "nelements": null,
  "composition": null,
  "composition_reduced": null,
  "formula_pretty": "Pr3Tm",
  "formula_anonymous": "AB3",
  "chemsys": null,
  "volume": 284.65808499381325,
  "density": 6.902806419392301,
  "density_atomic": 35.582260624226656,
  "symmetry": null,
  "property_name": null,
  "material_id": "mp-1186741",
  "deprecated": null,
  "deprecation_reasons": null,
  "last_updated": null,
  "origins": null,
  "warnings": null,
  "structure": {
    "@module": "pymatgen.core.structure",
    "@class": "Structure",
    "charge": 0,
    "lattice": {
      "matrix": [
        [3.73585367, -6.47068908, 0.0],
        [3.73585367, 6.47068908, -0.0],
        [-0.0, -0.0, 5.88780121]
      ],
      "pbc": [true, true, true],
      "a": 7.471707958270565,
      "b": 7.471707958270565,
      "c": 5.88780121,
      "alpha": 90.0,
      "beta": 90.0,
      "gamma": 120.00000547457839,
      "volume": 284.65808499381325
    },
    "properties": {},
    "sites": [
      {
        "species": [{ "element": "Pr", "occu": 1 }],
        "abc": [0.16901941, 0.33803783, 0.25],
        "properties": { "magmom": 0.14200000000000002 },
        "label": "Pr",
        "xyz": [1.8942916509540708, 1.0936656446128532, 1.4719503025]
      },
      {
        "species": [{ "element": "Pr", "occu": 1 }],
        "abc": [0.66196217, 0.83098059, 0.25],
        "properties": { "magmom": 0.14200000000000002 },
        "label": "Pr",
        "xyz": [5.57741568904593, 1.0936656446128534, 1.4719503025]
      },
      {
        "species": [{ "element": "Pr", "occu": 1 }],
        "abc": [0.16901941, 0.83098059, 0.25],
        "properties": { "magmom": 0.14200000000000002 },
        "label": "Pr",
        "xyz": [3.73585367, 4.2833449788099145, 1.4719503025]
      },
      {
        "species": [{ "element": "Pr", "occu": 1 }],
        "abc": [0.83098059, 0.66196217, 0.75],
        "properties": { "magmom": 0.14200000000000002 },
        "label": "Pr",
        "xyz": [5.57741568904593, -1.0936656446128534, 4.4158509075]
      },
      {
        "species": [{ "element": "Pr", "occu": 1 }],
        "abc": [0.33803783, 0.16901941, 0.75],
        "properties": { "magmom": 0.14200000000000002 },
        "label": "Pr",
        "xyz": [1.8942916509540708, -1.0936656446128532, 4.4158509075]
      },
      {
        "species": [{ "element": "Pr", "occu": 1 }],
        "abc": [0.83098059, 0.16901941, 0.75],
        "properties": { "magmom": 0.14200000000000002 },
        "label": "Pr",
        "xyz": [3.73585367, -4.2833449788099145, 4.4158509075]
      },
      {
        "species": [{ "element": "Tm", "occu": 1 }],
        "abc": [0.333333, 0.666667, 0.75],
        "properties": { "magmom": 0.234 },
        "label": "Tm",
        "xyz": [3.73585367, 2.1569006737927197, 4.4158509075]
      },
      {
        "species": [{ "element": "Tm", "occu": 1 }],
        "abc": [0.666667, 0.333333, 0.25],
        "properties": { "magmom": 0.234 },
        "label": "Tm",
        "xyz": [3.73585367, -2.1569006737927197, 1.4719503025]
      }
    ]
  },
  "task_ids": null,
  "uncorrected_energy_per_atom": null,
  "energy_per_atom": -30.79677397625,
  "formation_energy_per_atom": 0.0364553725,
  "energy_above_hull": 0.0364553725,
  "is_stable": false,
  "equilibrium_reaction_energy_per_atom": null,
  "decomposes_to": null,
  "xas": null,
  "grain_boundaries": null,
  "band_gap": 0.0,
  "cbm": null,
  "vbm": null,
  "efermi": 3.34461881,
  "is_gap_direct": null,
  "is_metal": null,
  "es_source_calc_id": null,
  "bandstructure": null,
  "dos": null,
  "dos_energy_up": null,
  "dos_energy_down": null,
  "is_magnetic": null,
  "ordering": null,
  "total_magnetization": 2.5324221,
  "total_magnetization_normalized_vol": null,
  "total_magnetization_normalized_formula_units": null,
  "num_magnetic_sites": null,
  "num_unique_magnetic_sites": null,
  "types_of_magnetic_species": null,
  "bulk_modulus": null,
  "shear_modulus": null,
  "universal_anisotropy": null,
  "homogeneous_poisson": null,
  "e_total": null,
  "e_ionic": null,
  "e_electronic": null,
  "n": null,
  "e_ij_max": null,
  "weighted_surface_energy_EV_PER_ANG2": null,
  "weighted_surface_energy": null,
  "weighted_work_function": null,
  "surface_anisotropy": null,
  "shape_factor": null,
  "has_reconstructed": null,
  "possible_species": null,
  "has_props": null,
  "theoretical": null,
  "database_IDs": null,
  "fields_not_requested": [
    "builder_meta",
    "nsites",
    "elements",
    "nelements",
    "composition",
    "composition_reduced",
    "chemsys",
    "symmetry",
    "property_name",
    "deprecated",
    "deprecation_reasons",
    "last_updated",
    "origins",
    "warnings",
    "task_ids",
    "uncorrected_energy_per_atom",
    "equilibrium_reaction_energy_per_atom",
    "decomposes_to",
    "xas",
    "grain_boundaries",
    "cbm",
    "vbm",
    "is_gap_direct",
    "is_metal",
    "es_source_calc_id",
    "bandstructure",
    "dos",
    "dos_energy_up",
    "dos_energy_down",
    "is_magnetic",
    "ordering",
    "total_magnetization_normalized_vol",
    "total_magnetization_normalized_formula_units",
    "num_magnetic_sites",
    "num_unique_magnetic_sites",
    "types_of_magnetic_species",
    "bulk_modulus",
    "shear_modulus",
    "universal_anisotropy",
    "homogeneous_poisson",
    "e_total",
    "e_ionic",
    "e_electronic",
    "n",
    "e_ij_max",
    "weighted_surface_energy_EV_PER_ANG2",
    "weighted_surface_energy",
    "weighted_work_function",
    "surface_anisotropy",
    "shape_factor",
    "has_reconstructed",
    "possible_species",
    "has_props",
    "theoretical",
    "database_IDs"
  ]
}
