{
  "builder_meta": null,
  "nsites": null,
  "elements": null,
  "nelements": null,
  "composition": null,
  "composition_reduced": null,
  "formula_pretty": "Pr3Zr",
  "formula_anonymous": "AB3",
  "chemsys": null,
  "volume": 260.9233191638666,
  "density": 6.541607636831733,
  "density_atomic": 32.615414895483326,
  "symmetry": null,
  "property_name": null,
  "material_id": "mp-1186743",
  "deprecated": null,
  "deprecation_reasons": null,
  "last_updated": null,
  "origins": null,
  "warnings": null,
  "structure": {
    "@module": "pymatgen.core.structure",
    "@class": "Structure",
    "charge": 0,
    "lattice": {
      "matrix": [
        [3.584397, -6.208358, 0.0],
        [3.584397, 6.208358, 0.0],
        [0.0, 0.0, 5.862597]
      ],
      "pbc": [true, true, true],
      "a": 7.168794243788351,
      "b": 7.168794243788351,
      "c": 5.862597,
      "alpha": 90.0,
      "beta": 90.0,
      "gamma": 120.00000224987731,
      "volume": 260.9233191638666
    },
    "properties": {},
    "sites": [
      {
        "species": [{ "element": "Pr", "occu": 1 }],
        "abc": [0.172123, 0.344246, 0.25],
        "properties": { "magmom": 0.0 },
        "label": "Pr",
        "xyz": [1.850871494493, 1.0686012040339998, 1.46564925]
      },
      {
        "species": [{ "element": "Pr", "occu": 1 }],
        "abc": [0.655754, 0.827877, 0.25],
        "properties": { "magmom": 0.0 },
        "label": "Pr",
        "xyz": [5.317922505506999, 1.0686012040339996, 1.46564925]
      },
      {
        "species": [{ "element": "Pr", "occu": 1 }],
        "abc": [0.172123, 0.827877, 0.25],
        "properties": { "magmom": 0.0 },
        "label": "Pr",
        "xyz": [3.584397, 4.0711555919319995, 1.46564925]
      },
      {
        "species": [{ "element": "Pr", "occu": 1 }],
        "abc": [0.827877, 0.655754, 0.75],
        "properties": { "magmom": 0.0 },
        "label": "Pr",
        "xyz": [5.317922505506999, -1.0686012040339996, 4.39694775]
      },
      {
        "species": [{ "element": "Pr", "occu": 1 }],
        "abc": [0.344246, 0.172123, 0.75],
        "properties": { "magmom": 0.0 },
        "label": "Pr",
        "xyz": [1.850871494493, -1.0686012040339998, 4.39694775]
      },
      {
        "species": [{ "element": "Pr", "occu": 1 }],
        "abc": [0.827877, 0.172123, 0.75],
        "properties": { "magmom": 0.0 },
        "label": "Pr",
        "xyz": [3.584397, -4.0711555919319995, 4.39694775]
      },
      {
        "species": [{ "element": "Zr", "occu": 1 }],
        "abc": [0.333333, 0.666667, 0.75],
        "properties": { "magmom": -0.0 },
        "label": "Zr",
        "xyz": [3.584397, 2.069456805572, 4.39694775]
      },
      {
        "species": [{ "element": "Zr", "occu": 1 }],
        "abc": [0.666667, 0.333333, 0.25],
        "properties": { "magmom": -0.0 },
        "label": "Zr",
        "xyz": [3.584397, -2.069456805572, 1.46564925]
      }
    ]
  },
  "task_ids": null,
  "uncorrected_energy_per_atom": null,
  "energy_per_atom": -27.5797229425,
  "formation_energy_per_atom": 0.160692310000001,
  "energy_above_hull": 0.160692310000001,
  "is_stable": false,
  "equilibrium_reaction_energy_per_atom": null,
  "decomposes_to": null,
  "xas": null,
  "grain_boundaries": null,
  "band_gap": 0.0,
  "cbm": null,
  "vbm": null,
  "efermi": 3.59570031,
  "is_gap_direct": null,
  "is_metal": null,
  "es_source_calc_id": null,
  "bandstructure": null,
  "dos": null,
  "dos_energy_up": null,
  "dos_energy_down": null,
  "is_magnetic": null,
  "ordering": null,
  "total_magnetization": 0.0045182,
  "total_magnetization_normalized_vol": null,
  "total_magnetization_normalized_formula_units": null,
  "num_magnetic_sites": null,
  "num_unique_magnetic_sites": null,
  "types_of_magnetic_species": null,
  "bulk_modulus": null,
  "shear_modulus": null,
  "universal_anisotropy": null,
  "homogeneous_poisson": null,
  "e_total": null,
  "e_ionic": null,
  "e_electronic": null,
  "n": null,
  "e_ij_max": null,
  "weighted_surface_energy_EV_PER_ANG2": null,
  "weighted_surface_energy": null,
  "weighted_work_function": null,
  "surface_anisotropy": null,
  "shape_factor": null,
  "has_reconstructed": null,
  "possible_species": null,
  "has_props": null,
  "theoretical": null,
  "database_IDs": null,
  "fields_not_requested": [
    "builder_meta",
    "nsites",
    "elements",
    "nelements",
    "composition",
    "composition_reduced",
    "chemsys",
    "symmetry",
    "property_name",
    "deprecated",
    "deprecation_reasons",
    "last_updated",
    "origins",
    "warnings",
    "task_ids",
    "uncorrected_energy_per_atom",
    "equilibrium_reaction_energy_per_atom",
    "decomposes_to",
    "xas",
    "grain_boundaries",
    "cbm",
    "vbm",
    "is_gap_direct",
    "is_metal",
    "es_source_calc_id",
    "bandstructure",
    "dos",
    "dos_energy_up",
    "dos_energy_down",
    "is_magnetic",
    "ordering",
    "total_magnetization_normalized_vol",
    "total_magnetization_normalized_formula_units",
    "num_magnetic_sites",
    "num_unique_magnetic_sites",
    "types_of_magnetic_species",
    "bulk_modulus",
    "shear_modulus",
    "universal_anisotropy",
    "homogeneous_poisson",
    "e_total",
    "e_ionic",
    "e_electronic",
    "n",
    "e_ij_max",
    "weighted_surface_energy_EV_PER_ANG2",
    "weighted_surface_energy",
    "weighted_work_function",
    "surface_anisotropy",
    "shape_factor",
    "has_reconstructed",
    "possible_species",
    "has_props",
    "theoretical",
    "database_IDs"
  ]
}
