{"builder_meta": null, "nsites": null, "elements": null, "nelements": null, "composition": null, "composition_reduced": null, "formula_pretty": "Pr4Al", "formula_anonymous": "AB4", "chemsys": null, "volume": 384.5059757345071, "density": 5.10127067585888, "density_atomic": 38.45059757345071, "symmetry": null, "property_name": null, "material_id": "mp-1209724", "deprecated": null, "deprecation_reasons": null, "last_updated": null, "origins": null, "warnings": null, "structure": {"@module": "pymatgen.core.structure", "@class": "Structure", "charge": 0, "lattice": {"matrix": [[-5.7715309999999995, -5.7715309999999995, 0.0], [-5.7715309999999995, 0.0, -5.7715309999999995], [0.0, -5.7715309999999995, -5.7715309999999995]], "pbc": [true, true, true], "a": 8.162177415856751, "b": 8.162177415856751, "c": 8.162177415856751, "alpha": 59.99999999999999, "beta": 59.99999999999999, "gamma": 59.99999999999999, "volume": 384.50597573450693}, "properties": {}, "sites": [{"species": [{"element": "Pr", "occu": 1}], "abc": [0.607179, 0.607179, 0.607179], "properties": {"magmom": 0.012}, "label": "Pr", "xyz": [-7.008704842098, -7.008704842098, -7.008704842098]}, {"species": [{"element": "Pr", "occu": 1}], "abc": [0.178461999999999, 0.607179, 0.607179], "properties": {"magmom": 0.012}, "label": "Pr", "xyz": [-4.534351386370995, -4.534351386370995, -7.008704842098]}, {"species": [{"element": "Pr", "occu": 1}], "abc": [0.607179, 0.178461999999999, 0.607179], "properties": {"magmom": 0.012}, "label": "Pr", "xyz": [-4.534351386370995, -7.008704842098, -4.534351386370995]}, {"species": [{"element": "Pr", "occu": 1}], "abc": [0.571538, 0.142821, 0.142821], "properties": {"magmom": 0.012}, "label": "Pr", "xyz": [-4.122945113628999, -4.122945113628999, -1.648591657902]}, {"species": [{"element": "Pr", "occu": 1}], "abc": [0.142821, 0.142821, 0.142821], "properties": {"magmom": 0.012}, "label": "Pr", "xyz": [-1.648591657902, -1.648591657902, -1.648591657902]}, {"species": [{"element": "Pr", "occu": 1}], "abc": [0.607179, 0.607179, 0.178461999999999], "properties": {"magmom": 0.013000000000000001}, "label": "Pr", "xyz": [-7.008704842098, -4.534351386370995, -4.534351386370995]}, {"species": [{"element": "Pr", "occu": 1}], "abc": [0.142821, 0.571538, 0.142821], "properties": {"magmom": 0.012}, "label": "Pr", "xyz": [-4.122945113628999, -1.648591657902, -4.122945113628999]}, {"species": [{"element": "Pr", "occu": 1}], "abc": [0.142821, 0.142821, 0.571538], "properties": {"magmom": 0.013000000000000001}, "label": "Pr", "xyz": [-1.648591657902, -4.122945113628999, -4.122945113628999]}, {"species": [{"element": "Al", "occu": 1}], "abc": [0.0, 0.0, 0.0], "properties": {"magmom": 0.002}, "label": "Al", "xyz": [0.0, 0.0, 0.0]}, {"species": [{"element": "Al", "occu": 1}], "abc": [0.75, 0.75, 0.75], "properties": {"magmom": 0.002}, "label": "Al", "xyz": [-8.6572965, -8.6572965, -8.6572965]}]}, "task_ids": null, "uncorrected_energy_per_atom": null, "energy_per_atom": -24.438967086999998, "formation_energy_per_atom": 0.43061767366667103, "energy_above_hull": 0.607066167000002, "is_stable": false, "equilibrium_reaction_energy_per_atom": null, "decomposes_to": null, "xas": null, "grain_boundaries": null, "band_gap": 0.0, "cbm": null, "vbm": null, "efermi": 2.72227702, "is_gap_direct": null, "is_metal": null, "es_source_calc_id": null, "bandstructure": null, "dos": null, "dos_energy_up": null, "dos_energy_down": null, "is_magnetic": null, "ordering": null, "total_magnetization": 0.2684025, "total_magnetization_normalized_vol": null, "total_magnetization_normalized_formula_units": null, "num_magnetic_sites": null, "num_unique_magnetic_sites": null, "types_of_magnetic_species": null, "bulk_modulus": null, "shear_modulus": null, "universal_anisotropy": null, "homogeneous_poisson": null, "e_total": null, "e_ionic": null, "e_electronic": null, "n": null, "e_ij_max": null, "weighted_surface_energy_EV_PER_ANG2": null, "weighted_surface_energy": null, "weighted_work_function": null, "surface_anisotropy": null, "shape_factor": null, "has_reconstructed": null, "possible_species": null, "has_props": null, "theoretical": null, "database_IDs": null, "fields_not_requested": ["builder_meta", "nsites", "elements", "nelements", "composition", "composition_reduced", "chemsys", "symmetry", "property_name", "deprecated", "deprecation_reasons", "last_updated", "origins", "warnings", "task_ids", "uncorrected_energy_per_atom", "equilibrium_reaction_energy_per_atom", "decomposes_to", "xas", "grain_boundaries", "cbm", "vbm", "is_gap_direct", "is_metal", "es_source_calc_id", "bandstructure", "dos", "dos_energy_up", "dos_energy_down", "is_magnetic", "ordering", "total_magnetization_normalized_vol", "total_magnetization_normalized_formula_units", "num_magnetic_sites", "num_unique_magnetic_sites", "types_of_magnetic_species", "bulk_modulus", "shear_modulus", "universal_anisotropy", "homogeneous_poisson", "e_total", "e_ionic", "e_electronic", "n", "e_ij_max", "weighted_surface_energy_EV_PER_ANG2", "weighted_surface_energy", "weighted_work_function", "surface_anisotropy", "shape_factor", "has_reconstructed", "possible_species", "has_props", "theoretical", "database_IDs"]}