{
  "builder_meta": null,
  "nsites": null,
  "elements": null,
  "nelements": null,
  "composition": null,
  "composition_reduced": null,
  "formula_pretty": "Pr4As3",
  "formula_anonymous": "A3B4",
  "chemsys": null,
  "volume": 377.1337819575905,
  "density": 6.9426894341433,
  "density_atomic": 26.938127282685034,
  "symmetry": null,
  "property_name": null,
  "material_id": "mp-2365",
  "deprecated": null,
  "deprecation_reasons": null,
  "last_updated": null,
  "origins": null,
  "warnings": null,
  "structure": {
    "@module": "pymatgen.core.structure",
    "@class": "Structure",
    "charge": 0,
    "lattice": {
      "matrix": [
        [7.43240775, 0.0, -2.62775283],
        [-3.71620387, 6.43665367, -2.62775283],
        [-0.0, -0.0, 7.88325848]
      ],
      "pbc": [true, true, true],
      "a": 7.883258837424601,
      "b": 7.883258628670029,
      "c": 7.88325848,
      "alpha": 109.471220278159,
      "beta": 109.47121974173542,
      "gamma": 109.4712220273294,
      "volume": 377.1337819575905
    },
    "properties": {},
    "sites": [
      {
        "species": [{ "element": "Pr", "occu": 1 }],
        "abc": [0.13261452, 0.13261452, 0.13261452],
        "properties": { "magmom": -0.0 },
        "label": "Pr",
        "xyz": [0.49282259376833765, 0.8535937368532885, 0.3484781789029465]
      },
      {
        "species": [{ "element": "Pr", "occu": 1 }],
        "abc": [0.86738548, 0.5, -0.0],
        "properties": { "magmom": -0.0 },
        "label": "Pr",
        "xyz": [4.588660628789471, 3.218326835, -3.5931510647709084]
      },
      {
        "species": [{ "element": "Pr", "occu": 1 }],
        "abc": [0.0, 0.86738548, 0.5],
        "properties": { "magmom": -0.0 },
        "label": "Pr",
        "xyz": [-3.223381277557808, 5.583059933146712, 1.6623545902290915]
      },
      {
        "species": [{ "element": "Pr", "occu": 1 }],
        "abc": [0.5, 0.0, 0.86738548],
        "properties": { "magmom": -0.0 },
        "label": "Pr",
        "xyz": [3.716203875, 0.0, 5.523947525638871]
      },
      {
        "species": [{ "element": "Pr", "occu": 1 }],
        "abc": [0.0, 0.36738548, 0.5],
        "properties": { "magmom": -0.0 },
        "label": "Pr",
        "xyz": [-1.3652793425578076, 2.3647330981467114, 2.9762310052290917]
      },
      {
        "species": [{ "element": "Pr", "occu": 1 }],
        "abc": [0.5, 0.0, 0.36738548],
        "properties": { "magmom": -0.0 },
        "label": "Pr",
        "xyz": [3.716203875, 0.0, 1.5823182856388704]
      },
      {
        "species": [{ "element": "Pr", "occu": 1 }],
        "abc": [0.36738548, 0.5, -0.0],
        "properties": { "magmom": -0.0 },
        "label": "Pr",
        "xyz": [0.8724567537894701, 3.218326835, -2.279274649770908]
      },
      {
        "species": [{ "element": "Pr", "occu": 1 }],
        "abc": [0.63261452, 0.63261452, 0.63261452],
        "properties": { "magmom": -0.0 },
        "label": "Pr",
        "xyz": [2.350924533768338, 4.071920571853288, 1.6623545889029465]
      },
      {
        "species": [{ "element": "As", "occu": 1 }],
        "abc": [0.25, 0.625, 0.375],
        "properties": { "magmom": -0.0 },
        "label": "As",
        "xyz": [-0.46452548125000015, 4.02290854375, 0.6569382037499998]
      },
      {
        "species": [{ "element": "As", "occu": 1 }],
        "abc": [0.375, 0.25, 0.625],
        "properties": { "magmom": -0.0 },
        "label": "As",
        "xyz": [1.8581019387500002, 1.6091634175, 3.2846910312500004]
      },
      {
        "species": [{ "element": "As", "occu": 1 }],
        "abc": [0.125, 0.75, 0.875],
        "properties": { "magmom": -0.0 },
        "label": "As",
        "xyz": [-1.85810193375, 4.8274902525000005, 4.59856744375]
      },
      {
        "species": [{ "element": "As", "occu": 1 }],
        "abc": [0.875, 0.125, 0.75],
        "properties": { "magmom": -0.0 },
        "label": "As",
        "xyz": [6.0388312975, 0.80458170875, 3.28469103]
      },
      {
        "species": [{ "element": "As", "occu": 1 }],
        "abc": [0.625, 0.375, 0.25],
        "properties": { "magmom": -0.0 },
        "label": "As",
        "xyz": [3.2516783925, 2.4137451262500003, -0.6569382099999999]
      },
      {
        "species": [{ "element": "As", "occu": 1 }],
        "abc": [0.75, 0.875, 0.125],
        "properties": { "magmom": -0.0 },
        "label": "As",
        "xyz": [2.3226274262500004, 5.63207196125, -3.28469103875]
      }
    ]
  },
  "task_ids": null,
  "uncorrected_energy_per_atom": null,
  "energy_per_atom": -24.563050627142854,
  "formation_energy_per_atom": -1.457562279166662,
  "energy_above_hull": 0.05106845690476101,
  "is_stable": false,
  "equilibrium_reaction_energy_per_atom": null,
  "decomposes_to": null,
  "xas": null,
  "grain_boundaries": null,
  "band_gap": 0.0,
  "cbm": null,
  "vbm": null,
  "efermi": 4.71310739,
  "is_gap_direct": null,
  "is_metal": null,
  "es_source_calc_id": null,
  "bandstructure": null,
  "dos": null,
  "dos_energy_up": null,
  "dos_energy_down": null,
  "is_magnetic": null,
  "ordering": null,
  "total_magnetization": 4e-7,
  "total_magnetization_normalized_vol": null,
  "total_magnetization_normalized_formula_units": null,
  "num_magnetic_sites": null,
  "num_unique_magnetic_sites": null,
  "types_of_magnetic_species": null,
  "bulk_modulus": null,
  "shear_modulus": null,
  "universal_anisotropy": null,
  "homogeneous_poisson": null,
  "e_total": null,
  "e_ionic": null,
  "e_electronic": null,
  "n": null,
  "e_ij_max": null,
  "weighted_surface_energy_EV_PER_ANG2": null,
  "weighted_surface_energy": null,
  "weighted_work_function": null,
  "surface_anisotropy": null,
  "shape_factor": null,
  "has_reconstructed": null,
  "possible_species": null,
  "has_props": null,
  "theoretical": null,
  "database_IDs": null,
  "fields_not_requested": [
    "builder_meta",
    "nsites",
    "elements",
    "nelements",
    "composition",
    "composition_reduced",
    "chemsys",
    "symmetry",
    "property_name",
    "deprecated",
    "deprecation_reasons",
    "last_updated",
    "origins",
    "warnings",
    "task_ids",
    "uncorrected_energy_per_atom",
    "equilibrium_reaction_energy_per_atom",
    "decomposes_to",
    "xas",
    "grain_boundaries",
    "cbm",
    "vbm",
    "is_gap_direct",
    "is_metal",
    "es_source_calc_id",
    "bandstructure",
    "dos",
    "dos_energy_up",
    "dos_energy_down",
    "is_magnetic",
    "ordering",
    "total_magnetization_normalized_vol",
    "total_magnetization_normalized_formula_units",
    "num_magnetic_sites",
    "num_unique_magnetic_sites",
    "types_of_magnetic_species",
    "bulk_modulus",
    "shear_modulus",
    "universal_anisotropy",
    "homogeneous_poisson",
    "e_total",
    "e_ionic",
    "e_electronic",
    "n",
    "e_ij_max",
    "weighted_surface_energy_EV_PER_ANG2",
    "weighted_surface_energy",
    "weighted_work_function",
    "surface_anisotropy",
    "shape_factor",
    "has_reconstructed",
    "possible_species",
    "has_props",
    "theoretical",
    "database_IDs"
  ]
}
