{"builder_meta": null, "nsites": null, "elements": null, "nelements": null, "composition": null, "composition_reduced": null, "formula_pretty": "Pr4Bi3", "formula_anonymous": "A3B4", "chemsys": null, "volume": 464.1690564883751, "density": 8.518409221196306, "density_atomic": 33.15493260631251, "symmetry": null, "property_name": null, "material_id": "mp-23314", "deprecated": null, "deprecation_reasons": null, "last_updated": null, "origins": null, "warnings": null, "structure": {"@module": "pymatgen.core.structure", "@class": "Structure", "charge": 0, "lattice": {"matrix": [[7.96507697, 1.3850000000000001e-05, -2.81609166], [-3.98251893, 6.89793123, -2.81607131], [-9.679999999999999e-06, 9.4e-06, 8.44825068]], "pbc": [true, true, true], "a": 8.448243804231609, "b": 8.448205129175237, "c": 8.448250680010775, "alpha": 109.47115370283058, "beta": 109.47136103680583, "gamma": 109.47107344342487, "volume": 464.1690564883751}, "properties": {}, "sites": [{"species": [{"element": "Pr", "occu": 1}], "abc": [0.14150002, 0.14149898, 0.14149476], "properties": {"magmom": -0.0}, "label": "Pr", "xyz": [0.5635348144615712, 0.9760535229811663, 0.39843495820233965]}, {"species": [{"element": "Pr", "occu": 1}], "abc": [0.85850704, 0.49999923, -2.7e-07], "properties": {"magmom": -0.0}, "label": "Pr", "xyz": [4.846818254429059, 3.448972193912919, -3.8256702830480616]}, {"species": [{"element": "Pr", "occu": 1}], "abc": [0.99999969, 0.8585062999999991, 0.50000029], "properties": {"magmom": -0.0}, "label": "Pr", "xyz": [4.546052069549077, 5.9219359679201755, -1.0095779579031392]}, {"species": [{"element": "Pr", "occu": 1}], "abc": [0.50000028, 0.99999954, 0.85850721], "properties": {"magmom": -0.0}, "label": "Pr", "xyz": [1.5306830466649813e-05, 6.897943051923287, 3.02876748755454]}, {"species": [{"element": "Pr", "occu": 1}], "abc": [8e-08, 0.35850348, 0.50000006], "properties": {"magmom": -0.0}, "label": "Pr", "xyz": [-1.4277510983652995, 2.472937050757352, 3.214554257044549]}, {"species": [{"element": "Pr", "occu": 1}], "abc": [0.49999501, -1.249999999999999e-06, 0.35850013000000003], "properties": {"magmom": -0.0}, "label": "Pr", "xyz": [3.9825002471333244, 1.6724180730000069e-06, 1.6206707094391093]}, {"species": [{"element": "Pr", "occu": 1}], "abc": [0.35850535, 0.50000424, 5.2e-06], "properties": {"magmom": -0.0}, "label": "Pr", "xyz": [0.8642463559761906, 3.448999827576393, -2.4175875904391995]}, {"species": [{"element": "Pr", "occu": 1}], "abc": [0.64149269, 0.64149212, 0.64149319], "properties": {"magmom": -0.0}, "label": "Pr", "xyz": [2.5547779305424387, 4.42498344305665, 1.8065055096498268]}, {"species": [{"element": "Bi", "occu": 1}], "abc": [0.25000119, 0.6249987, 0.37499937], "properties": {"magmom": 0.0}, "label": "Bi", "xyz": [-0.49779406302769813, 4.311205038949961, 0.7040215085956989]}, {"species": [{"element": "Bi", "occu": 1}], "abc": [0.37499787, 0.24999872, 0.62499697], "properties": {"magmom": 0.0}, "label": "Bi", "xyz": [1.991256213289615, 1.724485046840043, 3.5200884796469514]}, {"species": [{"element": "Bi", "occu": 1}], "abc": [0.12500084, 0.74999958, 0.87500169], "properties": {"magmom": 0.0}, "label": "Bi", "xyz": [-1.9912546829437534, 5.173455481646403, 4.928167499776604]}, {"species": [{"element": "Bi", "occu": 1}], "abc": [0.8750024200000001, 0.12500217, 0.75000129], "properties": {"magmom": 0.0}, "label": "Bi", "xyz": [6.471630855907702, 0.8622755410564121, 3.520096866176817]}, {"species": [{"element": "Bi", "occu": 1}], "abc": [0.6249987, 0.37499763, 0.24999915], "properties": {"magmom": 0.0}, "label": "Bi", "xyz": [3.4847251714780314, 2.5867188693769902, -0.7040182047549157]}, {"species": [{"element": "Bi", "occu": 1}], "abc": [0.74999881, 0.87500055, 0.12500098], "properties": {"magmom": 0.0}, "label": "Bi", "xyz": [2.4890907849135084, 6.035705182604907, -3.5200897246544787]}]}, "task_ids": null, "uncorrected_energy_per_atom": null, "energy_per_atom": -42.87904827571429, "formation_energy_per_atom": -1.0043844602381, "energy_above_hull": 0.031993597499997, "is_stable": false, "equilibrium_reaction_energy_per_atom": null, "decomposes_to": null, "xas": null, "grain_boundaries": null, "band_gap": 0.0, "cbm": null, "vbm": null, "efermi": 5.00121263, "is_gap_direct": null, "is_metal": null, "es_source_calc_id": null, "bandstructure": null, "dos": null, "dos_energy_up": null, "dos_energy_down": null, "is_magnetic": null, "ordering": null, "total_magnetization": 0.0001163, "total_magnetization_normalized_vol": null, "total_magnetization_normalized_formula_units": null, "num_magnetic_sites": null, "num_unique_magnetic_sites": null, "types_of_magnetic_species": null, "bulk_modulus": null, "shear_modulus": null, "universal_anisotropy": null, "homogeneous_poisson": null, "e_total": null, "e_ionic": null, "e_electronic": null, "n": null, "e_ij_max": null, "weighted_surface_energy_EV_PER_ANG2": null, "weighted_surface_energy": null, "weighted_work_function": null, "surface_anisotropy": null, "shape_factor": null, "has_reconstructed": null, "possible_species": null, "has_props": null, "theoretical": null, "database_IDs": null, "fields_not_requested": ["builder_meta", "nsites", "elements", "nelements", "composition", "composition_reduced", "chemsys", "symmetry", "property_name", "deprecated", "deprecation_reasons", "last_updated", "origins", "warnings", "task_ids", "uncorrected_energy_per_atom", "equilibrium_reaction_energy_per_atom", "decomposes_to", "xas", "grain_boundaries", "cbm", "vbm", "is_gap_direct", "is_metal", "es_source_calc_id", "bandstructure", "dos", "dos_energy_up", "dos_energy_down", "is_magnetic", "ordering", "total_magnetization_normalized_vol", "total_magnetization_normalized_formula_units", "num_magnetic_sites", "num_unique_magnetic_sites", "types_of_magnetic_species", "bulk_modulus", "shear_modulus", "universal_anisotropy", "homogeneous_poisson", "e_total", "e_ionic", "e_electronic", "n", "e_ij_max", "weighted_surface_energy_EV_PER_ANG2", "weighted_surface_energy", "weighted_work_function", "surface_anisotropy", "shape_factor", "has_reconstructed", "possible_species", "has_props", "theoretical", "database_IDs"]}