{"builder_meta": null, "nsites": null, "elements": null, "nelements": null, "composition": null, "composition_reduced": null, "formula_pretty": "Pr4Co", "formula_anonymous": "AB4", "chemsys": null, "volume": 343.43956086314336, "density": 6.020223764845817, "density_atomic": 34.343956086314336, "symmetry": null, "property_name": null, "material_id": "mp-1212172", "deprecated": null, "deprecation_reasons": null, "last_updated": null, "origins": null, "warnings": null, "structure": {"@module": "pymatgen.core.structure", "@class": "Structure", "charge": 0, "lattice": {"matrix": [[0.0, 5.558276, 5.558276], [5.558276, 0.0, 5.558276], [5.558276, 5.558276, 0.0]], "pbc": [true, true, true], "a": 7.860589302612878, "b": 7.860589302612878, "c": 7.860589302612878, "alpha": 59.99999999999999, "beta": 59.99999999999999, "gamma": 59.99999999999999, "volume": 343.43956086314336}, "properties": {}, "sites": [{"species": [{"element": "Pr", "occu": 1}], "abc": [0.384161, 0.384161, 0.384161], "properties": {"magmom": 0.02}, "label": "Pr", "xyz": [4.270545732872, 4.270545732872, 4.270545732872]}, {"species": [{"element": "Pr", "occu": 1}], "abc": [0.384161, 0.384161, 0.847517], "properties": {"magmom": 0.019}, "label": "Pr", "xyz": [6.846006267128, 6.846006267128, 4.270545732872]}, {"species": [{"element": "Pr", "occu": 1}], "abc": [0.384161, 0.847517, 0.384161], "properties": {"magmom": 0.021}, "label": "Pr", "xyz": [6.846006267128, 4.270545732872, 6.846006267128]}, {"species": [{"element": "Pr", "occu": 1}], "abc": [0.865838999999999, 0.865838999999999, 0.402483], "properties": {"magmom": 0.019}, "label": "Pr", "xyz": [7.049683732871995, 7.049683732871995, 9.62514426712799]}, {"species": [{"element": "Pr", "occu": 1}], "abc": [0.865838999999999, 0.865838999999999, 0.865838999999999], "properties": {"magmom": 0.02}, "label": "Pr", "xyz": [9.62514426712799, 9.62514426712799, 9.62514426712799]}, {"species": [{"element": "Pr", "occu": 1}], "abc": [0.847517, 0.384161, 0.384161], "properties": {"magmom": 0.025}, "label": "Pr", "xyz": [4.270545732872, 6.846006267128, 6.846006267128]}, {"species": [{"element": "Pr", "occu": 1}], "abc": [0.865838999999999, 0.402483, 0.865838999999999], "properties": {"magmom": 0.021}, "label": "Pr", "xyz": [7.049683732871995, 9.62514426712799, 7.049683732871995]}, {"species": [{"element": "Pr", "occu": 1}], "abc": [0.402483, 0.865838999999999, 0.865838999999999], "properties": {"magmom": 0.025}, "label": "Pr", "xyz": [9.62514426712799, 7.049683732871995, 7.049683732871995]}, {"species": [{"element": "Co", "occu": 1}], "abc": [0.0, 0.0, 0.0], "properties": {"magmom": 0.039}, "label": "Co", "xyz": [0.0, 0.0, 0.0]}, {"species": [{"element": "Co", "occu": 1}], "abc": [0.25, 0.25, 0.25], "properties": {"magmom": 0.04}, "label": "Co", "xyz": [2.779138, 2.779138, 2.779138]}]}, "task_ids": null, "uncorrected_energy_per_atom": null, "energy_per_atom": -25.828400458029414, "formation_energy_per_atom": 0.34161086263725304, "energy_above_hull": 0.34202086350000005, "is_stable": false, "equilibrium_reaction_energy_per_atom": null, "decomposes_to": null, "xas": null, "grain_boundaries": null, "band_gap": 0.0, "cbm": null, "vbm": null, "efermi": 3.05074994, "is_gap_direct": null, "is_metal": null, "es_source_calc_id": null, "bandstructure": null, "dos": null, "dos_energy_up": null, "dos_energy_down": null, "is_magnetic": null, "ordering": null, "total_magnetization": 0.441027599999999, "total_magnetization_normalized_vol": null, "total_magnetization_normalized_formula_units": null, "num_magnetic_sites": null, "num_unique_magnetic_sites": null, "types_of_magnetic_species": null, "bulk_modulus": null, "shear_modulus": null, "universal_anisotropy": null, "homogeneous_poisson": null, "e_total": null, "e_ionic": null, "e_electronic": null, "n": null, "e_ij_max": null, "weighted_surface_energy_EV_PER_ANG2": null, "weighted_surface_energy": null, "weighted_work_function": null, "surface_anisotropy": null, "shape_factor": null, "has_reconstructed": null, "possible_species": null, "has_props": null, "theoretical": null, "database_IDs": null, "fields_not_requested": ["builder_meta", "nsites", "elements", "nelements", "composition", "composition_reduced", "chemsys", "symmetry", "property_name", "deprecated", "deprecation_reasons", "last_updated", "origins", "warnings", "task_ids", "uncorrected_energy_per_atom", "equilibrium_reaction_energy_per_atom", "decomposes_to", "xas", "grain_boundaries", "cbm", "vbm", "is_gap_direct", "is_metal", "es_source_calc_id", "bandstructure", "dos", "dos_energy_up", "dos_energy_down", "is_magnetic", "ordering", "total_magnetization_normalized_vol", "total_magnetization_normalized_formula_units", "num_magnetic_sites", "num_unique_magnetic_sites", "types_of_magnetic_species", "bulk_modulus", "shear_modulus", "universal_anisotropy", "homogeneous_poisson", "e_total", "e_ionic", "e_electronic", "n", "e_ij_max", "weighted_surface_energy_EV_PER_ANG2", "weighted_surface_energy", "weighted_work_function", "surface_anisotropy", "shape_factor", "has_reconstructed", "possible_species", "has_props", "theoretical", "database_IDs"]}