{
  "builder_meta": null,
  "nsites": null,
  "elements": null,
  "nelements": null,
  "composition": null,
  "composition_reduced": null,
  "formula_pretty": "Pr4Fe",
  "formula_anonymous": "AB4",
  "chemsys": null,
  "volume": 339.5396593084947,
  "density": 6.059165145541155,
  "density_atomic": 33.95396593084947,
  "symmetry": null,
  "property_name": null,
  "material_id": "mp-1209804",
  "deprecated": null,
  "deprecation_reasons": null,
  "last_updated": null,
  "origins": null,
  "warnings": null,
  "structure": {
    "@module": "pymatgen.core.structure",
    "@class": "Structure",
    "charge": 0,
    "lattice": {
      "matrix": [
        [-5.537157, -5.537157, 0.0],
        [-5.537157, 0.0, -5.537157],
        [0.0, -5.537157, -5.537157]
      ],
      "pbc": [true, true, true],
      "a": 7.83072252638912,
      "b": 7.83072252638912,
      "c": 7.83072252638912,
      "alpha": 60.00000000000001,
      "beta": 60.00000000000001,
      "gamma": 60.00000000000001,
      "volume": 339.5396593084947
    },
    "properties": {},
    "sites": [
      {
        "species": [{ "element": "Pr", "occu": 1 }],
        "abc": [0.616637, 0.616637, 0.616637],
        "properties": { "magmom": 0.006 },
        "label": "Pr",
        "xyz": [-6.828831762018, -6.828831762018, -6.828831762018]
      },
      {
        "species": [{ "element": "Pr", "occu": 1 }],
        "abc": [0.150089, 0.616637, 0.616637],
        "properties": { "magmom": 0.006 },
        "label": "Pr",
        "xyz": [-4.245482237981999, -4.245482237981999, -6.828831762018]
      },
      {
        "species": [{ "element": "Pr", "occu": 1 }],
        "abc": [0.616637, 0.150089, 0.616637],
        "properties": { "magmom": 0.006 },
        "label": "Pr",
        "xyz": [-4.245482237981999, -6.828831762018, -4.245482237981999]
      },
      {
        "species": [{ "element": "Pr", "occu": 1 }],
        "abc": [0.599911, 0.133362999999999, 0.133362999999999],
        "properties": { "magmom": 0.006 },
        "label": "Pr",
        "xyz": [-4.060253262017994, -4.060253262017994, -1.476903737981989]
      },
      {
        "species": [{ "element": "Pr", "occu": 1 }],
        "abc": [0.133362999999999, 0.133362999999999, 0.133362999999999],
        "properties": { "magmom": 0.006 },
        "label": "Pr",
        "xyz": [-1.476903737981989, -1.476903737981989, -1.476903737981989]
      },
      {
        "species": [{ "element": "Pr", "occu": 1 }],
        "abc": [0.616637, 0.616637, 0.150089],
        "properties": { "magmom": 0.006 },
        "label": "Pr",
        "xyz": [-6.828831762018, -4.245482237981999, -4.245482237981999]
      },
      {
        "species": [{ "element": "Pr", "occu": 1 }],
        "abc": [0.133362999999999, 0.599911, 0.133362999999999],
        "properties": { "magmom": 0.006 },
        "label": "Pr",
        "xyz": [-4.060253262017994, -1.476903737981989, -4.060253262017994]
      },
      {
        "species": [{ "element": "Pr", "occu": 1 }],
        "abc": [0.133362999999999, 0.133362999999999, 0.599911],
        "properties": { "magmom": 0.006 },
        "label": "Pr",
        "xyz": [-1.476903737981989, -4.060253262017994, -4.060253262017994]
      },
      {
        "species": [{ "element": "Fe", "occu": 1 }],
        "abc": [0.0, 0.0, 0.0],
        "properties": { "magmom": 0.008 },
        "label": "Fe",
        "xyz": [0.0, 0.0, 0.0]
      },
      {
        "species": [{ "element": "Fe", "occu": 1 }],
        "abc": [0.75, 0.75, 0.75],
        "properties": { "magmom": 0.008 },
        "label": "Fe",
        "xyz": [-8.305735499999999, -8.305735499999999, -8.305735499999999]
      }
    ]
  },
  "task_ids": null,
  "uncorrected_energy_per_atom": null,
  "energy_per_atom": -5.083784941999999,
  "formation_energy_per_atom": 0.446596466666667,
  "energy_above_hull": 0.446596466666667,
  "is_stable": false,
  "equilibrium_reaction_energy_per_atom": null,
  "decomposes_to": null,
  "xas": null,
  "grain_boundaries": null,
  "band_gap": 0.0,
  "cbm": null,
  "vbm": null,
  "efermi": 3.17347231,
  "is_gap_direct": null,
  "is_metal": null,
  "es_source_calc_id": null,
  "bandstructure": null,
  "dos": null,
  "dos_energy_up": null,
  "dos_energy_down": null,
  "is_magnetic": null,
  "ordering": null,
  "total_magnetization": 0.119254099999999,
  "total_magnetization_normalized_vol": null,
  "total_magnetization_normalized_formula_units": null,
  "num_magnetic_sites": null,
  "num_unique_magnetic_sites": null,
  "types_of_magnetic_species": null,
  "bulk_modulus": null,
  "shear_modulus": null,
  "universal_anisotropy": null,
  "homogeneous_poisson": null,
  "e_total": null,
  "e_ionic": null,
  "e_electronic": null,
  "n": null,
  "e_ij_max": null,
  "weighted_surface_energy_EV_PER_ANG2": null,
  "weighted_surface_energy": null,
  "weighted_work_function": null,
  "surface_anisotropy": null,
  "shape_factor": null,
  "has_reconstructed": null,
  "possible_species": null,
  "has_props": null,
  "theoretical": null,
  "database_IDs": null,
  "fields_not_requested": [
    "builder_meta",
    "nsites",
    "elements",
    "nelements",
    "composition",
    "composition_reduced",
    "chemsys",
    "symmetry",
    "property_name",
    "deprecated",
    "deprecation_reasons",
    "last_updated",
    "origins",
    "warnings",
    "task_ids",
    "uncorrected_energy_per_atom",
    "equilibrium_reaction_energy_per_atom",
    "decomposes_to",
    "xas",
    "grain_boundaries",
    "cbm",
    "vbm",
    "is_gap_direct",
    "is_metal",
    "es_source_calc_id",
    "bandstructure",
    "dos",
    "dos_energy_up",
    "dos_energy_down",
    "is_magnetic",
    "ordering",
    "total_magnetization_normalized_vol",
    "total_magnetization_normalized_formula_units",
    "num_magnetic_sites",
    "num_unique_magnetic_sites",
    "types_of_magnetic_species",
    "bulk_modulus",
    "shear_modulus",
    "universal_anisotropy",
    "homogeneous_poisson",
    "e_total",
    "e_ionic",
    "e_electronic",
    "n",
    "e_ij_max",
    "weighted_surface_energy_EV_PER_ANG2",
    "weighted_surface_energy",
    "weighted_work_function",
    "surface_anisotropy",
    "shape_factor",
    "has_reconstructed",
    "possible_species",
    "has_props",
    "theoretical",
    "database_IDs"
  ]
}
