{"builder_meta": null, "nsites": null, "elements": null, "nelements": null, "composition": null, "composition_reduced": null, "formula_pretty": "Pr4Ge7", "formula_anonymous": "A4B7", "chemsys": null, "volume": 518.3273168224978, "density": 6.869333246527027, "density_atomic": 23.560332582840807, "symmetry": null, "property_name": null, "material_id": "mp-867190", "deprecated": null, "deprecation_reasons": null, "last_updated": null, "origins": null, "warnings": null, "structure": {"@module": "pymatgen.core.structure", "@class": "Structure", "charge": 0, "lattice": {"matrix": [[3.03607957, 7.02590429, 0.0], [-3.03607957, 7.02590429, 0.0], [-0.0, 0.0, 12.14950889]], "pbc": [true, true, true], "a": 7.653829776498285, "b": 7.653829776498285, "c": 12.14950889, "alpha": 90.0, "beta": 90.0, "gamma": 46.740906339401036, "volume": 518.3273168224978}, "properties": {}, "sites": [{"species": [{"element": "Pr", "occu": 1}], "abc": [0.48062404000000003, 0.00918577, 0.38076216], "properties": {"magmom": 0.0}, "label": "Pr", "xyz": [1.431324100063144, 3.441356845363085, 4.626073247895603]}, {"species": [{"element": "Pr", "occu": 1}], "abc": [0.51937696, 0.99081423, 0.8807621600000001], "properties": {"magmom": 0.0}, "label": "Pr", "xyz": [-1.431321063983574, 10.610458760541205, 10.700827692895603]}, {"species": [{"element": "Pr", "occu": 1}], "abc": [0.99081423, 0.51937696, 0.6192388400000001], "properties": {"magmom": 0.0}, "label": "Pr", "xyz": [1.431321063983574, 10.610458760541205, 7.523447791613289]}, {"species": [{"element": "Pr", "occu": 1}], "abc": [0.00918577, 0.48062404000000003, 0.11923784], "properties": {"magmom": 0.0}, "label": "Pr", "xyz": [-1.431324100063144, 3.441356845363085, 1.4486811971043976]}, {"species": [{"element": "Pr", "occu": 1}], "abc": [0.01088897, 0.98911103, -0.0], "properties": {"magmom": -0.0}, "label": "Pr", "xyz": [-2.969960011289314, 7.02590429, 0.0]}, {"species": [{"element": "Pr", "occu": 1}], "abc": [0.98911103, 0.01088897, 0.5], "properties": {"magmom": -0.0}, "label": "Pr", "xyz": [2.969960011289314, 7.02590429, 6.074754445]}, {"species": [{"element": "Pr", "occu": 1}], "abc": [0.50316601, 0.50316601, 0.25], "properties": {"magmom": -0.0}, "label": "Pr", "xyz": [0.0, 7.070392456482367, 3.0373772225]}, {"species": [{"element": "Pr", "occu": 1}], "abc": [0.49683399, 0.49683399, 0.75], "properties": {"magmom": -0.0}, "label": "Pr", "xyz": [0.0, 6.981416123517634, 9.1121316675]}, {"species": [{"element": "Ge", "occu": 1}], "abc": [0.67085271, 0.02590645, 0.16042194], "properties": {"magmom": -0.0}, "label": "Ge", "xyz": [1.9581081637339084, 4.895363171340796, 1.9490477861810467]}, {"species": [{"element": "Ge", "occu": 1}], "abc": [0.32914829, 0.97409355, 0.66042194], "properties": {"magmom": -0.0}, "label": "Ge", "xyz": [-1.9581051276543384, 9.156452434563493, 8.023802231181046]}, {"species": [{"element": "Ge", "occu": 1}], "abc": [0.97409355, 0.32914829, 0.83957806], "properties": {"magmom": -0.0}, "label": "Ge", "xyz": [1.9581051276543384, 9.156452434563493, 10.200461103818954]}, {"species": [{"element": "Ge", "occu": 1}], "abc": [0.02590645, 0.67085271, 0.33957806], "properties": {"magmom": -0.0}, "label": "Ge", "xyz": [-1.9581081637339084, 4.895363171340796, 4.125706658818953]}, {"species": [{"element": "Ge", "occu": 1}], "abc": [0.41913105, 0.92332297, 0.12812137], "properties": {"magmom": -0.0}, "label": "Ge", "xyz": [-1.5307667876710742, 9.431953458245745, 1.5566117238139794]}, {"species": [{"element": "Ge", "occu": 1}], "abc": [0.58086995, 0.07667803000000001, 0.62812137], "properties": {"magmom": -0.0}, "label": "Ge", "xyz": [1.5307667876710742, 4.619869173562835, 7.6313661688139796]}, {"species": [{"element": "Ge", "occu": 1}], "abc": [0.07667803000000001, 0.58086995, 0.87187863], "properties": {"magmom": -0.0}, "label": "Ge", "xyz": [-1.5307667876710742, 4.619869173562835, 10.59289716618602]}, {"species": [{"element": "Ge", "occu": 1}], "abc": [0.92332297, 0.41913105, 0.37187763], "properties": {"magmom": -0.0}, "label": "Ge", "xyz": [1.5307667876710742, 9.431953458245745, 4.518130571677131]}, {"species": [{"element": "Ge", "occu": 1}], "abc": [0.42827983000000003, 0.397018, 0.00990557], "properties": {"magmom": 0.0}, "label": "Ge", "xyz": [0.09491340338381327, 5.798463564324691, 0.1203478107755173]}, {"species": [{"element": "Ge", "occu": 1}], "abc": [0.57172017, 0.602982999999999, 0.50990557], "properties": {"magmom": 0.0}, "label": "Ge", "xyz": [-0.09491643946338035, 8.253352041579593, 6.1951022557755175]}, {"species": [{"element": "Ge", "occu": 1}], "abc": [0.602982999999999, 0.57172017, 0.99009443], "properties": {"magmom": 0.0}, "label": "Ge", "xyz": [0.09491643946338035, 8.253352041579593, 12.029161079224481]}, {"species": [{"element": "Ge", "occu": 1}], "abc": [0.397018, 0.42827983000000003, 0.49009443], "properties": {"magmom": 0.0}, "label": "Ge", "xyz": [-0.09491340338381327, 5.798463564324691, 5.954406634224483]}, {"species": [{"element": "Ge", "occu": 1}], "abc": [0.06662576, 0.06662576, 0.25], "properties": {"magmom": -0.0}, "label": "Ge", "xyz": [0.0, 0.9362124260170208, 3.0373772225]}, {"species": [{"element": "Ge", "occu": 1}], "abc": [0.93337324, 0.93337324, 0.75], "properties": {"magmom": -0.0}, "label": "Ge", "xyz": [0.0, 13.115582102174399, 9.1121316675]}]}, "task_ids": null, "uncorrected_energy_per_atom": null, "energy_per_atom": -20.305051702272728, "formation_energy_per_atom": -0.785081835606061, "energy_above_hull": 0.003975122575756, "is_stable": false, "equilibrium_reaction_energy_per_atom": null, "decomposes_to": null, "xas": null, "grain_boundaries": null, "band_gap": 0.0, "cbm": null, "vbm": null, "efermi": 4.05742479, "is_gap_direct": null, "is_metal": null, "es_source_calc_id": null, "bandstructure": null, "dos": null, "dos_energy_up": null, "dos_energy_down": null, "is_magnetic": null, "ordering": null, "total_magnetization": 0.0, "total_magnetization_normalized_vol": null, "total_magnetization_normalized_formula_units": null, "num_magnetic_sites": null, "num_unique_magnetic_sites": null, "types_of_magnetic_species": null, "bulk_modulus": null, "shear_modulus": null, "universal_anisotropy": null, "homogeneous_poisson": null, "e_total": null, "e_ionic": null, "e_electronic": null, "n": null, "e_ij_max": null, "weighted_surface_energy_EV_PER_ANG2": null, "weighted_surface_energy": null, "weighted_work_function": null, "surface_anisotropy": null, "shape_factor": null, "has_reconstructed": null, "possible_species": null, "has_props": null, "theoretical": null, "database_IDs": null, "fields_not_requested": ["builder_meta", "nsites", "elements", "nelements", "composition", "composition_reduced", "chemsys", "symmetry", "property_name", "deprecated", "deprecation_reasons", "last_updated", "origins", "warnings", "task_ids", "uncorrected_energy_per_atom", "equilibrium_reaction_energy_per_atom", "decomposes_to", "xas", "grain_boundaries", "cbm", "vbm", "is_gap_direct", "is_metal", "es_source_calc_id", "bandstructure", "dos", "dos_energy_up", "dos_energy_down", "is_magnetic", "ordering", "total_magnetization_normalized_vol", "total_magnetization_normalized_formula_units", "num_magnetic_sites", "num_unique_magnetic_sites", "types_of_magnetic_species", "bulk_modulus", "shear_modulus", "universal_anisotropy", "homogeneous_poisson", "e_total", "e_ionic", "e_electronic", "n", "e_ij_max", "weighted_surface_energy_EV_PER_ANG2", "weighted_surface_energy", "weighted_work_function", "surface_anisotropy", "shape_factor", "has_reconstructed", "possible_species", "has_props", "theoretical", "database_IDs"]}