{
  "builder_meta": null,
  "nsites": null,
  "elements": null,
  "nelements": null,
  "composition": null,
  "composition_reduced": null,
  "formula_pretty": "Pr4Ge3",
  "formula_anonymous": "A3B4",
  "chemsys": null,
  "volume": 396.4890370086404,
  "density": 6.546437266543578,
  "density_atomic": 28.32064550061717,
  "symmetry": null,
  "property_name": null,
  "material_id": "mp-570606",
  "deprecated": null,
  "deprecation_reasons": null,
  "last_updated": null,
  "origins": null,
  "warnings": null,
  "structure": {
    "@module": "pymatgen.core.structure",
    "@class": "Structure",
    "charge": 0,
    "lattice": {
      "matrix": [
        [7.55733705, 0.00018719, -2.67180966],
        [-3.7785080300000002, 6.54493927, -2.67181385],
        [0.0001042, 0.00017567, 8.01572366]
      ],
      "pbc": [true, true, true],
      "a": 8.015728923910297,
      "b": 8.015730922992265,
      "c": 8.015723662602236,
      "alpha": 109.46977426477638,
      "beta": 109.46971777713819,
      "gamma": 109.46965698980308,
      "volume": 396.4890370086404
    },
    "properties": {},
    "sites": [
      {
        "species": [{ "element": "Pr", "occu": 1 }],
        "abc": [0.37177446000000003, 0.50000134, 4.8200000000000004e-6],
        "properties": { "magmom": -0.0 },
        "label": "Pr",
        "xyz": [0.9203658231032272, 3.2725479985265187, -2.329182463011801]
      },
      {
        "species": [{ "element": "Pr", "occu": 1 }],
        "abc": [0.87177346, 0.50000382, -6.599999999999997e-7],
        "properties": { "magmom": -0.0 },
        "label": "Pr",
        "xyz": [4.699017419495247, 3.2726578238260466, -3.665135173466146]
      },
      {
        "species": [{ "element": "Pr", "occu": 1 }],
        "abc": [0.62822256, 0.62822356, 0.62822256],
        "properties": { "magmom": 0.0 },
        "label": "Pr",
        "xyz": [2.374007323029413, 4.111913005021323, 1.6786709249955347]
      },
      {
        "species": [{ "element": "Pr", "occu": 1 }],
        "abc": [0.50000034, 4.8200000000000004e-6, 0.37177346],
        "properties": { "magmom": -0.0 },
        "label": "Pr",
        "xyz": [3.778691620880425, 0.00019045111464420001, 1.6441147029240224]
      },
      {
        "species": [{ "element": "Pr", "occu": 1 }],
        "abc": [0.12822256, 0.12822156, 0.12822256],
        "properties": { "magmom": 0.0 },
        "label": "Pr",
        "xyz": [0.4845482700454733, 0.8392488501427829, 0.3426261936232342]
      },
      {
        "species": [{ "element": "Pr", "occu": 1 }],
        "abc": [1.34e-6, 0.87177446, 0.50000482],
        "properties": { "magmom": -0.0 },
        "label": "Pr",
        "xyz": [-3.293944570125023, 5.705798733934609, 1.6786778092588266]
      },
      {
        "species": [{ "element": "Pr", "occu": 1 }],
        "abc": [0.50000482, 3.4e-7, 0.87177346],
        "properties": { "magmom": -0.0 },
        "label": "Pr",
        "xyz": [3.778794505466383, 0.0002489656253258, 5.651976532942793]
      },
      {
        "species": [{ "element": "Pr", "occu": 1 }],
        "abc": [4.8200000000000004e-6, 0.37177346, 0.49999934],
        "properties": { "magmom": -0.0 },
        "label": "Pr",
        "xyz": [-1.404660477655075, 2.4333225536840875, 3.0145341820094034]
      },
      {
        "species": [{ "element": "Ge", "occu": 1 }],
        "abc": [0.8749991500000001, 0.12499595000000001, 0.75000073],
        "properties": { "magmom": -0.0 },
        "label": "Ge",
        "xyz": [6.1404434442970945, 0.8183864454650841, 3.340001504612576]
      },
      {
        "species": [{ "element": "Ge", "occu": 1 }],
        "abc": [0.75000173, 0.87500115, 0.12499795],
        "properties": { "magmom": -0.0 },
        "label": "Ge",
        "xyz": [2.361830014945252, 5.726991739143876, -3.339753033300142]
      },
      {
        "species": [{ "element": "Ge", "occu": 1 }],
        "abc": [0.24999973, 0.62499795, 0.37499915],
        "properties": { "magmom": -0.0 },
        "label": "Ge",
        "xyz": [-0.47218847587811213, 4.090686300174636, 0.66805968649189]
      },
      {
        "species": [{ "element": "Ge", "occu": 1 }],
        "abc": [0.62499595, 0.37499815000000003, 0.24999973],
        "properties": { "magmom": -0.0 },
        "label": "Ge",
        "xyz": [3.306397577996669, 2.4545010285568005, -0.6678667168106425]
      },
      {
        "species": [{ "element": "Ge", "occu": 1 }],
        "abc": [0.12499895, 0.75000073, 0.8749991500000001],
        "properties": { "magmom": -0.0 },
        "label": "Ge",
        "xyz": [-1.8891334098533343, 4.908886339959799, 4.675915649110923]
      },
      {
        "species": [{ "element": "Ge", "occu": 1 }],
        "abc": [0.37500115, 0.25000073, 0.62499795],
        "properties": { "magmom": -0.0 },
        "label": "Ge",
        "xyz": [1.8894454436631358, 1.6364195851608123, 3.339923747261278]
      }
    ]
  },
  "task_ids": null,
  "uncorrected_energy_per_atom": null,
  "energy_per_atom": -23.683549623571427,
  "formation_energy_per_atom": -0.9361555930952361,
  "energy_above_hull": 0.0,
  "is_stable": true,
  "equilibrium_reaction_energy_per_atom": null,
  "decomposes_to": null,
  "xas": null,
  "grain_boundaries": null,
  "band_gap": 0.0,
  "cbm": null,
  "vbm": null,
  "efermi": 4.22555293,
  "is_gap_direct": null,
  "is_metal": null,
  "es_source_calc_id": null,
  "bandstructure": null,
  "dos": null,
  "dos_energy_up": null,
  "dos_energy_down": null,
  "is_magnetic": null,
  "ordering": null,
  "total_magnetization": 1e-7,
  "total_magnetization_normalized_vol": null,
  "total_magnetization_normalized_formula_units": null,
  "num_magnetic_sites": null,
  "num_unique_magnetic_sites": null,
  "types_of_magnetic_species": null,
  "bulk_modulus": null,
  "shear_modulus": null,
  "universal_anisotropy": null,
  "homogeneous_poisson": null,
  "e_total": null,
  "e_ionic": null,
  "e_electronic": null,
  "n": null,
  "e_ij_max": null,
  "weighted_surface_energy_EV_PER_ANG2": null,
  "weighted_surface_energy": null,
  "weighted_work_function": null,
  "surface_anisotropy": null,
  "shape_factor": null,
  "has_reconstructed": null,
  "possible_species": null,
  "has_props": null,
  "theoretical": null,
  "database_IDs": null,
  "fields_not_requested": [
    "builder_meta",
    "nsites",
    "elements",
    "nelements",
    "composition",
    "composition_reduced",
    "chemsys",
    "symmetry",
    "property_name",
    "deprecated",
    "deprecation_reasons",
    "last_updated",
    "origins",
    "warnings",
    "task_ids",
    "uncorrected_energy_per_atom",
    "equilibrium_reaction_energy_per_atom",
    "decomposes_to",
    "xas",
    "grain_boundaries",
    "cbm",
    "vbm",
    "is_gap_direct",
    "is_metal",
    "es_source_calc_id",
    "bandstructure",
    "dos",
    "dos_energy_up",
    "dos_energy_down",
    "is_magnetic",
    "ordering",
    "total_magnetization_normalized_vol",
    "total_magnetization_normalized_formula_units",
    "num_magnetic_sites",
    "num_unique_magnetic_sites",
    "types_of_magnetic_species",
    "bulk_modulus",
    "shear_modulus",
    "universal_anisotropy",
    "homogeneous_poisson",
    "e_total",
    "e_ionic",
    "e_electronic",
    "n",
    "e_ij_max",
    "weighted_surface_energy_EV_PER_ANG2",
    "weighted_surface_energy",
    "weighted_work_function",
    "surface_anisotropy",
    "shape_factor",
    "has_reconstructed",
    "possible_species",
    "has_props",
    "theoretical",
    "database_IDs"
  ]
}
