{
  "builder_meta": null,
  "nsites": null,
  "elements": null,
  "nelements": null,
  "composition": null,
  "composition_reduced": null,
  "formula_pretty": "Pr4Mg",
  "formula_anonymous": "AB4",
  "chemsys": null,
  "volume": 387.8264256201655,
  "density": 5.034675143055272,
  "density_atomic": 38.78264256201655,
  "symmetry": null,
  "property_name": null,
  "material_id": "mp-1209749",
  "deprecated": null,
  "deprecation_reasons": null,
  "last_updated": null,
  "origins": null,
  "warnings": null,
  "structure": {
    "@module": "pymatgen.core.structure",
    "@class": "Structure",
    "charge": 0,
    "lattice": {
      "matrix": [
        [0.0, 5.788097, 5.788097],
        [5.788097, 0.0, 5.788097],
        [5.788097, 5.788097, 0.0]
      ],
      "pbc": [true, true, true],
      "a": 8.185605277731023,
      "b": 8.185605277731023,
      "c": 8.185605277731023,
      "alpha": 59.99999999999999,
      "beta": 59.99999999999999,
      "gamma": 59.99999999999999,
      "volume": 387.8264256201655
    },
    "properties": {},
    "sites": [
      {
        "species": [{ "element": "Pr", "occu": 1 }],
        "abc": [0.395732, 0.395732, 0.395732],
        "properties": { "magmom": 0.047 },
        "label": "Pr",
        "xyz": [4.581070404007999, 4.581070404007999, 4.581070404007999]
      },
      {
        "species": [{ "element": "Pr", "occu": 1 }],
        "abc": [0.395732, 0.395732, 0.812805],
        "properties": { "magmom": 0.047 },
        "label": "Pr",
        "xyz": [6.995129384088999, 6.995129384088999, 4.581070404007999]
      },
      {
        "species": [{ "element": "Pr", "occu": 1 }],
        "abc": [0.395732, 0.812805, 0.395732],
        "properties": { "magmom": 0.051000000000000004 },
        "label": "Pr",
        "xyz": [6.995129384088999, 4.581070404007999, 6.995129384088999]
      },
      {
        "species": [{ "element": "Pr", "occu": 1 }],
        "abc": [0.854267999999999, 0.854267999999999, 0.437195],
        "properties": { "magmom": 0.047 },
        "label": "Pr",
        "xyz": [7.475113115910994, 7.475113115910994, 9.889172095991988]
      },
      {
        "species": [{ "element": "Pr", "occu": 1 }],
        "abc": [0.854267999999999, 0.854267999999999, 0.854267999999999],
        "properties": { "magmom": 0.047 },
        "label": "Pr",
        "xyz": [9.889172095991988, 9.889172095991988, 9.889172095991988]
      },
      {
        "species": [{ "element": "Pr", "occu": 1 }],
        "abc": [0.812805, 0.395732, 0.395732],
        "properties": { "magmom": 0.061 },
        "label": "Pr",
        "xyz": [4.581070404007999, 6.995129384088999, 6.995129384088999]
      },
      {
        "species": [{ "element": "Pr", "occu": 1 }],
        "abc": [0.854267999999999, 0.437195, 0.854267999999999],
        "properties": { "magmom": 0.051000000000000004 },
        "label": "Pr",
        "xyz": [7.475113115910994, 9.889172095991988, 7.475113115910994]
      },
      {
        "species": [{ "element": "Pr", "occu": 1 }],
        "abc": [0.437195, 0.854267999999999, 0.854267999999999],
        "properties": { "magmom": 0.061 },
        "label": "Pr",
        "xyz": [9.889172095991988, 7.475113115910994, 7.475113115910994]
      },
      {
        "species": [{ "element": "Mg", "occu": 1 }],
        "abc": [0.0, 0.0, 0.0],
        "properties": { "magmom": 0.006 },
        "label": "Mg",
        "xyz": [0.0, 0.0, 0.0]
      },
      {
        "species": [{ "element": "Mg", "occu": 1 }],
        "abc": [0.25, 0.25, 0.25],
        "properties": { "magmom": 0.006 },
        "label": "Mg",
        "xyz": [2.8940485, 2.8940485, 2.8940485]
      }
    ]
  },
  "task_ids": null,
  "uncorrected_energy_per_atom": null,
  "energy_per_atom": -3.575978209,
  "formation_energy_per_atom": 0.586492960666667,
  "energy_above_hull": 0.622692648,
  "is_stable": false,
  "equilibrium_reaction_energy_per_atom": null,
  "decomposes_to": null,
  "xas": null,
  "grain_boundaries": null,
  "band_gap": 0.0,
  "cbm": null,
  "vbm": null,
  "efermi": 2.60717176,
  "is_gap_direct": null,
  "is_metal": null,
  "es_source_calc_id": null,
  "bandstructure": null,
  "dos": null,
  "dos_energy_up": null,
  "dos_energy_down": null,
  "is_magnetic": null,
  "ordering": null,
  "total_magnetization": 0.939389199999999,
  "total_magnetization_normalized_vol": null,
  "total_magnetization_normalized_formula_units": null,
  "num_magnetic_sites": null,
  "num_unique_magnetic_sites": null,
  "types_of_magnetic_species": null,
  "bulk_modulus": null,
  "shear_modulus": null,
  "universal_anisotropy": null,
  "homogeneous_poisson": null,
  "e_total": null,
  "e_ionic": null,
  "e_electronic": null,
  "n": null,
  "e_ij_max": null,
  "weighted_surface_energy_EV_PER_ANG2": null,
  "weighted_surface_energy": null,
  "weighted_work_function": null,
  "surface_anisotropy": null,
  "shape_factor": null,
  "has_reconstructed": null,
  "possible_species": null,
  "has_props": null,
  "theoretical": null,
  "database_IDs": null,
  "fields_not_requested": [
    "builder_meta",
    "nsites",
    "elements",
    "nelements",
    "composition",
    "composition_reduced",
    "chemsys",
    "symmetry",
    "property_name",
    "deprecated",
    "deprecation_reasons",
    "last_updated",
    "origins",
    "warnings",
    "task_ids",
    "uncorrected_energy_per_atom",
    "equilibrium_reaction_energy_per_atom",
    "decomposes_to",
    "xas",
    "grain_boundaries",
    "cbm",
    "vbm",
    "is_gap_direct",
    "is_metal",
    "es_source_calc_id",
    "bandstructure",
    "dos",
    "dos_energy_up",
    "dos_energy_down",
    "is_magnetic",
    "ordering",
    "total_magnetization_normalized_vol",
    "total_magnetization_normalized_formula_units",
    "num_magnetic_sites",
    "num_unique_magnetic_sites",
    "types_of_magnetic_species",
    "bulk_modulus",
    "shear_modulus",
    "universal_anisotropy",
    "homogeneous_poisson",
    "e_total",
    "e_ionic",
    "e_electronic",
    "n",
    "e_ij_max",
    "weighted_surface_energy_EV_PER_ANG2",
    "weighted_surface_energy",
    "weighted_work_function",
    "surface_anisotropy",
    "shape_factor",
    "has_reconstructed",
    "possible_species",
    "has_props",
    "theoretical",
    "database_IDs"
  ]
}
