{
  "builder_meta": null,
  "nsites": null,
  "elements": null,
  "nelements": null,
  "composition": null,
  "composition_reduced": null,
  "formula_pretty": "Pr4Os",
  "formula_anonymous": "AB4",
  "chemsys": null,
  "volume": 366.30113151301975,
  "density": 6.834895496499559,
  "density_atomic": 36.63011315130198,
  "symmetry": null,
  "property_name": null,
  "material_id": "mp-1209511",
  "deprecated": null,
  "deprecation_reasons": null,
  "last_updated": null,
  "origins": null,
  "warnings": null,
  "structure": {
    "@module": "pymatgen.core.structure",
    "@class": "Structure",
    "charge": 0,
    "lattice": {
      "matrix": [
        [-5.678968, -5.678968, 0.0],
        [-5.678968, 0.0, -5.678968],
        [0.0, -5.678968, -5.678968]
      ],
      "pbc": [true, true, true],
      "a": 8.031273565882811,
      "b": 8.031273565882811,
      "c": 8.031273565882811,
      "alpha": 59.99999999999999,
      "beta": 59.99999999999999,
      "gamma": 59.99999999999999,
      "volume": 366.30113151301975
    },
    "properties": {},
    "sites": [
      {
        "species": [{ "element": "Pr", "occu": 1 }],
        "abc": [0.613556, 0.613556, 0.613556],
        "properties": { "magmom": 0.0 },
        "label": "Pr",
        "xyz": [-6.968729780416, -6.968729780416, -6.968729780416]
      },
      {
        "species": [{ "element": "Pr", "occu": 1 }],
        "abc": [0.159333, 0.613556, 0.613556],
        "properties": { "magmom": 0.0 },
        "label": "Pr",
        "xyz": [-4.389211898552, -4.389211898552, -6.968729780416]
      },
      {
        "species": [{ "element": "Pr", "occu": 1 }],
        "abc": [0.613556, 0.159333, 0.613556],
        "properties": { "magmom": 0.0 },
        "label": "Pr",
        "xyz": [-4.389211898552, -6.968729780416, -4.389211898552]
      },
      {
        "species": [{ "element": "Pr", "occu": 1 }],
        "abc": [0.590666999999999, 0.136443999999999, 0.136443999999999],
        "properties": { "magmom": 0.0 },
        "label": "Pr",
        "xyz": [-4.129240101447989, -4.129240101447989, -1.5497222195839888]
      },
      {
        "species": [{ "element": "Pr", "occu": 1 }],
        "abc": [0.136443999999999, 0.136443999999999, 0.136443999999999],
        "properties": { "magmom": 0.0 },
        "label": "Pr",
        "xyz": [-1.5497222195839888, -1.5497222195839888, -1.5497222195839888]
      },
      {
        "species": [{ "element": "Pr", "occu": 1 }],
        "abc": [0.613556, 0.613556, 0.159333],
        "properties": { "magmom": 0.0 },
        "label": "Pr",
        "xyz": [-6.968729780416, -4.389211898552, -4.389211898552]
      },
      {
        "species": [{ "element": "Pr", "occu": 1 }],
        "abc": [0.136443999999999, 0.590666999999999, 0.136443999999999],
        "properties": { "magmom": 0.0 },
        "label": "Pr",
        "xyz": [-4.129240101447989, -1.5497222195839888, -4.129240101447989]
      },
      {
        "species": [{ "element": "Pr", "occu": 1 }],
        "abc": [0.136443999999999, 0.136443999999999, 0.590666999999999],
        "properties": { "magmom": 0.0 },
        "label": "Pr",
        "xyz": [-1.5497222195839888, -4.129240101447989, -4.129240101447989]
      },
      {
        "species": [{ "element": "Os", "occu": 1 }],
        "abc": [0.0, 0.0, 0.0],
        "properties": { "magmom": 0.0 },
        "label": "Os",
        "xyz": [0.0, 0.0, 0.0]
      },
      {
        "species": [{ "element": "Os", "occu": 1 }],
        "abc": [0.75, 0.75, 0.75],
        "properties": { "magmom": 0.0 },
        "label": "Os",
        "xyz": [-8.518452, -8.518452, -8.518452]
      }
    ]
  },
  "task_ids": null,
  "uncorrected_energy_per_atom": null,
  "energy_per_atom": -33.71925424916667,
  "formation_energy_per_atom": 0.40095661550000705,
  "energy_above_hull": 0.482230795999996,
  "is_stable": false,
  "equilibrium_reaction_energy_per_atom": null,
  "decomposes_to": null,
  "xas": null,
  "grain_boundaries": null,
  "band_gap": 0.0,
  "cbm": null,
  "vbm": null,
  "efermi": 3.09817922,
  "is_gap_direct": null,
  "is_metal": null,
  "es_source_calc_id": null,
  "bandstructure": null,
  "dos": null,
  "dos_energy_up": null,
  "dos_energy_down": null,
  "is_magnetic": null,
  "ordering": null,
  "total_magnetization": 0.005831999999999,
  "total_magnetization_normalized_vol": null,
  "total_magnetization_normalized_formula_units": null,
  "num_magnetic_sites": null,
  "num_unique_magnetic_sites": null,
  "types_of_magnetic_species": null,
  "bulk_modulus": null,
  "shear_modulus": null,
  "universal_anisotropy": null,
  "homogeneous_poisson": null,
  "e_total": null,
  "e_ionic": null,
  "e_electronic": null,
  "n": null,
  "e_ij_max": null,
  "weighted_surface_energy_EV_PER_ANG2": null,
  "weighted_surface_energy": null,
  "weighted_work_function": null,
  "surface_anisotropy": null,
  "shape_factor": null,
  "has_reconstructed": null,
  "possible_species": null,
  "has_props": null,
  "theoretical": null,
  "database_IDs": null,
  "fields_not_requested": [
    "builder_meta",
    "nsites",
    "elements",
    "nelements",
    "composition",
    "composition_reduced",
    "chemsys",
    "symmetry",
    "property_name",
    "deprecated",
    "deprecation_reasons",
    "last_updated",
    "origins",
    "warnings",
    "task_ids",
    "uncorrected_energy_per_atom",
    "equilibrium_reaction_energy_per_atom",
    "decomposes_to",
    "xas",
    "grain_boundaries",
    "cbm",
    "vbm",
    "is_gap_direct",
    "is_metal",
    "es_source_calc_id",
    "bandstructure",
    "dos",
    "dos_energy_up",
    "dos_energy_down",
    "is_magnetic",
    "ordering",
    "total_magnetization_normalized_vol",
    "total_magnetization_normalized_formula_units",
    "num_magnetic_sites",
    "num_unique_magnetic_sites",
    "types_of_magnetic_species",
    "bulk_modulus",
    "shear_modulus",
    "universal_anisotropy",
    "homogeneous_poisson",
    "e_total",
    "e_ionic",
    "e_electronic",
    "n",
    "e_ij_max",
    "weighted_surface_energy_EV_PER_ANG2",
    "weighted_surface_energy",
    "weighted_work_function",
    "surface_anisotropy",
    "shape_factor",
    "has_reconstructed",
    "possible_species",
    "has_props",
    "theoretical",
    "database_IDs"
  ]
}
