{
  "builder_meta": null,
  "nsites": null,
  "elements": null,
  "nelements": null,
  "composition": null,
  "composition_reduced": null,
  "formula_pretty": "Pr4Pt",
  "formula_anonymous": "AB4",
  "chemsys": null,
  "volume": 370.8442978954557,
  "density": 6.794631821762362,
  "density_atomic": 37.084429789545574,
  "symmetry": null,
  "property_name": null,
  "material_id": "mp-1209426",
  "deprecated": null,
  "deprecation_reasons": null,
  "last_updated": null,
  "origins": null,
  "warnings": null,
  "structure": {
    "@module": "pymatgen.core.structure",
    "@class": "Structure",
    "charge": 0,
    "lattice": {
      "matrix": [
        [-5.70235, -5.70235, 0.0],
        [-5.70235, 0.0, -5.70235],
        [0.0, -5.70235, -5.70235]
      ],
      "pbc": [true, true, true],
      "a": 8.064340707398218,
      "b": 8.064340707398218,
      "c": 8.064340707398218,
      "alpha": 59.99999999999999,
      "beta": 59.99999999999999,
      "gamma": 59.99999999999999,
      "volume": 370.8442978954557
    },
    "properties": {},
    "sites": [
      {
        "species": [{ "element": "Pr", "occu": 1 }],
        "abc": [0.610513, 0.610513, 0.610513],
        "properties": { "magmom": 0.0 },
        "label": "Pr",
        "xyz": [-6.9627176110999995, -6.9627176110999995, -6.9627176110999995]
      },
      {
        "species": [{ "element": "Pr", "occu": 1 }],
        "abc": [0.168461, 0.610513, 0.610513],
        "properties": { "magmom": 0.0 },
        "label": "Pr",
        "xyz": [-4.4419823889, -4.4419823889, -6.9627176110999995]
      },
      {
        "species": [{ "element": "Pr", "occu": 1 }],
        "abc": [0.610513, 0.168461, 0.610513],
        "properties": { "magmom": 0.0 },
        "label": "Pr",
        "xyz": [-4.4419823889, -6.9627176110999995, -4.4419823889]
      },
      {
        "species": [{ "element": "Pr", "occu": 1 }],
        "abc": [0.581539, 0.139487, 0.139487],
        "properties": { "magmom": 0.0 },
        "label": "Pr",
        "xyz": [-4.111542611100001, -4.111542611100001, -1.5908073889]
      },
      {
        "species": [{ "element": "Pr", "occu": 1 }],
        "abc": [0.139487, 0.139487, 0.139487],
        "properties": { "magmom": 0.0 },
        "label": "Pr",
        "xyz": [-1.5908073889, -1.5908073889, -1.5908073889]
      },
      {
        "species": [{ "element": "Pr", "occu": 1 }],
        "abc": [0.610513, 0.610513, 0.168461],
        "properties": { "magmom": 0.0 },
        "label": "Pr",
        "xyz": [-6.9627176110999995, -4.4419823889, -4.4419823889]
      },
      {
        "species": [{ "element": "Pr", "occu": 1 }],
        "abc": [0.139487, 0.581539, 0.139487],
        "properties": { "magmom": 0.0 },
        "label": "Pr",
        "xyz": [-4.111542611100001, -1.5908073889, -4.111542611100001]
      },
      {
        "species": [{ "element": "Pr", "occu": 1 }],
        "abc": [0.139487, 0.139487, 0.581539],
        "properties": { "magmom": 0.0 },
        "label": "Pr",
        "xyz": [-1.5908073889, -4.111542611100001, -4.111542611100001]
      },
      {
        "species": [{ "element": "Pt", "occu": 1 }],
        "abc": [0.0, 0.0, 0.0],
        "properties": { "magmom": 0.0 },
        "label": "Pt",
        "xyz": [0.0, 0.0, 0.0]
      },
      {
        "species": [{ "element": "Pt", "occu": 1 }],
        "abc": [0.75, 0.75, 0.75],
        "properties": { "magmom": 0.0 },
        "label": "Pt",
        "xyz": [-8.553525, -8.553525, -8.553525]
      }
    ]
  },
  "task_ids": null,
  "uncorrected_energy_per_atom": null,
  "energy_per_atom": -5.064917212999999,
  "formation_energy_per_atom": -0.014313382333332,
  "energy_above_hull": 0.46013661377777904,
  "is_stable": false,
  "equilibrium_reaction_energy_per_atom": null,
  "decomposes_to": null,
  "xas": null,
  "grain_boundaries": null,
  "band_gap": 0.0,
  "cbm": null,
  "vbm": null,
  "efermi": 3.06710308,
  "is_gap_direct": null,
  "is_metal": null,
  "es_source_calc_id": null,
  "bandstructure": null,
  "dos": null,
  "dos_energy_up": null,
  "dos_energy_down": null,
  "is_magnetic": null,
  "ordering": null,
  "total_magnetization": 0.0072023,
  "total_magnetization_normalized_vol": null,
  "total_magnetization_normalized_formula_units": null,
  "num_magnetic_sites": null,
  "num_unique_magnetic_sites": null,
  "types_of_magnetic_species": null,
  "bulk_modulus": null,
  "shear_modulus": null,
  "universal_anisotropy": null,
  "homogeneous_poisson": null,
  "e_total": null,
  "e_ionic": null,
  "e_electronic": null,
  "n": null,
  "e_ij_max": null,
  "weighted_surface_energy_EV_PER_ANG2": null,
  "weighted_surface_energy": null,
  "weighted_work_function": null,
  "surface_anisotropy": null,
  "shape_factor": null,
  "has_reconstructed": null,
  "possible_species": null,
  "has_props": null,
  "theoretical": null,
  "database_IDs": null,
  "fields_not_requested": [
    "builder_meta",
    "nsites",
    "elements",
    "nelements",
    "composition",
    "composition_reduced",
    "chemsys",
    "symmetry",
    "property_name",
    "deprecated",
    "deprecation_reasons",
    "last_updated",
    "origins",
    "warnings",
    "task_ids",
    "uncorrected_energy_per_atom",
    "equilibrium_reaction_energy_per_atom",
    "decomposes_to",
    "xas",
    "grain_boundaries",
    "cbm",
    "vbm",
    "is_gap_direct",
    "is_metal",
    "es_source_calc_id",
    "bandstructure",
    "dos",
    "dos_energy_up",
    "dos_energy_down",
    "is_magnetic",
    "ordering",
    "total_magnetization_normalized_vol",
    "total_magnetization_normalized_formula_units",
    "num_magnetic_sites",
    "num_unique_magnetic_sites",
    "types_of_magnetic_species",
    "bulk_modulus",
    "shear_modulus",
    "universal_anisotropy",
    "homogeneous_poisson",
    "e_total",
    "e_ionic",
    "e_electronic",
    "n",
    "e_ij_max",
    "weighted_surface_energy_EV_PER_ANG2",
    "weighted_surface_energy",
    "weighted_work_function",
    "surface_anisotropy",
    "shape_factor",
    "has_reconstructed",
    "possible_species",
    "has_props",
    "theoretical",
    "database_IDs"
  ]
}
