{
  "builder_meta": null,
  "nsites": null,
  "elements": null,
  "nelements": null,
  "composition": null,
  "composition_reduced": null,
  "formula_pretty": "Pr4Re",
  "formula_anonymous": "AB4",
  "chemsys": null,
  "volume": 360.8809483143983,
  "density": 6.900528466361857,
  "density_atomic": 36.08809483143983,
  "symmetry": null,
  "property_name": null,
  "material_id": "mp-1209484",
  "deprecated": null,
  "deprecation_reasons": null,
  "last_updated": null,
  "origins": null,
  "warnings": null,
  "structure": {
    "@module": "pymatgen.core.structure",
    "@class": "Structure",
    "charge": 0,
    "lattice": {
      "matrix": [
        [-5.650818, -5.650818, 0.0],
        [-5.650818, 0.0, -5.650818],
        [0.0, -5.650818, -5.650818]
      ],
      "pbc": [true, true, true],
      "a": 7.991463454102008,
      "b": 7.991463454102008,
      "c": 7.991463454102008,
      "alpha": 59.99999999999999,
      "beta": 59.99999999999999,
      "gamma": 59.99999999999999,
      "volume": 360.8809483143983
    },
    "properties": {},
    "sites": [
      {
        "species": [{ "element": "Pr", "occu": 1 }],
        "abc": [0.613748, 0.613748, 0.613748],
        "properties": { "magmom": -0.0 },
        "label": "Pr",
        "xyz": [-6.936356491728, -6.936356491728, -6.936356491728]
      },
      {
        "species": [{ "element": "Pr", "occu": 1 }],
        "abc": [0.158754999999999, 0.613748, 0.613748],
        "properties": { "magmom": -0.0 },
        "label": "Pr",
        "xyz": [-4.365273857453994, -4.365273857453994, -6.936356491728]
      },
      {
        "species": [{ "element": "Pr", "occu": 1 }],
        "abc": [0.613748, 0.158754999999999, 0.613748],
        "properties": { "magmom": -0.0 },
        "label": "Pr",
        "xyz": [-4.365273857453994, -6.936356491728, -4.365273857453994]
      },
      {
        "species": [{ "element": "Pr", "occu": 1 }],
        "abc": [0.591245, 0.136251999999999, 0.136251999999999],
        "properties": { "magmom": -0.0 },
        "label": "Pr",
        "xyz": [-4.110953142545995, -4.110953142545995, -1.5398705082719888]
      },
      {
        "species": [{ "element": "Pr", "occu": 1 }],
        "abc": [0.136251999999999, 0.136251999999999, 0.136251999999999],
        "properties": { "magmom": -0.0 },
        "label": "Pr",
        "xyz": [-1.5398705082719888, -1.5398705082719888, -1.5398705082719888]
      },
      {
        "species": [{ "element": "Pr", "occu": 1 }],
        "abc": [0.613748, 0.613748, 0.158754999999999],
        "properties": { "magmom": -0.0 },
        "label": "Pr",
        "xyz": [-6.936356491728, -4.365273857453994, -4.365273857453994]
      },
      {
        "species": [{ "element": "Pr", "occu": 1 }],
        "abc": [0.136251999999999, 0.591245, 0.136251999999999],
        "properties": { "magmom": -0.0 },
        "label": "Pr",
        "xyz": [-4.110953142545995, -1.5398705082719888, -4.110953142545995]
      },
      {
        "species": [{ "element": "Pr", "occu": 1 }],
        "abc": [0.136251999999999, 0.136251999999999, 0.591245],
        "properties": { "magmom": -0.0 },
        "label": "Pr",
        "xyz": [-1.5398705082719888, -4.110953142545995, -4.110953142545995]
      },
      {
        "species": [{ "element": "Re", "occu": 1 }],
        "abc": [0.0, 0.0, 0.0],
        "properties": { "magmom": 0.0 },
        "label": "Re",
        "xyz": [0.0, 0.0, 0.0]
      },
      {
        "species": [{ "element": "Re", "occu": 1 }],
        "abc": [0.75, 0.75, 0.75],
        "properties": { "magmom": 0.0 },
        "label": "Re",
        "xyz": [-8.476227, -8.476227, -8.476227]
      }
    ]
  },
  "task_ids": null,
  "uncorrected_energy_per_atom": null,
  "energy_per_atom": -33.36736446016668,
  "formation_energy_per_atom": 0.637923575999991,
  "energy_above_hull": 0.637923575999998,
  "is_stable": false,
  "equilibrium_reaction_energy_per_atom": null,
  "decomposes_to": null,
  "xas": null,
  "grain_boundaries": null,
  "band_gap": 0.0,
  "cbm": null,
  "vbm": null,
  "efermi": 2.99568015,
  "is_gap_direct": null,
  "is_metal": null,
  "es_source_calc_id": null,
  "bandstructure": null,
  "dos": null,
  "dos_energy_up": null,
  "dos_energy_down": null,
  "is_magnetic": null,
  "ordering": null,
  "total_magnetization": 0.00023439999999900002,
  "total_magnetization_normalized_vol": null,
  "total_magnetization_normalized_formula_units": null,
  "num_magnetic_sites": null,
  "num_unique_magnetic_sites": null,
  "types_of_magnetic_species": null,
  "bulk_modulus": null,
  "shear_modulus": null,
  "universal_anisotropy": null,
  "homogeneous_poisson": null,
  "e_total": null,
  "e_ionic": null,
  "e_electronic": null,
  "n": null,
  "e_ij_max": null,
  "weighted_surface_energy_EV_PER_ANG2": null,
  "weighted_surface_energy": null,
  "weighted_work_function": null,
  "surface_anisotropy": null,
  "shape_factor": null,
  "has_reconstructed": null,
  "possible_species": null,
  "has_props": null,
  "theoretical": null,
  "database_IDs": null,
  "fields_not_requested": [
    "builder_meta",
    "nsites",
    "elements",
    "nelements",
    "composition",
    "composition_reduced",
    "chemsys",
    "symmetry",
    "property_name",
    "deprecated",
    "deprecation_reasons",
    "last_updated",
    "origins",
    "warnings",
    "task_ids",
    "uncorrected_energy_per_atom",
    "equilibrium_reaction_energy_per_atom",
    "decomposes_to",
    "xas",
    "grain_boundaries",
    "cbm",
    "vbm",
    "is_gap_direct",
    "is_metal",
    "es_source_calc_id",
    "bandstructure",
    "dos",
    "dos_energy_up",
    "dos_energy_down",
    "is_magnetic",
    "ordering",
    "total_magnetization_normalized_vol",
    "total_magnetization_normalized_formula_units",
    "num_magnetic_sites",
    "num_unique_magnetic_sites",
    "types_of_magnetic_species",
    "bulk_modulus",
    "shear_modulus",
    "universal_anisotropy",
    "homogeneous_poisson",
    "e_total",
    "e_ionic",
    "e_electronic",
    "n",
    "e_ij_max",
    "weighted_surface_energy_EV_PER_ANG2",
    "weighted_surface_energy",
    "weighted_work_function",
    "surface_anisotropy",
    "shape_factor",
    "has_reconstructed",
    "possible_species",
    "has_props",
    "theoretical",
    "database_IDs"
  ]
}
