{
  "builder_meta": null,
  "nsites": null,
  "elements": null,
  "nelements": null,
  "composition": null,
  "composition_reduced": null,
  "formula_pretty": "Pr4Ru",
  "formula_anonymous": "AB4",
  "chemsys": null,
  "volume": 350.6629354488975,
  "density": 6.295283603209967,
  "density_atomic": 35.066293544889746,
  "symmetry": null,
  "property_name": null,
  "material_id": "mp-1209568",
  "deprecated": null,
  "deprecation_reasons": null,
  "last_updated": null,
  "origins": null,
  "warnings": null,
  "structure": {
    "@module": "pymatgen.core.structure",
    "@class": "Structure",
    "charge": 0,
    "lattice": {
      "matrix": [
        [-5.596974, -5.596974, 0.0],
        [-5.596974, 0.0, -5.596974],
        [0.0, -5.596974, -5.596974]
      ],
      "pbc": [true, true, true],
      "a": 7.915316539049591,
      "b": 7.915316539049591,
      "c": 7.915316539049591,
      "alpha": 59.99999999999999,
      "beta": 59.99999999999999,
      "gamma": 59.99999999999999,
      "volume": 350.6629354488975
    },
    "properties": {},
    "sites": [
      {
        "species": [{ "element": "Pr", "occu": 1 }],
        "abc": [0.61323, 0.61323, 0.61323],
        "properties": { "magmom": 0.0 },
        "label": "Pr",
        "xyz": [-6.864464732040001, -6.864464732040001, -6.864464732040001]
      },
      {
        "species": [{ "element": "Pr", "occu": 1 }],
        "abc": [0.160308999999999, 0.61323, 0.61323],
        "properties": { "magmom": -0.0 },
        "label": "Pr",
        "xyz": [-4.329477670985995, -4.329477670985995, -6.864464732040001]
      },
      {
        "species": [{ "element": "Pr", "occu": 1 }],
        "abc": [0.61323, 0.160308999999999, 0.61323],
        "properties": { "magmom": -0.0 },
        "label": "Pr",
        "xyz": [-4.329477670985995, -6.864464732040001, -4.329477670985995]
      },
      {
        "species": [{ "element": "Pr", "occu": 1 }],
        "abc": [0.589691, 0.13677, 0.13677],
        "properties": { "magmom": -0.0 },
        "label": "Pr",
        "xyz": [-4.065983329014, -4.065983329014, -1.5309962679600002]
      },
      {
        "species": [{ "element": "Pr", "occu": 1 }],
        "abc": [0.13677, 0.13677, 0.13677],
        "properties": { "magmom": 0.0 },
        "label": "Pr",
        "xyz": [-1.5309962679600002, -1.5309962679600002, -1.5309962679600002]
      },
      {
        "species": [{ "element": "Pr", "occu": 1 }],
        "abc": [0.61323, 0.61323, 0.160308999999999],
        "properties": { "magmom": -0.0 },
        "label": "Pr",
        "xyz": [-6.864464732040001, -4.329477670985995, -4.329477670985995]
      },
      {
        "species": [{ "element": "Pr", "occu": 1 }],
        "abc": [0.13677, 0.589691, 0.13677],
        "properties": { "magmom": -0.0 },
        "label": "Pr",
        "xyz": [-4.065983329014, -1.5309962679600002, -4.065983329014]
      },
      {
        "species": [{ "element": "Pr", "occu": 1 }],
        "abc": [0.13677, 0.13677, 0.589691],
        "properties": { "magmom": -0.0 },
        "label": "Pr",
        "xyz": [-1.5309962679600002, -4.065983329014, -4.065983329014]
      },
      {
        "species": [{ "element": "Ru", "occu": 1 }],
        "abc": [0.0, 0.0, 0.0],
        "properties": { "magmom": -0.0 },
        "label": "Ru",
        "xyz": [0.0, 0.0, 0.0]
      },
      {
        "species": [{ "element": "Ru", "occu": 1 }],
        "abc": [0.75, 0.75, 0.75],
        "properties": { "magmom": -0.0 },
        "label": "Ru",
        "xyz": [-8.395461000000001, -8.395461000000001, -8.395461000000001]
      }
    ]
  },
  "task_ids": null,
  "uncorrected_energy_per_atom": null,
  "energy_per_atom": -28.331007089999996,
  "formation_energy_per_atom": 0.277065063666674,
  "energy_above_hull": 0.41337655300000203,
  "is_stable": false,
  "equilibrium_reaction_energy_per_atom": null,
  "decomposes_to": null,
  "xas": null,
  "grain_boundaries": null,
  "band_gap": 0.0,
  "cbm": null,
  "vbm": null,
  "efermi": 3.33769087,
  "is_gap_direct": null,
  "is_metal": null,
  "es_source_calc_id": null,
  "bandstructure": null,
  "dos": null,
  "dos_energy_up": null,
  "dos_energy_down": null,
  "is_magnetic": null,
  "ordering": null,
  "total_magnetization": 0.0014367,
  "total_magnetization_normalized_vol": null,
  "total_magnetization_normalized_formula_units": null,
  "num_magnetic_sites": null,
  "num_unique_magnetic_sites": null,
  "types_of_magnetic_species": null,
  "bulk_modulus": null,
  "shear_modulus": null,
  "universal_anisotropy": null,
  "homogeneous_poisson": null,
  "e_total": null,
  "e_ionic": null,
  "e_electronic": null,
  "n": null,
  "e_ij_max": null,
  "weighted_surface_energy_EV_PER_ANG2": null,
  "weighted_surface_energy": null,
  "weighted_work_function": null,
  "surface_anisotropy": null,
  "shape_factor": null,
  "has_reconstructed": null,
  "possible_species": null,
  "has_props": null,
  "theoretical": null,
  "database_IDs": null,
  "fields_not_requested": [
    "builder_meta",
    "nsites",
    "elements",
    "nelements",
    "composition",
    "composition_reduced",
    "chemsys",
    "symmetry",
    "property_name",
    "deprecated",
    "deprecation_reasons",
    "last_updated",
    "origins",
    "warnings",
    "task_ids",
    "uncorrected_energy_per_atom",
    "equilibrium_reaction_energy_per_atom",
    "decomposes_to",
    "xas",
    "grain_boundaries",
    "cbm",
    "vbm",
    "is_gap_direct",
    "is_metal",
    "es_source_calc_id",
    "bandstructure",
    "dos",
    "dos_energy_up",
    "dos_energy_down",
    "is_magnetic",
    "ordering",
    "total_magnetization_normalized_vol",
    "total_magnetization_normalized_formula_units",
    "num_magnetic_sites",
    "num_unique_magnetic_sites",
    "types_of_magnetic_species",
    "bulk_modulus",
    "shear_modulus",
    "universal_anisotropy",
    "homogeneous_poisson",
    "e_total",
    "e_ionic",
    "e_electronic",
    "n",
    "e_ij_max",
    "weighted_surface_energy_EV_PER_ANG2",
    "weighted_surface_energy",
    "weighted_work_function",
    "surface_anisotropy",
    "shape_factor",
    "has_reconstructed",
    "possible_species",
    "has_props",
    "theoretical",
    "database_IDs"
  ]
}
