{
  "builder_meta": null,
  "nsites": null,
  "elements": null,
  "nelements": null,
  "composition": null,
  "composition_reduced": null,
  "formula_pretty": "Pr5Bi3",
  "formula_anonymous": "A3B5",
  "chemsys": null,
  "volume": 529.5546450164949,
  "density": 8.350313471544423,
  "density_atomic": 33.09716531353093,
  "symmetry": null,
  "property_name": null,
  "material_id": "mp-1105548",
  "deprecated": null,
  "deprecation_reasons": null,
  "last_updated": null,
  "origins": null,
  "warnings": null,
  "structure": {
    "@module": "pymatgen.core.structure",
    "@class": "Structure",
    "charge": 0,
    "lattice": {
      "matrix": [
        [-2.9e-7, 9.9e-7, -6.65475601],
        [-4.79281807, -8.30136544, 1.29e-6],
        [-4.79295366, 8.30144302, -1.719999999999999e-6]
      ],
      "pbc": [true, true, true],
      "a": 6.65475601000008,
      "b": 9.585602392158075,
      "c": 9.585737373891332,
      "alpha": 119.99929706246142,
      "beta": 89.9999810891412,
      "gamma": 90.00001384395661,
      "volume": 529.554645016495
    },
    "properties": {},
    "sites": [
      {
        "species": [{ "element": "Pr", "occu": 1 }],
        "abc": [0.50000113, 0.33333203, 0.6666678500000001],
        "properties": { "magmom": 0.23900000000000002 },
        "label": "Pr",
        "xyz": [-4.792908033355942, 2.767194671154984, -3.3273862415446747]
      },
      {
        "species": [{ "element": "Pr", "occu": 1 }],
        "abc": [0.50000045, 0.6666651100000001, 0.33333276],
        "properties": { "magmom": 0.23900000000000002 },
        "label": "Pr",
        "xyz": [-4.792853202886571, -2.767087295368018, -3.32738071297456]
      },
      {
        "species": [{ "element": "Pr", "occu": 1 }],
        "abc": [1.129999999999999e-6, 0.66666387, 0.33333402],
        "properties": { "magmom": 0.23900000000000002 },
        "label": "Pr",
        "xyz": [-4.792853153913972, -2.767067036855993, -7.233212413399992e-6]
      },
      {
        "species": [{ "element": "Pr", "occu": 1 }],
        "abc": [4.599999999999998e-7, 0.33333082, 0.66666779],
        "properties": { "magmom": 0.23900000000000002 },
        "label": "Pr",
        "xyz": [-4.792901801468663, 2.7672037227199207, -3.777859605599998e-6]
      },
      {
        "species": [{ "element": "Pr", "occu": 1 }],
        "abc": [0.74999819, 0.24971725, 0.99999684],
        "properties": { "magmom": 0.077 },
        "label": "Pr",
        "xyz": [-5.989788079956616, 6.228423381016427, -4.9910563602509335]
      },
      {
        "species": [{ "element": "Pr", "occu": 1 }],
        "abc": [0.75000055, 0.75024314, 0.75024455],
        "properties": { "magmom": 0.077 },
        "label": "Pr",
        "xyz": [-7.191666457603253, 7.065139800488396e-5, -4.991070990222781]
      },
      {
        "species": [{ "element": "Pr", "occu": 1 }],
        "abc": [0.75000066, 2.88e-6, 0.24975412],
        "properties": { "magmom": 0.077 },
        "label": "Pr",
        "xyz": [-1.1970739443703122, 2.073296430758429, -4.991071829212338]
      },
      {
        "species": [{ "element": "Pr", "occu": 1 }],
        "abc": [0.24999943, 0.75028116, 0.99999823],
        "properties": { "magmom": 0.077 },
        "label": "Pr",
        "xyz": [-8.388906350200418, 2.0730704820381805, -1.6636859614233332]
      },
      {
        "species": [{ "element": "Pr", "occu": 1 }],
        "abc": [0.250001, 0.2497565, 0.24975456000000001],
        "properties": { "magmom": 0.077 },
        "label": "Pr",
        "xyz": [-2.3940995712539346, 3.518810801406147e-6, -1.663695764647968]
      },
      {
        "species": [{ "element": "Pr", "occu": 1 }],
        "abc": [0.25000021, 5.019999999999998e-6, 0.75024863],
        "properties": { "magmom": 0.077 },
        "label": "Pr",
        "xyz": [-3.5959310495152583, 6.2281048274237625, -1.66369169041993]
      },
      {
        "species": [{ "element": "Bi", "occu": 1 }],
        "abc": [0.74999921, 0.61431758, -1.559999999999999e-6],
        "properties": { "magmom": -0.033 },
        "label": "Bi",
        "xyz": [-2.9443051386347325, -5.099686935548329, -4.991060957770391]
      },
      {
        "species": [{ "element": "Bi", "occu": 1 }],
        "abc": [0.74999991, 0.38566727, 0.38567336],
        "properties": { "magmom": -0.033 },
        "label": "Bi",
        "xyz": [-3.6969478205400406, 8.121835471008865e-5, -4.991066574419359]
      },
      {
        "species": [{ "element": "Bi", "occu": 1 }],
        "abc": [0.74999986, -4.61e-6, 0.61432645],
        "properties": { "magmom": -0.033 },
        "label": "Bi",
        "xyz": [-2.9444163295709638, 5.099835032148419, -4.9910671324816]
      },
      {
        "species": [{ "element": "Bi", "occu": 1 }],
        "abc": [0.24999908, 0.38567848, -2.28e-6],
        "properties": { "magmom": -0.033 },
        "label": "Bi",
        "xyz": [-1.848475932719522, -3.201676684614727, -1.66368238259531]
      },
      {
        "species": [{ "element": "Bi", "occu": 1 }],
        "abc": [0.25000046, 0.6143324, 0.61432816],
        "properties": { "magmom": -0.033 },
        "label": "Bi",
        "xyz": [-5.888829903119667, 1.2709289643808575e-5, -1.6636923278434037]
      },
      {
        "species": [{ "element": "Bi", "occu": 1 }],
        "abc": [0.25000029, 1.0100000000000002e-5, 0.38567652],
        "properties": { "magmom": -0.033 },
        "label": "Bi",
        "xyz": [-1.8485781680726545, 3.2015880586412337, -1.6636915957298286]
      }
    ]
  },
  "task_ids": null,
  "uncorrected_energy_per_atom": null,
  "energy_per_atom": -41.242856374375,
  "formation_energy_per_atom": -0.9270309897916671,
  "energy_above_hull": 0.0,
  "is_stable": true,
  "equilibrium_reaction_energy_per_atom": null,
  "decomposes_to": null,
  "xas": null,
  "grain_boundaries": null,
  "band_gap": 0.0,
  "cbm": null,
  "vbm": null,
  "efermi": 4.77267044,
  "is_gap_direct": null,
  "is_metal": null,
  "es_source_calc_id": null,
  "bandstructure": null,
  "dos": null,
  "dos_energy_up": null,
  "dos_energy_down": null,
  "is_magnetic": null,
  "ordering": null,
  "total_magnetization": 2.7223978,
  "total_magnetization_normalized_vol": null,
  "total_magnetization_normalized_formula_units": null,
  "num_magnetic_sites": null,
  "num_unique_magnetic_sites": null,
  "types_of_magnetic_species": null,
  "bulk_modulus": null,
  "shear_modulus": null,
  "universal_anisotropy": null,
  "homogeneous_poisson": null,
  "e_total": null,
  "e_ionic": null,
  "e_electronic": null,
  "n": null,
  "e_ij_max": null,
  "weighted_surface_energy_EV_PER_ANG2": null,
  "weighted_surface_energy": null,
  "weighted_work_function": null,
  "surface_anisotropy": null,
  "shape_factor": null,
  "has_reconstructed": null,
  "possible_species": null,
  "has_props": null,
  "theoretical": null,
  "database_IDs": null,
  "fields_not_requested": [
    "builder_meta",
    "nsites",
    "elements",
    "nelements",
    "composition",
    "composition_reduced",
    "chemsys",
    "symmetry",
    "property_name",
    "deprecated",
    "deprecation_reasons",
    "last_updated",
    "origins",
    "warnings",
    "task_ids",
    "uncorrected_energy_per_atom",
    "equilibrium_reaction_energy_per_atom",
    "decomposes_to",
    "xas",
    "grain_boundaries",
    "cbm",
    "vbm",
    "is_gap_direct",
    "is_metal",
    "es_source_calc_id",
    "bandstructure",
    "dos",
    "dos_energy_up",
    "dos_energy_down",
    "is_magnetic",
    "ordering",
    "total_magnetization_normalized_vol",
    "total_magnetization_normalized_formula_units",
    "num_magnetic_sites",
    "num_unique_magnetic_sites",
    "types_of_magnetic_species",
    "bulk_modulus",
    "shear_modulus",
    "universal_anisotropy",
    "homogeneous_poisson",
    "e_total",
    "e_ionic",
    "e_electronic",
    "n",
    "e_ij_max",
    "weighted_surface_energy_EV_PER_ANG2",
    "weighted_surface_energy",
    "weighted_work_function",
    "surface_anisotropy",
    "shape_factor",
    "has_reconstructed",
    "possible_species",
    "has_props",
    "theoretical",
    "database_IDs"
  ]
}
