{"builder_meta": null, "nsites": null, "elements": null, "nelements": null, "composition": null, "composition_reduced": null, "formula_pretty": "Pr5Co2", "formula_anonymous": "A2B5", "chemsys": null, "volume": 389.51514766435247, "density": 7.011973944848403, "density_atomic": 27.82251054745375, "symmetry": null, "property_name": null, "material_id": "mp-1104821", "deprecated": null, "deprecation_reasons": null, "last_updated": null, "origins": null, "warnings": null, "structure": {"@module": "pymatgen.core.structure", "@class": "Structure", "charge": 0, "lattice": {"matrix": [[-2e-08, 6.59710938, -1e-08], [0.10285356, -1e-08, 7.05972278], [8.3509796, -3.29855626, -0.85271843]], "pbc": [true, true, true], "a": 6.59710938, "b": 7.060471980346328, "c": 9.01922737272229, "alpha": 94.64870885067418, "beta": 111.4522028340546, "gamma": 90.00000017052105, "volume": 389.51514766435247}, "properties": {}, "sites": [{"species": [{"element": "Pr", "occu": 1}], "abc": [0.98947663, 0.9096882, 0.18923258], "properties": {"magmom": -0.0}, "label": "Pr", "xyz": [1.6738420653058277, 5.903491236611956, 6.260784389819981]}, {"species": [{"element": "Pr", "occu": 1}], "abc": [0.80024605, 0.590311799999999, 0.81076742], "properties": {"magmom": -0.0}, "label": "Pr", "xyz": [6.8314178388997195, 2.6049487682147827, 3.4760813322827864]}, {"species": [{"element": "Pr", "occu": 1}], "abc": [0.01052337, 0.0903118, 0.81076742], "properties": {"magmom": -0.0}, "label": "Pr", "xyz": [6.779991074694173, -2.6049381266119562, -0.0537800498199803]}, {"species": [{"element": "Pr", "occu": 1}], "abc": [0.19975395, 0.4096882, 0.18923258], "properties": {"magmom": -0.0}, "label": "Pr", "xyz": [1.6224153011002813, 0.6936043417852182, 2.7309230077172075]}, {"species": [{"element": "Pr", "occu": 1}], "abc": [0.64548837, 0.82617472, 0.42495335], "properties": {"magmom": -0.0}, "label": "Pr", "xyz": [3.6337517550258958, 2.856624839295693, 5.470198931153998]}, {"species": [{"element": "Pr", "occu": 1}], "abc": [0.22053602, 0.67382528, 0.57504665], "properties": {"magmom": -0.0}, "label": "Pr", "xyz": [4.871508167653617, -0.4419234877179141, 4.266666800185759]}, {"species": [{"element": "Pr", "occu": 1}], "abc": [0.35451163, 0.17382528, 0.57504665], "properties": {"magmom": -0.0}, "label": "Pr", "xyz": [4.820081384974104, 0.44192827070430774, 0.7368054088460028]}, {"species": [{"element": "Pr", "occu": 1}], "abc": [0.7794639800000001, 0.32617472000000003, 0.42495335], "properties": {"magmom": -0.0}, "label": "Pr", "xyz": [3.5823249723463837, 3.740476597717915, 1.940337539814242]}, {"species": [{"element": "Pr", "occu": 1}], "abc": [0.4340792, 0.75, 0.0], "properties": {"magmom": -0.0}, "label": "Pr", "xyz": [0.077140161318416, 2.863667954482896, 5.294792080659208]}, {"species": [{"element": "Pr", "occu": 1}], "abc": [0.5659208, 0.25, -0.0], "properties": {"magmom": -0.0}, "label": "Pr", "xyz": [0.025713378681584, 3.733441415517104, 1.7649306893407921]}, {"species": [{"element": "Co", "occu": 1}], "abc": [0.82478063, 0.57438617, 0.22068000000000002], "properties": {"magmom": 0.0}, "label": "Co", "xyz": [1.9019718240316528, 4.7132426294146486, 3.8668292174857473]}, {"species": [{"element": "Co", "occu": 1}], "abc": [0.6041016300000001, 0.92561383, 0.77932], "properties": {"magmom": 0.0}, "label": "Co", "xyz": [6.603288087390703, 1.414693655946952, 5.870036508225431]}, {"species": [{"element": "Co", "occu": 1}], "abc": [0.17521937, 0.42561383, 0.77932], "properties": {"magmom": 0.0}, "label": "Co", "xyz": [6.551861315968348, -1.4146895194146474, 2.340175122514254]}, {"species": [{"element": "Co", "occu": 1}], "abc": [0.39589837, 0.07438617, 0.22068000000000002], "properties": {"magmom": 0.0}, "label": "Co", "xyz": [1.850545052609298, 1.8838594540530487, 0.3369678317745689]}]}, "task_ids": null, "uncorrected_energy_per_atom": null, "energy_per_atom": -24.727212925714287, "formation_energy_per_atom": 0.056821945952382005, "energy_above_hull": 0.057407661470588005, "is_stable": false, "equilibrium_reaction_energy_per_atom": null, "decomposes_to": null, "xas": null, "grain_boundaries": null, "band_gap": 0.0, "cbm": null, "vbm": null, "efermi": 3.85247377, "is_gap_direct": null, "is_metal": null, "es_source_calc_id": null, "bandstructure": null, "dos": null, "dos_energy_up": null, "dos_energy_down": null, "is_magnetic": null, "ordering": null, "total_magnetization": 3.01e-05, "total_magnetization_normalized_vol": null, "total_magnetization_normalized_formula_units": null, "num_magnetic_sites": null, "num_unique_magnetic_sites": null, "types_of_magnetic_species": null, "bulk_modulus": null, "shear_modulus": null, "universal_anisotropy": null, "homogeneous_poisson": null, "e_total": null, "e_ionic": null, "e_electronic": null, "n": null, "e_ij_max": null, "weighted_surface_energy_EV_PER_ANG2": null, "weighted_surface_energy": null, "weighted_work_function": null, "surface_anisotropy": null, "shape_factor": null, "has_reconstructed": null, "possible_species": null, "has_props": null, "theoretical": null, "database_IDs": null, "fields_not_requested": ["builder_meta", "nsites", "elements", "nelements", "composition", "composition_reduced", "chemsys", "symmetry", "property_name", "deprecated", "deprecation_reasons", "last_updated", "origins", "warnings", "task_ids", "uncorrected_energy_per_atom", "equilibrium_reaction_energy_per_atom", "decomposes_to", "xas", "grain_boundaries", "cbm", "vbm", "is_gap_direct", "is_metal", "es_source_calc_id", "bandstructure", "dos", "dos_energy_up", "dos_energy_down", "is_magnetic", "ordering", "total_magnetization_normalized_vol", "total_magnetization_normalized_formula_units", "num_magnetic_sites", "num_unique_magnetic_sites", "types_of_magnetic_species", "bulk_modulus", "shear_modulus", "universal_anisotropy", "homogeneous_poisson", "e_total", "e_ionic", "e_electronic", "n", "e_ij_max", "weighted_surface_energy_EV_PER_ANG2", "weighted_surface_energy", "weighted_work_function", "surface_anisotropy", "shape_factor", "has_reconstructed", "possible_species", "has_props", "theoretical", "database_IDs"]}