{
  "builder_meta": null,
  "nsites": null,
  "elements": null,
  "nelements": null,
  "composition": null,
  "composition_reduced": null,
  "formula_pretty": "Pr5Ge4",
  "formula_anonymous": "A4B5",
  "chemsys": null,
  "volume": 998.665261340848,
  "density": 6.618431953913028,
  "density_atomic": 27.740701703912446,
  "symmetry": null,
  "property_name": null,
  "material_id": "mp-1908",
  "deprecated": null,
  "deprecation_reasons": null,
  "last_updated": null,
  "origins": null,
  "warnings": null,
  "structure": {
    "@module": "pymatgen.core.structure",
    "@class": "Structure",
    "charge": 0,
    "lattice": {
      "matrix": [
        [8.017251, 0.0, 0.0],
        [0.0, 8.110656, 0.0],
        [0.0, 0.0, 15.358135]
      ],
      "pbc": [true, true, true],
      "a": 8.017251,
      "b": 8.110656,
      "c": 15.358135,
      "alpha": 90.0,
      "beta": 90.0,
      "gamma": 90.0,
      "volume": 998.665261340848
    },
    "properties": {},
    "sites": [
      {
        "species": [{ "element": "Pr", "occu": 1 }],
        "abc": [0.380297999999999, 0.160058, 0.114330999999999],
        "properties": { "magmom": 0.008 },
        "label": "Pr",
        "xyz": [3.048944520797992, 1.298175378048, 1.7559109326849849]
      },
      {
        "species": [{ "element": "Pr", "occu": 1 }],
        "abc": [0.880297999999999, 0.339941999999999, 0.385669],
        "properties": { "magmom": 0.008 },
        "label": "Pr",
        "xyz": [7.057570020797992, 2.757152621951992, 5.923156567315]
      },
      {
        "species": [{ "element": "Pr", "occu": 1 }],
        "abc": [0.119701999999999, 0.660057999999999, 0.885668999999999],
        "properties": { "magmom": 0.008 },
        "label": "Pr",
        "xyz": [0.959680979201992, 5.353503378047993, 13.602224067314985]
      },
      {
        "species": [{ "element": "Pr", "occu": 1 }],
        "abc": [0.619702, 0.839942, 0.614331],
        "properties": { "magmom": 0.008 },
        "label": "Pr",
        "xyz": [4.968306479202, 6.812480621952, 9.434978432685]
      },
      {
        "species": [{ "element": "Pr", "occu": 1 }],
        "abc": [0.380297999999999, 0.160058, 0.385669],
        "properties": { "magmom": 0.008 },
        "label": "Pr",
        "xyz": [3.048944520797992, 1.298175378048, 5.923156567315]
      },
      {
        "species": [{ "element": "Pr", "occu": 1 }],
        "abc": [0.880297999999999, 0.339941999999999, 0.114330999999999],
        "properties": { "magmom": 0.008 },
        "label": "Pr",
        "xyz": [7.057570020797992, 2.757152621951992, 1.7559109326849849]
      },
      {
        "species": [{ "element": "Pr", "occu": 1 }],
        "abc": [0.119701999999999, 0.660057999999999, 0.614331],
        "properties": { "magmom": 0.008 },
        "label": "Pr",
        "xyz": [0.959680979201992, 5.353503378047993, 9.434978432685]
      },
      {
        "species": [{ "element": "Pr", "occu": 1 }],
        "abc": [0.619702, 0.839942, 0.885668999999999],
        "properties": { "magmom": 0.008 },
        "label": "Pr",
        "xyz": [4.968306479202, 6.812480621952, 13.602224067314985]
      },
      {
        "species": [{ "element": "Pr", "occu": 1 }],
        "abc": [0.024647, 0.820998, 0.397233],
        "properties": { "magmom": 0.007 },
        "label": "Pr",
        "xyz": [0.197601185397, 6.658832354688, 6.100758040455]
      },
      {
        "species": [{ "element": "Pr", "occu": 1 }],
        "abc": [0.524647, 0.679002, 0.102767],
        "properties": { "magmom": 0.007 },
        "label": "Pr",
        "xyz": [4.206226685397, 5.507151645312001, 1.578309459545]
      },
      {
        "species": [{ "element": "Pr", "occu": 1 }],
        "abc": [0.475352999999999, 0.320998, 0.602766999999999],
        "properties": { "magmom": 0.007 },
        "label": "Pr",
        "xyz": [3.8110243146029923, 2.6035043546880003, 9.257376959544986]
      },
      {
        "species": [{ "element": "Pr", "occu": 1 }],
        "abc": [0.975352999999999, 0.179002, 0.897233],
        "properties": { "magmom": 0.007 },
        "label": "Pr",
        "xyz": [7.819649814602992, 1.4518236453120001, 13.779825540455]
      },
      {
        "species": [{ "element": "Pr", "occu": 1 }],
        "abc": [0.975352999999999, 0.179002, 0.602766999999999],
        "properties": { "magmom": 0.007 },
        "label": "Pr",
        "xyz": [7.819649814602992, 1.4518236453120001, 9.257376959544986]
      },
      {
        "species": [{ "element": "Pr", "occu": 1 }],
        "abc": [0.475352999999999, 0.320998, 0.897233],
        "properties": { "magmom": 0.007 },
        "label": "Pr",
        "xyz": [3.8110243146029923, 2.6035043546880003, 13.779825540455]
      },
      {
        "species": [{ "element": "Pr", "occu": 1 }],
        "abc": [0.524647, 0.679002, 0.397233],
        "properties": { "magmom": 0.007 },
        "label": "Pr",
        "xyz": [4.206226685397, 5.507151645312001, 6.100758040455]
      },
      {
        "species": [{ "element": "Pr", "occu": 1 }],
        "abc": [0.024647, 0.820998, 0.102767],
        "properties": { "magmom": 0.007 },
        "label": "Pr",
        "xyz": [0.197601185397, 6.658832354688, 1.578309459545]
      },
      {
        "species": [{ "element": "Pr", "occu": 1 }],
        "abc": [0.285058, 0.997251999999999, 0.75],
        "properties": { "magmom": 0.017 },
        "label": "Pr",
        "xyz": [2.285381535558, 8.088367917311993, 11.51860125]
      },
      {
        "species": [{ "element": "Pr", "occu": 1 }],
        "abc": [0.785057999999999, 0.502748, 0.75],
        "properties": { "magmom": 0.017 },
        "label": "Pr",
        "xyz": [6.294007035557992, 4.077616082688, 11.51860125]
      },
      {
        "species": [{ "element": "Pr", "occu": 1 }],
        "abc": [0.214942, 0.49725199999999903, 0.25],
        "properties": { "magmom": 0.017 },
        "label": "Pr",
        "xyz": [1.723243964442, 4.033039917311992, 3.83953375]
      },
      {
        "species": [{ "element": "Pr", "occu": 1 }],
        "abc": [0.714942, 0.002748, 0.25],
        "properties": { "magmom": 0.017 },
        "label": "Pr",
        "xyz": [5.731869464442, 0.022288082688, 3.83953375]
      },
      {
        "species": [{ "element": "Ge", "occu": 1 }],
        "abc": [0.777574, 0.531934999999999, 0.545042],
        "properties": { "magmom": -0.001 },
        "label": "Ge",
        "xyz": [6.234005929074, 4.314341799359992, 8.370828616670002]
      },
      {
        "species": [{ "element": "Ge", "occu": 1 }],
        "abc": [0.277574, 0.968065, 0.954958],
        "properties": { "magmom": -0.001 },
        "label": "Ge",
        "xyz": [2.225380429074, 7.85164220064, 14.66637388333]
      },
      {
        "species": [{ "element": "Ge", "occu": 1 }],
        "abc": [0.722426, 0.031935, 0.454958],
        "properties": { "magmom": -0.001 },
        "label": "Ge",
        "xyz": [5.791870570926, 0.25901379936, 6.98730638333]
      },
      {
        "species": [{ "element": "Ge", "occu": 1 }],
        "abc": [0.222425999999999, 0.468064999999999, 0.045042],
        "properties": { "magmom": -0.001 },
        "label": "Ge",
        "xyz": [1.7832450709259922, 3.7963142006399924, 0.6917611166700001]
      },
      {
        "species": [{ "element": "Ge", "occu": 1 }],
        "abc": [0.222425999999999, 0.468064999999999, 0.454958],
        "properties": { "magmom": -0.001 },
        "label": "Ge",
        "xyz": [1.7832450709259922, 3.7963142006399924, 6.98730638333]
      },
      {
        "species": [{ "element": "Ge", "occu": 1 }],
        "abc": [0.722426, 0.031935, 0.045042],
        "properties": { "magmom": -0.001 },
        "label": "Ge",
        "xyz": [5.791870570926, 0.25901379936, 0.6917611166700001]
      },
      {
        "species": [{ "element": "Ge", "occu": 1 }],
        "abc": [0.277574, 0.968065, 0.545042],
        "properties": { "magmom": -0.001 },
        "label": "Ge",
        "xyz": [2.225380429074, 7.85164220064, 8.370828616670002]
      },
      {
        "species": [{ "element": "Ge", "occu": 1 }],
        "abc": [0.777574, 0.531934999999999, 0.954958],
        "properties": { "magmom": -0.001 },
        "label": "Ge",
        "xyz": [6.234005929074, 4.314341799359992, 14.66637388333]
      },
      {
        "species": [{ "element": "Ge", "occu": 1 }],
        "abc": [0.910447, 0.891392, 0.75],
        "properties": { "magmom": 0.004 },
        "label": "Ge",
        "xyz": [7.299282121197, 7.229773873152, 11.51860125]
      },
      {
        "species": [{ "element": "Ge", "occu": 1 }],
        "abc": [0.410447, 0.608607999999999, 0.75],
        "properties": { "magmom": 0.004 },
        "label": "Ge",
        "xyz": [3.290656621197, 4.9362101268479925, 11.51860125]
      },
      {
        "species": [{ "element": "Ge", "occu": 1 }],
        "abc": [0.589553, 0.391391999999999, 0.25],
        "properties": { "magmom": 0.004 },
        "label": "Ge",
        "xyz": [4.726594378803, 3.1744458731519924, 3.83953375]
      },
      {
        "species": [{ "element": "Ge", "occu": 1 }],
        "abc": [0.089553, 0.108608, 0.25],
        "properties": { "magmom": 0.004 },
        "label": "Ge",
        "xyz": [0.717968878803, 0.880882126848, 3.83953375]
      },
      {
        "species": [{ "element": "Ge", "occu": 1 }],
        "abc": [0.175323999999999, 0.367676, 0.75],
        "properties": { "magmom": 0.0 },
        "label": "Ge",
        "xyz": [1.405616514323992, 2.982093555456, 11.51860125]
      },
      {
        "species": [{ "element": "Ge", "occu": 1 }],
        "abc": [0.675323999999999, 0.132324, 0.75],
        "properties": { "magmom": 0.0 },
        "label": "Ge",
        "xyz": [5.414242014323992, 1.073234444544, 11.51860125]
      },
      {
        "species": [{ "element": "Ge", "occu": 1 }],
        "abc": [0.324675999999999, 0.867676, 0.25],
        "properties": { "magmom": 0.0 },
        "label": "Ge",
        "xyz": [2.603008985675992, 7.0374215554560005, 3.83953375]
      },
      {
        "species": [{ "element": "Ge", "occu": 1 }],
        "abc": [0.824676, 0.632324, 0.25],
        "properties": { "magmom": 0.0 },
        "label": "Ge",
        "xyz": [6.611634485675999, 5.128562444544, 3.83953375]
      }
    ]
  },
  "task_ids": null,
  "uncorrected_energy_per_atom": null,
  "energy_per_atom": -23.413517779999992,
  "formation_energy_per_atom": -0.912663095370362,
  "energy_above_hull": 0.020683366388894002,
  "is_stable": false,
  "equilibrium_reaction_energy_per_atom": null,
  "decomposes_to": null,
  "xas": null,
  "grain_boundaries": null,
  "band_gap": 0.0,
  "cbm": null,
  "vbm": null,
  "efermi": 3.525715029999999,
  "is_gap_direct": null,
  "is_metal": null,
  "es_source_calc_id": null,
  "bandstructure": null,
  "dos": null,
  "dos_energy_up": null,
  "dos_energy_down": null,
  "is_magnetic": null,
  "ordering": null,
  "total_magnetization": 0.514474,
  "total_magnetization_normalized_vol": null,
  "total_magnetization_normalized_formula_units": null,
  "num_magnetic_sites": null,
  "num_unique_magnetic_sites": null,
  "types_of_magnetic_species": null,
  "bulk_modulus": null,
  "shear_modulus": null,
  "universal_anisotropy": null,
  "homogeneous_poisson": null,
  "e_total": null,
  "e_ionic": null,
  "e_electronic": null,
  "n": null,
  "e_ij_max": null,
  "weighted_surface_energy_EV_PER_ANG2": null,
  "weighted_surface_energy": null,
  "weighted_work_function": null,
  "surface_anisotropy": null,
  "shape_factor": null,
  "has_reconstructed": null,
  "possible_species": null,
  "has_props": null,
  "theoretical": null,
  "database_IDs": null,
  "fields_not_requested": [
    "builder_meta",
    "nsites",
    "elements",
    "nelements",
    "composition",
    "composition_reduced",
    "chemsys",
    "symmetry",
    "property_name",
    "deprecated",
    "deprecation_reasons",
    "last_updated",
    "origins",
    "warnings",
    "task_ids",
    "uncorrected_energy_per_atom",
    "equilibrium_reaction_energy_per_atom",
    "decomposes_to",
    "xas",
    "grain_boundaries",
    "cbm",
    "vbm",
    "is_gap_direct",
    "is_metal",
    "es_source_calc_id",
    "bandstructure",
    "dos",
    "dos_energy_up",
    "dos_energy_down",
    "is_magnetic",
    "ordering",
    "total_magnetization_normalized_vol",
    "total_magnetization_normalized_formula_units",
    "num_magnetic_sites",
    "num_unique_magnetic_sites",
    "types_of_magnetic_species",
    "bulk_modulus",
    "shear_modulus",
    "universal_anisotropy",
    "homogeneous_poisson",
    "e_total",
    "e_ionic",
    "e_electronic",
    "n",
    "e_ij_max",
    "weighted_surface_energy_EV_PER_ANG2",
    "weighted_surface_energy",
    "weighted_work_function",
    "surface_anisotropy",
    "shape_factor",
    "has_reconstructed",
    "possible_species",
    "has_props",
    "theoretical",
    "database_IDs"
  ]
}
