{
  "builder_meta": null,
  "nsites": null,
  "elements": null,
  "nelements": null,
  "composition": null,
  "composition_reduced": null,
  "formula_pretty": "Pr5Ge3",
  "formula_anonymous": "A3B5",
  "chemsys": null,
  "volume": 468.304758732843,
  "density": 6.541799684364569,
  "density_atomic": 29.26904742080269,
  "symmetry": null,
  "property_name": null,
  "material_id": "mp-17124",
  "deprecated": null,
  "deprecation_reasons": null,
  "last_updated": null,
  "origins": null,
  "warnings": null,
  "structure": {
    "@module": "pymatgen.core.structure",
    "@class": "Structure",
    "charge": 0,
    "lattice": {
      "matrix": [
        [8.89979553, -2.04e-6, 0.0],
        [-4.44989981, 7.70745146, -0.0],
        [0.0, 0.0, 6.82712416]
      ],
      "pbc": [true, true, true],
      "a": 8.899795530000235,
      "b": 8.899798667795478,
      "c": 6.82712416,
      "alpha": 90.0,
      "beta": 90.0,
      "gamma": 120.00001667252367,
      "volume": 468.304758732843
    },
    "properties": {},
    "sites": [
      {
        "species": [{ "element": "Pr", "occu": 1 }],
        "abc": [-0.0, 0.7527268500000001, 0.75],
        "properties": { "magmom": 0.082 },
        "label": "Pr",
        "xyz": [-3.3495590667968984, 5.801605659013701, 5.12034312]
      },
      {
        "species": [{ "element": "Pr", "occu": 1 }],
        "abc": [0.0, 0.24727315, 0.25],
        "properties": { "magmom": 0.082 },
        "label": "Pr",
        "xyz": [-1.1003407432031014, 1.9058458009862989, 1.70678104]
      },
      {
        "species": [{ "element": "Pr", "occu": 1 }],
        "abc": [0.75272585, 0.75272585, 0.25],
        "properties": { "magmom": 0.082 },
        "label": "Pr",
        "xyz": [3.3495515382483623, 5.801596416001507, 1.70678104]
      },
      {
        "species": [{ "element": "Pr", "occu": 1 }],
        "abc": [0.75272585, -0.0, 0.75],
        "properties": { "magmom": 0.082 },
        "label": "Pr",
        "xyz": [6.699106155145451, -1.535560734e-6, 5.12034312]
      },
      {
        "species": [{ "element": "Pr", "occu": 1 }],
        "abc": [0.24727415, 0.24727415, 0.75],
        "properties": { "magmom": 0.082 },
        "label": "Pr",
        "xyz": [1.1003441817516384, 1.905853003998493, 5.12034312]
      },
      {
        "species": [{ "element": "Pr", "occu": 1 }],
        "abc": [0.24727415, 0.0, 0.25],
        "properties": { "magmom": 0.082 },
        "label": "Pr",
        "xyz": [2.2006893748545497, -5.04439266e-7, 1.70678104]
      },
      {
        "species": [{ "element": "Pr", "occu": 1 }],
        "abc": [0.333333, 0.666667, 0.5],
        "properties": { "magmom": 0.111 },
        "label": "Pr",
        "xyz": [-5.813231779949746e-6, 5.1383028624845, 3.41356208]
      },
      {
        "species": [{ "element": "Pr", "occu": 1 }],
        "abc": [0.666667, 0.333333, -0.0],
        "properties": { "magmom": 0.111 },
        "label": "Pr",
        "xyz": [4.449901533231781, 2.5691465575155, 0.0]
      },
      {
        "species": [{ "element": "Pr", "occu": 1 }],
        "abc": [0.666667, 0.333333, 0.5],
        "properties": { "magmom": 0.111 },
        "label": "Pr",
        "xyz": [4.449901533231781, 2.5691465575155, 3.41356208]
      },
      {
        "species": [{ "element": "Pr", "occu": 1 }],
        "abc": [0.333333, 0.666667, -0.0],
        "properties": { "magmom": 0.111 },
        "label": "Pr",
        "xyz": [-5.813231779949746e-6, 5.1383028624845, 0.0]
      },
      {
        "species": [{ "element": "Ge", "occu": 1 }],
        "abc": [0.39220103, -0.0, 0.75],
        "properties": { "magmom": -0.021 },
        "label": "Ge",
        "xyz": [3.490508973655396, -8.000901012e-7, 5.12034312]
      },
      {
        "species": [{ "element": "Ge", "occu": 1 }],
        "abc": [0.39220103, 0.39220103, 0.25],
        "properties": { "magmom": -0.021 },
        "label": "Ge",
        "xyz": [1.7452536847765918, 3.0228696011969025, 1.70678104]
      },
      {
        "species": [{ "element": "Ge", "occu": 1 }],
        "abc": [0.0, 0.60779897, 0.25],
        "properties": { "magmom": -0.021 },
        "label": "Ge",
        "xyz": [-2.7046445211211956, 4.684581058712997, 1.70678104]
      },
      {
        "species": [{ "element": "Ge", "occu": 1 }],
        "abc": [-0.0, 0.39220103, 0.75],
        "properties": { "magmom": -0.021 },
        "label": "Ge",
        "xyz": [-1.7452552888788042, 3.022870401287004, 5.12034312]
      },
      {
        "species": [{ "element": "Ge", "occu": 1 }],
        "abc": [0.60779897, 0.60779897, 0.75],
        "properties": { "magmom": -0.021 },
        "label": "Ge",
        "xyz": [2.7046420352234093, 4.684579818803098, 5.12034312]
      },
      {
        "species": [{ "element": "Ge", "occu": 1 }],
        "abc": [0.60779897, 0.0, 0.25],
        "properties": { "magmom": -0.021 },
        "label": "Ge",
        "xyz": [5.409286556344605, -1.2399098988e-6, 1.70678104]
      }
    ]
  },
  "task_ids": null,
  "uncorrected_energy_per_atom": null,
  "energy_per_atom": -24.36952784625,
  "formation_energy_per_atom": -0.7900635235416651,
  "energy_above_hull": 0.029072620416663003,
  "is_stable": false,
  "equilibrium_reaction_energy_per_atom": null,
  "decomposes_to": null,
  "xas": null,
  "grain_boundaries": null,
  "band_gap": 0.0,
  "cbm": null,
  "vbm": null,
  "efermi": 4.09832288,
  "is_gap_direct": null,
  "is_metal": null,
  "es_source_calc_id": null,
  "bandstructure": null,
  "dos": null,
  "dos_energy_up": null,
  "dos_energy_down": null,
  "is_magnetic": null,
  "ordering": null,
  "total_magnetization": 1.944444799999999,
  "total_magnetization_normalized_vol": null,
  "total_magnetization_normalized_formula_units": null,
  "num_magnetic_sites": null,
  "num_unique_magnetic_sites": null,
  "types_of_magnetic_species": null,
  "bulk_modulus": null,
  "shear_modulus": null,
  "universal_anisotropy": null,
  "homogeneous_poisson": null,
  "e_total": null,
  "e_ionic": null,
  "e_electronic": null,
  "n": null,
  "e_ij_max": null,
  "weighted_surface_energy_EV_PER_ANG2": null,
  "weighted_surface_energy": null,
  "weighted_work_function": null,
  "surface_anisotropy": null,
  "shape_factor": null,
  "has_reconstructed": null,
  "possible_species": null,
  "has_props": null,
  "theoretical": null,
  "database_IDs": null,
  "fields_not_requested": [
    "builder_meta",
    "nsites",
    "elements",
    "nelements",
    "composition",
    "composition_reduced",
    "chemsys",
    "symmetry",
    "property_name",
    "deprecated",
    "deprecation_reasons",
    "last_updated",
    "origins",
    "warnings",
    "task_ids",
    "uncorrected_energy_per_atom",
    "equilibrium_reaction_energy_per_atom",
    "decomposes_to",
    "xas",
    "grain_boundaries",
    "cbm",
    "vbm",
    "is_gap_direct",
    "is_metal",
    "es_source_calc_id",
    "bandstructure",
    "dos",
    "dos_energy_up",
    "dos_energy_down",
    "is_magnetic",
    "ordering",
    "total_magnetization_normalized_vol",
    "total_magnetization_normalized_formula_units",
    "num_magnetic_sites",
    "num_unique_magnetic_sites",
    "types_of_magnetic_species",
    "bulk_modulus",
    "shear_modulus",
    "universal_anisotropy",
    "homogeneous_poisson",
    "e_total",
    "e_ionic",
    "e_electronic",
    "n",
    "e_ij_max",
    "weighted_surface_energy_EV_PER_ANG2",
    "weighted_surface_energy",
    "weighted_work_function",
    "surface_anisotropy",
    "shape_factor",
    "has_reconstructed",
    "possible_species",
    "has_props",
    "theoretical",
    "database_IDs"
  ]
}
