{
  "builder_meta": null,
  "nsites": null,
  "elements": null,
  "nelements": null,
  "composition": null,
  "composition_reduced": null,
  "formula_pretty": "Pr5Ga3",
  "formula_anonymous": "A3B5",
  "chemsys": null,
  "volume": 926.1857464698429,
  "density": 6.552666524371112,
  "density_atomic": 28.94330457718259,
  "symmetry": null,
  "property_name": null,
  "material_id": "mp-669594",
  "deprecated": null,
  "deprecation_reasons": null,
  "last_updated": null,
  "origins": null,
  "warnings": null,
  "structure": {
    "@module": "pymatgen.core.structure",
    "@class": "Structure",
    "charge": 0,
    "lattice": {
      "matrix": [
        [7.93464099, 0.0, 0.0],
        [0.0, 7.93464099, 0.0],
        [0.0, 0.0, 14.71104521]
      ],
      "pbc": [true, true, true],
      "a": 7.93464099,
      "b": 7.93464099,
      "c": 14.71104521,
      "alpha": 90.0,
      "beta": 90.0,
      "gamma": 90.0,
      "volume": 926.1857464698429
    },
    "properties": {},
    "sites": [
      {
        "species": [{ "element": "Pr", "occu": 1 }],
        "abc": [0.5634828, 0.09025395, 0.60380852],
        "properties": { "magmom": 0.0 },
        "label": "Pr",
        "xyz": [4.471033722039972, 0.7161326911794105, 8.882654435903188]
      },
      {
        "species": [{ "element": "Pr", "occu": 1 }],
        "abc": [0.936517199999999, 0.09025395, 0.10380852],
        "properties": { "magmom": 0.0 },
        "label": "Pr",
        "xyz": [7.430927762960021, 0.7161326911794105, 1.5271318309031892]
      },
      {
        "species": [{ "element": "Pr", "occu": 1 }],
        "abc": [0.90974605, 0.063482799999999, 0.39619148],
        "properties": { "magmom": 0.0 },
        "label": "Pr",
        "xyz": [7.2185082988205895, 0.5037132270399641, 5.82839077409681]
      },
      {
        "species": [{ "element": "Pr", "occu": 1 }],
        "abc": [0.75, 0.75, 0.71721601],
        "properties": { "magmom": -0.0 },
        "label": "Pr",
        "xyz": [5.9509807425000005, 5.9509807425000005, 10.550997148445813]
      },
      {
        "species": [{ "element": "Pr", "occu": 1 }],
        "abc": [0.59025395, 0.4365172, 0.39619148],
        "properties": { "magmom": 0.0 },
        "label": "Pr",
        "xyz": [4.683453186179411, 3.463607267960028, 5.82839077409681]
      },
      {
        "species": [{ "element": "Pr", "occu": 1 }],
        "abc": [0.4365172, 0.90974605, 0.39619148],
        "properties": { "magmom": 0.0 },
        "label": "Pr",
        "xyz": [3.463607267960028, 7.2185082988205895, 5.82839077409681]
      },
      {
        "species": [{ "element": "Pr", "occu": 1 }],
        "abc": [0.40974605000000003, 0.5634828, 0.60380852],
        "properties": { "magmom": 0.0 },
        "label": "Pr",
        "xyz": [3.25118780382059, 4.471033722039972, 8.882654435903188]
      },
      {
        "species": [{ "element": "Pr", "occu": 1 }],
        "abc": [0.09025395, 0.936517199999999, 0.60380852],
        "properties": { "magmom": 0.0 },
        "label": "Pr",
        "xyz": [0.7161326911794105, 7.430927762960021, 8.882654435903188]
      },
      {
        "species": [{ "element": "Pr", "occu": 1 }],
        "abc": [0.75, 0.75, 0.21721601000000001],
        "properties": { "magmom": -0.0 },
        "label": "Pr",
        "xyz": [5.9509807425000005, 5.9509807425000005, 3.1954745434458123]
      },
      {
        "species": [{ "element": "Pr", "occu": 1 }],
        "abc": [0.40974605000000003, 0.936517199999999, 0.10380852],
        "properties": { "magmom": 0.0 },
        "label": "Pr",
        "xyz": [3.25118780382059, 7.430927762960021, 1.5271318309031892]
      },
      {
        "species": [{ "element": "Pr", "occu": 1 }],
        "abc": [0.4365172, 0.59025395, 0.89619148],
        "properties": { "magmom": 0.0 },
        "label": "Pr",
        "xyz": [3.463607267960028, 4.683453186179411, 13.183913379096811]
      },
      {
        "species": [{ "element": "Pr", "occu": 1 }],
        "abc": [0.59025395, 0.063482799999999, 0.89619148],
        "properties": { "magmom": 0.0 },
        "label": "Pr",
        "xyz": [4.683453186179411, 0.5037132270399641, 13.183913379096811]
      },
      {
        "species": [{ "element": "Pr", "occu": 1 }],
        "abc": [0.063482799999999, 0.59025395, 0.39619148],
        "properties": { "magmom": 0.0 },
        "label": "Pr",
        "xyz": [0.5037132270399641, 4.683453186179411, 5.82839077409681]
      },
      {
        "species": [{ "element": "Pr", "occu": 1 }],
        "abc": [0.936517199999999, 0.40974605000000003, 0.60380852],
        "properties": { "magmom": 0.0 },
        "label": "Pr",
        "xyz": [7.430927762960021, 3.25118780382059, 8.882654435903188]
      },
      {
        "species": [{ "element": "Pr", "occu": 1 }],
        "abc": [0.5634828, 0.40974605000000003, 0.10380852],
        "properties": { "magmom": 0.0 },
        "label": "Pr",
        "xyz": [4.471033722039972, 3.25118780382059, 1.5271318309031892]
      },
      {
        "species": [{ "element": "Pr", "occu": 1 }],
        "abc": [0.063482799999999, 0.90974605, 0.89619148],
        "properties": { "magmom": 0.0 },
        "label": "Pr",
        "xyz": [0.5037132270399641, 7.2185082988205895, 13.183913379096811]
      },
      {
        "species": [{ "element": "Pr", "occu": 1 }],
        "abc": [0.09025395, 0.5634828, 0.10380852],
        "properties": { "magmom": 0.0 },
        "label": "Pr",
        "xyz": [0.7161326911794105, 4.471033722039972, 1.5271318309031892]
      },
      {
        "species": [{ "element": "Pr", "occu": 1 }],
        "abc": [0.25, 0.25, 0.28278399],
        "properties": { "magmom": -0.0 },
        "label": "Pr",
        "xyz": [1.9836602475, 1.9836602475, 4.160048061554187]
      },
      {
        "species": [{ "element": "Pr", "occu": 1 }],
        "abc": [0.90974605, 0.4365172, 0.89619148],
        "properties": { "magmom": 0.0 },
        "label": "Pr",
        "xyz": [7.2185082988205895, 3.463607267960028, 13.183913379096811]
      },
      {
        "species": [{ "element": "Pr", "occu": 1 }],
        "abc": [0.25, 0.25, 0.78278399],
        "properties": { "magmom": -0.0 },
        "label": "Pr",
        "xyz": [1.9836602475, 1.9836602475, 11.515570666554188]
      },
      {
        "species": [{ "element": "Ga", "occu": 1 }],
        "abc": [0.36732364, 0.63267636, 0.25],
        "properties": { "magmom": -0.0 },
        "label": "Ga",
        "xyz": [2.9145812105400037, 5.020059779459997, 3.6777613025]
      },
      {
        "species": [{ "element": "Ga", "occu": 1 }],
        "abc": [0.8673236400000001, 0.13267636, 0.75],
        "properties": { "magmom": -0.0 },
        "label": "Ga",
        "xyz": [6.881901705540004, 1.0527392844599963, 11.0332839075]
      },
      {
        "species": [{ "element": "Ga", "occu": 1 }],
        "abc": [0.13267636, 0.63267636, 0.75],
        "properties": { "magmom": -0.0 },
        "label": "Ga",
        "xyz": [1.0527392844599963, 5.020059779459997, 11.0332839075]
      },
      {
        "species": [{ "element": "Ga", "occu": 1 }],
        "abc": [0.13267636, 0.8673236400000001, 0.25],
        "properties": { "magmom": -0.0 },
        "label": "Ga",
        "xyz": [1.0527392844599963, 6.881901705540004, 3.6777613025]
      },
      {
        "species": [{ "element": "Ga", "occu": 1 }],
        "abc": [0.63267636, 0.13267636, 0.25],
        "properties": { "magmom": -0.0 },
        "label": "Ga",
        "xyz": [5.020059779459997, 1.0527392844599963, 3.6777613025]
      },
      {
        "species": [{ "element": "Ga", "occu": 1 }],
        "abc": [0.36732364, 0.8673236400000001, 0.75],
        "properties": { "magmom": -0.0 },
        "label": "Ga",
        "xyz": [2.9145812105400037, 6.881901705540004, 11.0332839075]
      },
      {
        "species": [{ "element": "Ga", "occu": 1 }],
        "abc": [0.75, 0.75, 0.50568912],
        "properties": { "magmom": 0.0 },
        "label": "Ga",
        "xyz": [5.9509807425000005, 5.9509807425000005, 7.439215506525115]
      },
      {
        "species": [{ "element": "Ga", "occu": 1 }],
        "abc": [0.63267636, 0.36732364, 0.75],
        "properties": { "magmom": -0.0 },
        "label": "Ga",
        "xyz": [5.020059779459997, 2.9145812105400037, 11.0332839075]
      },
      {
        "species": [{ "element": "Ga", "occu": 1 }],
        "abc": [0.25, 0.25, 0.49431088],
        "properties": { "magmom": 0.0 },
        "label": "Ga",
        "xyz": [1.9836602475, 1.9836602475, 7.271829703474885]
      },
      {
        "species": [{ "element": "Ga", "occu": 1 }],
        "abc": [0.25, 0.25, 0.99431088],
        "properties": { "magmom": 0.0 },
        "label": "Ga",
        "xyz": [1.9836602475, 1.9836602475, 14.627352308474885]
      },
      {
        "species": [{ "element": "Ga", "occu": 1 }],
        "abc": [0.8673236400000001, 0.36732364, 0.25],
        "properties": { "magmom": -0.0 },
        "label": "Ga",
        "xyz": [6.881901705540004, 2.9145812105400037, 3.6777613025]
      },
      {
        "species": [{ "element": "Ga", "occu": 1 }],
        "abc": [0.75, 0.75, 0.00568912],
        "properties": { "magmom": 0.0 },
        "label": "Ga",
        "xyz": [5.9509807425000005, 5.9509807425000005, 0.0836929015251152]
      }
    ]
  },
  "task_ids": null,
  "uncorrected_energy_per_atom": null,
  "energy_per_atom": -23.1937389615625,
  "formation_energy_per_atom": -0.525225250104163,
  "energy_above_hull": 0.0,
  "is_stable": true,
  "equilibrium_reaction_energy_per_atom": null,
  "decomposes_to": null,
  "xas": null,
  "grain_boundaries": null,
  "band_gap": 0.0,
  "cbm": null,
  "vbm": null,
  "efermi": 3.42022723,
  "is_gap_direct": null,
  "is_metal": null,
  "es_source_calc_id": null,
  "bandstructure": null,
  "dos": null,
  "dos_energy_up": null,
  "dos_energy_down": null,
  "is_magnetic": null,
  "ordering": null,
  "total_magnetization": 0.000259,
  "total_magnetization_normalized_vol": null,
  "total_magnetization_normalized_formula_units": null,
  "num_magnetic_sites": null,
  "num_unique_magnetic_sites": null,
  "types_of_magnetic_species": null,
  "bulk_modulus": null,
  "shear_modulus": null,
  "universal_anisotropy": null,
  "homogeneous_poisson": null,
  "e_total": null,
  "e_ionic": null,
  "e_electronic": null,
  "n": null,
  "e_ij_max": null,
  "weighted_surface_energy_EV_PER_ANG2": null,
  "weighted_surface_energy": null,
  "weighted_work_function": null,
  "surface_anisotropy": null,
  "shape_factor": null,
  "has_reconstructed": null,
  "possible_species": null,
  "has_props": null,
  "theoretical": null,
  "database_IDs": null,
  "fields_not_requested": [
    "builder_meta",
    "nsites",
    "elements",
    "nelements",
    "composition",
    "composition_reduced",
    "chemsys",
    "symmetry",
    "property_name",
    "deprecated",
    "deprecation_reasons",
    "last_updated",
    "origins",
    "warnings",
    "task_ids",
    "uncorrected_energy_per_atom",
    "equilibrium_reaction_energy_per_atom",
    "decomposes_to",
    "xas",
    "grain_boundaries",
    "cbm",
    "vbm",
    "is_gap_direct",
    "is_metal",
    "es_source_calc_id",
    "bandstructure",
    "dos",
    "dos_energy_up",
    "dos_energy_down",
    "is_magnetic",
    "ordering",
    "total_magnetization_normalized_vol",
    "total_magnetization_normalized_formula_units",
    "num_magnetic_sites",
    "num_unique_magnetic_sites",
    "types_of_magnetic_species",
    "bulk_modulus",
    "shear_modulus",
    "universal_anisotropy",
    "homogeneous_poisson",
    "e_total",
    "e_ionic",
    "e_electronic",
    "n",
    "e_ij_max",
    "weighted_surface_energy_EV_PER_ANG2",
    "weighted_surface_energy",
    "weighted_work_function",
    "surface_anisotropy",
    "shape_factor",
    "has_reconstructed",
    "possible_species",
    "has_props",
    "theoretical",
    "database_IDs"
  ]
}
