{"builder_meta": null, "nsites": null, "elements": null, "nelements": null, "composition": null, "composition_reduced": null, "formula_pretty": "Pr5Ir3", "formula_anonymous": "A3B5", "chemsys": null, "volume": 847.0788200295265, "density": 10.046124403199206, "density_atomic": 26.471213125922702, "symmetry": null, "property_name": null, "material_id": "mp-1205021", "deprecated": null, "deprecation_reasons": null, "last_updated": null, "origins": null, "warnings": null, "structure": {"@module": "pymatgen.core.structure", "@class": "Structure", "charge": 0, "lattice": {"matrix": [[9.575e-05, -0.0002855, 6.61306516], [11.31778055, 0.0002777, 0.00016869], [0.00027751, 11.31774106, -0.0004875]], "pbc": [true, true, true], "a": 6.613065166855997, "b": 11.31778055466406, "c": 11.317741073901539, "alpha": 89.99718930502999, "beta": 90.00494151604377, "gamma": 89.99831649414303, "volume": 847.0788200295265}, "properties": {}, "sites": [{"species": [{"element": "Pr", "occu": 1}], "abc": [0.38914831, 0.84136269, 0.5429597700000001], "properties": {"magmom": -0.0}, "label": "Pr", "xyz": [9.522546226094134, 6.145200627433664, 2.5733403675181807]}, {"species": [{"element": "Pr", "occu": 1}], "abc": [0.88914212, 0.65869458, 0.5429501800000001], "properties": {"magmom": 0.0}, "label": "Pr", "xyz": [7.455196515376861, 6.144898615129997, 5.879801203036489]}, {"species": [{"element": "Pr", "occu": 1}], "abc": [0.88909848, 0.84134027, 0.95710938], "properties": {"magmom": 0.0}, "label": "Pr", "xyz": [9.522455282341253, 10.832295931514082, 5.879341516764352]}, {"species": [{"element": "Pr", "occu": 1}], "abc": [0.38910466, 0.65872776, 0.95710414], "properties": {"magmom": 0.0}, "label": "Pr", "xyz": [7.455639092614155, 10.83232866329251, 2.5728190031572296]}, {"species": [{"element": "Pr", "occu": 1}], "abc": [0.88915546, 0.54276798, 0.84114945], "properties": {"magmom": 0.0}, "label": "Pr", "xyz": [6.143247451225954, 9.519808540645633, 5.879724493523446]}, {"species": [{"element": "Pr", "occu": 1}], "abc": [0.38916446, 0.9571827700000001, 0.84117617], "properties": {"magmom": 0.0}, "label": "Pr", "xyz": [10.833455234397105, 9.52036878110444, 2.5733213257148098]}, {"species": [{"element": "Pr", "occu": 1}], "abc": [0.38915544, 0.5427978800000001, 0.65867315], "properties": {"magmom": 0.0}, "label": "Pr", "xyz": [6.143487338864471, 7.454731785967695, 2.573280743502223]}, {"species": [{"element": "Pr", "occu": 1}], "abc": [0.88914436, 0.95718004, 0.65866427], "properties": {"magmom": 0.0}, "label": "Pr", "xyz": [10.83342156105426, 7.454603611516254, 5.879809957195819]}, {"species": [{"element": "Pr", "occu": 1}], "abc": [0.6108373500000001, 0.15870917, 0.45721116], "properties": {"magmom": 0.0}, "label": "Pr", "xyz": [1.7964209256779178, 5.174467198095313, 4.039311079921114]}, {"species": [{"element": "Pr", "occu": 1}], "abc": [0.11083364, 0.34122967, 0.4571999], "properties": {"magmom": 0.0}, "label": "Pr", "xyz": [3.8621000120741975, 5.174533197333033, 0.7327847603217646]}, {"species": [{"element": "Pr", "occu": 1}], "abc": [0.11086811, 0.15872656000000002, 0.04273114], "properties": {"magmom": -0.0}, "label": "Pr", "xyz": [1.7964548474766022, 0.4836324032389154, 0.7331839797487039]}, {"species": [{"element": "Pr", "occu": 1}], "abc": [0.61087924, 0.34120982, 0.042716910000000004], "properties": {"magmom": -0.0}, "label": "Pr", "xyz": [3.8618082103219256, 0.4833792742073186, 4.03982095320219]}, {"species": [{"element": "Pr", "occu": 1}], "abc": [0.1108893, 0.45713581000000003, 0.15878609], "properties": {"magmom": -0.0}, "label": "Pr", "xyz": [5.1738174615048065, 1.7971951382691422, 0.7333178724677017]}, {"species": [{"element": "Pr", "occu": 1}], "abc": [0.61088416, 0.04289864, 0.15875333], "properties": {"magmom": 0.0}, "label": "Pr", "xyz": [0.4856199412083803, 1.7965665868773777, 4.039746599615072]}, {"species": [{"element": "Pr", "occu": 1}], "abc": [0.6109008, 0.45712117, 0.34139943], "properties": {"magmom": 0.0}, "label": "Pr", "xyz": [5.173750322326663, 3.8638228771421046, 4.039837476244171]}, {"species": [{"element": "Pr", "occu": 1}], "abc": [0.11089295, 0.04291796, 0.34141778], "properties": {"magmom": -0.0}, "label": "Pr", "xyz": [0.4858414177817683, 3.8640582857003136, 0.7331831027975444]}, {"species": [{"element": "Pr", "occu": 1}], "abc": [0.49999815000000003, 0.75005961, 0.25012057], "properties": {"magmom": 0.0}, "label": "Pr", "xyz": [8.489127351180827, 2.830865387121476, 3.30652493960719]}, {"species": [{"element": "Pr", "occu": 1}], "abc": [-8.37e-05, 0.75003779, 0.25013094], "properties": {"magmom": -0.0}, "label": "Pr", "xyz": [8.48883251724987, 2.8311255194050293, -0.0005489285123469]}, {"species": [{"element": "Pr", "occu": 1}], "abc": [-0.00013952, 0.24996221000000002, 0.74986325], "properties": {"magmom": 0.0}, "label": "Pr", "xyz": [2.829225519764483, 8.486827548248721, -0.0012460470602932998]}, {"species": [{"element": "Pr", "occu": 1}], "abc": [0.50004494, 0.24994125, 0.74987783], "properties": {"magmom": -0.0}, "label": "Pr", "xyz": [2.8290361957922956, 8.486849752429453, 3.3065063682956275]}, {"species": [{"element": "Ir", "occu": 1}], "abc": [0.24999676, 0.9035061, 0.09651875], "properties": {"magmom": -0.0}, "label": "Ir", "xyz": [10.225734487494437, 1.0925537495038649, 1.6533502232222659]}, {"species": [{"element": "Ir", "occu": 1}], "abc": [0.74999481, 0.59655365, 0.09654715], "properties": {"magmom": 0.0}, "label": "Ir", "xyz": [6.751761901804163, 1.092647183211329, 4.959818114091413]}, {"species": [{"element": "Ir", "occu": 1}], "abc": [0.7499932300000001, 0.90353606, 0.40364118], "properties": {"magmom": -0.0}, "label": "Ir", "xyz": [10.226206672407267, 4.568343145289547, 4.9597097419715785]}, {"species": [{"element": "Ir", "occu": 1}], "abc": [0.25001033, 0.59650924, 0.40361362], "properties": {"magmom": -0.0}, "label": "Ir", "xyz": [6.7512966196720665, 4.568088712115969, 1.6532384664670483]}, {"species": [{"element": "Ir", "occu": 1}], "abc": [0.75002082, 0.09655066, 0.9033139800000001], "properties": {"magmom": -0.0}, "label": "Ir", "xyz": [1.0930616749937678, 10.22328640269219, 4.959512475582216]}, {"species": [{"element": "Ir", "occu": 1}], "abc": [0.25003023, 0.40341989, 0.90330981], "properties": {"magmom": 0.0}, "label": "Ir", "xyz": [4.566092402425036, 10.223467172610587, 1.6530938923286558]}, {"species": [{"element": "Ir", "occu": 1}], "abc": [0.25001686, 0.09647386000000001, 0.59651022], "properties": {"magmom": 0.0}, "label": "Ir", "xyz": [1.0920594529569203, 6.751103620581024, 1.6531032617217911]}, {"species": [{"element": "Ir", "occu": 1}], "abc": [0.75000975, 0.40344156000000003, 0.59655259], "properties": {"magmom": -0.0}, "label": "Ir", "xyz": [4.5663004035724715, 6.751525650229933, 4.959640584554442]}, {"species": [{"element": "Ir", "occu": 1}], "abc": [0.12540606, 0.7500302600000001, 0.74993799], "properties": {"magmom": -0.0}, "label": "Ir", "xyz": [8.488898011461293, 8.487776461849942, 0.829079374073304]}, {"species": [{"element": "Ir", "occu": 1}], "abc": [0.62539232, 0.750029, 0.74993511], "properties": {"magmom": 0.0}, "label": "Ir", "xyz": [8.488931623942964, 8.487601120328556, 4.135521091749457]}, {"species": [{"element": "Ir", "occu": 1}], "abc": [0.8746114700000001, 0.24997905, 0.25006379], "properties": {"magmom": 0.0}, "label": "Ir", "xyz": [2.829361169248093, 2.8299769413097176, 5.783782903661705]}, {"species": [{"element": "Ir", "occu": 1}], "abc": [0.37459565, 0.24996905, 0.250059], "properties": {"magmom": -0.0}, "label": "Ir", "xyz": [2.829200113598555, 2.8300654810696497, 2.4771457056190984]}]}, "task_ids": null, "uncorrected_energy_per_atom": null, "energy_per_atom": -38.676747085625, "formation_energy_per_atom": -0.6645168116666651, "energy_above_hull": 0.0, "is_stable": true, "equilibrium_reaction_energy_per_atom": null, "decomposes_to": null, "xas": null, "grain_boundaries": null, "band_gap": 0.0, "cbm": null, "vbm": null, "efermi": 4.94816741, "is_gap_direct": null, "is_metal": null, "es_source_calc_id": null, "bandstructure": null, "dos": null, "dos_energy_up": null, "dos_energy_down": null, "is_magnetic": null, "ordering": null, "total_magnetization": 7e-07, "total_magnetization_normalized_vol": null, "total_magnetization_normalized_formula_units": null, "num_magnetic_sites": null, "num_unique_magnetic_sites": null, "types_of_magnetic_species": null, "bulk_modulus": null, "shear_modulus": null, "universal_anisotropy": null, "homogeneous_poisson": null, "e_total": null, "e_ionic": null, "e_electronic": null, "n": null, "e_ij_max": null, "weighted_surface_energy_EV_PER_ANG2": null, "weighted_surface_energy": null, "weighted_work_function": null, "surface_anisotropy": null, "shape_factor": null, "has_reconstructed": null, "possible_species": null, "has_props": null, "theoretical": null, "database_IDs": null, "fields_not_requested": ["builder_meta", "nsites", "elements", "nelements", "composition", "composition_reduced", "chemsys", "symmetry", "property_name", "deprecated", "deprecation_reasons", "last_updated", "origins", "warnings", "task_ids", "uncorrected_energy_per_atom", "equilibrium_reaction_energy_per_atom", "decomposes_to", "xas", "grain_boundaries", "cbm", "vbm", "is_gap_direct", "is_metal", "es_source_calc_id", "bandstructure", "dos", "dos_energy_up", "dos_energy_down", "is_magnetic", "ordering", "total_magnetization_normalized_vol", "total_magnetization_normalized_formula_units", "num_magnetic_sites", "num_unique_magnetic_sites", "types_of_magnetic_species", "bulk_modulus", "shear_modulus", "universal_anisotropy", "homogeneous_poisson", "e_total", "e_ionic", "e_electronic", "n", "e_ij_max", "weighted_surface_energy_EV_PER_ANG2", "weighted_surface_energy", "weighted_work_function", "surface_anisotropy", "shape_factor", "has_reconstructed", "possible_species", "has_props", "theoretical", "database_IDs"]}