{"builder_meta": null, "nsites": null, "elements": null, "nelements": null, "composition": null, "composition_reduced": null, "formula_pretty": "Pr5Ir2", "formula_anonymous": "A2B5", "chemsys": null, "volume": 415.1762488944807, "density": 8.710907564598601, "density_atomic": 29.655446349605764, "symmetry": null, "property_name": null, "material_id": "mp-1104160", "deprecated": null, "deprecation_reasons": null, "last_updated": null, "origins": null, "warnings": null, "structure": {"@module": "pymatgen.core.structure", "@class": "Structure", "charge": 0, "lattice": {"matrix": [[-0.0, 6.76512115, -0.0], [0.00751401, 0.0, 7.35311328], [8.34516352, -3.38256057, -0.9555773200000001]], "pbc": [true, true, true], "a": 6.76512115, "b": 7.353117119212683, "c": 9.055197303193117, "alpha": 96.00332873089799, "beta": 111.93466512406357, "gamma": 90.0, "volume": 415.1762488944807}, "properties": {}, "sites": [{"species": [{"element": "Pr", "occu": 1}], "abc": [0.9823173900000001, 0.9178136100000001, 0.18550928], "properties": {"magmom": 0.001}, "label": "Pr", "xyz": [1.5550017367211417, 6.017999775204709, 6.571518983638211]}, {"species": [{"element": "Pr", "occu": 1}], "abc": [0.7968071, 0.58218639, 0.81449072], "properties": {"magmom": 0.001}, "label": "Pr", "xyz": [6.801432798278858, 2.6354323705772544, 3.5025736163617887]}, {"species": [{"element": "Pr", "occu": 1}], "abc": [0.01768261, 0.08218639, 0.81449072], "properties": {"magmom": 0.001}, "label": "Pr", "xyz": [6.7976757932788585, -2.6354391952047087, -0.17398302363821128]}, {"species": [{"element": "Pr", "occu": 1}], "abc": [0.203192899999999, 0.41781361, 0.18550928], "properties": {"magmom": 0.001}, "label": "Pr", "xyz": [1.5512447317211417, 0.7471282094227386, 2.894962343638211]}, {"species": [{"element": "Pr", "occu": 1}], "abc": [0.64947676, 0.81930134, 0.4341582], "properties": {"magmom": -0.0}, "label": "Pr", "xyz": [3.629277411010637, 2.9252225570473, 5.609543834263771]}, {"species": [{"element": "Pr", "occu": 1}], "abc": [0.21531857000000001, 0.68069866, 0.5658418], "properties": {"magmom": -0.0}, "label": "Pr", "xyz": [4.727157123989362, -0.4573379496430703, 4.464548765736229]}, {"species": [{"element": "Pr", "occu": 1}], "abc": [0.35052324, 0.18069866, 0.5658418], "properties": {"magmom": -0.0}, "label": "Pr", "xyz": [4.723400118989362, 0.45733802295270043, 0.7879921257362289]}, {"species": [{"element": "Pr", "occu": 1}], "abc": [0.78468143, 0.31930134, 0.4341582], "properties": {"magmom": -0.0}, "label": "Pr", "xyz": [3.6255204060106374, 3.83989852964307, 1.9329871942637709]}, {"species": [{"element": "Pr", "occu": 1}], "abc": [0.43265338000000003, 0.75, -0.0], "properties": {"magmom": 0.0}, "label": "Pr", "xyz": [0.005635507499999999, 2.926952531656987, 5.51483496]}, {"species": [{"element": "Pr", "occu": 1}], "abc": [0.56734662, 0.25, -0.0], "properties": {"magmom": 0.0}, "label": "Pr", "xyz": [0.0018785025, 3.838168618343013, 1.83827832]}, {"species": [{"element": "Ir", "occu": 1}], "abc": [0.8222355100000001, 0.57517271, 0.2230733], "properties": {"magmom": 0.0}, "label": "Ir", "xyz": [1.8659050189406832, 4.807963890182255, 4.016146306017033]}, {"species": [{"element": "Ir", "occu": 1}], "abc": [0.59916121, 0.92482729, 0.7769267], "properties": {"magmom": 0.0}, "label": "Ir", "xyz": [6.490529516059317, 1.4253965528303727, 6.057946293982966]}, {"species": [{"element": "Ir", "occu": 1}], "abc": [0.17776449, 0.42482729, 0.7769267], "properties": {"magmom": 0.0}, "label": "Ir", "xyz": [6.486772511059316, -1.4254033101822552, 2.3813896539829673]}, {"species": [{"element": "Ir", "occu": 1}], "abc": [0.40083879, 0.07517271, 0.2230733], "properties": {"magmom": 0.0}, "label": "Ir", "xyz": [1.8621480139406832, 1.9571640271696273, 0.3395896660170328]}]}, "task_ids": null, "uncorrected_energy_per_atom": null, "energy_per_atom": -36.51005788, "formation_energy_per_atom": -0.547416631190474, "energy_above_hull": 0.0, "is_stable": true, "equilibrium_reaction_energy_per_atom": null, "decomposes_to": null, "xas": null, "grain_boundaries": null, "band_gap": 0.0, "cbm": null, "vbm": null, "efermi": 4.36777221, "is_gap_direct": null, "is_metal": null, "es_source_calc_id": null, "bandstructure": null, "dos": null, "dos_energy_up": null, "dos_energy_down": null, "is_magnetic": null, "ordering": null, "total_magnetization": 0.007481799999999, "total_magnetization_normalized_vol": null, "total_magnetization_normalized_formula_units": null, "num_magnetic_sites": null, "num_unique_magnetic_sites": null, "types_of_magnetic_species": null, "bulk_modulus": null, "shear_modulus": null, "universal_anisotropy": null, "homogeneous_poisson": null, "e_total": null, "e_ionic": null, "e_electronic": null, "n": null, "e_ij_max": null, "weighted_surface_energy_EV_PER_ANG2": null, "weighted_surface_energy": null, "weighted_work_function": null, "surface_anisotropy": null, "shape_factor": null, "has_reconstructed": null, "possible_species": null, "has_props": null, "theoretical": null, "database_IDs": null, "fields_not_requested": ["builder_meta", "nsites", "elements", "nelements", "composition", "composition_reduced", "chemsys", "symmetry", "property_name", "deprecated", "deprecation_reasons", "last_updated", "origins", "warnings", "task_ids", "uncorrected_energy_per_atom", "equilibrium_reaction_energy_per_atom", "decomposes_to", "xas", "grain_boundaries", "cbm", "vbm", "is_gap_direct", "is_metal", "es_source_calc_id", "bandstructure", "dos", "dos_energy_up", "dos_energy_down", "is_magnetic", "ordering", "total_magnetization_normalized_vol", "total_magnetization_normalized_formula_units", "num_magnetic_sites", "num_unique_magnetic_sites", "types_of_magnetic_species", "bulk_modulus", "shear_modulus", "universal_anisotropy", "homogeneous_poisson", "e_total", "e_ionic", "e_electronic", "n", "e_ij_max", "weighted_surface_energy_EV_PER_ANG2", "weighted_surface_energy", "weighted_work_function", "surface_anisotropy", "shape_factor", "has_reconstructed", "possible_species", "has_props", "theoretical", "database_IDs"]}