{
  "builder_meta": null,
  "nsites": null,
  "elements": null,
  "nelements": null,
  "composition": null,
  "composition_reduced": null,
  "formula_pretty": "Pr5Mg",
  "formula_anonymous": "AB5",
  "chemsys": null,
  "volume": 203.88841125766305,
  "density": 5.935956254635942,
  "density_atomic": 33.981401876277175,
  "symmetry": null,
  "property_name": null,
  "material_id": "mp-1186745",
  "deprecated": null,
  "deprecation_reasons": null,
  "last_updated": null,
  "origins": null,
  "warnings": null,
  "structure": {
    "@module": "pymatgen.core.structure",
    "@class": "Structure",
    "charge": 0,
    "lattice": {
      "matrix": [
        [6.04055737, -3.19903267, -0.01294254],
        [6.04055737, 3.19903267, -0.01294254],
        [4.35768509, 0.0, 5.26620243]
      ],
      "pbc": [true, true, true],
      "a": 6.835372036204782,
      "b": 6.835372036204782,
      "c": 6.835371780477359,
      "alpha": 55.81059254059508,
      "beta": 55.81059254059508,
      "gamma": 55.81059092068433,
      "volume": 203.88841125766305
    },
    "properties": {},
    "sites": [
      {
        "species": [{ "element": "Pr", "occu": 1 }],
        "abc": [0.12101755, 0.87898245, 0.5],
        "properties": { "magmom": -0.0 },
        "label": "Pr",
        "xyz": [8.219399915, 2.424754477813283, 2.620158675]
      },
      {
        "species": [{ "element": "Pr", "occu": 1 }],
        "abc": [0.5, 0.12101755, 0.87898245],
        "properties": { "magmom": -0.0 },
        "label": "Pr",
        "xyz": [7.581620855288515, -1.2123772389066414, 4.620861969635777]
      },
      {
        "species": [{ "element": "Pr", "occu": 1 }],
        "abc": [0.87898245, 0.5, 0.12101755],
        "properties": { "magmom": -0.0 },
        "label": "Pr",
        "xyz": [8.857178974711486, -1.2123772389066414, 0.6194553803642235]
      },
      {
        "species": [{ "element": "Pr", "occu": 1 }],
        "abc": [0.65505802, 0.65505802, 0.65505802],
        "properties": { "magmom": -0.0 },
        "label": "Pr",
        "xyz": [10.768367667816136, 0.0, 3.432711907462647]
      },
      {
        "species": [{ "element": "Pr", "occu": 1 }],
        "abc": [0.34494198, 0.34494198, 0.34494198],
        "properties": { "magmom": -0.0 },
        "label": "Pr",
        "xyz": [5.670432162183864, 0.0, 1.807605442537353]
      },
      {
        "species": [{ "element": "Mg", "occu": 1 }],
        "abc": [-0.0, -0.0, 0.0],
        "properties": { "magmom": 0.0 },
        "label": "Mg",
        "xyz": [0.0, 0.0, 0.0]
      }
    ]
  },
  "task_ids": null,
  "uncorrected_energy_per_atom": null,
  "energy_per_atom": -4.247648018333332,
  "formation_energy_per_atom": 0.020323199444446,
  "energy_above_hull": 0.050489605555557,
  "is_stable": false,
  "equilibrium_reaction_energy_per_atom": null,
  "decomposes_to": null,
  "xas": null,
  "grain_boundaries": null,
  "band_gap": 0.0,
  "cbm": null,
  "vbm": null,
  "efermi": 3.4423464900000003,
  "is_gap_direct": null,
  "is_metal": null,
  "es_source_calc_id": null,
  "bandstructure": null,
  "dos": null,
  "dos_energy_up": null,
  "dos_energy_down": null,
  "is_magnetic": null,
  "ordering": null,
  "total_magnetization": 5e-7,
  "total_magnetization_normalized_vol": null,
  "total_magnetization_normalized_formula_units": null,
  "num_magnetic_sites": null,
  "num_unique_magnetic_sites": null,
  "types_of_magnetic_species": null,
  "bulk_modulus": null,
  "shear_modulus": null,
  "universal_anisotropy": null,
  "homogeneous_poisson": null,
  "e_total": null,
  "e_ionic": null,
  "e_electronic": null,
  "n": null,
  "e_ij_max": null,
  "weighted_surface_energy_EV_PER_ANG2": null,
  "weighted_surface_energy": null,
  "weighted_work_function": null,
  "surface_anisotropy": null,
  "shape_factor": null,
  "has_reconstructed": null,
  "possible_species": null,
  "has_props": null,
  "theoretical": null,
  "database_IDs": null,
  "fields_not_requested": [
    "builder_meta",
    "nsites",
    "elements",
    "nelements",
    "composition",
    "composition_reduced",
    "chemsys",
    "symmetry",
    "property_name",
    "deprecated",
    "deprecation_reasons",
    "last_updated",
    "origins",
    "warnings",
    "task_ids",
    "uncorrected_energy_per_atom",
    "equilibrium_reaction_energy_per_atom",
    "decomposes_to",
    "xas",
    "grain_boundaries",
    "cbm",
    "vbm",
    "is_gap_direct",
    "is_metal",
    "es_source_calc_id",
    "bandstructure",
    "dos",
    "dos_energy_up",
    "dos_energy_down",
    "is_magnetic",
    "ordering",
    "total_magnetization_normalized_vol",
    "total_magnetization_normalized_formula_units",
    "num_magnetic_sites",
    "num_unique_magnetic_sites",
    "types_of_magnetic_species",
    "bulk_modulus",
    "shear_modulus",
    "universal_anisotropy",
    "homogeneous_poisson",
    "e_total",
    "e_ionic",
    "e_electronic",
    "n",
    "e_ij_max",
    "weighted_surface_energy_EV_PER_ANG2",
    "weighted_surface_energy",
    "weighted_work_function",
    "surface_anisotropy",
    "shape_factor",
    "has_reconstructed",
    "possible_species",
    "has_props",
    "theoretical",
    "database_IDs"
  ]
}
