{"builder_meta": null, "nsites": null, "elements": null, "nelements": null, "composition": null, "composition_reduced": null, "formula_pretty": "Pr5Pb3", "formula_anonymous": "A3B5", "chemsys": null, "volume": 540.3844626160931, "density": 8.150139480979137, "density_atomic": 33.774028913505816, "symmetry": null, "property_name": null, "material_id": "mp-1188302", "deprecated": null, "deprecation_reasons": null, "last_updated": null, "origins": null, "warnings": null, "structure": {"@module": "pymatgen.core.structure", "@class": "Structure", "charge": 0, "lattice": {"matrix": [[0.0, 0.0, -6.99609997], [-4.72212939, -8.17892643, 0.0], [-4.72184661, 8.17876336, 0.0]], "pbc": [true, true, true], "a": 6.99609997, "b": 9.444222759086866, "c": 9.443940147377416, "alpha": 120.00073875192713, "beta": 90.0, "gamma": 90.0, "volume": 540.3844626160931}, "properties": {}, "sites": [{"species": [{"element": "Pr", "occu": 1}], "abc": [0.49998216, 0.33331208, 0.66667924], "properties": {"magmom": 0.0}, "label": "Pr", "xyz": [-4.721899878361407, 2.7264767604343714, -3.4979251745765354]}, {"species": [{"element": "Pr", "occu": 1}], "abc": [0.49998216, 0.66663384, 0.33332076], "properties": {"magmom": 0.0}, "label": "Pr", "xyz": [-4.721820748881181, -2.7261975140930383, -3.4979251745765354]}, {"species": [{"element": "Pr", "occu": 1}], "abc": [0.9999821600000001, 0.66668792, 0.33332076], "properties": {"magmom": 0.0}, "label": "Pr", "xyz": [-4.722076121638592, -2.7266398304343724, -6.995975159576536]}, {"species": [{"element": "Pr", "occu": 1}], "abc": [0.9999821600000001, 0.33336616, 0.66667924], "properties": {"magmom": 0.0}, "label": "Pr", "xyz": [-4.722155251118819, 2.726034444093037, -6.995975159576536]}, {"species": [{"element": "Pr", "occu": 1}], "abc": [0.75002062, 0.24075803, -0.0], "properties": {"magmom": 0.0}, "label": "Pr", "xyz": [-1.1368905693415017, -1.9691422148017332, -5.2472192370813815]}, {"species": [{"element": "Pr", "occu": 1}], "abc": [0.75001848, 0.75934874, 0.75931346], "properties": {"magmom": 0.0}, "label": "Pr", "xyz": [-7.171104689441838, -0.0004123737703727315, -5.247204265427446]}, {"species": [{"element": "Pr", "occu": 1}], "abc": [0.75001848, 3.5270000000000006e-05, 0.24068554], "properties": {"magmom": 0.0}, "label": "Pr", "xyz": [-1.1366467506286047, 1.9682216050986283, -5.247204265427446]}, {"species": [{"element": "Pr", "occu": 1}], "abc": [0.25002062, 0.75924197, 0.0], "properties": {"magmom": 0.0}, "label": "Pr", "xyz": [-3.5852388206584984, -6.209784215198268, -1.7491692520813817]}, {"species": [{"element": "Pr", "occu": 1}], "abc": [0.25001848, 0.24065126, 0.24068654], "properties": {"magmom": 0.0}, "label": "Pr", "xyz": [-2.272871310558161, 0.0002493037703723555, -1.7491542804274456]}, {"species": [{"element": "Pr", "occu": 1}], "abc": [0.25001848, 0.99996473, 0.75931446], "properties": {"magmom": 0.0}, "label": "Pr", "xyz": [-8.307329249371396, -1.968384675098628, -1.7491542804274456]}, {"species": [{"element": "Pb", "occu": 1}], "abc": [0.7498792400000001, 0.60692225, 0.0], "properties": {"magmom": -0.0}, "label": "Pb", "xyz": [-2.8659653941699275, -4.963972431480068, -5.246230128467624]}, {"species": [{"element": "Pb", "occu": 1}], "abc": [0.75005044, 0.39314416, 0.39313816], "properties": {"magmom": -0.0}, "label": "Pb", "xyz": [-3.7128156805005004, -0.00011318259833181799, -5.247427860782487]}, {"species": [{"element": "Pb", "occu": 1}], "abc": [0.75005044, 6e-06, 0.60686184], "properties": {"magmom": -0.0}, "label": "Pb", "xyz": [-2.8655368547187026, 4.9633303080156015, -5.247427860782487]}, {"species": [{"element": "Pb", "occu": 1}], "abc": [0.24987924, 0.39307775, -0.0], "properties": {"magmom": -0.0}, "label": "Pb", "xyz": [-1.8561639958300726, -3.214953998519933, -1.748180143467623]}, {"species": [{"element": "Pb", "occu": 1}], "abc": [0.25005044, 0.60685584, 0.60686184], "properties": {"magmom": -0.0}, "label": "Pb", "xyz": [-5.7311603194995, -4.98874016701123e-05, -1.7493778757824867]}, {"species": [{"element": "Pb", "occu": 1}], "abc": [0.25005044, 0.999993999999999, 0.39313816], "properties": {"magmom": -0.0}, "label": "Pb", "xyz": [-6.578439145281293, -4.963493378015595, -1.7493778757824867]}]}, "task_ids": null, "uncorrected_energy_per_atom": null, "energy_per_atom": -40.19015799, "formation_energy_per_atom": -0.70575996854167, "energy_above_hull": 0.0, "is_stable": true, "equilibrium_reaction_energy_per_atom": null, "decomposes_to": null, "xas": null, "grain_boundaries": null, "band_gap": 0.0, "cbm": null, "vbm": null, "efermi": 4.32187194, "is_gap_direct": null, "is_metal": null, "es_source_calc_id": null, "bandstructure": null, "dos": null, "dos_energy_up": null, "dos_energy_down": null, "is_magnetic": null, "ordering": null, "total_magnetization": 0.004865899999999, "total_magnetization_normalized_vol": null, "total_magnetization_normalized_formula_units": null, "num_magnetic_sites": null, "num_unique_magnetic_sites": null, "types_of_magnetic_species": null, "bulk_modulus": null, "shear_modulus": null, "universal_anisotropy": null, "homogeneous_poisson": null, "e_total": null, "e_ionic": null, "e_electronic": null, "n": null, "e_ij_max": null, "weighted_surface_energy_EV_PER_ANG2": null, "weighted_surface_energy": null, "weighted_work_function": null, "surface_anisotropy": null, "shape_factor": null, "has_reconstructed": null, "possible_species": null, "has_props": null, "theoretical": null, "database_IDs": null, "fields_not_requested": ["builder_meta", "nsites", "elements", "nelements", "composition", "composition_reduced", "chemsys", "symmetry", "property_name", "deprecated", "deprecation_reasons", "last_updated", "origins", "warnings", "task_ids", "uncorrected_energy_per_atom", "equilibrium_reaction_energy_per_atom", "decomposes_to", "xas", "grain_boundaries", "cbm", "vbm", "is_gap_direct", "is_metal", "es_source_calc_id", "bandstructure", "dos", "dos_energy_up", "dos_energy_down", "is_magnetic", "ordering", "total_magnetization_normalized_vol", "total_magnetization_normalized_formula_units", "num_magnetic_sites", "num_unique_magnetic_sites", "types_of_magnetic_species", "bulk_modulus", "shear_modulus", "universal_anisotropy", "homogeneous_poisson", "e_total", "e_ionic", "e_electronic", "n", "e_ij_max", "weighted_surface_energy_EV_PER_ANG2", "weighted_surface_energy", "weighted_work_function", "surface_anisotropy", "shape_factor", "has_reconstructed", "possible_species", "has_props", "theoretical", "database_IDs"]}