{
  "builder_meta": null,
  "nsites": null,
  "elements": null,
  "nelements": null,
  "composition": null,
  "composition_reduced": null,
  "formula_pretty": "Pr5Ru2",
  "formula_anonymous": "A2B5",
  "chemsys": null,
  "volume": 407.3177601594298,
  "density": 7.392629549824779,
  "density_atomic": 29.094125725673557,
  "symmetry": null,
  "property_name": null,
  "material_id": "mp-1104937",
  "deprecated": null,
  "deprecation_reasons": null,
  "last_updated": null,
  "origins": null,
  "warnings": null,
  "structure": {
    "@module": "pymatgen.core.structure",
    "@class": "Structure",
    "charge": 0,
    "lattice": {
      "matrix": [
        [0.00130591, 6.68778602, -0.00018649],
        [0.02063726, -0.00022364, 7.35686836],
        [8.27543608, -3.34222787, -0.9025753200000001]
      ],
      "pbc": [true, true, true],
      "a": 6.687786150101309,
      "b": 7.356897308844554,
      "c": 8.970394175143232,
      "alpha": 95.62502488919952,
      "beta": 111.8637898729895,
      "gamma": 90.0033080279118,
      "volume": 407.3177601594298
    },
    "properties": {},
    "sites": [
      {
        "species": [{ "element": "Pr", "occu": 1 }],
        "abc": [0.98264726, 0.90805085, 0.18525202000000002],
        "properties": { "magmom": 0.0 },
        "label": "Pr",
        "xyz": [1.5530641805688594, 5.952377067309413, 6.513023412516442]
      },
      {
        "species": [{ "element": "Pr", "occu": 1 }],
        "abc": [0.79765071, 0.59201778, 0.814984199999999],
        "properties": { "magmom": -0.0 },
        "label": "Pr",
        "xyz": [6.757608938199107, 2.6105219614751034, 3.61966349524859]
      },
      {
        "species": [{ "element": "Pr", "occu": 1 }],
        "abc": [0.01738205, 0.09193126, 0.81481948],
        "properties": { "magmom": -0.0 },
        "label": "Pr",
        "xyz": [6.744906432186502, -2.6070855035929528, -0.05911301649280465]
      },
      {
        "species": [{ "element": "Pr", "occu": 1 }],
        "abc": [0.20239534, 0.4079663, 0.18508929000000002],
        "properties": { "magmom": 0.0 },
        "label": "Pr",
        "xyz": [1.540378205190381, 0.7348749043053024, 2.8342595945589886]
      },
      {
        "species": [{ "element": "Pr", "occu": 1 }],
        "abc": [0.64175444, 0.81509966, 0.43073994],
        "properties": { "magmom": 0.0 },
        "label": "Pr",
        "xyz": [3.582220337723107, 2.852103051026839, 5.6076859789329605]
      },
      {
        "species": [{ "element": "Pr", "occu": 1 }],
        "abc": [0.211033399999999, 0.685057599999999, 0.56929924],
        "properties": { "magmom": 0.0 },
        "label": "Pr",
        "xyz": [4.72561277344615, -0.49153477030642145, 4.526003782880006]
      },
      {
        "species": [{ "element": "Pr", "occu": 1 }],
        "abc": [0.35814765, 0.18490512, 0.56904436],
        "properties": { "magmom": 0.0 },
        "label": "Pr",
        "xyz": [4.7133738714988915, 0.49329757532650276, 0.8466504406535594]
      },
      {
        "species": [{ "element": "Pr", "occu": 1 }],
        "abc": [0.78884065, 0.31494415000000003, 0.43048547000000004],
        "properties": { "magmom": -0.0 },
        "label": "Pr",
        "xyz": [3.5699847295560283, 3.8367465015039577, 1.928309980568675]
      },
      {
        "species": [{ "element": "Pr", "occu": 1 }],
        "abc": [0.42606829, 0.74995324, 0.0003882],
        "properties": { "magmom": 0.0 },
        "label": "Pr",
        "xyz": [0.0192459111285723, 2.847988381025578, 5.51687742562086]
      },
      {
        "species": [{ "element": "Pr", "occu": 1 }],
        "abc": [0.57405399, 0.25008078, 0.99985092],
        "properties": { "magmom": -0.0 },
        "label": "Pr",
        "xyz": [8.280113022913138, 0.49736471031244056, 0.9372635584262313]
      },
      {
        "species": [{ "element": "Ru", "occu": 1 }],
        "abc": [0.82784494, 0.572225299999999, 0.22161331],
        "properties": { "magmom": 0.0 },
        "label": "Ru",
        "xyz": [1.8468370346624985, 4.795639662948697, 4.009609115369131]
      },
      {
        "species": [{ "element": "Ru", "occu": 1 }],
        "abc": [0.60597908, 0.92774122, 0.7780457],
        "properties": { "magmom": -0.0 },
        "label": "Ru",
        "xyz": [6.458604848579077, 1.4520449169163623, 6.122912171995046]
      },
      {
        "species": [{ "element": "Ru", "occu": 1 }],
        "abc": [0.17214573, 0.42776866, 0.77840983],
        "properties": { "magmom": 0.0 },
        "label": "Ru",
        "xyz": [6.450733572095203, -1.4504448877943896, 2.444432115293014]
      },
      {
        "species": [{ "element": "Ru", "occu": 1 }],
        "abc": [0.39405548, 0.07225808, 0.22197906],
        "properties": { "magmom": 0.0 },
        "label": "Ru",
        "xyz": [1.8389793319044325, 1.8934379695629766, 0.3311668739870844]
      }
    ]
  },
  "task_ids": null,
  "uncorrected_energy_per_atom": null,
  "energy_per_atom": -28.461709617857142,
  "formation_energy_per_atom": -0.194730699047616,
  "energy_above_hull": 0.0,
  "is_stable": true,
  "equilibrium_reaction_energy_per_atom": null,
  "decomposes_to": null,
  "xas": null,
  "grain_boundaries": null,
  "band_gap": 0.0,
  "cbm": null,
  "vbm": null,
  "efermi": 4.15148755,
  "is_gap_direct": null,
  "is_metal": null,
  "es_source_calc_id": null,
  "bandstructure": null,
  "dos": null,
  "dos_energy_up": null,
  "dos_energy_down": null,
  "is_magnetic": null,
  "ordering": null,
  "total_magnetization": 4e-7,
  "total_magnetization_normalized_vol": null,
  "total_magnetization_normalized_formula_units": null,
  "num_magnetic_sites": null,
  "num_unique_magnetic_sites": null,
  "types_of_magnetic_species": null,
  "bulk_modulus": null,
  "shear_modulus": null,
  "universal_anisotropy": null,
  "homogeneous_poisson": null,
  "e_total": null,
  "e_ionic": null,
  "e_electronic": null,
  "n": null,
  "e_ij_max": null,
  "weighted_surface_energy_EV_PER_ANG2": null,
  "weighted_surface_energy": null,
  "weighted_work_function": null,
  "surface_anisotropy": null,
  "shape_factor": null,
  "has_reconstructed": null,
  "possible_species": null,
  "has_props": null,
  "theoretical": null,
  "database_IDs": null,
  "fields_not_requested": [
    "builder_meta",
    "nsites",
    "elements",
    "nelements",
    "composition",
    "composition_reduced",
    "chemsys",
    "symmetry",
    "property_name",
    "deprecated",
    "deprecation_reasons",
    "last_updated",
    "origins",
    "warnings",
    "task_ids",
    "uncorrected_energy_per_atom",
    "equilibrium_reaction_energy_per_atom",
    "decomposes_to",
    "xas",
    "grain_boundaries",
    "cbm",
    "vbm",
    "is_gap_direct",
    "is_metal",
    "es_source_calc_id",
    "bandstructure",
    "dos",
    "dos_energy_up",
    "dos_energy_down",
    "is_magnetic",
    "ordering",
    "total_magnetization_normalized_vol",
    "total_magnetization_normalized_formula_units",
    "num_magnetic_sites",
    "num_unique_magnetic_sites",
    "types_of_magnetic_species",
    "bulk_modulus",
    "shear_modulus",
    "universal_anisotropy",
    "homogeneous_poisson",
    "e_total",
    "e_ionic",
    "e_electronic",
    "n",
    "e_ij_max",
    "weighted_surface_energy_EV_PER_ANG2",
    "weighted_surface_energy",
    "weighted_work_function",
    "surface_anisotropy",
    "shape_factor",
    "has_reconstructed",
    "possible_species",
    "has_props",
    "theoretical",
    "database_IDs"
  ]
}
