{"builder_meta": null, "nsites": null, "elements": null, "nelements": null, "composition": null, "composition_reduced": null, "formula_pretty": "Pr5Sb3", "formula_anonymous": "A3B5", "chemsys": null, "volume": 507.11883554164143, "density": 7.006148751659894, "density_atomic": 31.69492722135259, "symmetry": null, "property_name": null, "material_id": "mp-1190256", "deprecated": null, "deprecation_reasons": null, "last_updated": null, "origins": null, "warnings": null, "structure": {"@module": "pymatgen.core.structure", "@class": "Structure", "charge": 0, "lattice": {"matrix": [[-1.391e-05, 8.31e-06, -6.57707384], [-4.71739505, -8.17075941, 3.4e-07], [-4.71873647, 8.17153526, -2.041e-05]], "pbc": [true, true, true], "a": 6.577073840019959, "b": 9.434782742271715, "c": 9.436125390177258, "alpha": 119.9952500548353, "beta": 89.99975278419706, "gamma": 90.00000416999994, "volume": 507.1188355416415}, "properties": {}, "sites": [{"species": [{"element": "Pr", "occu": 1}], "abc": [0.50000608, 0.33333419000000003, 0.66667432], "properties": {"magmom": 0.076}, "label": "Pr", "xyz": [-4.718336440382783, 2.724163398249821, -3.2885904020981935]}, {"species": [{"element": "Pr", "occu": 1}], "abc": [0.50000745, 0.66667591, 0.33334956], "properties": {"magmom": -0.272}, "label": "Pr", "xyz": [-4.717969318922329, -2.723266626545419, -3.288592496194818]}, {"species": [{"element": "Pr", "occu": 1}], "abc": [-6.78e-06, 0.6666769300000001, 0.33334929], "properties": {"magmom": -0.272}, "label": "Pr", "xyz": [-4.717965901408494, -2.7232813221527876, 3.8015571782500004e-05]}, {"species": [{"element": "Pr", "occu": 1}], "abc": [-5.309999999999997e-06, 0.33333661000000003, 0.66667455], "properties": {"magmom": 0.076}, "label": "Pr", "xyz": [-4.718341986629757, 2.7241413493705067, 2.1430768972299976e-05]}, {"species": [{"element": "Pr", "occu": 1}], "abc": [0.75000621, 0.25242005, 1.544e-05], "properties": {"magmom": -0.07200000000000001}, "label": "Pr", "xyz": [-1.1908483842682305, -2.0623310977541514, -4.932846138120859]}, {"species": [{"element": "Pr", "occu": 1}], "abc": [0.7499996800000001, 0.74748707, 0.7475222300000001], "properties": {"magmom": -0.07200000000000001}, "label": "Pr", "xyz": [-7.053562645289281, 0.0008734815203421675, -4.932818278119481]}, {"species": [{"element": "Pr", "occu": 1}], "abc": [0.74999947, 0.99990034, 0.25245108], "properties": {"magmom": -0.07200000000000001}, "label": "Pr", "xyz": [-5.908185464988833, -6.107025977976525, -4.932806706711292]}, {"species": [{"element": "Pr", "occu": 1}], "abc": [0.25000307, 0.74759809, 1.8500000000000002e-05], "properties": {"magmom": -0.07200000000000001}, "label": "Pr", "xyz": [-3.5268063033228536, -6.108290877837706, -1.6442883978109233]}, {"species": [{"element": "Pr", "occu": 1}], "abc": [0.24999663, 0.25254764, 0.25244829], "properties": {"magmom": -0.07200000000000001}, "label": "Pr", "xyz": [-2.3826074170904414, -0.0006138254695917666, -1.6442513618645604]}, {"species": [{"element": "Pr", "occu": 1}], "abc": [0.24999719999999903, 3.7290000000000004e-05, 0.74752078], "properties": {"magmom": -0.07200000000000001}, "label": "Pr", "xyz": [-3.5275329557913127, 6.108089801211037, -1.6442653010796828]}, {"species": [{"element": "Sb", "occu": 1}], "abc": [0.74999837, 0.61516908, 2.6300000000000002e-05], "properties": {"magmom": 0.018000000000000002}, "label": "Sb", "xyz": [-2.9021301081515425, -5.0261774052872505, -4.932794450748937]}, {"species": [{"element": "Sb", "occu": 1}], "abc": [0.7500026, 0.38481422, 0.38476312], "properties": {"magmom": 0.018000000000000002}, "label": "Sb", "xyz": [-3.6309268957887633, -0.00011277481759242036, -4.932830202570428]}, {"species": [{"element": "Sb", "occu": 1}], "abc": [0.74999678, -7.82e-06, 0.6152007700000001], "properties": {"magmom": 0.018000000000000002}, "label": "Sb", "xyz": [-2.9029438521970006, 5.0272049118459785, -4.93279675807261]}, {"species": [{"element": "Sb", "occu": 1}], "abc": [0.24999569, 0.38485767, 2.4510000000000004e-05], "properties": {"magmom": 0.018000000000000002}, "label": "Sb", "xyz": [-1.8156448010834612, -3.1443770668697684, -1.6442399824603908]}, {"species": [{"element": "Sb", "occu": 1}], "abc": [0.25000031, 0.61520682, 0.61519385], "properties": {"magmom": 0.018000000000000002}, "label": "Sb", "xyz": [-5.805114741013263, 0.0003734009015508022, -1.6442828458290502]}, {"species": [{"element": "Sb", "occu": 1}], "abc": [0.25000056, 0.99994792, 0.3847654], "properties": {"magmom": 0.018000000000000002}, "label": "Sb", "xyz": [-6.532759370947724, -5.0262077664172695, -1.6442796562408715]}]}, "task_ids": null, "uncorrected_energy_per_atom": null, "energy_per_atom": -29.139371239375, "formation_energy_per_atom": -1.122030110416663, "energy_above_hull": 0.0, "is_stable": true, "equilibrium_reaction_energy_per_atom": null, "decomposes_to": null, "xas": null, "grain_boundaries": null, "band_gap": 0.0, "cbm": null, "vbm": null, "efermi": 5.27419666, "is_gap_direct": null, "is_metal": null, "es_source_calc_id": null, "bandstructure": null, "dos": null, "dos_energy_up": null, "dos_energy_down": null, "is_magnetic": null, "ordering": null, "total_magnetization": 1.7109785, "total_magnetization_normalized_vol": null, "total_magnetization_normalized_formula_units": null, "num_magnetic_sites": null, "num_unique_magnetic_sites": null, "types_of_magnetic_species": null, "bulk_modulus": null, "shear_modulus": null, "universal_anisotropy": null, "homogeneous_poisson": null, "e_total": null, "e_ionic": null, "e_electronic": null, "n": null, "e_ij_max": null, "weighted_surface_energy_EV_PER_ANG2": null, "weighted_surface_energy": null, "weighted_work_function": null, "surface_anisotropy": null, "shape_factor": null, "has_reconstructed": null, "possible_species": null, "has_props": null, "theoretical": null, "database_IDs": null, "fields_not_requested": ["builder_meta", "nsites", "elements", "nelements", "composition", "composition_reduced", "chemsys", "symmetry", "property_name", "deprecated", "deprecation_reasons", "last_updated", "origins", "warnings", "task_ids", "uncorrected_energy_per_atom", "equilibrium_reaction_energy_per_atom", "decomposes_to", "xas", "grain_boundaries", "cbm", "vbm", "is_gap_direct", "is_metal", "es_source_calc_id", "bandstructure", "dos", "dos_energy_up", "dos_energy_down", "is_magnetic", "ordering", "total_magnetization_normalized_vol", "total_magnetization_normalized_formula_units", "num_magnetic_sites", "num_unique_magnetic_sites", "types_of_magnetic_species", "bulk_modulus", "shear_modulus", "universal_anisotropy", "homogeneous_poisson", "e_total", "e_ionic", "e_electronic", "n", "e_ij_max", "weighted_surface_energy_EV_PER_ANG2", "weighted_surface_energy", "weighted_work_function", "surface_anisotropy", "shape_factor", "has_reconstructed", "possible_species", "has_props", "theoretical", "database_IDs"]}