{"builder_meta": null, "nsites": null, "elements": null, "nelements": null, "composition": null, "composition_reduced": null, "formula_pretty": "Pr5Sn3", "formula_anonymous": "A3B5", "chemsys": null, "volume": 510.4312287039761, "density": 6.9011493293593436, "density_atomic": 31.901951793998506, "symmetry": null, "property_name": null, "material_id": "mp-570696", "deprecated": null, "deprecation_reasons": null, "last_updated": null, "origins": null, "warnings": null, "structure": {"@module": "pymatgen.core.structure", "@class": "Structure", "charge": 0, "lattice": {"matrix": [[6.04002847, 6.494e-05, 2.09799144], [3.02010605, 8.93463466, 1.04905075], [0.08850813, 5.649e-05, 9.48925973]], "pbc": [true, true, true], "a": 6.394021583083766, "b": 9.489428040561533, "c": 9.489672487270933, "alpha": 83.48181489574273, "beta": 70.31104160672695, "gamma": 70.31048446206839, "volume": 510.4312287039761}, "properties": {}, "sites": [{"species": [{"element": "Pr", "occu": 1}], "abc": [0.58270617, 0.7018271500000001, 0.13288154], "properties": {"magmom": 0.301}, "label": "Pr", "xyz": [5.650915374830838, 6.270614527135894, 3.2197123011554316]}, {"species": [{"element": "Pr", "occu": 1}], "abc": [0.41729383000000003, 0.29817285, 0.86711846], "properties": {"magmom": 0.301}, "label": "Pr", "xyz": [3.497727275169163, 2.6641415628641067, 9.41658961884457]}, {"species": [{"element": "Pr", "occu": 1}], "abc": [0.28461788, 0.13277668, 0.29817978], "properties": {"magmom": 0.301}, "label": "Pr", "xyz": [2.146491087569569, 1.1863464544286284, 3.5659207303017166]}, {"species": [{"element": "Pr", "occu": 1}], "abc": [0.91726851, 0.86715685, 0.29817655], "properties": {"magmom": 0.301}, "label": "Pr", "xyz": [8.185624612868773, 7.747806059076771, 5.663587754367024]}, {"species": [{"element": "Pr", "occu": 1}], "abc": [0.78459106, 0.29819176000000003, 0.13281347], "properties": {"magmom": 0.301}, "label": "Pr", "xyz": [5.651278150012137, 2.6642928881987586, 3.2191851297249094]}, {"species": [{"element": "Pr", "occu": 1}], "abc": [0.75001558, 0.50002295, 0.49997539], "properties": {"magmom": 0.34900000000000003}, "label": "Pr", "xyz": [6.084489679392332, 4.467599329486993, 6.842472051739393]}, {"species": [{"element": "Pr", "occu": 1}], "abc": [0.24998442, 0.49997705000000003, 0.50002461], "properties": {"magmom": 0.34900000000000003}, "label": "Pr", "xyz": [3.0641529706076693, 4.4671567605130065, 5.793829868260607]}, {"species": [{"element": "Pr", "occu": 1}], "abc": [0.08273149, 0.13284315, 0.70182345], "properties": {"magmom": 0.301}, "label": "Pr", "xyz": [0.9630180371312264, 1.18695003092323, 6.9727141656329765]}, {"species": [{"element": "Pr", "occu": 1}], "abc": [0.71538212, 0.86722332, 0.70182022], "properties": {"magmom": 0.301}, "label": "Pr", "xyz": [7.002151562430431, 7.748409635571372, 9.070381189698285]}, {"species": [{"element": "Pr", "occu": 1}], "abc": [0.21540894, 0.70180824, 0.86718653], "properties": {"magmom": 0.301}, "label": "Pr", "xyz": [3.497364499987863, 6.270463201801242, 9.417116790275092]}, {"species": [{"element": "Sn", "occu": 1}], "abc": [0.34007037, 0.81995713, 0.50002967], "properties": {"magmom": -0.065}, "label": "Sn", "xyz": [4.574648896693288, 7.326067724258013, 6.3185527787881695]}, {"species": [{"element": "Sn", "occu": 1}], "abc": [0.15993894, 0.49997024, 0.18002231], "properties": {"magmom": -0.065}, "label": "Sn", "xyz": [2.4919323357219545, 4.4670719911675745, 2.56832313907693]}, {"species": [{"element": "Sn", "occu": 1}], "abc": [0.24999266, 2.32e-06, -1.82e-06], "properties": {"magmom": -0.057}, "label": "Sn", "xyz": [1.5099696292522697, 3.69627729398e-05, 0.5244676240878619]}, {"species": [{"element": "Sn", "occu": 1}], "abc": [0.84006206, 0.50002976, 0.81997769], "properties": {"magmom": -0.065}, "label": "Sn", "xyz": [6.656716354306517, 4.467684098897366, 10.067980878914511]}, {"species": [{"element": "Sn", "occu": 1}], "abc": [0.65992963, 0.18004287, 0.49997033], "properties": {"magmom": -0.065}, "label": "Sn", "xyz": [4.573993753306713, 1.6086883657419881, 6.317749141211831]}, {"species": [{"element": "Sn", "occu": 1}], "abc": [0.75000734, -2.32e-06, 1.82e-06], "properties": {"magmom": -0.057}, "label": "Sn", "xyz": [4.5300588407477305, 2.7977227060200005e-05, 1.5735238159121383]}]}, "task_ids": null, "uncorrected_energy_per_atom": null, "energy_per_atom": -5.172278064375, "formation_energy_per_atom": -0.671518957291665, "energy_above_hull": 0.0, "is_stable": true, "equilibrium_reaction_energy_per_atom": null, "decomposes_to": null, "xas": null, "grain_boundaries": null, "band_gap": 0.0, "cbm": null, "vbm": null, "efermi": 5.16457709, "is_gap_direct": null, "is_metal": null, "es_source_calc_id": null, "bandstructure": null, "dos": null, "dos_energy_up": null, "dos_energy_down": null, "is_magnetic": null, "ordering": null, "total_magnetization": 6.6074983, "total_magnetization_normalized_vol": null, "total_magnetization_normalized_formula_units": null, "num_magnetic_sites": null, "num_unique_magnetic_sites": null, "types_of_magnetic_species": null, "bulk_modulus": null, "shear_modulus": null, "universal_anisotropy": null, "homogeneous_poisson": null, "e_total": null, "e_ionic": null, "e_electronic": null, "n": null, "e_ij_max": null, "weighted_surface_energy_EV_PER_ANG2": null, "weighted_surface_energy": null, "weighted_work_function": null, "surface_anisotropy": null, "shape_factor": null, "has_reconstructed": null, "possible_species": null, "has_props": null, "theoretical": null, "database_IDs": null, "fields_not_requested": ["builder_meta", "nsites", "elements", "nelements", "composition", "composition_reduced", "chemsys", "symmetry", "property_name", "deprecated", "deprecation_reasons", "last_updated", "origins", "warnings", "task_ids", "uncorrected_energy_per_atom", "equilibrium_reaction_energy_per_atom", "decomposes_to", "xas", "grain_boundaries", "cbm", "vbm", "is_gap_direct", "is_metal", "es_source_calc_id", "bandstructure", "dos", "dos_energy_up", "dos_energy_down", "is_magnetic", "ordering", "total_magnetization_normalized_vol", "total_magnetization_normalized_formula_units", "num_magnetic_sites", "num_unique_magnetic_sites", "types_of_magnetic_species", "bulk_modulus", "shear_modulus", "universal_anisotropy", "homogeneous_poisson", "e_total", "e_ionic", "e_electronic", "n", "e_ij_max", "weighted_surface_energy_EV_PER_ANG2", "weighted_surface_energy", "weighted_work_function", "surface_anisotropy", "shape_factor", "has_reconstructed", "possible_species", "has_props", "theoretical", "database_IDs"]}