{
  "builder_meta": null,
  "nsites": null,
  "elements": null,
  "nelements": null,
  "composition": null,
  "composition_reduced": null,
  "formula_pretty": "Pr5Si4",
  "formula_anonymous": "A4B5",
  "chemsys": null,
  "volume": 973.009113884398,
  "density": 5.57635709060844,
  "density_atomic": 27.028030941233276,
  "symmetry": null,
  "property_name": null,
  "material_id": "mp-542465",
  "deprecated": null,
  "deprecation_reasons": null,
  "last_updated": null,
  "origins": null,
  "warnings": null,
  "structure": {
    "@module": "pymatgen.core.structure",
    "@class": "Structure",
    "charge": 0,
    "lattice": {
      "matrix": [
        [7.95961423, -5.3880000000000006e-5, -6.629999999999997e-6],
        [-5.3880000000000006e-5, 7.95960078, 3.1e-7],
        [-1.3470000000000001e-5, 1.66e-6, 15.35796249]
      ],
      "pbc": [true, true, true],
      "a": 7.959614230185123,
      "b": 7.959600780182368,
      "c": 15.357962490005997,
      "alpha": 89.99999157523612,
      "beta": 90.00009797722345,
      "gamma": 90.00077569066204,
      "volume": 973.009113884398
    },
    "properties": {},
    "sites": [
      {
        "species": [{ "element": "Pr", "occu": 1 }],
        "abc": [0.3091769, 0.30917324, 4.999999999999999e-6],
        "properties": { "magmom": 0.281 },
        "label": "Pr",
        "xyz": [2.4609121945057653, 2.460878903816055, 7.483581330739998e-5]
      },
      {
        "species": [{ "element": "Pr", "occu": 1 }],
        "abc": [0.190819599999999, 0.8091935, 0.24999523],
        "properties": { "magmom": 0.281 },
        "label": "Pr",
        "xyz": [1.518803436741372, 6.440847347402964, 3.83941635073496]
      },
      {
        "species": [{ "element": "Pr", "occu": 1 }],
        "abc": [0.809186499999999, 0.19081429, 0.75000679],
        "properties": { "magmom": 0.281 },
        "label": "Pr",
        "xyz": [6.440791996458481, 1.5187632175617976, 11.518570842311242]
      },
      {
        "species": [{ "element": "Pr", "occu": 1 }],
        "abc": [0.69081834, 0.69082491, 0.49999563],
        "properties": { "magmom": 0.281 },
        "label": "Pr",
        "xyz": [5.49860353282169, 5.498654101180016, 7.678909764734048]
      },
      {
        "species": [{ "element": "Pr", "occu": 1 }],
        "abc": [0.37827517, 0.01041079, 0.44834079],
        "properties": { "magmom": 0.165 },
        "label": "Pr",
        "xyz": [3.0109178259038623, 0.082846094983968, 6.8855985308199354]
      },
      {
        "species": [{ "element": "Pr", "occu": 1 }],
        "abc": [0.48958773, 0.87827705, 0.69834834],
        "properties": { "magmom": 0.165 },
        "label": "Pr",
        "xyz": [3.896872734221804, 6.99070947250745, 10.725204636973002]
      },
      {
        "species": [{ "element": "Pr", "occu": 1 }],
        "abc": [0.51040486, 0.12172613, 0.19834682],
        "properties": { "magmom": 0.165 },
        "label": "Pr",
        "xyz": [4.062616556381608, 0.9688642279362458, 3.0461996753216605]
      },
      {
        "species": [{ "element": "Pr", "occu": 1 }],
        "abc": [0.8782761800000001, 0.48959043, 0.30164647],
        "properties": { "magmom": 0.165 },
        "label": "Pr",
        "xyz": [6.990709137887723, 3.896897547721097, 4.63266950030287]
      },
      {
        "species": [{ "element": "Pr", "occu": 1 }],
        "abc": [0.12172898, 0.51040616, 0.80165745],
        "properties": { "magmom": 0.165 },
        "label": "Pr",
        "xyz": [0.9688774224016331, 4.06262404124673, 12.311824398091822]
      },
      {
        "species": [{ "element": "Pr", "occu": 1 }],
        "abc": [0.62172065, 0.98959312, 0.94835512],
        "properties": { "magmom": 0.165 },
        "label": "Pr",
        "xyz": [4.948590439204077, 7.87673424579551, 14.564798544925408]
      },
      {
        "species": [{ "element": "Pr", "occu": 1 }],
        "abc": [0.01041054, 0.37827555, 0.5516466800000001],
        "properties": { "magmom": 0.165 },
        "label": "Pr",
        "xyz": [0.0828360701585706, 3.0109227176485223, 8.472169067416575]
      },
      {
        "species": [{ "element": "Pr", "occu": 1 }],
        "abc": [0.98959266, 0.6217265, 0.05165705],
        "properties": { "magmom": 0.165 },
        "label": "Pr",
        "xyz": [7.876741623995269, 4.948641500844852, 0.7933406679799337]
      },
      {
        "species": [{ "element": "Pr", "occu": 1 }],
        "abc": [0.1272424, 0.9804703300000001, 0.87468912],
        "properties": { "magmom": 0.139 },
        "label": "Pr",
        "xyz": [1.012735807895525, 7.804146999598284, 13.4334421556998]
      },
      {
        "species": [{ "element": "Pr", "occu": 1 }],
        "abc": [0.51952697, 0.62724058, 0.12468825],
        "properties": { "magmom": 0.139 },
        "label": "Pr",
        "xyz": [4.135198788007605, 4.992556824685004, 1.9149542164245112]
      },
      {
        "species": [{ "element": "Pr", "occu": 1 }],
        "abc": [0.48047188, 0.37275251, 0.62468037],
        "properties": { "magmom": 0.139 },
        "label": "Pr",
        "xyz": [3.8243423148130296, 2.9669363184874773, 9.593814620724036]
      },
      {
        "species": [{ "element": "Pr", "occu": 1 }],
        "abc": [0.6272426, 0.51952358, 0.8753259],
        "properties": { "magmom": 0.139 },
        "label": "Pr",
        "xyz": [4.9925693420518344, 4.135167949806098, 13.443218341159362]
      },
      {
        "species": [{ "element": "Pr", "occu": 1 }],
        "abc": [0.37275693, 0.48046655, 0.3753048],
        "properties": { "magmom": 0.139 },
        "label": "Pr",
        "xyz": [2.966970421465744, 3.8243024650064887, 5.763914718283137]
      },
      {
        "species": [{ "element": "Pr", "occu": 1 }],
        "abc": [0.87275891, 0.0195357, 0.37466663],
        "properties": { "magmom": 0.139 },
        "label": "Pr",
        "xyz": [6.946818140052267, 0.155449970654381, 5.754110269459202]
      },
      {
        "species": [{ "element": "Pr", "occu": 1 }],
        "abc": [0.980469599999999, 0.12723973, 0.12532659000000002],
        "properties": { "magmom": 0.139 },
        "label": "Pr",
        "xyz": [7.804151236416581, 1.0127248344950808, 1.9247546071504777]
      },
      {
        "species": [{ "element": "Pr", "occu": 1 }],
        "abc": [0.01953564, 0.87275999, 0.62531751],
        "properties": { "magmom": 0.139 },
        "label": "Pr",
        "xyz": [0.1554407108010363, 6.9468210826035754, 9.603603003954504]
      },
      {
        "species": [{ "element": "Si", "occu": 1 }],
        "abc": [0.19760529000000002, 0.16884363, 0.70235683],
        "properties": { "magmom": -0.018000000000000002 },
        "label": "Si",
        "xyz": [1.5728433201659924, 1.343918407985344, 10.78676859195376]
      },
      {
        "species": [{ "element": "Si", "occu": 1 }],
        "abc": [0.33116003, 0.69759393, 0.95236129],
        "properties": { "magmom": -0.018000000000000002 },
        "label": "Si",
        "xyz": [2.6358556725277023, 5.552552927368591, 14.626326989411131]
      },
      {
        "species": [{ "element": "Si", "occu": 1 }],
        "abc": [0.66883789, 0.30240767, 0.45235664000000003],
        "properties": { "magmom": -0.018000000000000002 },
        "label": "Si",
        "xyz": [5.323669199837974, 2.407009039936492, 6.947271968573601]
      },
      {
        "species": [{ "element": "Si", "occu": 1 }],
        "abc": [0.69758857, 0.33115629, 0.04764064],
        "properties": { "magmom": -0.018000000000000002 },
        "label": "Si",
        "xyz": [5.552517424037025, 2.635834357197217, 0.7316586397658243]
      },
      {
        "species": [{ "element": "Si", "occu": 1 }],
        "abc": [0.30240498, 0.66884202, 0.5476418200000001],
        "properties": { "magmom": -0.018000000000000002 },
        "label": "Si",
        "xyz": [2.406983568087512, 5.323700079593874, 8.410660731911342]
      },
      {
        "species": [{ "element": "Si", "occu": 1 }],
        "abc": [0.80239886, 0.83116015, 0.20235872],
        "properties": { "magmom": -0.018000000000000002 },
        "label": "Si",
        "xyz": [6.386737875510938, 6.615660080909815, 3.1078125690396172]
      },
      {
        "species": [{ "element": "Si", "occu": 1 }],
        "abc": [0.16884293, 0.19759642, 0.29763847],
        "properties": { "magmom": -0.018000000000000002 },
        "label": "Si",
        "xyz": [1.3439099325775934, 1.5727800155799994, 4.571119399667255]
      },
      {
        "species": [{ "element": "Si", "occu": 1 }],
        "abc": [0.8311555700000001, 0.80239455, 0.79764544],
        "properties": { "magmom": -0.018000000000000002 },
        "label": "Si",
        "xyz": [6.615623725013331, 6.386696827477067, 12.250203486020427]
      },
      {
        "species": [{ "element": "Si", "occu": 1 }],
        "abc": [0.28891936, 0.92199474, 0.05867999],
        "properties": { "magmom": -0.021 },
        "label": "Si",
        "xyz": [2.299636181682436, 7.338694582093564, 0.9012034556165878]
      },
      {
        "species": [{ "element": "Si", "occu": 1 }],
        "abc": [0.57800553, 0.78891745, 0.30867699],
        "properties": { "magmom": -0.021 },
        "label": "Si",
        "xyz": [4.60065437685543, 6.279437319841458, 4.7406460463338504]
      },
      {
        "species": [{ "element": "Si", "occu": 1 }],
        "abc": [0.42199245, 0.21108253000000002, 0.8086791],
        "properties": { "magmom": -0.021 },
        "label": "Si",
        "xyz": [3.35887484393837, 1.6801112758864736, 12.4196605518726]
      },
      {
        "species": [{ "element": "Si", "occu": 1 }],
        "abc": [0.78891612, 0.57800461, 0.6913241800000001],
        "properties": { "magmom": -0.021 },
        "label": "Si",
        "xyz": [6.279427520003296, 4.60064458539719, 10.617325773537564]
      },
      {
        "species": [{ "element": "Si", "occu": 1 }],
        "abc": [0.21108672, 0.421991599999999, 0.1913211],
        "properties": { "magmom": -0.021 },
        "label": "Si",
        "xyz": [1.6801435462734007, 3.3588736127539924, 2.9383010086579815]
      },
      {
        "species": [{ "element": "Si", "occu": 1 }],
        "abc": [0.71107841, 0.07801294, 0.55867778],
        "properties": { "magmom": -0.021 },
        "label": "Si",
        "xyz": [5.659898102154871, 0.6209144725744773, 8.580147698970626]
      },
      {
        "species": [{ "element": "Si", "occu": 1 }],
        "abc": [0.9219889, 0.28891655, 0.94132399],
        "properties": { "magmom": -0.021 },
        "label": "Si",
        "xyz": [7.338647721884188, 2.2996122825708003, 14.45681250613486]
      },
      {
        "species": [{ "element": "Si", "occu": 1 }],
        "abc": [0.07801436, 0.71108329, 0.44132047],
        "properties": { "magmom": -0.021 },
        "label": "Si",
        "xyz": [0.6209199522459468, 5.659935638907229, 6.777782927529784]
      }
    ]
  },
  "task_ids": null,
  "uncorrected_energy_per_atom": null,
  "energy_per_atom": -5.702457601944445,
  "formation_energy_per_atom": -0.627054333981482,
  "energy_above_hull": 0.0016117374999970002,
  "is_stable": false,
  "equilibrium_reaction_energy_per_atom": null,
  "decomposes_to": null,
  "xas": null,
  "grain_boundaries": null,
  "band_gap": 0.0,
  "cbm": null,
  "vbm": null,
  "efermi": 4.69336146,
  "is_gap_direct": null,
  "is_metal": null,
  "es_source_calc_id": null,
  "bandstructure": null,
  "dos": null,
  "dos_energy_up": null,
  "dos_energy_down": null,
  "is_magnetic": null,
  "ordering": null,
  "total_magnetization": 8.1052123,
  "total_magnetization_normalized_vol": null,
  "total_magnetization_normalized_formula_units": null,
  "num_magnetic_sites": null,
  "num_unique_magnetic_sites": null,
  "types_of_magnetic_species": null,
  "bulk_modulus": null,
  "shear_modulus": null,
  "universal_anisotropy": null,
  "homogeneous_poisson": null,
  "e_total": null,
  "e_ionic": null,
  "e_electronic": null,
  "n": null,
  "e_ij_max": null,
  "weighted_surface_energy_EV_PER_ANG2": null,
  "weighted_surface_energy": null,
  "weighted_work_function": null,
  "surface_anisotropy": null,
  "shape_factor": null,
  "has_reconstructed": null,
  "possible_species": null,
  "has_props": null,
  "theoretical": null,
  "database_IDs": null,
  "fields_not_requested": [
    "builder_meta",
    "nsites",
    "elements",
    "nelements",
    "composition",
    "composition_reduced",
    "chemsys",
    "symmetry",
    "property_name",
    "deprecated",
    "deprecation_reasons",
    "last_updated",
    "origins",
    "warnings",
    "task_ids",
    "uncorrected_energy_per_atom",
    "equilibrium_reaction_energy_per_atom",
    "decomposes_to",
    "xas",
    "grain_boundaries",
    "cbm",
    "vbm",
    "is_gap_direct",
    "is_metal",
    "es_source_calc_id",
    "bandstructure",
    "dos",
    "dos_energy_up",
    "dos_energy_down",
    "is_magnetic",
    "ordering",
    "total_magnetization_normalized_vol",
    "total_magnetization_normalized_formula_units",
    "num_magnetic_sites",
    "num_unique_magnetic_sites",
    "types_of_magnetic_species",
    "bulk_modulus",
    "shear_modulus",
    "universal_anisotropy",
    "homogeneous_poisson",
    "e_total",
    "e_ionic",
    "e_electronic",
    "n",
    "e_ij_max",
    "weighted_surface_energy_EV_PER_ANG2",
    "weighted_surface_energy",
    "weighted_work_function",
    "surface_anisotropy",
    "shape_factor",
    "has_reconstructed",
    "possible_species",
    "has_props",
    "theoretical",
    "database_IDs"
  ]
}
