{
  "builder_meta": null,
  "nsites": null,
  "elements": null,
  "nelements": null,
  "composition": null,
  "composition_reduced": null,
  "formula_pretty": "Pr5S8",
  "formula_anonymous": "A5B8",
  "chemsys": null,
  "volume": 426.225458212533,
  "density": 3.744203305208161,
  "density_atomic": 32.786573708656384,
  "symmetry": null,
  "property_name": null,
  "material_id": "mp-1219856",
  "deprecated": null,
  "deprecation_reasons": null,
  "last_updated": null,
  "origins": null,
  "warnings": null,
  "structure": {
    "@module": "pymatgen.core.structure",
    "@class": "Structure",
    "charge": 0,
    "lattice": {
      "matrix": [
        [0.0, 5.973146, 5.973146],
        [5.973146, 0.0, 5.973146],
        [5.973146, 5.973146, 0.0]
      ],
      "pbc": [true, true, true],
      "a": 8.447304083234602,
      "b": 8.447304083234602,
      "c": 8.447304083234602,
      "alpha": 59.99999999999999,
      "beta": 59.99999999999999,
      "gamma": 59.99999999999999,
      "volume": 426.225458212533
    },
    "properties": {},
    "sites": [
      {
        "species": [{ "element": "Pr", "occu": 1 }],
        "abc": [0.61387, 0.12871000000000002, 0.12871000000000002],
        "properties": { "magmom": -0.001 },
        "label": "Pr",
        "xyz": [1.53760724332, 4.43553875668, 4.43553875668]
      },
      {
        "species": [{ "element": "Pr", "occu": 1 }],
        "abc": [0.12871000000000002, 0.61387, 0.12871000000000002],
        "properties": { "magmom": -0.001 },
        "label": "Pr",
        "xyz": [4.43553875668, 1.53760724332, 4.43553875668]
      },
      {
        "species": [{ "element": "Pr", "occu": 1 }],
        "abc": [0.12871000000000002, 0.12871000000000002, 0.61387],
        "properties": { "magmom": -0.001 },
        "label": "Pr",
        "xyz": [4.43553875668, 4.43553875668, 1.53760724332]
      },
      {
        "species": [{ "element": "Pr", "occu": 1 }],
        "abc": [0.12871000000000002, 0.12871000000000002, 0.12871000000000002],
        "properties": { "magmom": -0.001 },
        "label": "Pr",
        "xyz": [1.53760724332, 1.53760724332, 1.53760724332]
      },
      {
        "species": [{ "element": "Pr", "occu": 1 }],
        "abc": [0.75, 0.75, 0.75],
        "properties": { "magmom": 0.009000000000000001 },
        "label": "Pr",
        "xyz": [8.959719, 8.959719, 8.959719]
      },
      {
        "species": [{ "element": "S", "occu": 1 }],
        "abc": [0.350072999999999, 0.883309, 0.883309],
        "properties": { "magmom": 0.029 },
        "label": "S",
        "xyz": [10.552267240228, 7.367170759771994, 7.367170759771994]
      },
      {
        "species": [{ "element": "S", "occu": 1 }],
        "abc": [0.883309, 0.350072999999999, 0.883309],
        "properties": { "magmom": 0.029 },
        "label": "S",
        "xyz": [7.367170759771994, 10.552267240228, 7.367170759771994]
      },
      {
        "species": [{ "element": "S", "occu": 1 }],
        "abc": [0.883309, 0.883309, 0.350072999999999],
        "properties": { "magmom": 0.029 },
        "label": "S",
        "xyz": [7.367170759771994, 7.367170759771994, 10.552267240228]
      },
      {
        "species": [{ "element": "S", "occu": 1 }],
        "abc": [0.883309, 0.883309, 0.883309],
        "properties": { "magmom": 0.029 },
        "label": "S",
        "xyz": [10.552267240228, 10.552267240228, 10.552267240228]
      },
      {
        "species": [{ "element": "S", "occu": 1 }],
        "abc": [0.911408, 0.362863999999999, 0.362863999999999],
        "properties": { "magmom": 0.122 },
        "label": "S",
        "xyz": [4.334879300287988, 7.611412699711995, 7.611412699711995]
      },
      {
        "species": [{ "element": "S", "occu": 1 }],
        "abc": [0.362863999999999, 0.911408, 0.362863999999999],
        "properties": { "magmom": 0.122 },
        "label": "S",
        "xyz": [7.611412699711995, 4.334879300287988, 7.611412699711995]
      },
      {
        "species": [{ "element": "S", "occu": 1 }],
        "abc": [0.362863999999999, 0.362863999999999, 0.911408],
        "properties": { "magmom": 0.122 },
        "label": "S",
        "xyz": [7.611412699711995, 7.611412699711995, 4.334879300287988]
      },
      {
        "species": [{ "element": "S", "occu": 1 }],
        "abc": [0.362863999999999, 0.362863999999999, 0.362863999999999],
        "properties": { "magmom": 0.122 },
        "label": "S",
        "xyz": [4.334879300287988, 4.334879300287988, 4.334879300287988]
      }
    ]
  },
  "task_ids": null,
  "uncorrected_energy_per_atom": null,
  "energy_per_atom": -18.305412027187497,
  "formation_energy_per_atom": -2.05158321955929,
  "energy_above_hull": 0.23266078504807902,
  "is_stable": false,
  "equilibrium_reaction_energy_per_atom": null,
  "decomposes_to": null,
  "xas": null,
  "grain_boundaries": null,
  "band_gap": 0.0,
  "cbm": null,
  "vbm": null,
  "efermi": 0.86072683,
  "is_gap_direct": null,
  "is_metal": null,
  "es_source_calc_id": null,
  "bandstructure": null,
  "dos": null,
  "dos_energy_up": null,
  "dos_energy_down": null,
  "is_magnetic": null,
  "ordering": null,
  "total_magnetization": 0.9998602,
  "total_magnetization_normalized_vol": null,
  "total_magnetization_normalized_formula_units": null,
  "num_magnetic_sites": null,
  "num_unique_magnetic_sites": null,
  "types_of_magnetic_species": null,
  "bulk_modulus": null,
  "shear_modulus": null,
  "universal_anisotropy": null,
  "homogeneous_poisson": null,
  "e_total": null,
  "e_ionic": null,
  "e_electronic": null,
  "n": null,
  "e_ij_max": null,
  "weighted_surface_energy_EV_PER_ANG2": null,
  "weighted_surface_energy": null,
  "weighted_work_function": null,
  "surface_anisotropy": null,
  "shape_factor": null,
  "has_reconstructed": null,
  "possible_species": null,
  "has_props": null,
  "theoretical": null,
  "database_IDs": null,
  "fields_not_requested": [
    "builder_meta",
    "nsites",
    "elements",
    "nelements",
    "composition",
    "composition_reduced",
    "chemsys",
    "symmetry",
    "property_name",
    "deprecated",
    "deprecation_reasons",
    "last_updated",
    "origins",
    "warnings",
    "task_ids",
    "uncorrected_energy_per_atom",
    "equilibrium_reaction_energy_per_atom",
    "decomposes_to",
    "xas",
    "grain_boundaries",
    "cbm",
    "vbm",
    "is_gap_direct",
    "is_metal",
    "es_source_calc_id",
    "bandstructure",
    "dos",
    "dos_energy_up",
    "dos_energy_down",
    "is_magnetic",
    "ordering",
    "total_magnetization_normalized_vol",
    "total_magnetization_normalized_formula_units",
    "num_magnetic_sites",
    "num_unique_magnetic_sites",
    "types_of_magnetic_species",
    "bulk_modulus",
    "shear_modulus",
    "universal_anisotropy",
    "homogeneous_poisson",
    "e_total",
    "e_ionic",
    "e_electronic",
    "n",
    "e_ij_max",
    "weighted_surface_energy_EV_PER_ANG2",
    "weighted_surface_energy",
    "weighted_work_function",
    "surface_anisotropy",
    "shape_factor",
    "has_reconstructed",
    "possible_species",
    "has_props",
    "theoretical",
    "database_IDs"
  ]
}
