{
  "builder_meta": null,
  "nsites": null,
  "elements": null,
  "nelements": null,
  "composition": null,
  "composition_reduced": null,
  "formula_pretty": "Pr5Tl3",
  "formula_anonymous": "A3B5",
  "chemsys": null,
  "volume": 511.6157413286315,
  "density": 8.553578296823328,
  "density_atomic": 31.975983833039468,
  "symmetry": null,
  "property_name": null,
  "material_id": "mp-570469",
  "deprecated": null,
  "deprecation_reasons": null,
  "last_updated": null,
  "origins": null,
  "warnings": null,
  "structure": {
    "@module": "pymatgen.core.structure",
    "@class": "Structure",
    "charge": 0,
    "lattice": {
      "matrix": [
        [6.00946145, -0.0, 2.08929133],
        [3.00521403, 8.96735032, 1.0432555],
        [0.05995948, -0.00147042, 9.51473647]
      ],
      "pbc": [true, true, true],
      "a": 6.362292446960393,
      "b": 9.514886503053685,
      "c": 9.514925506535766,
      "alpha": 83.59895496026063,
      "beta": 70.46806593303575,
      "gamma": 70.46798067080026,
      "volume": 511.6157413286315
    },
    "properties": {},
    "sites": [
      {
        "species": [{ "element": "Pr", "occu": 1 }],
        "abc": [0.58597533, 0.6970587500000001, 0.13099058],
        "properties": { "magmom": 0.088 },
        "label": "Pr",
        "xyz": [5.624061018581989, 6.250577393702656, 3.197824400075967]
      },
      {
        "species": [{ "element": "Pr", "occu": 1 }],
        "abc": [0.41402467, 0.30294125, 0.86900942],
        "properties": { "magmom": 0.088 },
        "label": "Pr",
        "xyz": [3.4505739414180105, 2.7153025062973435, 9.449458899924034]
      },
      {
        "species": [{ "element": "Pr", "occu": 1 }],
        "abc": [0.2829948, 0.13108352, 0.30292588],
        "properties": { "magmom": 0.088 },
        "label": "Pr",
        "xyz": [2.112743652799588, 1.175026416746257, 3.6102721034172873]
      },
      {
        "species": [{ "element": "Pr", "occu": 1 }],
        "abc": [0.91402667, 0.86900842, 0.30293925],
        "properties": { "magmom": 0.088 },
        "label": "Pr",
        "xyz": [8.122528413510594, 7.792257485237709, 5.698652940900528]
      },
      {
        "species": [{ "element": "Pr", "occu": 1 }],
        "abc": [0.7829948, 0.30292788, 0.13108252],
        "properties": { "magmom": 0.088 },
        "label": "Pr",
        "xyz": [5.623599820940906, 2.716267675295863, 3.199151057611928]
      },
      {
        "species": [{ "element": "Pr", "occu": 1 }],
        "abc": [0.75, 0.5, 0.5],
        "properties": { "magmom": 0.25 },
        "label": "Pr",
        "xyz": [6.0396828424999995, 4.48293995, 6.8459644825]
      },
      {
        "species": [{ "element": "Pr", "occu": 1 }],
        "abc": [0.25, 0.5, 0.5],
        "properties": { "magmom": 0.25 },
        "label": "Pr",
        "xyz": [3.0349521174999996, 4.48293995, 5.8013188175]
      },
      {
        "species": [{ "element": "Pr", "occu": 1 }],
        "abc": [0.08597333, 0.13099158, 0.69706075],
        "properties": { "magmom": 0.088 },
        "label": "Pr",
        "xyz": [0.9521065464894058, 1.1736224147622905, 6.9486303590994725]
      },
      {
        "species": [{ "element": "Pr", "occu": 1 }],
        "abc": [0.7170052, 0.86891648, 0.69707412],
        "properties": { "magmom": 0.088 },
        "label": "Pr",
        "xyz": [6.961891307200412, 7.790853483253743, 9.037011196582712]
      },
      {
        "species": [{ "element": "Pr", "occu": 1 }],
        "abc": [0.217005199999999, 0.69707212, 0.86891748],
        "properties": { "magmom": 0.088 },
        "label": "Pr",
        "xyz": [3.4510351390590874, 6.249612224704136, 9.44813224238807]
      },
      {
        "species": [{ "element": "Tl", "occu": 1 }],
        "abc": [0.34001766, 0.82010075, 0.49986493],
        "properties": { "magmom": -0.041 },
        "label": "Tl",
        "xyz": [4.537872941275765, 7.353395711554369, 6.3220536466215105]
      },
      {
        "species": [{ "element": "Tl", "occu": 1 }],
        "abc": [0.15998334, 0.50013407, 0.17989925],
        "properties": { "magmom": -0.041 },
        "label": "Tl",
        "xyz": [2.475210303899635, 4.484612885202218, 2.567713379371975]
      },
      {
        "species": [{ "element": "Tl", "occu": 1 }],
        "abc": [0.25, -0.0, 0.0],
        "properties": { "magmom": -0.015 },
        "label": "Tl",
        "xyz": [1.5023653625, 0.0, 0.5223228325]
      },
      {
        "species": [{ "element": "Tl", "occu": 1 }],
        "abc": [0.84001666, 0.49986593, 0.82010075],
        "properties": { "magmom": -0.041 },
        "label": "Tl",
        "xyz": [6.599424656100365, 4.4812670147977824, 10.079569920628026]
      },
      {
        "species": [{ "element": "Tl", "occu": 1 }],
        "abc": [0.65998234, 0.17989925, 0.50013507],
        "properties": { "magmom": -0.041 },
        "label": "Tl",
        "xyz": [4.536762018724234, 1.6124841884456307, 6.32522965337849]
      },
      {
        "species": [{ "element": "Tl", "occu": 1 }],
        "abc": [0.75, 0.0, 0.0],
        "properties": { "magmom": -0.015 },
        "label": "Tl",
        "xyz": [4.5070960875, 0.0, 1.5669684975]
      }
    ]
  },
  "task_ids": null,
  "uncorrected_energy_per_atom": null,
  "energy_per_atom": -38.7629238875,
  "formation_energy_per_atom": -0.443211939791666,
  "energy_above_hull": 0.0,
  "is_stable": true,
  "equilibrium_reaction_energy_per_atom": null,
  "decomposes_to": null,
  "xas": null,
  "grain_boundaries": null,
  "band_gap": 0.0,
  "cbm": null,
  "vbm": null,
  "efermi": 4.73472033,
  "is_gap_direct": null,
  "is_metal": null,
  "es_source_calc_id": null,
  "bandstructure": null,
  "dos": null,
  "dos_energy_up": null,
  "dos_energy_down": null,
  "is_magnetic": null,
  "ordering": null,
  "total_magnetization": 2.2399521,
  "total_magnetization_normalized_vol": null,
  "total_magnetization_normalized_formula_units": null,
  "num_magnetic_sites": null,
  "num_unique_magnetic_sites": null,
  "types_of_magnetic_species": null,
  "bulk_modulus": null,
  "shear_modulus": null,
  "universal_anisotropy": null,
  "homogeneous_poisson": null,
  "e_total": null,
  "e_ionic": null,
  "e_electronic": null,
  "n": null,
  "e_ij_max": null,
  "weighted_surface_energy_EV_PER_ANG2": null,
  "weighted_surface_energy": null,
  "weighted_work_function": null,
  "surface_anisotropy": null,
  "shape_factor": null,
  "has_reconstructed": null,
  "possible_species": null,
  "has_props": null,
  "theoretical": null,
  "database_IDs": null,
  "fields_not_requested": [
    "builder_meta",
    "nsites",
    "elements",
    "nelements",
    "composition",
    "composition_reduced",
    "chemsys",
    "symmetry",
    "property_name",
    "deprecated",
    "deprecation_reasons",
    "last_updated",
    "origins",
    "warnings",
    "task_ids",
    "uncorrected_energy_per_atom",
    "equilibrium_reaction_energy_per_atom",
    "decomposes_to",
    "xas",
    "grain_boundaries",
    "cbm",
    "vbm",
    "is_gap_direct",
    "is_metal",
    "es_source_calc_id",
    "bandstructure",
    "dos",
    "dos_energy_up",
    "dos_energy_down",
    "is_magnetic",
    "ordering",
    "total_magnetization_normalized_vol",
    "total_magnetization_normalized_formula_units",
    "num_magnetic_sites",
    "num_unique_magnetic_sites",
    "types_of_magnetic_species",
    "bulk_modulus",
    "shear_modulus",
    "universal_anisotropy",
    "homogeneous_poisson",
    "e_total",
    "e_ionic",
    "e_electronic",
    "n",
    "e_ij_max",
    "weighted_surface_energy_EV_PER_ANG2",
    "weighted_surface_energy",
    "weighted_work_function",
    "surface_anisotropy",
    "shape_factor",
    "has_reconstructed",
    "possible_species",
    "has_props",
    "theoretical",
    "database_IDs"
  ]
}
