{"builder_meta": null, "nsites": null, "elements": null, "nelements": null, "composition": null, "composition_reduced": null, "formula_pretty": "Pr7Ir3", "formula_anonymous": "A3B7", "chemsys": null, "volume": 580.455091488109, "density": 8.942742184911033, "density_atomic": 29.02275457440545, "symmetry": null, "property_name": null, "material_id": "mp-1189759", "deprecated": null, "deprecation_reasons": null, "last_updated": null, "origins": null, "warnings": null, "structure": {"@module": "pymatgen.core.structure", "@class": "Structure", "charge": 0, "lattice": {"matrix": [[5.09802447, -8.83003748, 0.0], [5.09802447, 8.83003748, -0.0], [0.0, 0.0, 6.44724489]], "pbc": [true, true, true], "a": 10.196049009048727, "b": 10.196049009048727, "c": 6.44724489, "alpha": 90.0, "beta": 90.0, "gamma": 120.00000044803896, "volume": 580.455091488109}, "properties": {}, "sites": [{"species": [{"element": "Pr", "occu": 1}], "abc": [0.333333, 0.666667, 0.47603111000000004], "properties": {"magmom": 0.085}, "label": "Pr", "xyz": [5.09802447, 2.94335171335832, 3.0690891414285284]}, {"species": [{"element": "Pr", "occu": 1}], "abc": [0.666667, 0.333333, 0.97603111], "properties": {"magmom": 0.085}, "label": "Pr", "xyz": [5.09802447, -2.94335171335832, 6.292711586428528]}, {"species": [{"element": "Pr", "occu": 1}], "abc": [0.12641139, 0.87358861, 0.24510653000000002], "properties": {"magmom": 0.029}, "label": "Pr", "xyz": [5.09802447, 6.5976028568022045, 1.5802618230481318]}, {"species": [{"element": "Pr", "occu": 1}], "abc": [0.74717822, 0.87358861, 0.24510653000000002], "properties": {"magmom": 0.029}, "label": "Pr", "xyz": [8.26270895950433, 1.1162084815614168, 1.5802618230481318]}, {"species": [{"element": "Pr", "occu": 1}], "abc": [0.12641139, 0.25282178, 0.24510653000000002], "properties": {"magmom": 0.029}, "label": "Pr", "xyz": [1.9333399804956701, 1.116208481561417, 1.5802618230481318]}, {"species": [{"element": "Pr", "occu": 1}], "abc": [0.87358861, 0.12641139, 0.74510653], "properties": {"magmom": 0.029}, "label": "Pr", "xyz": [5.09802447, -6.5976028568022045, 4.803884268048132]}, {"species": [{"element": "Pr", "occu": 1}], "abc": [0.25282178, 0.12641139, 0.74510653], "properties": {"magmom": 0.029}, "label": "Pr", "xyz": [1.9333399804956701, -1.116208481561417, 4.803884268048132]}, {"species": [{"element": "Pr", "occu": 1}], "abc": [0.87358861, 0.74717822, 0.74510653], "properties": {"magmom": 0.029}, "label": "Pr", "xyz": [8.26270895950433, -1.1162084815614168, 4.803884268048132]}, {"species": [{"element": "Pr", "occu": 1}], "abc": [0.53894405, 0.46105595, 0.43686338], "properties": {"magmom": 0.074}, "label": "Pr", "xyz": [5.09802447, -0.6877548422459885, 2.8165651943331285]}, {"species": [{"element": "Pr", "occu": 1}], "abc": [0.9221119, 0.46105595, 0.43686338], "properties": {"magmom": 0.074}, "label": "Pr", "xyz": [7.05142354541729, -4.071141318877006, 2.8165651943331285]}, {"species": [{"element": "Pr", "occu": 1}], "abc": [0.53894405, 0.0778881, 0.43686338], "properties": {"magmom": 0.074}, "label": "Pr", "xyz": [3.144625394582711, -4.071141318877006, 2.8165651943331285]}, {"species": [{"element": "Pr", "occu": 1}], "abc": [0.46105595, 0.53894405, 0.93686338], "properties": {"magmom": 0.074}, "label": "Pr", "xyz": [5.09802447, 0.6877548422459885, 6.040187639333129]}, {"species": [{"element": "Pr", "occu": 1}], "abc": [0.0778881, 0.53894405, 0.93686338], "properties": {"magmom": 0.074}, "label": "Pr", "xyz": [3.144625394582711, 4.071141318877006, 6.040187639333129]}, {"species": [{"element": "Pr", "occu": 1}], "abc": [0.46105595, 0.9221119, 0.93686338], "properties": {"magmom": 0.074}, "label": "Pr", "xyz": [7.05142354541729, 4.071141318877006, 6.040187639333129]}, {"species": [{"element": "Ir", "occu": 1}], "abc": [0.81255286, 0.18744714, 0.19303505], "properties": {"magmom": 0.003}, "label": "Ir", "xyz": [5.098024470000001, -5.519706936562386, 1.2445442397033946]}, {"species": [{"element": "Ir", "occu": 1}], "abc": [0.37489429, 0.18744714, 0.19303505], "properties": {"magmom": 0.003}, "label": "Ir", "xyz": [2.8668303706347924, -1.6551653600191818, 1.2445442397033946]}, {"species": [{"element": "Ir", "occu": 1}], "abc": [0.81255286, 0.62510571, 0.19303505], "properties": {"magmom": 0.003}, "label": "Ir", "xyz": [7.329218569365209, -1.6551653600191818, 1.2445442397033946]}, {"species": [{"element": "Ir", "occu": 1}], "abc": [0.18744714, 0.81255286, 0.69303505], "properties": {"magmom": 0.003}, "label": "Ir", "xyz": [5.098024470000001, 5.519706936562386, 4.4681666847033945]}, {"species": [{"element": "Ir", "occu": 1}], "abc": [0.62510571, 0.81255286, 0.69303505], "properties": {"magmom": 0.003}, "label": "Ir", "xyz": [7.329218569365209, 1.6551653600191818, 4.4681666847033945]}, {"species": [{"element": "Ir", "occu": 1}], "abc": [0.18744714, 0.37489429, 0.69303505], "properties": {"magmom": 0.003}, "label": "Ir", "xyz": [2.8668303706347924, 1.6551653600191818, 4.4681666847033945]}]}, "task_ids": null, "uncorrected_energy_per_atom": null, "energy_per_atom": -36.848698005, "formation_energy_per_atom": -0.5581225121666641, "energy_above_hull": 0.008030147899994, "is_stable": false, "equilibrium_reaction_energy_per_atom": null, "decomposes_to": null, "xas": null, "grain_boundaries": null, "band_gap": 0.0, "cbm": null, "vbm": null, "efermi": 4.41970953, "is_gap_direct": null, "is_metal": null, "es_source_calc_id": null, "bandstructure": null, "dos": null, "dos_energy_up": null, "dos_energy_down": null, "is_magnetic": null, "ordering": null, "total_magnetization": 1.802602499999999, "total_magnetization_normalized_vol": null, "total_magnetization_normalized_formula_units": null, "num_magnetic_sites": null, "num_unique_magnetic_sites": null, "types_of_magnetic_species": null, "bulk_modulus": null, "shear_modulus": null, "universal_anisotropy": null, "homogeneous_poisson": null, "e_total": null, "e_ionic": null, "e_electronic": null, "n": null, "e_ij_max": null, "weighted_surface_energy_EV_PER_ANG2": null, "weighted_surface_energy": null, "weighted_work_function": null, "surface_anisotropy": null, "shape_factor": null, "has_reconstructed": null, "possible_species": null, "has_props": null, "theoretical": null, "database_IDs": null, "fields_not_requested": ["builder_meta", "nsites", "elements", "nelements", "composition", "composition_reduced", "chemsys", "symmetry", "property_name", "deprecated", "deprecation_reasons", "last_updated", "origins", "warnings", "task_ids", "uncorrected_energy_per_atom", "equilibrium_reaction_energy_per_atom", "decomposes_to", "xas", "grain_boundaries", "cbm", "vbm", "is_gap_direct", "is_metal", "es_source_calc_id", "bandstructure", "dos", "dos_energy_up", "dos_energy_down", "is_magnetic", "ordering", "total_magnetization_normalized_vol", "total_magnetization_normalized_formula_units", "num_magnetic_sites", "num_unique_magnetic_sites", "types_of_magnetic_species", "bulk_modulus", "shear_modulus", "universal_anisotropy", "homogeneous_poisson", "e_total", "e_ionic", "e_electronic", "n", "e_ij_max", "weighted_surface_energy_EV_PER_ANG2", "weighted_surface_energy", "weighted_work_function", "surface_anisotropy", "shape_factor", "has_reconstructed", "possible_species", "has_props", "theoretical", "database_IDs"]}