{"builder_meta": null, "nsites": null, "elements": null, "nelements": null, "composition": null, "composition_reduced": null, "formula_pretty": "Pr7Ni3", "formula_anonymous": "A3B7", "chemsys": null, "volume": 549.2572813138551, "density": 7.028642932477939, "density_atomic": 27.462864065692752, "symmetry": null, "property_name": null, "material_id": "mp-1189469", "deprecated": null, "deprecation_reasons": null, "last_updated": null, "origins": null, "warnings": null, "structure": {"@module": "pymatgen.core.structure", "@class": "Structure", "charge": 0, "lattice": {"matrix": [[0.0, 0.0, -6.396368], [-4.980427, -8.620765, 0.0], [-4.980427, 8.620765, 0.0]], "pbc": [true, true, true], "a": 6.396368, "b": 9.956015382046877, "c": 9.956015382046877, "alpha": 119.96784393024559, "beta": 90.0, "gamma": 90.0, "volume": 549.2572813138551}, "properties": {}, "sites": [{"species": [{"element": "Pr", "occu": 1}], "abc": [0.464145, 0.333321, 0.666679], "properties": {"magmom": 0.0}, "label": "Pr", "xyz": [-4.980427, 2.8738009788700007, -2.96884222536]}, {"species": [{"element": "Pr", "occu": 1}], "abc": [0.964144999999999, 0.666679, 0.333321], "properties": {"magmom": 0.0}, "label": "Pr", "xyz": [-4.980427, -2.8738009788700007, -6.167026225359994]}, {"species": [{"element": "Pr", "occu": 1}], "abc": [0.250362, 0.125336, 0.874664], "properties": {"magmom": -0.0}, "label": "Pr", "xyz": [-4.980427, 6.45978059592, -1.6014074852159998]}, {"species": [{"element": "Pr", "occu": 1}], "abc": [0.250341, 0.749308, 0.874655], "properties": {"magmom": -0.0}, "label": "Pr", "xyz": [-8.088029172201, 1.0805870304549998, -1.6012731614879998]}, {"species": [{"element": "Pr", "occu": 1}], "abc": [0.250341, 0.125344999999999, 0.250691999999999], "properties": {"magmom": -0.0}, "label": "Pr", "xyz": [-1.8728248277989903, 1.0805870304550005, -1.6012731614879998]}, {"species": [{"element": "Pr", "occu": 1}], "abc": [0.750362, 0.874664, 0.125336], "properties": {"magmom": -0.0}, "label": "Pr", "xyz": [-4.980427, -6.45978059592, -4.799591485215999]}, {"species": [{"element": "Pr", "occu": 1}], "abc": [0.750340999999999, 0.250691999999999, 0.125344999999999], "properties": {"magmom": -0.0}, "label": "Pr", "xyz": [-1.8728248277989903, -1.0805870304550005, -4.799457161487994]}, {"species": [{"element": "Pr", "occu": 1}], "abc": [0.750340999999999, 0.874655, 0.749308], "properties": {"magmom": -0.0}, "label": "Pr", "xyz": [-8.088029172201, -1.0805870304549998, -4.799457161487994]}, {"species": [{"element": "Pr", "occu": 1}], "abc": [0.435872999999999, 0.539163, 0.460837], "properties": {"magmom": 0.0}, "label": "Pr", "xyz": [-4.980426999999999, -0.6752300393899997, -2.788004109263994]}, {"species": [{"element": "Pr", "occu": 1}], "abc": [0.435813, 0.921693, 0.460841], "properties": {"magmom": 0.0}, "label": "Pr", "xyz": [-6.885609662017999, -3.9728967917799998, -2.787620327184]}, {"species": [{"element": "Pr", "occu": 1}], "abc": [0.435813, 0.5391589999999991, 0.078307], "properties": {"magmom": 0.0}, "label": "Pr", "xyz": [-3.0752443379819954, -3.9728967917799918, -2.787620327184]}, {"species": [{"element": "Pr", "occu": 1}], "abc": [0.935873, 0.460837, 0.539163], "properties": {"magmom": 0.0}, "label": "Pr", "xyz": [-4.980426999999999, 0.6752300393899997, -5.986188109264]}, {"species": [{"element": "Pr", "occu": 1}], "abc": [0.935813, 0.078307, 0.5391589999999991], "properties": {"magmom": 0.0}, "label": "Pr", "xyz": [-3.0752443379819954, 3.9728967917799918, -5.985804327184]}, {"species": [{"element": "Pr", "occu": 1}], "abc": [0.935813, 0.460841, 0.921693], "properties": {"magmom": 0.0}, "label": "Pr", "xyz": [-6.885609662017999, 3.9728967917799998, -5.985804327184]}, {"species": [{"element": "Ni", "occu": 1}], "abc": [0.190091999999999, 0.811782999999999, 0.188217], "properties": {"magmom": 0.0}, "label": "Ni", "xyz": [-4.980426999999995, -5.375615947989992, -1.2158983858559937]}, {"species": [{"element": "Ni", "occu": 1}], "abc": [0.190111, 0.376422, 0.188202999999999], "properties": {"magmom": 0.0}, "label": "Ni", "xyz": [-2.812073594874995, -1.6225917675350083, -1.216019916848]}, {"species": [{"element": "Ni", "occu": 1}], "abc": [0.190111, 0.811797, 0.623578], "properties": {"magmom": 0.0}, "label": "Ni", "xyz": [-7.148780405125, -1.622591767535, -1.216019916848]}, {"species": [{"element": "Ni", "occu": 1}], "abc": [0.690091999999999, 0.188217, 0.811782999999999], "properties": {"magmom": 0.0}, "label": "Ni", "xyz": [-4.980426999999995, 5.375615947989992, -4.414082385855994]}, {"species": [{"element": "Ni", "occu": 1}], "abc": [0.690110999999999, 0.623578, 0.811797], "properties": {"magmom": 0.0}, "label": "Ni", "xyz": [-7.148780405125, 1.622591767535, -4.414203916847994]}, {"species": [{"element": "Ni", "occu": 1}], "abc": [0.690110999999999, 0.188202999999999, 0.376422], "properties": {"magmom": 0.0}, "label": "Ni", "xyz": [-2.812073594874995, 1.6225917675350083, -4.414203916847994]}]}, "task_ids": null, "uncorrected_energy_per_atom": null, "energy_per_atom": -5.2620544895, "formation_energy_per_atom": -0.171183464666665, "energy_above_hull": 0.0010952619999980001, "is_stable": false, "equilibrium_reaction_energy_per_atom": null, "decomposes_to": null, "xas": null, "grain_boundaries": null, "band_gap": 0.0, "cbm": null, "vbm": null, "efermi": 4.25023128, "is_gap_direct": null, "is_metal": null, "es_source_calc_id": null, "bandstructure": null, "dos": null, "dos_energy_up": null, "dos_energy_down": null, "is_magnetic": null, "ordering": null, "total_magnetization": 0.0011841, "total_magnetization_normalized_vol": null, "total_magnetization_normalized_formula_units": null, "num_magnetic_sites": null, "num_unique_magnetic_sites": null, "types_of_magnetic_species": null, "bulk_modulus": null, "shear_modulus": null, "universal_anisotropy": null, "homogeneous_poisson": null, "e_total": null, "e_ionic": null, "e_electronic": null, "n": null, "e_ij_max": null, "weighted_surface_energy_EV_PER_ANG2": null, "weighted_surface_energy": null, "weighted_work_function": null, "surface_anisotropy": null, "shape_factor": null, "has_reconstructed": null, "possible_species": null, "has_props": null, "theoretical": null, "database_IDs": null, "fields_not_requested": ["builder_meta", "nsites", "elements", "nelements", "composition", "composition_reduced", "chemsys", "symmetry", "property_name", "deprecated", "deprecation_reasons", "last_updated", "origins", "warnings", "task_ids", "uncorrected_energy_per_atom", "equilibrium_reaction_energy_per_atom", "decomposes_to", "xas", "grain_boundaries", "cbm", "vbm", "is_gap_direct", "is_metal", "es_source_calc_id", "bandstructure", "dos", "dos_energy_up", "dos_energy_down", "is_magnetic", "ordering", "total_magnetization_normalized_vol", "total_magnetization_normalized_formula_units", "num_magnetic_sites", "num_unique_magnetic_sites", "types_of_magnetic_species", "bulk_modulus", "shear_modulus", "universal_anisotropy", "homogeneous_poisson", "e_total", "e_ionic", "e_electronic", "n", "e_ij_max", "weighted_surface_energy_EV_PER_ANG2", "weighted_surface_energy", "weighted_work_function", "surface_anisotropy", "shape_factor", "has_reconstructed", "possible_species", "has_props", "theoretical", "database_IDs"]}