{"builder_meta": null, "nsites": null, "elements": null, "nelements": null, "composition": null, "composition_reduced": null, "formula_pretty": "Pr7Pd3", "formula_anonymous": "A3B7", "chemsys": null, "volume": 600.955724206751, "density": 7.215248040174861, "density_atomic": 30.047786210337552, "symmetry": null, "property_name": null, "material_id": "mp-1106268", "deprecated": null, "deprecation_reasons": null, "last_updated": null, "origins": null, "warnings": null, "structure": {"@module": "pymatgen.core.structure", "@class": "Structure", "charge": 0, "lattice": {"matrix": [[0.0, 0.0, -6.545496], [-5.131333, -8.946223, 0.0], [-5.131333, 8.946223, 0.0]], "pbc": [true, true, true], "a": 6.545496, "b": 10.313364355176152, "c": 10.313364355176152, "alpha": 120.32496060177422, "beta": 90.0, "gamma": 90.0, "volume": 600.955724206751}, "properties": {}, "sites": [{"species": [{"element": "Pr", "occu": 1}], "abc": [0.451881, 0.333144, 0.666856], "properties": {"magmom": 0.0}, "label": "Pr", "xyz": [-5.131333, 2.9854619697760003, -2.957785277976]}, {"species": [{"element": "Pr", "occu": 1}], "abc": [0.951881, 0.666856, 0.333144], "properties": {"magmom": 0.0}, "label": "Pr", "xyz": [-5.131333, -2.9854619697760003, -6.230533277976]}, {"species": [{"element": "Pr", "occu": 1}], "abc": [0.243676999999999, 0.126297, 0.873703], "properties": {"magmom": -0.0}, "label": "Pr", "xyz": [-5.131333, 6.686460747538, -1.5949868287919935]}, {"species": [{"element": "Pr", "occu": 1}], "abc": [0.244547, 0.747213, 0.873580999999999], "properties": {"magmom": -0.0}, "label": "Pr", "xyz": [-8.316833738401995, 1.1305163080639913, -1.600681410312]}, {"species": [{"element": "Pr", "occu": 1}], "abc": [0.244547, 0.126419, 0.252787], "properties": {"magmom": -0.0}, "label": "Pr", "xyz": [-1.9458322615979997, 1.130516308064, -1.600681410312]}, {"species": [{"element": "Pr", "occu": 1}], "abc": [0.743676999999999, 0.873703, 0.126297], "properties": {"magmom": -0.0}, "label": "Pr", "xyz": [-5.131333, -6.686460747538, -4.867734828791994]}, {"species": [{"element": "Pr", "occu": 1}], "abc": [0.744547, 0.252787, 0.126419], "properties": {"magmom": -0.0}, "label": "Pr", "xyz": [-1.9458322615979997, -1.130516308064, -4.873429410311999]}, {"species": [{"element": "Pr", "occu": 1}], "abc": [0.744547, 0.873580999999999, 0.747213], "properties": {"magmom": -0.0}, "label": "Pr", "xyz": [-8.316833738401995, -1.1305163080639913, -4.873429410311999]}, {"species": [{"element": "Pr", "occu": 1}], "abc": [0.444781, 0.538217, 0.461783], "properties": {"magmom": 0.0}, "label": "Pr", "xyz": [-5.131333, -0.6837956087819999, -2.9113122563759997]}, {"species": [{"element": "Pr", "occu": 1}], "abc": [0.445681, 0.9233600000000001, 0.461676], "properties": {"magmom": 0.0}, "label": "Pr", "xyz": [-7.107080932988, -4.130328019532001, -2.9172032027759998]}, {"species": [{"element": "Pr", "occu": 1}], "abc": [0.445681, 0.538324, 0.07664], "properties": {"magmom": 0.0}, "label": "Pr", "xyz": [-3.1555850670120003, -4.130328019532, -2.9172032027759998]}, {"species": [{"element": "Pr", "occu": 1}], "abc": [0.944781, 0.461783, 0.538217], "properties": {"magmom": 0.0}, "label": "Pr", "xyz": [-5.131333, 0.6837956087819999, -6.184060256376]}, {"species": [{"element": "Pr", "occu": 1}], "abc": [0.945681, 0.07664, 0.538324], "properties": {"magmom": 0.0}, "label": "Pr", "xyz": [-3.1555850670120003, 4.130328019532, -6.189951202776]}, {"species": [{"element": "Pr", "occu": 1}], "abc": [0.945681, 0.461676, 0.9233600000000001], "properties": {"magmom": 0.0}, "label": "Pr", "xyz": [-7.107080932988, 4.130328019532001, -6.189951202776]}, {"species": [{"element": "Pd", "occu": 1}], "abc": [0.190833, 0.811306, 0.188694], "properties": {"magmom": 0.0}, "label": "Pd", "xyz": [-5.131333, -5.570025794475999, -1.249096638168]}, {"species": [{"element": "Pd", "occu": 1}], "abc": [0.190686, 0.377745, 0.189045], "properties": {"magmom": -0.0}, "label": "Pd", "xyz": [-2.90838823107, -1.6881522801, -1.248134450256]}, {"species": [{"element": "Pd", "occu": 1}], "abc": [0.190686, 0.810955, 0.622255], "properties": {"magmom": -0.0}, "label": "Pd", "xyz": [-7.354277768929999, -1.6881522800999997, -1.248134450256]}, {"species": [{"element": "Pd", "occu": 1}], "abc": [0.690832999999999, 0.188694, 0.811306], "properties": {"magmom": 0.0}, "label": "Pd", "xyz": [-5.131333, 5.570025794475999, -4.521844638167994]}, {"species": [{"element": "Pd", "occu": 1}], "abc": [0.690686, 0.622255, 0.810955], "properties": {"magmom": -0.0}, "label": "Pd", "xyz": [-7.354277768929999, 1.6881522800999997, -4.520882450256]}, {"species": [{"element": "Pd", "occu": 1}], "abc": [0.690686, 0.189045, 0.377745], "properties": {"magmom": -0.0}, "label": "Pd", "xyz": [-2.90838823107, 1.6881522801, -4.520882450256]}]}, "task_ids": null, "uncorrected_energy_per_atom": null, "energy_per_atom": -5.383577514000001, "formation_energy_per_atom": -0.47278295016666505, "energy_above_hull": 0.0, "is_stable": true, "equilibrium_reaction_energy_per_atom": null, "decomposes_to": null, "xas": null, "grain_boundaries": null, "band_gap": 0.0, "cbm": null, "vbm": null, "efermi": 3.8353647, "is_gap_direct": null, "is_metal": null, "es_source_calc_id": null, "bandstructure": null, "dos": null, "dos_energy_up": null, "dos_energy_down": null, "is_magnetic": null, "ordering": null, "total_magnetization": 0.0014232, "total_magnetization_normalized_vol": null, "total_magnetization_normalized_formula_units": null, "num_magnetic_sites": null, "num_unique_magnetic_sites": null, "types_of_magnetic_species": null, "bulk_modulus": null, "shear_modulus": null, "universal_anisotropy": null, "homogeneous_poisson": null, "e_total": null, "e_ionic": null, "e_electronic": null, "n": null, "e_ij_max": null, "weighted_surface_energy_EV_PER_ANG2": null, "weighted_surface_energy": null, "weighted_work_function": null, "surface_anisotropy": null, "shape_factor": null, "has_reconstructed": null, "possible_species": null, "has_props": null, "theoretical": null, "database_IDs": null, "fields_not_requested": ["builder_meta", "nsites", "elements", "nelements", "composition", "composition_reduced", "chemsys", "symmetry", "property_name", "deprecated", "deprecation_reasons", "last_updated", "origins", "warnings", "task_ids", "uncorrected_energy_per_atom", "equilibrium_reaction_energy_per_atom", "decomposes_to", "xas", "grain_boundaries", "cbm", "vbm", "is_gap_direct", "is_metal", "es_source_calc_id", "bandstructure", "dos", "dos_energy_up", "dos_energy_down", "is_magnetic", "ordering", "total_magnetization_normalized_vol", "total_magnetization_normalized_formula_units", "num_magnetic_sites", "num_unique_magnetic_sites", "types_of_magnetic_species", "bulk_modulus", "shear_modulus", "universal_anisotropy", "homogeneous_poisson", "e_total", "e_ionic", "e_electronic", "n", "e_ij_max", "weighted_surface_energy_EV_PER_ANG2", "weighted_surface_energy", "weighted_work_function", "surface_anisotropy", "shape_factor", "has_reconstructed", "possible_species", "has_props", "theoretical", "database_IDs"]}