{
  "builder_meta": null,
  "nsites": null,
  "elements": null,
  "nelements": null,
  "composition": null,
  "composition_reduced": null,
  "formula_pretty": "Pr7Pt3",
  "formula_anonymous": "A3B7",
  "chemsys": null,
  "volume": 596.0201111160485,
  "density": 8.757128708874232,
  "density_atomic": 29.801005555802426,
  "symmetry": null,
  "property_name": null,
  "material_id": "mp-1106063",
  "deprecated": null,
  "deprecation_reasons": null,
  "last_updated": null,
  "origins": null,
  "warnings": null,
  "structure": {
    "@module": "pymatgen.core.structure",
    "@class": "Structure",
    "charge": 0,
    "lattice": {
      "matrix": [
        [0.0, 0.0, -6.544569],
        [-5.134744, -8.86811, 0.0],
        [-5.134744, 8.86811, 0.0]
      ],
      "pbc": [true, true, true],
      "a": 6.544569,
      "b": 10.247388492569021,
      "c": 10.247388492569021,
      "alpha": 119.85726920333397,
      "beta": 90.0,
      "gamma": 90.0,
      "volume": 596.0201111160485
    },
    "properties": {},
    "sites": [
      {
        "species": [{ "element": "Pr", "occu": 1 }],
        "abc": [0.457875, 0.333358999999999, 0.666640999999999],
        "properties": { "magmom": 0.0 },
        "label": "Pr",
        "xyz": [-5.134743999999991, 2.95558143702, -2.996594530875]
      },
      {
        "species": [{ "element": "Pr", "occu": 1 }],
        "abc": [0.957874999999999, 0.666640999999999, 0.333358999999999],
        "properties": { "magmom": 0.0 },
        "label": "Pr",
        "xyz": [-5.134743999999991, -2.95558143702, -6.268879030874993]
      },
      {
        "species": [{ "element": "Pr", "occu": 1 }],
        "abc": [0.248471, 0.127158, 0.872842],
        "properties": { "magmom": -0.0 },
        "label": "Pr",
        "xyz": [-5.134744, 6.612807737240001, -1.626135603999]
      },
      {
        "species": [{ "element": "Pr", "occu": 1 }],
        "abc": [0.247915, 0.746186, 0.873131999999999],
        "properties": { "magmom": -0.0 },
        "label": "Pr",
        "xyz": [-8.314783384591996, 1.125771092059991, -1.622496823635]
      },
      {
        "species": [{ "element": "Pr", "occu": 1 }],
        "abc": [0.247915, 0.126867999999999, 0.253814],
        "properties": { "magmom": -0.0 },
        "label": "Pr",
        "xyz": [-1.9547046154079948, 1.1257710920600086, -1.622496823635]
      },
      {
        "species": [{ "element": "Pr", "occu": 1 }],
        "abc": [0.748471, 0.872842, 0.127158],
        "properties": { "magmom": -0.0 },
        "label": "Pr",
        "xyz": [-5.134744, -6.612807737240001, -4.898420103999]
      },
      {
        "species": [{ "element": "Pr", "occu": 1 }],
        "abc": [0.747915, 0.253814, 0.126867999999999],
        "properties": { "magmom": -0.0 },
        "label": "Pr",
        "xyz": [-1.9547046154079948, -1.1257710920600086, -4.894781323635]
      },
      {
        "species": [{ "element": "Pr", "occu": 1 }],
        "abc": [0.747915, 0.873131999999999, 0.746186],
        "properties": { "magmom": -0.0 },
        "label": "Pr",
        "xyz": [-8.314783384591996, -1.125771092059991, -4.894781323635]
      },
      {
        "species": [{ "element": "Pr", "occu": 1 }],
        "abc": [0.441526, 0.537752999999999, 0.462246999999999],
        "properties": { "magmom": 0.0 },
        "label": "Pr",
        "xyz": [-5.134743999999991, -0.66959551366, -2.889597372294]
      },
      {
        "species": [{ "element": "Pr", "occu": 1 }],
        "abc": [0.441208999999999, 0.9244100000000001, 0.462290999999999],
        "properties": { "magmom": 0.0 },
        "label": "Pr",
        "xyz": [-7.120354639543995, -4.098122125090009, -2.8875227439209934]
      },
      {
        "species": [{ "element": "Pr", "occu": 1 }],
        "abc": [0.441208999999999, 0.537709, 0.07559],
        "properties": { "magmom": 0.0 },
        "label": "Pr",
        "xyz": [-3.149133360456, -4.09812212509, -2.8875227439209934]
      },
      {
        "species": [{ "element": "Pr", "occu": 1 }],
        "abc": [0.941526, 0.462246999999999, 0.537752999999999],
        "properties": { "magmom": 0.0 },
        "label": "Pr",
        "xyz": [-5.134743999999991, 0.66959551366, -6.161881872294]
      },
      {
        "species": [{ "element": "Pr", "occu": 1 }],
        "abc": [0.941209, 0.07559, 0.537709],
        "properties": { "magmom": 0.0 },
        "label": "Pr",
        "xyz": [-3.149133360456, 4.09812212509, -6.159807243921]
      },
      {
        "species": [{ "element": "Pr", "occu": 1 }],
        "abc": [0.941209, 0.462290999999999, 0.9244100000000001],
        "properties": { "magmom": 0.0 },
        "label": "Pr",
        "xyz": [-7.120354639543995, 4.098122125090009, -6.159807243921]
      },
      {
        "species": [{ "element": "Pt", "occu": 1 }],
        "abc": [0.189113, 0.810844, 0.189156],
        "properties": { "magmom": 0.0 },
        "label": "Pt",
        "xyz": [-5.134744, -5.513197569680001, -1.237663077297]
      },
      {
        "species": [{ "element": "Pt", "occu": 1 }],
        "abc": [0.188883, 0.378301, 0.189363],
        "properties": { "magmom": 0.0 },
        "label": "Pt",
        "xyz": [-2.914809318016, -1.6755229671799998, -1.236157826427]
      },
      {
        "species": [{ "element": "Pt", "occu": 1 }],
        "abc": [0.188883, 0.810636999999999, 0.621699],
        "properties": { "magmom": 0.0 },
        "label": "Pt",
        "xyz": [-7.354678681983995, -1.675522967179992, -1.236157826427]
      },
      {
        "species": [{ "element": "Pt", "occu": 1 }],
        "abc": [0.689113, 0.189156, 0.810844],
        "properties": { "magmom": 0.0 },
        "label": "Pt",
        "xyz": [-5.134744, 5.513197569680001, -4.509947577297]
      },
      {
        "species": [{ "element": "Pt", "occu": 1 }],
        "abc": [0.688883, 0.621699, 0.810636999999999],
        "properties": { "magmom": 0.0 },
        "label": "Pt",
        "xyz": [-7.354678681983995, 1.675522967179992, -4.508442326427001]
      },
      {
        "species": [{ "element": "Pt", "occu": 1 }],
        "abc": [0.688883, 0.189363, 0.378301],
        "properties": { "magmom": 0.0 },
        "label": "Pt",
        "xyz": [-2.914809318016, 1.6755229671799998, -4.508442326427001]
      }
    ]
  },
  "task_ids": null,
  "uncorrected_energy_per_atom": null,
  "energy_per_atom": -5.889845011,
  "formation_energy_per_atom": -0.711674994166665,
  "energy_above_hull": 0.0,
  "is_stable": true,
  "equilibrium_reaction_energy_per_atom": null,
  "decomposes_to": null,
  "xas": null,
  "grain_boundaries": null,
  "band_gap": 0.0,
  "cbm": null,
  "vbm": null,
  "efermi": 4.22464691,
  "is_gap_direct": null,
  "is_metal": null,
  "es_source_calc_id": null,
  "bandstructure": null,
  "dos": null,
  "dos_energy_up": null,
  "dos_energy_down": null,
  "is_magnetic": null,
  "ordering": null,
  "total_magnetization": 0.003739499999999,
  "total_magnetization_normalized_vol": null,
  "total_magnetization_normalized_formula_units": null,
  "num_magnetic_sites": null,
  "num_unique_magnetic_sites": null,
  "types_of_magnetic_species": null,
  "bulk_modulus": null,
  "shear_modulus": null,
  "universal_anisotropy": null,
  "homogeneous_poisson": null,
  "e_total": null,
  "e_ionic": null,
  "e_electronic": null,
  "n": null,
  "e_ij_max": null,
  "weighted_surface_energy_EV_PER_ANG2": null,
  "weighted_surface_energy": null,
  "weighted_work_function": null,
  "surface_anisotropy": null,
  "shape_factor": null,
  "has_reconstructed": null,
  "possible_species": null,
  "has_props": null,
  "theoretical": null,
  "database_IDs": null,
  "fields_not_requested": [
    "builder_meta",
    "nsites",
    "elements",
    "nelements",
    "composition",
    "composition_reduced",
    "chemsys",
    "symmetry",
    "property_name",
    "deprecated",
    "deprecation_reasons",
    "last_updated",
    "origins",
    "warnings",
    "task_ids",
    "uncorrected_energy_per_atom",
    "equilibrium_reaction_energy_per_atom",
    "decomposes_to",
    "xas",
    "grain_boundaries",
    "cbm",
    "vbm",
    "is_gap_direct",
    "is_metal",
    "es_source_calc_id",
    "bandstructure",
    "dos",
    "dos_energy_up",
    "dos_energy_down",
    "is_magnetic",
    "ordering",
    "total_magnetization_normalized_vol",
    "total_magnetization_normalized_formula_units",
    "num_magnetic_sites",
    "num_unique_magnetic_sites",
    "types_of_magnetic_species",
    "bulk_modulus",
    "shear_modulus",
    "universal_anisotropy",
    "homogeneous_poisson",
    "e_total",
    "e_ionic",
    "e_electronic",
    "n",
    "e_ij_max",
    "weighted_surface_energy_EV_PER_ANG2",
    "weighted_surface_energy",
    "weighted_work_function",
    "surface_anisotropy",
    "shape_factor",
    "has_reconstructed",
    "possible_species",
    "has_props",
    "theoretical",
    "database_IDs"
  ]
}
