{
  "builder_meta": null,
  "nsites": null,
  "elements": null,
  "nelements": null,
  "composition": null,
  "composition_reduced": null,
  "formula_pretty": "Pr7Ru3",
  "formula_anonymous": "A3B7",
  "chemsys": null,
  "volume": 1151.689115032067,
  "density": 7.437321845587673,
  "density_atomic": 28.79222787580168,
  "symmetry": null,
  "property_name": null,
  "material_id": "mp-1197932",
  "deprecated": null,
  "deprecation_reasons": null,
  "last_updated": null,
  "origins": null,
  "warnings": null,
  "structure": {
    "@module": "pymatgen.core.structure",
    "@class": "Structure",
    "charge": 0,
    "lattice": {
      "matrix": [
        [0.0, 0.0, 6.71186077],
        [7.33254909, 0.0, -0.0],
        [0.0, 23.40115774, 0.0]
      ],
      "pbc": [true, true, true],
      "a": 6.71186077,
      "b": 7.33254909,
      "c": 23.40115774,
      "alpha": 90.0,
      "beta": 90.0,
      "gamma": 90.0,
      "volume": 1151.689115032067
    },
    "properties": {},
    "sites": [
      {
        "species": [{ "element": "Pr", "occu": 1 }],
        "abc": [0.31850833, 0.81574776, 0.17444368],
        "properties": { "magmom": -0.0 },
        "label": "Pr",
        "xyz": [5.981510495257538, 4.082184072426083, 2.1377835650452144]
      },
      {
        "species": [{ "element": "Pr", "occu": 1 }],
        "abc": [0.18149167, 0.31574776, 0.32555632],
        "properties": { "magmom": -0.0 },
        "label": "Pr",
        "xyz": [2.3152359502575384, 7.618394797573917, 1.218146819954786]
      },
      {
        "species": [{ "element": "Pr", "occu": 1 }],
        "abc": [0.68149167, 0.18425224, 0.67444368],
        "properties": { "magmom": -0.0 },
        "label": "Pr",
        "xyz": [1.3510385947424617, 15.782762942426082, 4.574077204954786]
      },
      {
        "species": [{ "element": "Pr", "occu": 1 }],
        "abc": [0.81850833, 0.6842522400000001, 0.82555632],
        "properties": { "magmom": -0.0 },
        "label": "Pr",
        "xyz": [5.017313139742462, 19.318973667573918, 5.493713950045215]
      },
      {
        "species": [{ "element": "Pr", "occu": 1 }],
        "abc": [0.68149167, 0.18425224, 0.82555632],
        "properties": { "magmom": -0.0 },
        "label": "Pr",
        "xyz": [1.3510385947424617, 19.318973667573918, 4.574077204954786]
      },
      {
        "species": [{ "element": "Pr", "occu": 1 }],
        "abc": [0.81850833, 0.6842522400000001, 0.67444368],
        "properties": { "magmom": -0.0 },
        "label": "Pr",
        "xyz": [5.017313139742462, 15.782762942426082, 5.493713950045215]
      },
      {
        "species": [{ "element": "Pr", "occu": 1 }],
        "abc": [0.31850833, 0.81574776, 0.32555632],
        "properties": { "magmom": -0.0 },
        "label": "Pr",
        "xyz": [5.981510495257538, 7.618394797573917, 2.1377835650452144]
      },
      {
        "species": [{ "element": "Pr", "occu": 1 }],
        "abc": [0.18149167, 0.31574776, 0.17444368],
        "properties": { "magmom": -0.0 },
        "label": "Pr",
        "xyz": [2.3152359502575384, 4.082184072426083, 1.218146819954786]
      },
      {
        "species": [{ "element": "Pr", "occu": 1 }],
        "abc": [0.32529665, 0.8221802300000001, 0.02319264],
        "properties": { "magmom": -0.0 },
        "label": "Pr",
        "xyz": [6.028676897302491, 0.5427346270470336, 2.1833458237474206]
      },
      {
        "species": [{ "element": "Pr", "occu": 1 }],
        "abc": [0.17470335, 0.32218023, 0.47680736],
        "properties": { "magmom": -0.0 },
        "label": "Pr",
        "xyz": [2.3624023523024906, 11.157844242952965, 1.1725845612525796]
      },
      {
        "species": [{ "element": "Pr", "occu": 1 }],
        "abc": [0.67470335, 0.17781977000000002, 0.52319264],
        "properties": { "magmom": -0.0 },
        "label": "Pr",
        "xyz": [1.3038721926975094, 12.243313497047033, 4.52851494625258]
      },
      {
        "species": [{ "element": "Pr", "occu": 1 }],
        "abc": [0.82529665, 0.67781977, 0.97680736],
        "properties": { "magmom": -0.0 },
        "label": "Pr",
        "xyz": [4.970146737697509, 22.858423112952966, 5.53927620874742]
      },
      {
        "species": [{ "element": "Pr", "occu": 1 }],
        "abc": [0.67470335, 0.17781977000000002, 0.97680736],
        "properties": { "magmom": -0.0 },
        "label": "Pr",
        "xyz": [1.3038721926975094, 22.858423112952966, 4.52851494625258]
      },
      {
        "species": [{ "element": "Pr", "occu": 1 }],
        "abc": [0.82529665, 0.67781977, 0.52319264],
        "properties": { "magmom": -0.0 },
        "label": "Pr",
        "xyz": [4.970146737697509, 12.243313497047033, 5.53927620874742]
      },
      {
        "species": [{ "element": "Pr", "occu": 1 }],
        "abc": [0.32529665, 0.8221802300000001, 0.47680736],
        "properties": { "magmom": -0.0 },
        "label": "Pr",
        "xyz": [6.028676897302491, 11.157844242952965, 2.1833458237474206]
      },
      {
        "species": [{ "element": "Pr", "occu": 1 }],
        "abc": [0.17470335, 0.32218023, 0.02319264],
        "properties": { "magmom": -0.0 },
        "label": "Pr",
        "xyz": [2.3624023523024906, 0.5427346270470336, 1.1725845612525796]
      },
      {
        "species": [{ "element": "Pr", "occu": 1 }],
        "abc": [0.862885199999999, 0.67384013, 0.25],
        "properties": { "magmom": -0.0 },
        "label": "Pr",
        "xyz": [4.940965832036981, 5.850289435, 5.7915653228935975]
      },
      {
        "species": [{ "element": "Pr", "occu": 1 }],
        "abc": [0.6371148, 0.17384013, 0.25],
        "properties": { "magmom": -0.0 },
        "label": "Pr",
        "xyz": [1.2746912870369818, 5.850289435, 4.276225832106396]
      },
      {
        "species": [{ "element": "Pr", "occu": 1 }],
        "abc": [0.137114799999999, 0.32615987, 0.75],
        "properties": { "magmom": -0.0 },
        "label": "Pr",
        "xyz": [2.3915832579630183, 17.550868304999998, 0.9202954471063894]
      },
      {
        "species": [{ "element": "Pr", "occu": 1 }],
        "abc": [0.362885199999999, 0.82615987, 0.75],
        "properties": { "magmom": -0.0 },
        "label": "Pr",
        "xyz": [6.057857802963018, 17.550868304999998, 2.4356349378935978]
      },
      {
        "species": [{ "element": "Pr", "occu": 1 }],
        "abc": [0.85669575, 0.9456749600000001, 0.11460171],
        "properties": { "magmom": 0.0 },
        "label": "Pr",
        "xyz": [6.9342080673837865, 2.681812692983735, 5.750022596250727]
      },
      {
        "species": [{ "element": "Pr", "occu": 1 }],
        "abc": [0.64330425, 0.44567496, 0.38539829000000003],
        "properties": { "magmom": 0.0 },
        "label": "Pr",
        "xyz": [3.267933522383786, 9.018766177016264, 4.317768558749273]
      },
      {
        "species": [{ "element": "Pr", "occu": 1 }],
        "abc": [0.14330425, 0.05432504, 0.61460171],
        "properties": { "magmom": 0.0 },
        "label": "Pr",
        "xyz": [0.39834102261621357, 14.382391562983734, 0.9618381737492725]
      },
      {
        "species": [{ "element": "Pr", "occu": 1 }],
        "abc": [0.35669575000000003, 0.55432504, 0.88539829],
        "properties": { "magmom": 0.0 },
        "label": "Pr",
        "xyz": [4.0646155676162135, 20.719345047016265, 2.3940922112507277]
      },
      {
        "species": [{ "element": "Pr", "occu": 1 }],
        "abc": [0.14330425, 0.05432504, 0.88539829],
        "properties": { "magmom": 0.0 },
        "label": "Pr",
        "xyz": [0.39834102261621357, 20.719345047016265, 0.9618381737492725]
      },
      {
        "species": [{ "element": "Pr", "occu": 1 }],
        "abc": [0.35669575000000003, 0.55432504, 0.61460171],
        "properties": { "magmom": 0.0 },
        "label": "Pr",
        "xyz": [4.0646155676162135, 14.382391562983734, 2.3940922112507277]
      },
      {
        "species": [{ "element": "Pr", "occu": 1 }],
        "abc": [0.85669575, 0.9456749600000001, 0.38539829000000003],
        "properties": { "magmom": 0.0 },
        "label": "Pr",
        "xyz": [6.9342080673837865, 9.018766177016264, 5.750022596250727]
      },
      {
        "species": [{ "element": "Pr", "occu": 1 }],
        "abc": [0.64330425, 0.44567496, 0.11460171],
        "properties": { "magmom": 0.0 },
        "label": "Pr",
        "xyz": [3.267933522383786, 2.681812692983735, 4.317768558749273]
      },
      {
        "species": [{ "element": "Ru", "occu": 1 }],
        "abc": [0.47010661000000004, 0.52358944, 0.25],
        "properties": { "magmom": 0.0 },
        "label": "Ru",
        "xyz": [3.839245271805609, 5.850289435, 3.15529011337669]
      },
      {
        "species": [{ "element": "Ru", "occu": 1 }],
        "abc": [0.029893390000000002, 0.02358944, 0.25],
        "properties": { "magmom": 0.0 },
        "label": "Ru",
        "xyz": [0.1729707268056096, 5.850289435, 0.20064027162331033]
      },
      {
        "species": [{ "element": "Ru", "occu": 1 }],
        "abc": [0.52989339, 0.47641056, 0.75],
        "properties": { "magmom": 0.0 },
        "label": "Ru",
        "xyz": [3.49330381819439, 17.550868304999998, 3.5565706566233106]
      },
      {
        "species": [{ "element": "Ru", "occu": 1 }],
        "abc": [0.97010661, 0.97641056, 0.75],
        "properties": { "magmom": 0.0 },
        "label": "Ru",
        "xyz": [7.159578363194391, 17.550868304999998, 6.51122049837669]
      },
      {
        "species": [{ "element": "Ru", "occu": 1 }],
        "abc": [0.0302288, 0.60726882, 0.09553862],
        "properties": { "magmom": -0.0 },
        "label": "Ru",
        "xyz": [4.452828433476374, 2.2357143168819187, 0.202891496844176]
      },
      {
        "species": [{ "element": "Ru", "occu": 1 }],
        "abc": [0.4697712, 0.10726882, 0.40446138],
        "properties": { "magmom": -0.0 },
        "label": "Ru",
        "xyz": [0.7865538884763738, 9.46486455311808, 3.153038888155824]
      },
      {
        "species": [{ "element": "Ru", "occu": 1 }],
        "abc": [0.9697711999999991, 0.39273118, 0.59553862],
        "properties": { "magmom": -0.0 },
        "label": "Ru",
        "xyz": [2.879720656523626, 13.936293186881919, 6.508969273155818]
      },
      {
        "species": [{ "element": "Ru", "occu": 1 }],
        "abc": [0.5302288, 0.8927311800000001, 0.90446138],
        "properties": { "magmom": -0.0 },
        "label": "Ru",
        "xyz": [6.545995201523627, 21.16544342311808, 3.558821881844176]
      },
      {
        "species": [{ "element": "Ru", "occu": 1 }],
        "abc": [0.9697711999999991, 0.39273118, 0.90446138],
        "properties": { "magmom": -0.0 },
        "label": "Ru",
        "xyz": [2.879720656523626, 21.16544342311808, 6.508969273155818]
      },
      {
        "species": [{ "element": "Ru", "occu": 1 }],
        "abc": [0.5302288, 0.8927311800000001, 0.59553862],
        "properties": { "magmom": -0.0 },
        "label": "Ru",
        "xyz": [6.545995201523627, 13.936293186881919, 3.558821881844176]
      },
      {
        "species": [{ "element": "Ru", "occu": 1 }],
        "abc": [0.0302288, 0.60726882, 0.40446138],
        "properties": { "magmom": -0.0 },
        "label": "Ru",
        "xyz": [4.452828433476374, 9.46486455311808, 0.202891496844176]
      },
      {
        "species": [{ "element": "Ru", "occu": 1 }],
        "abc": [0.4697712, 0.10726882, 0.09553862],
        "properties": { "magmom": -0.0 },
        "label": "Ru",
        "xyz": [0.7865538884763738, 2.2357143168819187, 3.153038888155824]
      }
    ]
  },
  "task_ids": null,
  "uncorrected_energy_per_atom": null,
  "energy_per_atom": -28.410940065749998,
  "formation_energy_per_atom": -0.20081001941666102,
  "energy_above_hull": 0.0,
  "is_stable": true,
  "equilibrium_reaction_energy_per_atom": null,
  "decomposes_to": null,
  "xas": null,
  "grain_boundaries": null,
  "band_gap": 0.0,
  "cbm": null,
  "vbm": null,
  "efermi": 4.08023901,
  "is_gap_direct": null,
  "is_metal": null,
  "es_source_calc_id": null,
  "bandstructure": null,
  "dos": null,
  "dos_energy_up": null,
  "dos_energy_down": null,
  "is_magnetic": null,
  "ordering": null,
  "total_magnetization": 2.2e-6,
  "total_magnetization_normalized_vol": null,
  "total_magnetization_normalized_formula_units": null,
  "num_magnetic_sites": null,
  "num_unique_magnetic_sites": null,
  "types_of_magnetic_species": null,
  "bulk_modulus": null,
  "shear_modulus": null,
  "universal_anisotropy": null,
  "homogeneous_poisson": null,
  "e_total": null,
  "e_ionic": null,
  "e_electronic": null,
  "n": null,
  "e_ij_max": null,
  "weighted_surface_energy_EV_PER_ANG2": null,
  "weighted_surface_energy": null,
  "weighted_work_function": null,
  "surface_anisotropy": null,
  "shape_factor": null,
  "has_reconstructed": null,
  "possible_species": null,
  "has_props": null,
  "theoretical": null,
  "database_IDs": null,
  "fields_not_requested": [
    "builder_meta",
    "nsites",
    "elements",
    "nelements",
    "composition",
    "composition_reduced",
    "chemsys",
    "symmetry",
    "property_name",
    "deprecated",
    "deprecation_reasons",
    "last_updated",
    "origins",
    "warnings",
    "task_ids",
    "uncorrected_energy_per_atom",
    "equilibrium_reaction_energy_per_atom",
    "decomposes_to",
    "xas",
    "grain_boundaries",
    "cbm",
    "vbm",
    "is_gap_direct",
    "is_metal",
    "es_source_calc_id",
    "bandstructure",
    "dos",
    "dos_energy_up",
    "dos_energy_down",
    "is_magnetic",
    "ordering",
    "total_magnetization_normalized_vol",
    "total_magnetization_normalized_formula_units",
    "num_magnetic_sites",
    "num_unique_magnetic_sites",
    "types_of_magnetic_species",
    "bulk_modulus",
    "shear_modulus",
    "universal_anisotropy",
    "homogeneous_poisson",
    "e_total",
    "e_ionic",
    "e_electronic",
    "n",
    "e_ij_max",
    "weighted_surface_energy_EV_PER_ANG2",
    "weighted_surface_energy",
    "weighted_work_function",
    "surface_anisotropy",
    "shape_factor",
    "has_reconstructed",
    "possible_species",
    "has_props",
    "theoretical",
    "database_IDs"
  ]
}
