{
  "builder_meta": null,
  "nsites": null,
  "elements": null,
  "nelements": null,
  "composition": null,
  "composition_reduced": null,
  "formula_pretty": "Pr7Rh3",
  "formula_anonymous": "A3B7",
  "chemsys": null,
  "volume": 582.7825770161004,
  "density": 7.38016027527605,
  "density_atomic": 29.13912885080502,
  "symmetry": null,
  "property_name": null,
  "material_id": "mp-1106086",
  "deprecated": null,
  "deprecation_reasons": null,
  "last_updated": null,
  "origins": null,
  "warnings": null,
  "structure": {
    "@module": "pymatgen.core.structure",
    "@class": "Structure",
    "charge": 0,
    "lattice": {
      "matrix": [
        [0.0, 0.0, -6.38085],
        [-5.134148, -8.894666, 0.0],
        [-5.134148, 8.894666, 0.0]
      ],
      "pbc": [true, true, true],
      "a": 6.38085,
      "b": 10.270080765868398,
      "c": 10.270080765868398,
      "alpha": 120.01149706048466,
      "beta": 90.0,
      "gamma": 90.0,
      "volume": 582.7825770161004
    },
    "properties": {},
    "sites": [
      {
        "species": [{ "element": "Pr", "occu": 1 }],
        "abc": [0.465373, 0.333324, 0.666675999999999],
        "properties": { "magmom": 0.0 },
        "label": "Pr",
        "xyz": [-5.134147999999995, 2.9650547004319914, -2.9694753070499997]
      },
      {
        "species": [{ "element": "Pr", "occu": 1 }],
        "abc": [0.965372999999999, 0.666675999999999, 0.333324],
        "properties": { "magmom": 0.0 },
        "label": "Pr",
        "xyz": [-5.134147999999995, -2.9650547004319914, -6.159900307049994]
      },
      {
        "species": [{ "element": "Pr", "occu": 1 }],
        "abc": [0.251069, 0.125815999999999, 0.874184],
        "properties": { "magmom": -0.003 },
        "label": "Pr",
        "xyz": [-5.134147999999994, 6.656483405088009, -1.6020336286499999]
      },
      {
        "species": [{ "element": "Pr", "occu": 1 }],
        "abc": [0.251108, 0.748356999999999, 0.8741500000000001],
        "properties": { "magmom": 0.001 },
        "label": "Pr",
        "xyz": [-8.330191069035994, 1.1188867201380095, -1.6022824817999999]
      },
      {
        "species": [{ "element": "Pr", "occu": 1 }],
        "abc": [0.251108, 0.12585000000000002, 0.251643],
        "properties": { "magmom": 0.001 },
        "label": "Pr",
        "xyz": [-1.9381049309640002, 1.1188867201380002, -1.6022824817999999]
      },
      {
        "species": [{ "element": "Pr", "occu": 1 }],
        "abc": [0.751069, 0.874184, 0.125815999999999],
        "properties": { "magmom": -0.003 },
        "label": "Pr",
        "xyz": [-5.134147999999994, -6.656483405088009, -4.7924586286499995]
      },
      {
        "species": [{ "element": "Pr", "occu": 1 }],
        "abc": [0.751108, 0.251643, 0.12585000000000002],
        "properties": { "magmom": 0.001 },
        "label": "Pr",
        "xyz": [-1.9381049309640002, -1.1188867201380002, -4.7927074818]
      },
      {
        "species": [{ "element": "Pr", "occu": 1 }],
        "abc": [0.751108, 0.8741500000000001, 0.748356999999999],
        "properties": { "magmom": 0.001 },
        "label": "Pr",
        "xyz": [-8.330191069035994, -1.1188867201380095, -4.7927074818]
      },
      {
        "species": [{ "element": "Pr", "occu": 1 }],
        "abc": [0.441279, 0.541759, 0.458240999999999],
        "properties": { "magmom": -0.016 },
        "label": "Pr",
        "xyz": [-5.134147999999994, -0.7428647149880092, -2.8157351071499996]
      },
      {
        "species": [{ "element": "Pr", "occu": 1 }],
        "abc": [0.441206, 0.916396, 0.458184999999999],
        "properties": { "magmom": 0.008 },
        "label": "Pr",
        "xyz": [-7.057302291987995, -4.075633802526009, -2.8152693050999997]
      },
      {
        "species": [{ "element": "Pr", "occu": 1 }],
        "abc": [0.441206, 0.541814999999999, 0.083604],
        "properties": { "magmom": 0.008 },
        "label": "Pr",
        "xyz": [-3.2109937080119946, -4.075633802525992, -2.8152693050999997]
      },
      {
        "species": [{ "element": "Pr", "occu": 1 }],
        "abc": [0.941279, 0.458240999999999, 0.541759],
        "properties": { "magmom": -0.016 },
        "label": "Pr",
        "xyz": [-5.134147999999994, 0.7428647149880092, -6.0061601071499995]
      },
      {
        "species": [{ "element": "Pr", "occu": 1 }],
        "abc": [0.941206, 0.083604, 0.541814999999999],
        "properties": { "magmom": 0.008 },
        "label": "Pr",
        "xyz": [-3.2109937080119946, 4.075633802525992, -6.0056943051]
      },
      {
        "species": [{ "element": "Pr", "occu": 1 }],
        "abc": [0.941206, 0.458184999999999, 0.916396],
        "properties": { "magmom": 0.008 },
        "label": "Pr",
        "xyz": [-7.057302291987995, 4.075633802526009, -6.0056943051]
      },
      {
        "species": [{ "element": "Rh", "occu": 1 }],
        "abc": [0.183668, 0.811435, 0.188564999999999],
        "properties": { "magmom": -0.001 },
        "label": "Rh",
        "xyz": [-5.134147999999995, -5.540220611420009, -1.1719579578]
      },
      {
        "species": [{ "element": "Rh", "occu": 1 }],
        "abc": [0.183492, 0.377237999999999, 0.188587],
        "properties": { "magmom": 0.0 },
        "label": "Rh",
        "xyz": [-2.9050292920999947, -1.6779876355659913, -1.1708349282]
      },
      {
        "species": [{ "element": "Rh", "occu": 1 }],
        "abc": [0.183492, 0.811412999999999, 0.622761999999999],
        "properties": { "magmom": 0.0 },
        "label": "Rh",
        "xyz": [-7.3632667078999905, -1.6779876355660006, -1.1708349282]
      },
      {
        "species": [{ "element": "Rh", "occu": 1 }],
        "abc": [0.683667999999999, 0.188564999999999, 0.811435],
        "properties": { "magmom": -0.001 },
        "label": "Rh",
        "xyz": [-5.134147999999995, 5.540220611420009, -4.362382957799994]
      },
      {
        "species": [{ "element": "Rh", "occu": 1 }],
        "abc": [0.683492, 0.622761999999999, 0.811412999999999],
        "properties": { "magmom": 0.0 },
        "label": "Rh",
        "xyz": [-7.3632667078999905, 1.6779876355660006, -4.3612599282]
      },
      {
        "species": [{ "element": "Rh", "occu": 1 }],
        "abc": [0.683492, 0.188587, 0.377237999999999],
        "properties": { "magmom": 0.0 },
        "label": "Rh",
        "xyz": [-2.9050292920999947, 1.6779876355659913, -4.3612599282]
      }
    ]
  },
  "task_ids": null,
  "uncorrected_energy_per_atom": null,
  "energy_per_atom": -6.0319044435,
  "formation_energy_per_atom": -0.465782061666666,
  "energy_above_hull": 0.0,
  "is_stable": true,
  "equilibrium_reaction_energy_per_atom": null,
  "decomposes_to": null,
  "xas": null,
  "grain_boundaries": null,
  "band_gap": 0.0,
  "cbm": null,
  "vbm": null,
  "efermi": 4.06327487,
  "is_gap_direct": null,
  "is_metal": null,
  "es_source_calc_id": null,
  "bandstructure": null,
  "dos": null,
  "dos_energy_up": null,
  "dos_energy_down": null,
  "is_magnetic": null,
  "ordering": null,
  "total_magnetization": 0.006907,
  "total_magnetization_normalized_vol": null,
  "total_magnetization_normalized_formula_units": null,
  "num_magnetic_sites": null,
  "num_unique_magnetic_sites": null,
  "types_of_magnetic_species": null,
  "bulk_modulus": null,
  "shear_modulus": null,
  "universal_anisotropy": null,
  "homogeneous_poisson": null,
  "e_total": null,
  "e_ionic": null,
  "e_electronic": null,
  "n": null,
  "e_ij_max": null,
  "weighted_surface_energy_EV_PER_ANG2": null,
  "weighted_surface_energy": null,
  "weighted_work_function": null,
  "surface_anisotropy": null,
  "shape_factor": null,
  "has_reconstructed": null,
  "possible_species": null,
  "has_props": null,
  "theoretical": null,
  "database_IDs": null,
  "fields_not_requested": [
    "builder_meta",
    "nsites",
    "elements",
    "nelements",
    "composition",
    "composition_reduced",
    "chemsys",
    "symmetry",
    "property_name",
    "deprecated",
    "deprecation_reasons",
    "last_updated",
    "origins",
    "warnings",
    "task_ids",
    "uncorrected_energy_per_atom",
    "equilibrium_reaction_energy_per_atom",
    "decomposes_to",
    "xas",
    "grain_boundaries",
    "cbm",
    "vbm",
    "is_gap_direct",
    "is_metal",
    "es_source_calc_id",
    "bandstructure",
    "dos",
    "dos_energy_up",
    "dos_energy_down",
    "is_magnetic",
    "ordering",
    "total_magnetization_normalized_vol",
    "total_magnetization_normalized_formula_units",
    "num_magnetic_sites",
    "num_unique_magnetic_sites",
    "types_of_magnetic_species",
    "bulk_modulus",
    "shear_modulus",
    "universal_anisotropy",
    "homogeneous_poisson",
    "e_total",
    "e_ionic",
    "e_electronic",
    "n",
    "e_ij_max",
    "weighted_surface_energy_EV_PER_ANG2",
    "weighted_surface_energy",
    "weighted_work_function",
    "surface_anisotropy",
    "shape_factor",
    "has_reconstructed",
    "possible_species",
    "has_props",
    "theoretical",
    "database_IDs"
  ]
}
