{
  "builder_meta": null,
  "nsites": null,
  "elements": null,
  "nelements": null,
  "composition": null,
  "composition_reduced": null,
  "formula_pretty": "PrAg2",
  "formula_anonymous": "AB2",
  "chemsys": null,
  "volume": 141.73655140442662,
  "density": 8.356650024673138,
  "density_atomic": 23.622758567404436,
  "symmetry": null,
  "property_name": null,
  "material_id": "mp-1072619",
  "deprecated": null,
  "deprecation_reasons": null,
  "last_updated": null,
  "origins": null,
  "warnings": null,
  "structure": {
    "@module": "pymatgen.core.structure",
    "@class": "Structure",
    "charge": 0,
    "lattice": {
      "matrix": [
        [-4.79842334, -2.2850000000000003e-5, 0.007959899999999001],
        [-2.40597785, -3.61040006, 4.09471902],
        [-2.4059425, 3.61036579, 4.09470863]
      ],
      "pbc": [true, true, true],
      "a": 4.798429942219318,
      "b": 5.965772528406391,
      "c": 5.965730400839871,
      "alpha": 74.48430196895353,
      "beta": 66.1446481817571,
      "gamma": 66.1440946127539,
      "volume": 141.73655140442665
    },
    "properties": {},
    "sites": [
      {
        "species": [{ "element": "Pr", "occu": 1 }],
        "abc": [0.53850394, 0.7123164200000001, 0.21231642],
        "properties": { "magmom": -0.0 },
        "label": "Pr",
        "xyz": [-4.808608501415107, -1.8052196108987424, 3.790395908009019]
      },
      {
        "species": [{ "element": "Pr", "occu": 1 }],
        "abc": [0.46149606, 0.28768358, 0.78768358],
        "properties": { "magmom": -0.0 },
        "label": "Pr",
        "xyz": [-4.801735188584893, 1.8051624908987427, 4.406991641990981]
      },
      {
        "species": [{ "element": "Ag", "occu": 1 }],
        "abc": [0.16495344, 0.29120697, 0.378152],
        "properties": { "magmom": -0.0 },
        "label": "Ag",
        "xyz": [-2.4019659243549043, 0.3138896130735578, 2.7421459895543854]
      },
      {
        "species": [{ "element": "Ag", "occu": 1 }],
        "abc": [0.83504556, 0.70879303, 0.621848],
        "properties": { "magmom": -0.0 },
        "label": "Ag",
        "xyz": [-7.208372967221756, -0.3139467330507082, 5.455241552485714]
      },
      {
        "species": [{ "element": "Ag", "occu": 1 }],
        "abc": [0.83504656, 0.121848, 0.20879203000000002],
        "properties": { "magmom": -0.0 },
        "label": "Ag",
        "xyz": [-4.802412111195785, 0.3138764950118778, 1.3605227373781223]
      },
      {
        "species": [{ "element": "Ag", "occu": 1 }],
        "abc": [0.16495344, 0.878153, 0.7912069700000001],
        "properties": { "magmom": -0.0 },
        "label": "Ag",
        "xyz": [-4.807931578839565, -0.31394083577772713, 6.8368648126322675]
      }
    ]
  },
  "task_ids": null,
  "uncorrected_energy_per_atom": null,
  "energy_per_atom": -3.759502848333336,
  "formation_energy_per_atom": -0.26572057666666704,
  "energy_above_hull": 0.0,
  "is_stable": true,
  "equilibrium_reaction_energy_per_atom": null,
  "decomposes_to": null,
  "xas": null,
  "grain_boundaries": null,
  "band_gap": 0.0,
  "cbm": null,
  "vbm": null,
  "efermi": 3.40188003,
  "is_gap_direct": null,
  "is_metal": null,
  "es_source_calc_id": null,
  "bandstructure": null,
  "dos": null,
  "dos_energy_up": null,
  "dos_energy_down": null,
  "is_magnetic": null,
  "ordering": null,
  "total_magnetization": 0.0,
  "total_magnetization_normalized_vol": null,
  "total_magnetization_normalized_formula_units": null,
  "num_magnetic_sites": null,
  "num_unique_magnetic_sites": null,
  "types_of_magnetic_species": null,
  "bulk_modulus": null,
  "shear_modulus": null,
  "universal_anisotropy": null,
  "homogeneous_poisson": null,
  "e_total": null,
  "e_ionic": null,
  "e_electronic": null,
  "n": null,
  "e_ij_max": null,
  "weighted_surface_energy_EV_PER_ANG2": null,
  "weighted_surface_energy": null,
  "weighted_work_function": null,
  "surface_anisotropy": null,
  "shape_factor": null,
  "has_reconstructed": null,
  "possible_species": null,
  "has_props": null,
  "theoretical": null,
  "database_IDs": null,
  "fields_not_requested": [
    "builder_meta",
    "nsites",
    "elements",
    "nelements",
    "composition",
    "composition_reduced",
    "chemsys",
    "symmetry",
    "property_name",
    "deprecated",
    "deprecation_reasons",
    "last_updated",
    "origins",
    "warnings",
    "task_ids",
    "uncorrected_energy_per_atom",
    "equilibrium_reaction_energy_per_atom",
    "decomposes_to",
    "xas",
    "grain_boundaries",
    "cbm",
    "vbm",
    "is_gap_direct",
    "is_metal",
    "es_source_calc_id",
    "bandstructure",
    "dos",
    "dos_energy_up",
    "dos_energy_down",
    "is_magnetic",
    "ordering",
    "total_magnetization_normalized_vol",
    "total_magnetization_normalized_formula_units",
    "num_magnetic_sites",
    "num_unique_magnetic_sites",
    "types_of_magnetic_species",
    "bulk_modulus",
    "shear_modulus",
    "universal_anisotropy",
    "homogeneous_poisson",
    "e_total",
    "e_ionic",
    "e_electronic",
    "n",
    "e_ij_max",
    "weighted_surface_energy_EV_PER_ANG2",
    "weighted_surface_energy",
    "weighted_work_function",
    "surface_anisotropy",
    "shape_factor",
    "has_reconstructed",
    "possible_species",
    "has_props",
    "theoretical",
    "database_IDs"
  ]
}
