{"builder_meta": null, "nsites": null, "elements": null, "nelements": null, "composition": null, "composition_reduced": null, "formula_pretty": "PrAl3", "formula_anonymous": "AB3", "chemsys": null, "volume": 171.97489822452826, "density": 4.2842805337050525, "density_atomic": 21.496862278066033, "symmetry": null, "property_name": null, "material_id": "mp-12553", "deprecated": null, "deprecation_reasons": null, "last_updated": null, "origins": null, "warnings": null, "structure": {"@module": "pymatgen.core.structure", "@class": "Structure", "charge": 0, "lattice": {"matrix": [[6.56690761, -1.04e-06, -0.0], [-3.28345484, 5.68710963, 0.0], [0.0, -0.0, 4.60481932]], "pbc": [true, true, true], "a": 6.566907610000083, "b": 6.566908833687138, "c": 4.60481932, "alpha": 90.0, "beta": 90.0, "gamma": 120.0000133370858, "volume": 171.97489822452826}, "properties": {}, "sites": [{"species": [{"element": "Pr", "occu": 1}], "abc": [0.666667, 0.333333, 0.75], "properties": {"magmom": 0.0}, "label": "Pr", "xyz": [3.28345674345415, 1.89570062096311, 3.4536144899999996]}, {"species": [{"element": "Pr", "occu": 1}], "abc": [0.333333, 0.666667, 0.25], "properties": {"magmom": 0.0}, "label": "Pr", "xyz": [-3.973454149708289e-06, 3.7914079690368903, 1.15120483]}, {"species": [{"element": "Al", "occu": 1}], "abc": [0.13805721, 0.27611743, 0.75], "properties": {"magmom": -0.0}, "label": "Al", "xyz": [-1.0168977492952536e-05, 1.5703099515843526, 3.4536144899999996]}, {"species": [{"element": "Al", "occu": 1}], "abc": [0.8619427900000001, 0.13805721, 0.25], "properties": {"magmom": -0.0}, "label": "Al", "xyz": [5.206994052664236, 0.7851455920614308, 1.15120483]}, {"species": [{"element": "Al", "occu": 1}], "abc": [0.8619427900000001, 0.72388257, 0.25], "properties": {"magmom": -0.0}, "label": "Al", "xyz": [3.283462938977494, 4.116798638415648, 1.15120483]}, {"species": [{"element": "Al", "occu": 1}], "abc": [0.13805721, 0.8619427900000001, 0.75], "properties": {"magmom": -0.0}, "label": "Al", "xyz": [-1.9235412826642357, 4.901962997938569, 3.4536144899999996]}, {"species": [{"element": "Al", "occu": 1}], "abc": [0.72388257, 0.8619427900000001, 0.75], "properties": {"magmom": -0.0}, "label": "Al", "xyz": [1.9235197320507544, 4.901962388680195, 3.4536144899999996]}, {"species": [{"element": "Al", "occu": 1}], "abc": [0.27611743, 0.13805721, 0.25], "properties": {"magmom": -0.0}, "label": "Al", "xyz": [1.3599330379492458, 0.7851462013198052, 1.15120483]}]}, "task_ids": null, "uncorrected_energy_per_atom": null, "energy_per_atom": -12.88416274625, "formation_energy_per_atom": -0.484099906666665, "energy_above_hull": 0.0, "is_stable": true, "equilibrium_reaction_energy_per_atom": null, "decomposes_to": null, "xas": null, "grain_boundaries": null, "band_gap": 0.0, "cbm": null, "vbm": null, "efermi": 5.49499612, "is_gap_direct": null, "is_metal": null, "es_source_calc_id": null, "bandstructure": null, "dos": null, "dos_energy_up": null, "dos_energy_down": null, "is_magnetic": null, "ordering": null, "total_magnetization": 0.0, "total_magnetization_normalized_vol": null, "total_magnetization_normalized_formula_units": null, "num_magnetic_sites": null, "num_unique_magnetic_sites": null, "types_of_magnetic_species": null, "bulk_modulus": null, "shear_modulus": null, "universal_anisotropy": null, "homogeneous_poisson": null, "e_total": null, "e_ionic": null, "e_electronic": null, "n": null, "e_ij_max": null, "weighted_surface_energy_EV_PER_ANG2": null, "weighted_surface_energy": null, "weighted_work_function": null, "surface_anisotropy": null, "shape_factor": null, "has_reconstructed": null, "possible_species": null, "has_props": null, "theoretical": null, "database_IDs": null, "fields_not_requested": ["builder_meta", "nsites", "elements", "nelements", "composition", "composition_reduced", "chemsys", "symmetry", "property_name", "deprecated", "deprecation_reasons", "last_updated", "origins", "warnings", "task_ids", "uncorrected_energy_per_atom", "equilibrium_reaction_energy_per_atom", "decomposes_to", "xas", "grain_boundaries", "cbm", "vbm", "is_gap_direct", "is_metal", "es_source_calc_id", "bandstructure", "dos", "dos_energy_up", "dos_energy_down", "is_magnetic", "ordering", "total_magnetization_normalized_vol", "total_magnetization_normalized_formula_units", "num_magnetic_sites", "num_unique_magnetic_sites", "types_of_magnetic_species", "bulk_modulus", "shear_modulus", "universal_anisotropy", "homogeneous_poisson", "e_total", "e_ionic", "e_electronic", "n", "e_ij_max", "weighted_surface_energy_EV_PER_ANG2", "weighted_surface_energy", "weighted_work_function", "surface_anisotropy", "shape_factor", "has_reconstructed", "possible_species", "has_props", "theoretical", "database_IDs"]}