{"builder_meta": null, "nsites": null, "elements": null, "nelements": null, "composition": null, "composition_reduced": null, "formula_pretty": "PrAl", "formula_anonymous": "AB", "chemsys": null, "volume": 206.21068150903315, "density": 5.407800497819759, "density_atomic": 25.776335188629144, "symmetry": null, "property_name": null, "material_id": "mp-568417", "deprecated": null, "deprecation_reasons": null, "last_updated": null, "origins": null, "warnings": null, "structure": {"@module": "pymatgen.core.structure", "@class": "Structure", "charge": 0, "lattice": {"matrix": [[5.736507, 0.0, 0.0], [0.0, 5.94660137, -1.11316367], [0.0, -0.02520549, 6.04969739]], "pbc": [true, true, true], "a": 5.736507, "b": 6.049892661022486, "c": 6.04974989791305, "alpha": 100.84139211018426, "beta": 90.0, "gamma": 90.0, "volume": 206.21068150903315}, "properties": {}, "sites": [{"species": [{"element": "Pr", "occu": 1}], "abc": [0.250001, 0.33958466, 0.98185686], "properties": {"magmom": -0.0}, "label": "Pr", "xyz": [1.4341324865069998, 1.9946264211208227, 5.561923576894294]}, {"species": [{"element": "Pr", "occu": 1}], "abc": [0.25, 0.9818674, 0.33961072000000003], "properties": {"magmom": -0.0}, "label": "Pr", "xyz": [1.43412675, 5.830213971391485, 0.9615629679626629]}, {"species": [{"element": "Pr", "occu": 1}], "abc": [0.75, 0.0181326, 0.66038928], "properties": {"magmom": -0.0}, "label": "Pr", "xyz": [4.30238025, 0.09118190860851479, 3.974970752037337]}, {"species": [{"element": "Pr", "occu": 1}], "abc": [0.749999, 0.66041534, 0.018143140000000002], "properties": {"magmom": -0.0}, "label": "Pr", "xyz": [4.302374513493, 3.926769458879177, -0.6253898568942933]}, {"species": [{"element": "Al", "occu": 1}], "abc": [0.25, 0.80165126, 0.80166309], "properties": {"magmom": 0.0}, "label": "Al", "xyz": [1.43412675, 4.746894169979862, 3.9574500445906113]}, {"species": [{"element": "Al", "occu": 1}], "abc": [0.75, 0.19834874, 0.19833691], "properties": {"magmom": 0.0}, "label": "Al", "xyz": [4.30238025, 1.1745017100201378, 0.9790836754093891]}, {"species": [{"element": "Al", "occu": 1}], "abc": [-0.0, 0.5, 0.5], "properties": {"magmom": 0.0}, "label": "Al", "xyz": [0.0, 2.9606979399999998, 2.46826686]}, {"species": [{"element": "Al", "occu": 1}], "abc": [0.5, 0.5, 0.5], "properties": {"magmom": 0.0}, "label": "Al", "xyz": [2.8682535, 2.9606979399999998, 2.46826686]}]}, "task_ids": null, "uncorrected_energy_per_atom": null, "energy_per_atom": -18.5091485825, "formation_energy_per_atom": -0.44112123333333003, "energy_above_hull": 0.0, "is_stable": true, "equilibrium_reaction_energy_per_atom": null, "decomposes_to": null, "xas": null, "grain_boundaries": null, "band_gap": 0.0, "cbm": null, "vbm": null, "efermi": 4.83728992, "is_gap_direct": null, "is_metal": null, "es_source_calc_id": null, "bandstructure": null, "dos": null, "dos_energy_up": null, "dos_energy_down": null, "is_magnetic": null, "ordering": null, "total_magnetization": 1e-07, "total_magnetization_normalized_vol": null, "total_magnetization_normalized_formula_units": null, "num_magnetic_sites": null, "num_unique_magnetic_sites": null, "types_of_magnetic_species": null, "bulk_modulus": null, "shear_modulus": null, "universal_anisotropy": null, "homogeneous_poisson": null, "e_total": null, "e_ionic": null, "e_electronic": null, "n": null, "e_ij_max": null, "weighted_surface_energy_EV_PER_ANG2": null, "weighted_surface_energy": null, "weighted_work_function": null, "surface_anisotropy": null, "shape_factor": null, "has_reconstructed": null, "possible_species": null, "has_props": null, "theoretical": null, "database_IDs": null, "fields_not_requested": ["builder_meta", "nsites", "elements", "nelements", "composition", "composition_reduced", "chemsys", "symmetry", "property_name", "deprecated", "deprecation_reasons", "last_updated", "origins", "warnings", "task_ids", "uncorrected_energy_per_atom", "equilibrium_reaction_energy_per_atom", "decomposes_to", "xas", "grain_boundaries", "cbm", "vbm", "is_gap_direct", "is_metal", "es_source_calc_id", "bandstructure", "dos", "dos_energy_up", "dos_energy_down", "is_magnetic", "ordering", "total_magnetization_normalized_vol", "total_magnetization_normalized_formula_units", "num_magnetic_sites", "num_unique_magnetic_sites", "types_of_magnetic_species", "bulk_modulus", "shear_modulus", "universal_anisotropy", "homogeneous_poisson", "e_total", "e_ionic", "e_electronic", "n", "e_ij_max", "weighted_surface_energy_EV_PER_ANG2", "weighted_surface_energy", "weighted_work_function", "surface_anisotropy", "shape_factor", "has_reconstructed", "possible_species", "has_props", "theoretical", "database_IDs"]}