{
  "builder_meta": null,
  "nsites": null,
  "elements": null,
  "nelements": null,
  "composition": null,
  "composition_reduced": null,
  "formula_pretty": "PrAl4",
  "formula_anonymous": "AB4",
  "chemsys": null,
  "volume": 313.63815409024835,
  "density": 3.952308555973771,
  "density_atomic": 20.90921027268322,
  "symmetry": null,
  "property_name": null,
  "material_id": "mp-1103934",
  "deprecated": null,
  "deprecation_reasons": null,
  "last_updated": null,
  "origins": null,
  "warnings": null,
  "structure": {
    "@module": "pymatgen.core.structure",
    "@class": "Structure",
    "charge": 0,
    "lattice": {
      "matrix": [
        [-2.158465999999999, 5.679504, 6.396071],
        [2.158465999999999, -5.679504, 6.396071],
        [2.158465999999999, 5.679504, -6.396071]
      ],
      "pbc": [true, true, true],
      "a": 8.821874256427202,
      "b": 8.821874256427202,
      "c": 8.821874256427202,
      "alpha": 151.67509331683536,
      "beta": 99.84879031380612,
      "gamma": 87.05830294615419,
      "volume": 313.6381540902481
    },
    "properties": {},
    "sites": [
      {
        "species": [{ "element": "Pr", "occu": 1 }],
        "abc": [0.996037, 0.0, 0.996037],
        "properties": { "magmom": -0.0 },
        "label": "Pr",
        "xyz": [0.0, 11.313992251295998, 0.0]
      },
      {
        "species": [{ "element": "Pr", "occu": 1 }],
        "abc": [0.334441, 0.333443, 0.000998],
        "properties": { "magmom": -0.001 },
        "label": "Pr",
        "xyz": [-4.5102810375396984e-17, 0.01133628998400019, 4.265450204906]
      },
      {
        "species": [{ "element": "Pr", "occu": 1 }],
        "abc": [0.667555, 0.666557, 0.000998],
        "properties": { "magmom": 0.002 },
        "label": "Pr",
        "xyz": [-1.5612511283791264e-16, 0.01133628998400019, 8.526691795093999]
      },
      {
        "species": [{ "element": "Al", "occu": 1 }],
        "abc": [0.390011999999999, 0.0, 0.390011999999999],
        "properties": { "magmom": -0.0 },
        "label": "Al",
        "xyz": [0.0, 4.430149428095989, 0.0]
      },
      {
        "species": [{ "element": "Al", "occu": 1 }],
        "abc": [0.614058, 0.0, 0.614058],
        "properties": { "magmom": -0.0 },
        "label": "Al",
        "xyz": [0.0, 6.9750897344639995, 0.0]
      },
      {
        "species": [{ "element": "Al", "occu": 1 }],
        "abc": [0.749993, 0.5, 0.249993],
        "properties": { "magmom": -0.0 },
        "label": "Al",
        "xyz": [0.0, 2.839672486944, 6.396071]
      },
      {
        "species": [{ "element": "Al", "occu": 1 }],
        "abc": [0.252343, 0.5, 0.752343],
        "properties": { "magmom": -0.0 },
        "label": "Al",
        "xyz": [2.158465999999999, 2.866366155744, 8.881784197001252e-16]
      },
      {
        "species": [{ "element": "Al", "occu": 1 }],
        "abc": [0.083576, 0.836306999999999, 0.247269],
        "properties": { "magmom": 0.0 },
        "label": "Al",
        "xyz": [2.158465999999997, -2.8707734508479943, 4.302086899593993]
      },
      {
        "species": [{ "element": "Al", "occu": 1 }],
        "abc": [0.410962999999999, 0.163693, 0.247269],
        "properties": { "magmom": 0.0 },
        "label": "Al",
        "xyz": [-2.158465997936787e-6, 2.8087362286559943, 2.093990496476994]
      },
      {
        "species": [{ "element": "Al", "occu": 1 }],
        "abc": [0.054707, 0.6687900000000001, 0.385917],
        "properties": { "magmom": 0.001 },
        "label": "Al",
        "xyz": [2.158465999999999, -1.2958697096640006, 2.1591856481800007]
      },
      {
        "species": [{ "element": "Al", "occu": 1 }],
        "abc": [0.717127, 0.33121, 0.385917],
        "properties": { "magmom": -0.0 },
        "label": "Al",
        "xyz": [0.0, 4.3836342903359995, 4.23688535182]
      },
      {
        "species": [{ "element": "Al", "occu": 1 }],
        "abc": [0.274513, 0.664482999999999, 0.6100300000000001],
        "properties": { "magmom": 0.001 },
        "label": "Al",
        "xyz": [2.158465999999997, 1.2498316502400062, 2.1040898925859937]
      },
      {
        "species": [{ "element": "Al", "occu": 1 }],
        "abc": [0.945546999999999, 0.335517, 0.6100300000000001],
        "properties": { "magmom": -0.0 },
        "label": "Al",
        "xyz": [2.220446049250313e-15, 6.929335650239994, 4.291981107413994]
      },
      {
        "species": [{ "element": "Al", "occu": 1 }],
        "abc": [0.579952999999999, 0.830388999999999, 0.749564],
        "properties": { "magmom": 0.0 },
        "label": "Al",
        "xyz": [2.158465999999999, 2.834799472512, 4.226383003237987]
      },
      {
        "species": [{ "element": "Al", "occu": 1 }],
        "abc": [0.919175, 0.169610999999999, 0.749564],
        "properties": { "magmom": 0.0 },
        "label": "Al",
        "xyz": [-1.9984014443252818e-15, 8.514303472512005, 2.1696879967619944]
      }
    ]
  },
  "task_ids": null,
  "uncorrected_energy_per_atom": null,
  "energy_per_atom": -11.611821526333333,
  "formation_energy_per_atom": -0.34535158866666704,
  "energy_above_hull": 0.041928336666666004,
  "is_stable": false,
  "equilibrium_reaction_energy_per_atom": null,
  "decomposes_to": null,
  "xas": null,
  "grain_boundaries": null,
  "band_gap": 0.0,
  "cbm": null,
  "vbm": null,
  "efermi": 6.35722457,
  "is_gap_direct": null,
  "is_metal": null,
  "es_source_calc_id": null,
  "bandstructure": null,
  "dos": null,
  "dos_energy_up": null,
  "dos_energy_down": null,
  "is_magnetic": null,
  "ordering": null,
  "total_magnetization": 0.000388799999999,
  "total_magnetization_normalized_vol": null,
  "total_magnetization_normalized_formula_units": null,
  "num_magnetic_sites": null,
  "num_unique_magnetic_sites": null,
  "types_of_magnetic_species": null,
  "bulk_modulus": null,
  "shear_modulus": null,
  "universal_anisotropy": null,
  "homogeneous_poisson": null,
  "e_total": null,
  "e_ionic": null,
  "e_electronic": null,
  "n": null,
  "e_ij_max": null,
  "weighted_surface_energy_EV_PER_ANG2": null,
  "weighted_surface_energy": null,
  "weighted_work_function": null,
  "surface_anisotropy": null,
  "shape_factor": null,
  "has_reconstructed": null,
  "possible_species": null,
  "has_props": null,
  "theoretical": null,
  "database_IDs": null,
  "fields_not_requested": [
    "builder_meta",
    "nsites",
    "elements",
    "nelements",
    "composition",
    "composition_reduced",
    "chemsys",
    "symmetry",
    "property_name",
    "deprecated",
    "deprecation_reasons",
    "last_updated",
    "origins",
    "warnings",
    "task_ids",
    "uncorrected_energy_per_atom",
    "equilibrium_reaction_energy_per_atom",
    "decomposes_to",
    "xas",
    "grain_boundaries",
    "cbm",
    "vbm",
    "is_gap_direct",
    "is_metal",
    "es_source_calc_id",
    "bandstructure",
    "dos",
    "dos_energy_up",
    "dos_energy_down",
    "is_magnetic",
    "ordering",
    "total_magnetization_normalized_vol",
    "total_magnetization_normalized_formula_units",
    "num_magnetic_sites",
    "num_unique_magnetic_sites",
    "types_of_magnetic_species",
    "bulk_modulus",
    "shear_modulus",
    "universal_anisotropy",
    "homogeneous_poisson",
    "e_total",
    "e_ionic",
    "e_electronic",
    "n",
    "e_ij_max",
    "weighted_surface_energy_EV_PER_ANG2",
    "weighted_surface_energy",
    "weighted_work_function",
    "surface_anisotropy",
    "shape_factor",
    "has_reconstructed",
    "possible_species",
    "has_props",
    "theoretical",
    "database_IDs"
  ]
}
