{"builder_meta": null, "nsites": null, "elements": null, "nelements": null, "composition": null, "composition_reduced": null, "formula_pretty": "PrAs2", "formula_anonymous": "AB2", "chemsys": null, "volume": 295.72492156773535, "density": 6.5304356834406505, "density_atomic": 24.643743463977945, "symmetry": null, "property_name": null, "material_id": "mp-1102408", "deprecated": null, "deprecation_reasons": null, "last_updated": null, "origins": null, "warnings": null, "structure": {"@module": "pymatgen.core.structure", "@class": "Structure", "charge": 0, "lattice": {"matrix": [[6.93681311, 0.0, 0.0], [0.0, 4.18199691, -0.01727845], [0.0, 3.05056374, 10.18138669]], "pbc": [true, true, true], "a": 6.93681311, "b": 4.18203260390016, "c": 10.628573472630839, "alpha": 73.55736992345601, "beta": 90.0, "gamma": 90.0, "volume": 295.72492156773535}, "properties": {}, "sites": [{"species": [{"element": "Pr", "occu": 1}], "abc": [0.31151489, 0.08760692, 0.14136545], "properties": {"magmom": 0.0}, "label": "Pr", "xyz": [2.160920572912208, 0.7976161845934002, 1.4377825992689865]}, {"species": [{"element": "Pr", "occu": 1}], "abc": [0.81151489, 0.91239308, 0.35863455], "properties": {"magmom": 0.0}, "label": "Pr", "xyz": [5.629327127912208, 4.9096625954065996, 3.635632295731013]}, {"species": [{"element": "Pr", "occu": 1}], "abc": [0.68848511, 0.91239308, 0.85863455], "properties": {"magmom": 0.0}, "label": "Pr", "xyz": [4.775892537087792, 6.434944465406599, 8.726325640731014]}, {"species": [{"element": "Pr", "occu": 1}], "abc": [0.18848511, 0.08760692, 0.64136545], "properties": {"magmom": 0.0}, "label": "Pr", "xyz": [1.3074859820877922, 2.3228980545934004, 6.528475944268987]}, {"species": [{"element": "As", "occu": 1}], "abc": [0.37730313, 0.7199141800000001, 0.45156364], "properties": {"magmom": 0.0}, "label": "As", "xyz": [2.617281298628034, 4.388202542711597, 4.585105032820531]}, {"species": [{"element": "As", "occu": 1}], "abc": [0.87730313, 0.28008582, 0.04843636], "properties": {"magmom": 0.0}, "label": "As", "xyz": [6.085687853628035, 1.3190762372884026, 0.48830986217946937]}, {"species": [{"element": "As", "occu": 1}], "abc": [0.62269687, 0.28008582, 0.54843636], "properties": {"magmom": 0.0}, "label": "As", "xyz": [4.319531811371966, 2.8443581072884023, 5.579003207179469]}, {"species": [{"element": "As", "occu": 1}], "abc": [0.12269687, 0.7199141800000001, 0.95156364], "properties": {"magmom": 0.0}, "label": "As", "xyz": [0.8511252563719657, 5.913484412711598, 9.675798377820533]}, {"species": [{"element": "As", "occu": 1}], "abc": [0.6463989800000001, 0.53560512, 0.16882814000000002], "properties": {"magmom": 0.0}, "label": "As", "xyz": [4.483948918754629, 2.754919958995823, 1.7096501512077928]}, {"species": [{"element": "As", "occu": 1}], "abc": [0.14639898, 0.46439488, 0.33117186], "properties": {"magmom": 0.0}, "label": "As", "xyz": [1.015542363754628, 2.952358821004177, 3.363764743792207]}, {"species": [{"element": "As", "occu": 1}], "abc": [0.35360102, 0.46439488, 0.83117186], "properties": {"magmom": 0.0}, "label": "As", "xyz": [2.4528641912453724, 4.477640691004177, 8.454458088792208]}, {"species": [{"element": "As", "occu": 1}], "abc": [0.85360102, 0.53560512, 0.66882814], "properties": {"magmom": 0.0}, "label": "As", "xyz": [5.921270746245373, 4.280201828995823, 6.800343496207793]}]}, "task_ids": null, "uncorrected_energy_per_atom": null, "energy_per_atom": -20.7670939975, "formation_energy_per_atom": -1.16075454972222, "energy_above_hull": 0.012624911666666001, "is_stable": false, "equilibrium_reaction_energy_per_atom": null, "decomposes_to": null, "xas": null, "grain_boundaries": null, "band_gap": 0.04820000000000001, "cbm": null, "vbm": null, "efermi": 4.68355561, "is_gap_direct": null, "is_metal": null, "es_source_calc_id": null, "bandstructure": null, "dos": null, "dos_energy_up": null, "dos_energy_down": null, "is_magnetic": null, "ordering": null, "total_magnetization": 0.0, "total_magnetization_normalized_vol": null, "total_magnetization_normalized_formula_units": null, "num_magnetic_sites": null, "num_unique_magnetic_sites": null, "types_of_magnetic_species": null, "bulk_modulus": null, "shear_modulus": null, "universal_anisotropy": null, "homogeneous_poisson": null, "e_total": null, "e_ionic": null, "e_electronic": null, "n": null, "e_ij_max": null, "weighted_surface_energy_EV_PER_ANG2": null, "weighted_surface_energy": null, "weighted_work_function": null, "surface_anisotropy": null, "shape_factor": null, "has_reconstructed": null, "possible_species": null, "has_props": null, "theoretical": null, "database_IDs": null, "fields_not_requested": ["builder_meta", "nsites", "elements", "nelements", "composition", "composition_reduced", "chemsys", "symmetry", "property_name", "deprecated", "deprecation_reasons", "last_updated", "origins", "warnings", "task_ids", "uncorrected_energy_per_atom", "equilibrium_reaction_energy_per_atom", "decomposes_to", "xas", "grain_boundaries", "cbm", "vbm", "is_gap_direct", "is_metal", "es_source_calc_id", "bandstructure", "dos", "dos_energy_up", "dos_energy_down", "is_magnetic", "ordering", "total_magnetization_normalized_vol", "total_magnetization_normalized_formula_units", "num_magnetic_sites", "num_unique_magnetic_sites", "types_of_magnetic_species", "bulk_modulus", "shear_modulus", "universal_anisotropy", "homogeneous_poisson", "e_total", "e_ionic", "e_electronic", "n", "e_ij_max", "weighted_surface_energy_EV_PER_ANG2", "weighted_surface_energy", "weighted_work_function", "surface_anisotropy", "shape_factor", "has_reconstructed", "possible_species", "has_props", "theoretical", "database_IDs"]}