{"builder_meta": null, "nsites": null, "elements": null, "nelements": null, "composition": null, "composition_reduced": null, "formula_pretty": "PrAu", "formula_anonymous": "AB", "chemsys": null, "volume": 106.7181395789451, "density": 10.514676182701306, "density_atomic": 26.679534894736275, "symmetry": null, "property_name": null, "material_id": "mp-999306", "deprecated": null, "deprecation_reasons": null, "last_updated": null, "origins": null, "warnings": null, "structure": {"@module": "pymatgen.core.structure", "@class": "Structure", "charge": 0, "lattice": {"matrix": [[-3.92367845, 0.0, 0.0], [0.0, -0.0, -4.76891325], [-1.961839219999999, -5.70328946, -0.0]], "pbc": [true, true, true], "a": 3.92367845, "b": 4.76891325, "c": 6.0312787856040355, "alpha": 90.0, "beta": 71.01761256975561, "gamma": 90.0, "volume": 106.7181395789451}, "properties": {}, "sites": [{"species": [{"element": "Pr", "occu": 1}], "abc": [0.13618327, 0.75, 0.72763246], "properties": {"magmom": -0.0}, "label": "Pr", "xyz": [-1.961837259522612, -4.149898539871872, -3.5766849374999996]}, {"species": [{"element": "Pr", "occu": 1}], "abc": [0.86381673, 0.25, 0.27236754], "properties": {"magmom": -0.0}, "label": "Pr", "xyz": [-3.9236804104773872, -1.5533909201281284, -1.1922283125]}, {"species": [{"element": "Au", "occu": 1}], "abc": [0.41362395, 0.75, 0.17275209], "properties": {"magmom": 0.0}, "label": "Au", "xyz": [-1.9618392045178472, -0.9852551740899713, -3.5766849374999996]}, {"species": [{"element": "Au", "occu": 1}], "abc": [0.58637605, 0.25, 0.82724791], "properties": {"magmom": 0.0}, "label": "Au", "xyz": [-3.923678465482152, -4.718034285910028, -1.1922283125]}]}, "task_ids": null, "uncorrected_energy_per_atom": null, "energy_per_atom": -4.82258301625, "formation_energy_per_atom": -0.7879062870833321, "energy_above_hull": 0.0, "is_stable": true, "equilibrium_reaction_energy_per_atom": null, "decomposes_to": null, "xas": null, "grain_boundaries": null, "band_gap": 0.0, "cbm": null, "vbm": null, "efermi": 4.49473672, "is_gap_direct": null, "is_metal": null, "es_source_calc_id": null, "bandstructure": null, "dos": null, "dos_energy_up": null, "dos_energy_down": null, "is_magnetic": null, "ordering": null, "total_magnetization": 5e-07, "total_magnetization_normalized_vol": null, "total_magnetization_normalized_formula_units": null, "num_magnetic_sites": null, "num_unique_magnetic_sites": null, "types_of_magnetic_species": null, "bulk_modulus": null, "shear_modulus": null, "universal_anisotropy": null, "homogeneous_poisson": null, "e_total": null, "e_ionic": null, "e_electronic": null, "n": null, "e_ij_max": null, "weighted_surface_energy_EV_PER_ANG2": null, "weighted_surface_energy": null, "weighted_work_function": null, "surface_anisotropy": null, "shape_factor": null, "has_reconstructed": null, "possible_species": null, "has_props": null, "theoretical": null, "database_IDs": null, "fields_not_requested": ["builder_meta", "nsites", "elements", "nelements", "composition", "composition_reduced", "chemsys", "symmetry", "property_name", "deprecated", "deprecation_reasons", "last_updated", "origins", "warnings", "task_ids", "uncorrected_energy_per_atom", "equilibrium_reaction_energy_per_atom", "decomposes_to", "xas", "grain_boundaries", "cbm", "vbm", "is_gap_direct", "is_metal", "es_source_calc_id", "bandstructure", "dos", "dos_energy_up", "dos_energy_down", "is_magnetic", "ordering", "total_magnetization_normalized_vol", "total_magnetization_normalized_formula_units", "num_magnetic_sites", "num_unique_magnetic_sites", "types_of_magnetic_species", "bulk_modulus", "shear_modulus", "universal_anisotropy", "homogeneous_poisson", "e_total", "e_ionic", "e_electronic", "n", "e_ij_max", "weighted_surface_energy_EV_PER_ANG2", "weighted_surface_energy", "weighted_work_function", "surface_anisotropy", "shape_factor", "has_reconstructed", "possible_species", "has_props", "theoretical", "database_IDs"]}