{"builder_meta": null, "nsites": null, "elements": null, "nelements": null, "composition": null, "composition_reduced": null, "formula_pretty": "PrAu2", "formula_anonymous": "AB2", "chemsys": null, "volume": 140.21747172517146, "density": 12.667808254678361, "density_atomic": 23.369578620861912, "symmetry": null, "property_name": null, "material_id": "mp-30415", "deprecated": null, "deprecation_reasons": null, "last_updated": null, "origins": null, "warnings": null, "structure": {"@module": "pymatgen.core.structure", "@class": "Structure", "charge": 0, "lattice": {"matrix": [[4.18255823, 0.0, 1.81088782], [1.75280794, 5.51569923, 1.68720217], [-0.12618601000000002, 0.02207231, 6.0270652]], "pbc": [true, true, true], "a": 4.557752521140774, "b": 6.028426397726221, "c": 6.028426413338683, "alpha": 73.91428618712555, "beta": 67.788791042779, "gamma": 67.78879884724951, "volume": 140.21747172517146}, "properties": {}, "sites": [{"species": [{"element": "Pr", "occu": 1}], "abc": [0.53434292, 0.7156570800000001, 0.21565708], "properties": {"magmom": 0.0}, "label": "Pr", "xyz": [3.462116883375996, 3.9521092550235037, 3.474872545884714]}, {"species": [{"element": "Pr", "occu": 1}], "abc": [0.46565708, 0.28434292, 0.78434292], "properties": {"magmom": 0.0}, "label": "Pr", "xyz": [2.347063276624004, 1.5856622849764967, 6.050282644115287]}, {"species": [{"element": "Au", "occu": 1}], "abc": [0.16034742, 0.30805995, 0.37124521], "properties": {"magmom": -0.0}, "label": "Au", "xyz": [1.1637863957547574, 1.7073602683699738, 3.047649691834208]}, {"species": [{"element": "Au", "occu": 1}], "abc": [0.83965258, 0.69194005, 0.62875479], "properties": {"magmom": -0.0}, "label": "Au", "xyz": [4.645393764245242, 3.8304112716300267, 6.477505498165792]}, {"species": [{"element": "Au", "occu": 1}], "abc": [0.16034742, 0.87124521, 0.80805995], "properties": {"magmom": -0.0}, "label": "Au", "xyz": [2.0958220820239344, 4.823362283653172, 6.6305680029192695]}, {"species": [{"element": "Au", "occu": 1}], "abc": [0.83965258, 0.12875479, 0.19194005], "properties": {"magmom": -0.0}, "label": "Au", "xyz": [3.713358077976065, 0.7144092563468273, 2.89458718708073]}]}, "task_ids": null, "uncorrected_energy_per_atom": null, "energy_per_atom": -4.537569848333334, "formation_energy_per_atom": -0.756491362222221, "energy_above_hull": 0.0, "is_stable": true, "equilibrium_reaction_energy_per_atom": null, "decomposes_to": null, "xas": null, "grain_boundaries": null, "band_gap": 0.0, "cbm": null, "vbm": null, "efermi": 4.51294707, "is_gap_direct": null, "is_metal": null, "es_source_calc_id": null, "bandstructure": null, "dos": null, "dos_energy_up": null, "dos_energy_down": null, "is_magnetic": null, "ordering": null, "total_magnetization": 0.0, "total_magnetization_normalized_vol": null, "total_magnetization_normalized_formula_units": null, "num_magnetic_sites": null, "num_unique_magnetic_sites": null, "types_of_magnetic_species": null, "bulk_modulus": null, "shear_modulus": null, "universal_anisotropy": null, "homogeneous_poisson": null, "e_total": null, "e_ionic": null, "e_electronic": null, "n": null, "e_ij_max": null, "weighted_surface_energy_EV_PER_ANG2": null, "weighted_surface_energy": null, "weighted_work_function": null, "surface_anisotropy": null, "shape_factor": null, "has_reconstructed": null, "possible_species": null, "has_props": null, "theoretical": null, "database_IDs": null, "fields_not_requested": ["builder_meta", "nsites", "elements", "nelements", "composition", "composition_reduced", "chemsys", "symmetry", "property_name", "deprecated", "deprecation_reasons", "last_updated", "origins", "warnings", "task_ids", "uncorrected_energy_per_atom", "equilibrium_reaction_energy_per_atom", "decomposes_to", "xas", "grain_boundaries", "cbm", "vbm", "is_gap_direct", "is_metal", "es_source_calc_id", "bandstructure", "dos", "dos_energy_up", "dos_energy_down", "is_magnetic", "ordering", "total_magnetization_normalized_vol", "total_magnetization_normalized_formula_units", "num_magnetic_sites", "num_unique_magnetic_sites", "types_of_magnetic_species", "bulk_modulus", "shear_modulus", "universal_anisotropy", "homogeneous_poisson", "e_total", "e_ionic", "e_electronic", "n", "e_ij_max", "weighted_surface_energy_EV_PER_ANG2", "weighted_surface_energy", "weighted_work_function", "surface_anisotropy", "shape_factor", "has_reconstructed", "possible_species", "has_props", "theoretical", "database_IDs"]}