{"builder_meta": null, "nsites": null, "elements": null, "nelements": null, "composition": null, "composition_reduced": null, "formula_pretty": "PrAu6", "formula_anonymous": "AB6", "chemsys": null, "volume": 278.5852007812092, "density": 15.768294563247567, "density_atomic": 19.898942912943514, "symmetry": null, "property_name": null, "material_id": "mp-569032", "deprecated": null, "deprecation_reasons": null, "last_updated": null, "origins": null, "warnings": null, "structure": {"@module": "pymatgen.core.structure", "@class": "Structure", "charge": 0, "lattice": {"matrix": [[5.51591498, -0.0060276900000000005, 0.6896869800000001], [-0.08140808000000001, 5.5153181700000005, 0.6896869800000001], [-0.02443802, -0.02477453, 9.15129685]], "pbc": [true, true, true], "a": 5.558868817485862, "b": 5.558869482386051, "c": 9.151363014927238, "alpha": 83.02583001024747, "beta": 83.02582774702184, "gamma": 90.01226820583028, "volume": 278.58520078120927}, "properties": {}, "sites": [{"species": [{"element": "Pr", "occu": 1}], "abc": [0.31372062, 0.68627938, 0.75], "properties": {"magmom": 0.0}, "label": "Pr", "xyz": [1.656259065723497, 3.7645772260663666, 7.5531596174999995]}, {"species": [{"element": "Pr", "occu": 1}], "abc": [0.68627938, 0.31372062, 0.25], "properties": {"magmom": 0.0}, "label": "Pr", "xyz": [3.7538098142765026, 1.7199387239336332, 2.9775111924999997]}, {"species": [{"element": "Au", "occu": 1}], "abc": [0.78061303, 0.61324922, 0.91946426], "properties": {"magmom": -0.0}, "label": "Au", "xyz": [4.233401778223326, 3.3547799775562295, 9.375619031964085]}, {"species": [{"element": "Au", "occu": 1}], "abc": [0.38675078, 0.21938697000000001, 0.58053574], "properties": {"magmom": -0.0}, "label": "Au", "xyz": [2.1012374048991322, 1.1932752279864447, 5.730700203035914]}, {"species": [{"element": "Au", "occu": 1}], "abc": [0.04069558, 0.15891066, 0.86302037], "properties": {"magmom": 0.0}, "label": "Au", "xyz": [0.1904462385571882, 0.854816626116906, 8.035421418321588]}, {"species": [{"element": "Au", "occu": 1}], "abc": [0.15891066, 0.04069558, 0.36302037], "properties": {"magmom": 0.0}, "label": "Au", "xyz": [0.864353241880933, 0.21449754856933712, 3.4597729933215895]}, {"species": [{"element": "Au", "occu": 1}], "abc": [0.95930442, 0.84108934, 0.13697963], "properties": {"magmom": 0.0}, "label": "Au", "xyz": [5.219622641442812, 4.629699323883094, 2.49524939167841]}, {"species": [{"element": "Au", "occu": 1}], "abc": [0.83219832, 0.46068351, 0.62656333], "properties": {"magmom": -0.0}, "label": "Au", "xyz": [4.537519852392267, 2.5202770878149114, 6.625550792984083]}, {"species": [{"element": "Au", "occu": 1}], "abc": [0.53931649, 0.16780168, 0.87343667], "properties": {"magmom": -0.0}, "label": "Au", "xyz": [2.939818430752253, 0.9005898390629025, 8.480768442015917]}, {"species": [{"element": "Au", "occu": 1}], "abc": [0.84108934, 0.95930442, 0.63697963], "properties": {"magmom": 0.0}, "label": "Au", "xyz": [4.545715638119067, 5.270018401430664, 7.070897816678411]}, {"species": [{"element": "Au", "occu": 1}], "abc": [0.61324922, 0.78061303, 0.41946426000000003], "properties": {"magmom": -0.0}, "label": "Au", "xyz": [3.308831475100868, 4.291240722013556, 4.799970606964086]}, {"species": [{"element": "Au", "occu": 1}], "abc": [0.46068351, 0.83219832, 0.12656333], "properties": {"magmom": -0.0}, "label": "Au", "xyz": [2.4702504492477475, 4.583926110937099, 2.049902367984084]}, {"species": [{"element": "Au", "occu": 1}], "abc": [0.21938697000000001, 0.38675078, 0.08053574000000001], "properties": {"magmom": -0.0}, "label": "Au", "xyz": [1.1766671017766737, 2.1297359724437714, 1.1550517780359142]}, {"species": [{"element": "Au", "occu": 1}], "abc": [0.16780168, 0.53931649, 0.37343667], "properties": {"magmom": -0.0}, "label": "Au", "xyz": [0.8725490276077338, 2.9642388621850895, 3.9051200170159164]}]}, "task_ids": null, "uncorrected_energy_per_atom": null, "energy_per_atom": -3.904977104285714, "formation_energy_per_atom": -0.41372518166666505, "energy_above_hull": 0.002866798061225, "is_stable": false, "equilibrium_reaction_energy_per_atom": null, "decomposes_to": null, "xas": null, "grain_boundaries": null, "band_gap": 0.0, "cbm": null, "vbm": null, "efermi": 4.83024778, "is_gap_direct": null, "is_metal": null, "es_source_calc_id": null, "bandstructure": null, "dos": null, "dos_energy_up": null, "dos_energy_down": null, "is_magnetic": null, "ordering": null, "total_magnetization": 1e-07, "total_magnetization_normalized_vol": null, "total_magnetization_normalized_formula_units": null, "num_magnetic_sites": null, "num_unique_magnetic_sites": null, "types_of_magnetic_species": null, "bulk_modulus": null, "shear_modulus": null, "universal_anisotropy": null, "homogeneous_poisson": null, "e_total": null, "e_ionic": null, "e_electronic": null, "n": null, "e_ij_max": null, "weighted_surface_energy_EV_PER_ANG2": null, "weighted_surface_energy": null, "weighted_work_function": null, "surface_anisotropy": null, "shape_factor": null, "has_reconstructed": null, "possible_species": null, "has_props": null, "theoretical": null, "database_IDs": null, "fields_not_requested": ["builder_meta", "nsites", "elements", "nelements", "composition", "composition_reduced", "chemsys", "symmetry", "property_name", "deprecated", "deprecation_reasons", "last_updated", "origins", "warnings", "task_ids", "uncorrected_energy_per_atom", "equilibrium_reaction_energy_per_atom", "decomposes_to", "xas", "grain_boundaries", "cbm", "vbm", "is_gap_direct", "is_metal", "es_source_calc_id", "bandstructure", "dos", "dos_energy_up", "dos_energy_down", "is_magnetic", "ordering", "total_magnetization_normalized_vol", "total_magnetization_normalized_formula_units", "num_magnetic_sites", "num_unique_magnetic_sites", "types_of_magnetic_species", "bulk_modulus", "shear_modulus", "universal_anisotropy", "homogeneous_poisson", "e_total", "e_ionic", "e_electronic", "n", "e_ij_max", "weighted_surface_energy_EV_PER_ANG2", "weighted_surface_energy", "weighted_work_function", "surface_anisotropy", "shape_factor", "has_reconstructed", "possible_species", "has_props", "theoretical", "database_IDs"]}