{
  "builder_meta": null,
  "nsites": null,
  "elements": null,
  "nelements": null,
  "composition": null,
  "composition_reduced": null,
  "formula_pretty": "PrB4",
  "formula_anonymous": "AB4",
  "chemsys": null,
  "volume": 219.3438008687352,
  "density": 5.576469593263743,
  "density_atomic": 10.96719004343676,
  "symmetry": null,
  "property_name": null,
  "material_id": "mp-12569",
  "deprecated": null,
  "deprecation_reasons": null,
  "last_updated": null,
  "origins": null,
  "warnings": null,
  "structure": {
    "@module": "pymatgen.core.structure",
    "@class": "Structure",
    "charge": 0,
    "lattice": {
      "matrix": [
        [4.14630985, -0.0, 0.0],
        [0.0, 7.2733051, 0.0],
        [0.0, 0.0, 7.2733051]
      ],
      "pbc": [true, true, true],
      "a": 4.14630985,
      "b": 7.2733051,
      "c": 7.2733051,
      "alpha": 90.0,
      "beta": 90.0,
      "gamma": 90.0,
      "volume": 219.3438008687352
    },
    "properties": {},
    "sites": [
      {
        "species": [{ "element": "Pr", "occu": 1 }],
        "abc": [-0.0, 0.68297094, 0.18297094],
        "properties": { "magmom": -0.0 },
        "label": "Pr",
        "xyz": [0.0, 4.967456021053795, 1.330803471053794]
      },
      {
        "species": [{ "element": "Pr", "occu": 1 }],
        "abc": [-0.0, 0.81702906, 0.68297094],
        "properties": { "magmom": -0.0 },
        "label": "Pr",
        "xyz": [0.0, 5.942501628946205, 4.967456021053795]
      },
      {
        "species": [{ "element": "Pr", "occu": 1 }],
        "abc": [-0.0, 0.18297094, 0.31702906000000003],
        "properties": { "magmom": -0.0 },
        "label": "Pr",
        "xyz": [0.0, 1.330803471053794, 2.3058490789462063]
      },
      {
        "species": [{ "element": "Pr", "occu": 1 }],
        "abc": [-0.0, 0.31702906000000003, 0.81702906],
        "properties": { "magmom": -0.0 },
        "label": "Pr",
        "xyz": [0.0, 2.3058490789462063, 5.942501628946205]
      },
      {
        "species": [{ "element": "B", "occu": 1 }],
        "abc": [0.5, 0.46124739000000003, 0.32675885],
        "properties": { "magmom": 0.0 },
        "label": "B",
        "xyz": [2.073154925, 3.3547929940486894, 2.376616810175135]
      },
      {
        "species": [{ "element": "B", "occu": 1 }],
        "abc": [0.5, 0.53875261, 0.6732411500000001],
        "properties": { "magmom": 0.0 },
        "label": "B",
        "xyz": [2.073154925, 3.9185121059513106, 4.896688289824866]
      },
      {
        "species": [{ "element": "B", "occu": 1 }],
        "abc": [0.5, 0.32675885, 0.53875261],
        "properties": { "magmom": 0.0 },
        "label": "B",
        "xyz": [2.073154925, 2.376616810175135, 3.9185121059513106]
      },
      {
        "species": [{ "element": "B", "occu": 1 }],
        "abc": [0.5, 0.6732411500000001, 0.46124739000000003],
        "properties": { "magmom": 0.0 },
        "label": "B",
        "xyz": [2.073154925, 4.896688289824866, 3.3547929940486894]
      },
      {
        "species": [{ "element": "B", "occu": 1 }],
        "abc": [0.20556949, 0.0, 0.0],
        "properties": { "magmom": 0.0 },
        "label": "B",
        "xyz": [0.8523548012464764, 0.0, 0.0]
      },
      {
        "species": [{ "element": "B", "occu": 1 }],
        "abc": [0.79443051, 0.5, 0.5],
        "properties": { "magmom": 0.0 },
        "label": "B",
        "xyz": [3.2939550487535234, 3.63665255, 3.63665255]
      },
      {
        "species": [{ "element": "B", "occu": 1 }],
        "abc": [0.79443051, 0.0, 0.0],
        "properties": { "magmom": 0.0 },
        "label": "B",
        "xyz": [3.2939550487535234, 0.0, 0.0]
      },
      {
        "species": [{ "element": "B", "occu": 1 }],
        "abc": [0.20556949, 0.5, 0.5],
        "properties": { "magmom": 0.0 },
        "label": "B",
        "xyz": [0.8523548012464764, 3.63665255, 3.63665255]
      },
      {
        "species": [{ "element": "B", "occu": 1 }],
        "abc": [0.5, 0.08847211, 0.58847211],
        "properties": { "magmom": 0.0 },
        "label": "B",
        "xyz": [2.073154925, 0.6434846488707611, 4.280137198870761]
      },
      {
        "species": [{ "element": "B", "occu": 1 }],
        "abc": [0.5, 0.41152789, 0.08847211],
        "properties": { "magmom": 0.0 },
        "label": "B",
        "xyz": [2.073154925, 2.993167901129239, 0.6434846488707611]
      },
      {
        "species": [{ "element": "B", "occu": 1 }],
        "abc": [0.5, 0.58847211, 0.91152789],
        "properties": { "magmom": 0.0 },
        "label": "B",
        "xyz": [2.073154925, 4.280137198870761, 6.629820451129239]
      },
      {
        "species": [{ "element": "B", "occu": 1 }],
        "abc": [0.5, 0.91152789, 0.41152789],
        "properties": { "magmom": 0.0 },
        "label": "B",
        "xyz": [2.073154925, 6.629820451129239, 2.993167901129239]
      },
      {
        "species": [{ "element": "B", "occu": 1 }],
        "abc": [0.5, 0.17324115, 0.03875261],
        "properties": { "magmom": 0.0 },
        "label": "B",
        "xyz": [2.073154925, 1.2600357398248652, 0.281859555951311]
      },
      {
        "species": [{ "element": "B", "occu": 1 }],
        "abc": [0.5, 0.96124739, 0.17324115],
        "properties": { "magmom": 0.0 },
        "label": "B",
        "xyz": [2.073154925, 6.991445544048689, 1.2600357398248652]
      },
      {
        "species": [{ "element": "B", "occu": 1 }],
        "abc": [0.5, 0.03875261, 0.82675885],
        "properties": { "magmom": 0.0 },
        "label": "B",
        "xyz": [2.073154925, 0.281859555951311, 6.013269360175135]
      },
      {
        "species": [{ "element": "B", "occu": 1 }],
        "abc": [0.5, 0.82675885, 0.96124739],
        "properties": { "magmom": 0.0 },
        "label": "B",
        "xyz": [2.073154925, 6.013269360175135, 6.991445544048689]
      }
    ]
  },
  "task_ids": null,
  "uncorrected_energy_per_atom": null,
  "energy_per_atom": -12.365689785499999,
  "formation_energy_per_atom": -0.6078151538333331,
  "energy_above_hull": 0.0,
  "is_stable": true,
  "equilibrium_reaction_energy_per_atom": null,
  "decomposes_to": null,
  "xas": null,
  "grain_boundaries": null,
  "band_gap": 0.0,
  "cbm": null,
  "vbm": null,
  "efermi": 5.84089168,
  "is_gap_direct": null,
  "is_metal": null,
  "es_source_calc_id": null,
  "bandstructure": null,
  "dos": null,
  "dos_energy_up": null,
  "dos_energy_down": null,
  "is_magnetic": null,
  "ordering": null,
  "total_magnetization": 0.0,
  "total_magnetization_normalized_vol": null,
  "total_magnetization_normalized_formula_units": null,
  "num_magnetic_sites": null,
  "num_unique_magnetic_sites": null,
  "types_of_magnetic_species": null,
  "bulk_modulus": null,
  "shear_modulus": null,
  "universal_anisotropy": null,
  "homogeneous_poisson": null,
  "e_total": null,
  "e_ionic": null,
  "e_electronic": null,
  "n": null,
  "e_ij_max": null,
  "weighted_surface_energy_EV_PER_ANG2": null,
  "weighted_surface_energy": null,
  "weighted_work_function": null,
  "surface_anisotropy": null,
  "shape_factor": null,
  "has_reconstructed": null,
  "possible_species": null,
  "has_props": null,
  "theoretical": null,
  "database_IDs": null,
  "fields_not_requested": [
    "builder_meta",
    "nsites",
    "elements",
    "nelements",
    "composition",
    "composition_reduced",
    "chemsys",
    "symmetry",
    "property_name",
    "deprecated",
    "deprecation_reasons",
    "last_updated",
    "origins",
    "warnings",
    "task_ids",
    "uncorrected_energy_per_atom",
    "equilibrium_reaction_energy_per_atom",
    "decomposes_to",
    "xas",
    "grain_boundaries",
    "cbm",
    "vbm",
    "is_gap_direct",
    "is_metal",
    "es_source_calc_id",
    "bandstructure",
    "dos",
    "dos_energy_up",
    "dos_energy_down",
    "is_magnetic",
    "ordering",
    "total_magnetization_normalized_vol",
    "total_magnetization_normalized_formula_units",
    "num_magnetic_sites",
    "num_unique_magnetic_sites",
    "types_of_magnetic_species",
    "bulk_modulus",
    "shear_modulus",
    "universal_anisotropy",
    "homogeneous_poisson",
    "e_total",
    "e_ionic",
    "e_electronic",
    "n",
    "e_ij_max",
    "weighted_surface_energy_EV_PER_ANG2",
    "weighted_surface_energy",
    "weighted_work_function",
    "surface_anisotropy",
    "shape_factor",
    "has_reconstructed",
    "possible_species",
    "has_props",
    "theoretical",
    "database_IDs"
  ]
}
