{"builder_meta": null, "nsites": null, "elements": null, "nelements": null, "composition": null, "composition_reduced": null, "formula_pretty": "PrBr3", "formula_anonymous": "AB3", "chemsys": null, "volume": 247.58453278774482, "density": 5.105600024557783, "density_atomic": 30.948066598468102, "symmetry": null, "property_name": null, "material_id": "mp-23221", "deprecated": null, "deprecation_reasons": null, "last_updated": null, "origins": null, "warnings": null, "structure": {"@module": "pymatgen.core.structure", "@class": "Structure", "charge": 0, "lattice": {"matrix": [[8.02946899, 6.781e-05, 0.0], [-4.01479423, 6.95368884, -0.0], [-0.0, 0.0, 4.43424121]], "pbc": [true, true, true], "a": 8.029468990286333, "b": 8.029468300752038, "c": 4.43424121, "alpha": 90.0, "beta": 90.0, "gamma": 120.00001116130765, "volume": 247.58453278774482}, "properties": {}, "sites": [{"species": [{"element": "Pr", "occu": 1}], "abc": [0.666667, 0.333333, 0.75], "properties": {"magmom": -0.0}, "label": "Pr", "xyz": [4.0147185980877405, 2.3179391687929902, 3.3256809075]}, {"species": [{"element": "Pr", "occu": 1}], "abc": [0.333333, 0.666667, 0.25], "properties": {"magmom": -0.0}, "label": "Pr", "xyz": [-4.3838087739889176e-05, 4.63581748120701, 1.1085603025]}, {"species": [{"element": "Br", "occu": 1}], "abc": [0.61329277, 0.69984206, 0.75], "properties": {"magmom": 0.0}, "label": "Br", "xyz": [2.114693414106889, 4.866525509767345, 3.3256809075]}, {"species": [{"element": "Br", "occu": 1}], "abc": [0.91344972, 0.61329277, 0.25], "properties": {"magmom": 0.0}, "label": "Br", "xyz": [4.872271926367466, 4.2647090314272, 1.1085603025]}, {"species": [{"element": "Br", "occu": 1}], "abc": [0.38670723, 0.30015794, 0.25], "properties": {"magmom": 0.0}, "label": "Br", "xyz": [1.8999813458931119, 2.087231140232656, 1.1085603025]}, {"species": [{"element": "Br", "occu": 1}], "abc": [0.08655028000000001, 0.38670723, 0.75], "properties": {"magmom": 0.0}, "label": "Br", "xyz": [-0.8575971663674656, 2.6890476185728, 3.3256809075]}, {"species": [{"element": "Br", "occu": 1}], "abc": [0.30015794, 0.91344972, 0.75], "properties": {"magmom": 0.0}, "label": "Br", "xyz": [-1.2572037939188347, 6.3518654775750365, 3.3256809075]}, {"species": [{"element": "Br", "occu": 1}], "abc": [0.69984206, 0.08655028000000001, 0.25], "properties": {"magmom": 0.0}, "label": "Br", "xyz": [5.271878553918835, 0.6018911724249638, 1.1085603025]}]}, "task_ids": null, "uncorrected_energy_per_atom": null, "energy_per_atom": -4.73279390125, "formation_energy_per_atom": -2.306216135416666, "energy_above_hull": 0.0, "is_stable": true, "equilibrium_reaction_energy_per_atom": null, "decomposes_to": null, "xas": null, "grain_boundaries": null, "band_gap": 3.429599999999999, "cbm": null, "vbm": null, "efermi": 0.74499327, "is_gap_direct": null, "is_metal": null, "es_source_calc_id": null, "bandstructure": null, "dos": null, "dos_energy_up": null, "dos_energy_down": null, "is_magnetic": null, "ordering": null, "total_magnetization": 0.0, "total_magnetization_normalized_vol": null, "total_magnetization_normalized_formula_units": null, "num_magnetic_sites": null, "num_unique_magnetic_sites": null, "types_of_magnetic_species": null, "bulk_modulus": null, "shear_modulus": null, "universal_anisotropy": null, "homogeneous_poisson": null, "e_total": null, "e_ionic": null, "e_electronic": null, "n": null, "e_ij_max": null, "weighted_surface_energy_EV_PER_ANG2": null, "weighted_surface_energy": null, "weighted_work_function": null, "surface_anisotropy": null, "shape_factor": null, "has_reconstructed": null, "possible_species": null, "has_props": null, "theoretical": null, "database_IDs": null, "fields_not_requested": ["builder_meta", "nsites", "elements", "nelements", "composition", "composition_reduced", "chemsys", "symmetry", "property_name", "deprecated", "deprecation_reasons", "last_updated", "origins", "warnings", "task_ids", "uncorrected_energy_per_atom", "equilibrium_reaction_energy_per_atom", "decomposes_to", "xas", "grain_boundaries", "cbm", "vbm", "is_gap_direct", "is_metal", "es_source_calc_id", "bandstructure", "dos", "dos_energy_up", "dos_energy_down", "is_magnetic", "ordering", "total_magnetization_normalized_vol", "total_magnetization_normalized_formula_units", "num_magnetic_sites", "num_unique_magnetic_sites", "types_of_magnetic_species", "bulk_modulus", "shear_modulus", "universal_anisotropy", "homogeneous_poisson", "e_total", "e_ionic", "e_electronic", "n", "e_ij_max", "weighted_surface_energy_EV_PER_ANG2", "weighted_surface_energy", "weighted_work_function", "surface_anisotropy", "shape_factor", "has_reconstructed", "possible_species", "has_props", "theoretical", "database_IDs"]}