{"builder_meta": null, "nsites": null, "elements": null, "nelements": null, "composition": null, "composition_reduced": null, "formula_pretty": "PrC2", "formula_anonymous": "AB2", "chemsys": null, "volume": 49.031951699168445, "density": 5.585564540088853, "density_atomic": 16.343983899722815, "symmetry": null, "property_name": null, "material_id": "mp-1995", "deprecated": null, "deprecation_reasons": null, "last_updated": null, "origins": null, "warnings": null, "structure": {"@module": "pymatgen.core.structure", "@class": "Structure", "charge": 0, "lattice": {"matrix": [[3.44855523, -0.0, -1.78146179], [-0.9202718, 3.32349753, -1.78146179], [0.01478899, 0.01944077, 4.25721647]], "pbc": [true, true, true], "a": 3.881512499476249, "b": 3.881512865754968, "c": 4.25728654546563, "alpha": 117.12071644536145, "beta": 117.12072237710858, "gamma": 90.00000768074776, "volume": 49.031951699168445}, "properties": {}, "sites": [{"species": [{"element": "Pr", "occu": 1}], "abc": [0.0, 0.0, -0.0], "properties": {"magmom": -0.0}, "label": "Pr", "xyz": [0.0, 0.0, 0.0]}, {"species": [{"element": "C", "occu": 1}], "abc": [0.4010203, 0.4010203, 0.80203961], "properties": {"magmom": 0.0}, "label": "C", "xyz": [1.025754335355523, 1.3483822441187587, 1.985651554355703]}, {"species": [{"element": "C", "occu": 1}], "abc": [0.5989797, 0.5989797, 0.19796039], "properties": {"magmom": 0.0}, "label": "C", "xyz": [1.5173180846444771, 1.9945560558812414, -1.2913586643557027]}]}, "task_ids": null, "uncorrected_energy_per_atom": null, "energy_per_atom": -7.8482439799999995, "formation_energy_per_atom": -0.09730983222222, "energy_above_hull": 0.014935701250002001, "is_stable": false, "equilibrium_reaction_energy_per_atom": null, "decomposes_to": null, "xas": null, "grain_boundaries": null, "band_gap": 0.0, "cbm": null, "vbm": null, "efermi": 4.20835635, "is_gap_direct": null, "is_metal": null, "es_source_calc_id": null, "bandstructure": null, "dos": null, "dos_energy_up": null, "dos_energy_down": null, "is_magnetic": null, "ordering": null, "total_magnetization": 1e-07, "total_magnetization_normalized_vol": null, "total_magnetization_normalized_formula_units": null, "num_magnetic_sites": null, "num_unique_magnetic_sites": null, "types_of_magnetic_species": null, "bulk_modulus": null, "shear_modulus": null, "universal_anisotropy": null, "homogeneous_poisson": null, "e_total": null, "e_ionic": null, "e_electronic": null, "n": null, "e_ij_max": null, "weighted_surface_energy_EV_PER_ANG2": null, "weighted_surface_energy": null, "weighted_work_function": null, "surface_anisotropy": null, "shape_factor": null, "has_reconstructed": null, "possible_species": null, "has_props": null, "theoretical": null, "database_IDs": null, "fields_not_requested": ["builder_meta", "nsites", "elements", "nelements", "composition", "composition_reduced", "chemsys", "symmetry", "property_name", "deprecated", "deprecation_reasons", "last_updated", "origins", "warnings", "task_ids", "uncorrected_energy_per_atom", "equilibrium_reaction_energy_per_atom", "decomposes_to", "xas", "grain_boundaries", "cbm", "vbm", "is_gap_direct", "is_metal", "es_source_calc_id", "bandstructure", "dos", "dos_energy_up", "dos_energy_down", "is_magnetic", "ordering", "total_magnetization_normalized_vol", "total_magnetization_normalized_formula_units", "num_magnetic_sites", "num_unique_magnetic_sites", "types_of_magnetic_species", "bulk_modulus", "shear_modulus", "universal_anisotropy", "homogeneous_poisson", "e_total", "e_ionic", "e_electronic", "n", "e_ij_max", "weighted_surface_energy_EV_PER_ANG2", "weighted_surface_energy", "weighted_work_function", "surface_anisotropy", "shape_factor", "has_reconstructed", "possible_species", "has_props", "theoretical", "database_IDs"]}