{
  "builder_meta": null,
  "nsites": null,
  "elements": null,
  "nelements": null,
  "composition": null,
  "composition_reduced": null,
  "formula_pretty": "PrCd2",
  "formula_anonymous": "AB2",
  "chemsys": null,
  "volume": 78.17086880663203,
  "density": 7.768985824389615,
  "density_atomic": 26.056956268877343,
  "symmetry": null,
  "property_name": null,
  "material_id": "mp-2324",
  "deprecated": null,
  "deprecation_reasons": null,
  "last_updated": null,
  "origins": null,
  "warnings": null,
  "structure": {
    "@module": "pymatgen.core.structure",
    "@class": "Structure",
    "charge": 0,
    "lattice": {
      "matrix": [
        [5.06234078, -0.0, 0.0],
        [-2.531170389999999, 4.38411674, -0.0],
        [-0.0, 0.0, 3.52217923]
      ],
      "pbc": [true, true, true],
      "a": 5.06234078,
      "b": 5.062341664996642,
      "c": 3.52217923,
      "alpha": 90.0,
      "beta": 90.0,
      "gamma": 119.99999421701372,
      "volume": 78.17086880663203
    },
    "properties": {},
    "sites": [
      {
        "species": [{ "element": "Pr", "occu": 1 }],
        "abc": [0.0, -0.0, -0.0],
        "properties": { "magmom": 0.001 },
        "label": "Pr",
        "xyz": [0.0, 0.0, 0.0]
      },
      {
        "species": [{ "element": "Cd", "occu": 1 }],
        "abc": [0.333333, 0.666667, 0.49995972],
        "properties": { "magmom": 0.0 },
        "label": "Cd",
        "xyz": [-2.531170389286075e-6, 2.92274595470558, 1.7609477416206156]
      },
      {
        "species": [{ "element": "Cd", "occu": 1 }],
        "abc": [0.666667, 0.333333, 0.50004028],
        "properties": { "magmom": 0.0 },
        "label": "Cd",
        "xyz": [2.531172921170391, 1.4613707852944198, 1.7612314883793843]
      }
    ]
  },
  "task_ids": null,
  "uncorrected_energy_per_atom": null,
  "energy_per_atom": -23.59985632,
  "formation_energy_per_atom": -0.395212403888886,
  "energy_above_hull": 0.0,
  "is_stable": true,
  "equilibrium_reaction_energy_per_atom": null,
  "decomposes_to": null,
  "xas": null,
  "grain_boundaries": null,
  "band_gap": 0.0,
  "cbm": null,
  "vbm": null,
  "efermi": 3.02935139,
  "is_gap_direct": null,
  "is_metal": null,
  "es_source_calc_id": null,
  "bandstructure": null,
  "dos": null,
  "dos_energy_up": null,
  "dos_energy_down": null,
  "is_magnetic": null,
  "ordering": null,
  "total_magnetization": 0.002071,
  "total_magnetization_normalized_vol": null,
  "total_magnetization_normalized_formula_units": null,
  "num_magnetic_sites": null,
  "num_unique_magnetic_sites": null,
  "types_of_magnetic_species": null,
  "bulk_modulus": null,
  "shear_modulus": null,
  "universal_anisotropy": null,
  "homogeneous_poisson": null,
  "e_total": null,
  "e_ionic": null,
  "e_electronic": null,
  "n": null,
  "e_ij_max": null,
  "weighted_surface_energy_EV_PER_ANG2": null,
  "weighted_surface_energy": null,
  "weighted_work_function": null,
  "surface_anisotropy": null,
  "shape_factor": null,
  "has_reconstructed": null,
  "possible_species": null,
  "has_props": null,
  "theoretical": null,
  "database_IDs": null,
  "fields_not_requested": [
    "builder_meta",
    "nsites",
    "elements",
    "nelements",
    "composition",
    "composition_reduced",
    "chemsys",
    "symmetry",
    "property_name",
    "deprecated",
    "deprecation_reasons",
    "last_updated",
    "origins",
    "warnings",
    "task_ids",
    "uncorrected_energy_per_atom",
    "equilibrium_reaction_energy_per_atom",
    "decomposes_to",
    "xas",
    "grain_boundaries",
    "cbm",
    "vbm",
    "is_gap_direct",
    "is_metal",
    "es_source_calc_id",
    "bandstructure",
    "dos",
    "dos_energy_up",
    "dos_energy_down",
    "is_magnetic",
    "ordering",
    "total_magnetization_normalized_vol",
    "total_magnetization_normalized_formula_units",
    "num_magnetic_sites",
    "num_unique_magnetic_sites",
    "types_of_magnetic_species",
    "bulk_modulus",
    "shear_modulus",
    "universal_anisotropy",
    "homogeneous_poisson",
    "e_total",
    "e_ionic",
    "e_electronic",
    "n",
    "e_ij_max",
    "weighted_surface_energy_EV_PER_ANG2",
    "weighted_surface_energy",
    "weighted_work_function",
    "surface_anisotropy",
    "shape_factor",
    "has_reconstructed",
    "possible_species",
    "has_props",
    "theoretical",
    "database_IDs"
  ]
}
