{
  "builder_meta": null,
  "nsites": null,
  "elements": null,
  "nelements": null,
  "composition": null,
  "composition_reduced": null,
  "formula_pretty": "PrCl3",
  "formula_anonymous": "AB3",
  "chemsys": null,
  "volume": 209.51261968580377,
  "density": 3.919534134106673,
  "density_atomic": 26.18907746072547,
  "symmetry": null,
  "property_name": null,
  "material_id": "mp-23211",
  "deprecated": null,
  "deprecation_reasons": null,
  "last_updated": null,
  "origins": null,
  "warnings": null,
  "structure": {
    "@module": "pymatgen.core.structure",
    "@class": "Structure",
    "charge": 0,
    "lattice": {
      "matrix": [
        [7.49968091, -4.039999999999999e-6, 0.0],
        [-3.74983692, 6.49491494, 0.0],
        [0.0, 0.0, 4.30124389]
      ],
      "pbc": [true, true, true],
      "a": 7.499680910001088,
      "b": 7.499679793459871,
      "c": 4.30124389,
      "alpha": 90.0,
      "beta": 90.0,
      "gamma": 120.00000460500642,
      "volume": 209.51261968580377
    },
    "properties": {},
    "sites": [
      {
        "species": [{ "element": "Pr", "occu": 1 }],
        "abc": [0.666667, 0.333333, 0.75],
        "properties": { "magmom": 0.0 },
        "label": "Pr",
        "xyz": [3.7498453831726106, 2.16496678836034, 3.2259329175]
      },
      {
        "species": [{ "element": "Pr", "occu": 1 }],
        "abc": [0.333333, 0.666667, 0.25],
        "properties": { "magmom": 0.0 },
        "label": "Pr",
        "xyz": [-1.3931726097204944e-6, 4.32994411163966, 1.0753109725]
      },
      {
        "species": [{ "element": "Cl", "occu": 1 }],
        "abc": [0.61076527, 0.69661781, 0.75],
        "properties": { "magmom": -0.0 },
        "label": "Cl",
        "xyz": [1.9683414528424512, 4.52447095414739, 3.2259329175]
      },
      {
        "species": [{ "element": "Cl", "occu": 1 }],
        "abc": [0.91414646, 0.61076527, 0.25],
        "properties": { "magmom": -0.0 },
        "label": "Cl",
        "xyz": [4.565536596106311, 3.9668647838044357, 1.0753109725]
      },
      {
        "species": [{ "element": "Cl", "occu": 1 }],
        "abc": [0.38923473000000003, 0.30338219, 0.25],
        "properties": { "magmom": -0.0 },
        "label": "Cl",
        "xyz": [1.7815025371575501, 1.9704399458526094, 1.0753109725]
      },
      {
        "species": [{ "element": "Cl", "occu": 1 }],
        "abc": [0.08585254, 0.38923473000000003, 0.75],
        "properties": { "magmom": -0.0 },
        "label": "Cl",
        "xyz": [-0.8157001057872202, 2.528046116199605, 3.2259329175]
      },
      {
        "species": [{ "element": "Cl", "occu": 1 }],
        "abc": [0.30338219, 0.91414646, 0.75],
        "properties": { "magmom": -0.0 },
        "label": "Cl",
        "xyz": [-1.1526305272183102, 5.937302274738065, 3.2259329175]
      },
      {
        "species": [{ "element": "Cl", "occu": 1 }],
        "abc": [0.69661781, 0.08585254, 0.25],
        "properties": { "magmom": -0.0 },
        "label": "Cl",
        "xyz": [4.902478267055231, 0.5576021303469952, 1.0753109725]
      }
    ]
  },
  "task_ids": null,
  "uncorrected_energy_per_atom": null,
  "energy_per_atom": -14.55810167125,
  "formation_energy_per_atom": -2.592783406041665,
  "energy_above_hull": 0.0,
  "is_stable": true,
  "equilibrium_reaction_energy_per_atom": null,
  "decomposes_to": null,
  "xas": null,
  "grain_boundaries": null,
  "band_gap": 4.3454000000000015,
  "cbm": null,
  "vbm": null,
  "efermi": 0.71296134,
  "is_gap_direct": null,
  "is_metal": null,
  "es_source_calc_id": null,
  "bandstructure": null,
  "dos": null,
  "dos_energy_up": null,
  "dos_energy_down": null,
  "is_magnetic": null,
  "ordering": null,
  "total_magnetization": 0.0,
  "total_magnetization_normalized_vol": null,
  "total_magnetization_normalized_formula_units": null,
  "num_magnetic_sites": null,
  "num_unique_magnetic_sites": null,
  "types_of_magnetic_species": null,
  "bulk_modulus": null,
  "shear_modulus": null,
  "universal_anisotropy": null,
  "homogeneous_poisson": null,
  "e_total": null,
  "e_ionic": null,
  "e_electronic": null,
  "n": null,
  "e_ij_max": null,
  "weighted_surface_energy_EV_PER_ANG2": null,
  "weighted_surface_energy": null,
  "weighted_work_function": null,
  "surface_anisotropy": null,
  "shape_factor": null,
  "has_reconstructed": null,
  "possible_species": null,
  "has_props": null,
  "theoretical": null,
  "database_IDs": null,
  "fields_not_requested": [
    "builder_meta",
    "nsites",
    "elements",
    "nelements",
    "composition",
    "composition_reduced",
    "chemsys",
    "symmetry",
    "property_name",
    "deprecated",
    "deprecation_reasons",
    "last_updated",
    "origins",
    "warnings",
    "task_ids",
    "uncorrected_energy_per_atom",
    "equilibrium_reaction_energy_per_atom",
    "decomposes_to",
    "xas",
    "grain_boundaries",
    "cbm",
    "vbm",
    "is_gap_direct",
    "is_metal",
    "es_source_calc_id",
    "bandstructure",
    "dos",
    "dos_energy_up",
    "dos_energy_down",
    "is_magnetic",
    "ordering",
    "total_magnetization_normalized_vol",
    "total_magnetization_normalized_formula_units",
    "num_magnetic_sites",
    "num_unique_magnetic_sites",
    "types_of_magnetic_species",
    "bulk_modulus",
    "shear_modulus",
    "universal_anisotropy",
    "homogeneous_poisson",
    "e_total",
    "e_ionic",
    "e_electronic",
    "n",
    "e_ij_max",
    "weighted_surface_energy_EV_PER_ANG2",
    "weighted_surface_energy",
    "weighted_work_function",
    "surface_anisotropy",
    "shape_factor",
    "has_reconstructed",
    "possible_species",
    "has_props",
    "theoretical",
    "database_IDs"
  ]
}
