{"builder_meta": null, "nsites": null, "elements": null, "nelements": null, "composition": null, "composition_reduced": null, "formula_pretty": "PrCo3", "formula_anonymous": "AB3", "chemsys": null, "volume": 188.021838839523, "density": 8.417616996756074, "density_atomic": 15.668486569960251, "symmetry": null, "property_name": null, "material_id": "mp-571334", "deprecated": null, "deprecation_reasons": null, "last_updated": null, "origins": null, "warnings": null, "structure": {"@module": "pymatgen.core.structure", "@class": "Structure", "charge": 0, "lattice": {"matrix": [[4.893391, 0.009630999999999001, 7.392327], [2.232186, 4.354619, 7.392327], [0.015725, 0.009630999999999001, 8.865187]], "pbc": [true, true, true], "a": 8.865205395814076, "b": 8.865204986275613, "c": 8.865206177904437, "alpha": 33.40112974585085, "beta": 33.401132608742955, "gamma": 33.4011286852001, "volume": 188.02183883952304}, "properties": {}, "sites": [{"species": [{"element": "Pr", "occu": 1}], "abc": [0.860356999999999, 0.860356999999999, 0.860356999999999], "properties": {"magmom": -0.262}, "label": "Pr", "xyz": [6.144069164813994, 3.7630991355169936, 20.347306253236976]}, {"species": [{"element": "Pr", "occu": 1}], "abc": [0.139643, 0.139643, 0.139643], "properties": {"magmom": -0.262}, "label": "Pr", "xyz": [0.997232835186, 0.6107818644829995, 3.3025347467629995]}, {"species": [{"element": "Pr", "occu": 1}], "abc": [0.0, 0.0, 0.0], "properties": {"magmom": -0.218}, "label": "Pr", "xyz": [0.0, 0.0, 0.0]}, {"species": [{"element": "Co", "occu": 1}], "abc": [0.917909, 0.42244000000000004, 0.42244000000000004], "properties": {"magmom": 1.266}, "label": "Co", "xyz": [5.441295162259, 1.8524741515789986, 13.653307698403001]}, {"species": [{"element": "Co", "occu": 1}], "abc": [0.333758, 0.333758, 0.333758], "properties": {"magmom": 1.488}, "label": "Co", "xyz": [2.383466672916, 1.459817774797999, 7.893323632477999]}, {"species": [{"element": "Co", "occu": 1}], "abc": [0.5775600000000001, 0.5775600000000001, 0.082091], "properties": {"magmom": 1.266}, "label": "Co", "xyz": [4.116739133095, 2.521406848421, 9.266776830257001]}, {"species": [{"element": "Co", "occu": 1}], "abc": [0.42244000000000004, 0.42244000000000004, 0.917909], "properties": {"magmom": 1.266}, "label": "Co", "xyz": [3.0245628669050006, 1.8524741515789986, 14.383064169743001]}, {"species": [{"element": "Co", "occu": 1}], "abc": [0.666242, 0.666242, 0.666242], "properties": {"magmom": 1.488}, "label": "Co", "xyz": [4.757835327084, 2.914063225201998, 15.756517367522001]}, {"species": [{"element": "Co", "occu": 1}], "abc": [0.42244000000000004, 0.917909, 0.42244000000000004], "properties": {"magmom": 1.266}, "label": "Co", "xyz": [4.1227505821140005, 4.005281010950998, 13.653307698403001]}, {"species": [{"element": "Co", "occu": 1}], "abc": [0.5775600000000001, 0.082091, 0.5775600000000001], "properties": {"magmom": 1.266}, "label": "Co", "xyz": [3.0185514178860005, 0.36859998904899877, 9.996533301597001]}, {"species": [{"element": "Co", "occu": 1}], "abc": [0.5, 0.5, 0.5], "properties": {"magmom": 1.11}, "label": "Co", "xyz": [3.570651, 2.1869404999999986, 11.824920500000001]}, {"species": [{"element": "Co", "occu": 1}], "abc": [0.082091, 0.5775600000000001, 0.5775600000000001], "properties": {"magmom": 1.266}, "label": "Co", "xyz": [1.7000068377410003, 2.521406848421, 9.996533301597001]}]}, "task_ids": null, "uncorrected_energy_per_atom": null, "energy_per_atom": -17.250067391661215, "formation_energy_per_atom": 0.026595047922117, "energy_above_hull": 0.028132551157408002, "is_stable": false, "equilibrium_reaction_energy_per_atom": null, "decomposes_to": null, "xas": null, "grain_boundaries": null, "band_gap": 0.0, "cbm": null, "vbm": null, "efermi": 4.57213934, "is_gap_direct": null, "is_metal": null, "es_source_calc_id": null, "bandstructure": null, "dos": null, "dos_energy_up": null, "dos_energy_down": null, "is_magnetic": null, "ordering": null, "total_magnetization": 10.0688837, "total_magnetization_normalized_vol": null, "total_magnetization_normalized_formula_units": null, "num_magnetic_sites": null, "num_unique_magnetic_sites": null, "types_of_magnetic_species": null, "bulk_modulus": null, "shear_modulus": null, "universal_anisotropy": null, "homogeneous_poisson": null, "e_total": null, "e_ionic": null, "e_electronic": null, "n": null, "e_ij_max": null, "weighted_surface_energy_EV_PER_ANG2": null, "weighted_surface_energy": null, "weighted_work_function": null, "surface_anisotropy": null, "shape_factor": null, "has_reconstructed": null, "possible_species": null, "has_props": null, "theoretical": null, "database_IDs": null, "fields_not_requested": ["builder_meta", "nsites", "elements", "nelements", "composition", "composition_reduced", "chemsys", "symmetry", "property_name", "deprecated", "deprecation_reasons", "last_updated", "origins", "warnings", "task_ids", "uncorrected_energy_per_atom", "equilibrium_reaction_energy_per_atom", "decomposes_to", "xas", "grain_boundaries", "cbm", "vbm", "is_gap_direct", "is_metal", "es_source_calc_id", "bandstructure", "dos", "dos_energy_up", "dos_energy_down", "is_magnetic", "ordering", "total_magnetization_normalized_vol", "total_magnetization_normalized_formula_units", "num_magnetic_sites", "num_unique_magnetic_sites", "types_of_magnetic_species", "bulk_modulus", "shear_modulus", "universal_anisotropy", "homogeneous_poisson", "e_total", "e_ionic", "e_electronic", "n", "e_ij_max", "weighted_surface_energy_EV_PER_ANG2", "weighted_surface_energy", "weighted_work_function", "surface_anisotropy", "shape_factor", "has_reconstructed", "possible_species", "has_props", "theoretical", "database_IDs"]}