{"builder_meta": null, "nsites": null, "elements": null, "nelements": null, "composition": null, "composition_reduced": null, "formula_pretty": "PrCu6", "formula_anonymous": "AB6", "chemsys": null, "volume": 409.0001303825653, "density": 8.48025500582328, "density_atomic": 14.607147513663048, "symmetry": null, "property_name": null, "material_id": "mp-567201", "deprecated": null, "deprecation_reasons": null, "last_updated": null, "origins": null, "warnings": null, "structure": {"@module": "pymatgen.core.structure", "@class": "Structure", "charge": 0, "lattice": {"matrix": [[5.0820501, -0.00394259, 0.0], [-0.19340967, 8.00727644, 0.0], [0.0, 0.0, 10.05096638]], "pbc": [true, true, true], "a": 5.0820516293054245, "b": 8.009611931113055, "c": 10.05096638, "alpha": 90.0, "beta": 90.0, "gamma": 91.4281162423254, "volume": 409.0001303825653}, "properties": {}, "sites": [{"species": [{"element": "Pr", "occu": 1}], "abc": [0.25860114, 0.76154893, 0.06330352], "properties": {"magmom": -0.0}, "label": "Pr", "xyz": [1.166933022156961, 6.096913246827657, 0.6362615512556576]}, {"species": [{"element": "Pr", "occu": 1}], "abc": [0.74139886, 0.23845107000000001, 0.93669648], "properties": {"magmom": -0.0}, "label": "Pr", "xyz": [3.721707407843039, 1.9064206031723434, 9.414704828744343]}, {"species": [{"element": "Pr", "occu": 1}], "abc": [0.25860114, 0.26154893, 0.43669648], "properties": {"magmom": -0.0}, "label": "Pr", "xyz": [1.2636378571569609, 2.0932750268276568, 4.389221638744343]}, {"species": [{"element": "Pr", "occu": 1}], "abc": [0.74139886, 0.73845107, 0.5633035200000001], "properties": {"magmom": -0.0}, "label": "Pr", "xyz": [3.625002572843039, 5.910058823172343, 5.661744741255658]}, {"species": [{"element": "Cu", "occu": 1}], "abc": [0.25034814, 0.90094492, 0.51607113], "properties": {"magmom": 0.0}, "label": "Cu", "xyz": [1.0980303302564376, 7.213128011580403, 5.18701357731861]}, {"species": [{"element": "Cu", "occu": 1}], "abc": [0.00488911, 0.93705623, 0.31141715000000003], "properties": {"magmom": 0.0}, "label": "Cu", "xyz": [-0.15638903425133313, 7.5032489976780266, 3.1300433048054175]}, {"species": [{"element": "Cu", "occu": 1}], "abc": [0.76011236, 0.35003731, 0.64254036], "properties": {"magmom": 0.0}, "label": "Cu", "xyz": [3.7952284945344488, 2.799848694094564, 6.458151556153097]}, {"species": [{"element": "Cu", "occu": 1}], "abc": [0.76011236, 0.85003731, 0.85745964], "properties": {"magmom": 0.0}, "label": "Cu", "xyz": [3.6985236595344486, 6.803486914094565, 8.618298013846903]}, {"species": [{"element": "Cu", "occu": 1}], "abc": [0.74965311, 0.18170259, 0.24483479], "properties": {"magmom": -0.0}, "label": "Cu", "xyz": [3.7746316246707656, 1.4519872931390247, 2.46082624294436]}, {"species": [{"element": "Cu", "occu": 1}], "abc": [0.25034689, 0.31829741, 0.74483479], "properties": {"magmom": -0.0}, "label": "Cu", "xyz": [1.2107136403292342, 2.547708336860975, 7.48630943294436]}, {"species": [{"element": "Cu", "occu": 1}], "abc": [0.99511089, 0.5629437700000001, 0.81141715], "properties": {"magmom": 0.0}, "label": "Cu", "xyz": [4.948324629251333, 4.503723072321974, 8.155526494805418]}, {"species": [{"element": "Cu", "occu": 1}], "abc": [0.23988764, 0.6499626900000001, 0.35745964], "properties": {"magmom": 0.0}, "label": "Cu", "xyz": [1.0934119354655518, 5.203485155905437, 3.5928148238469033]}, {"species": [{"element": "Cu", "occu": 1}], "abc": [0.00488911, 0.43705623, 0.18858285], "properties": {"magmom": 0.0}, "label": "Cu", "xyz": [-0.059684199251333094, 3.4996107776780265, 1.895439885194583]}, {"species": [{"element": "Cu", "occu": 1}], "abc": [0.7713235700000001, 0.93562352, 0.09893844], "properties": {"magmom": -0.0}, "label": "Cu", "xyz": [3.738946389803419, 7.488755155812023, 0.9944269341296472]}, {"species": [{"element": "Cu", "occu": 1}], "abc": [0.22867643, 0.56437648, 0.59893844], "properties": {"magmom": -0.0}, "label": "Cu", "xyz": [1.0529892051965815, 4.518216914187977, 6.019910124129647]}, {"species": [{"element": "Cu", "occu": 1}], "abc": [0.22867643, 0.06437648, 0.90106156], "properties": {"magmom": -0.0}, "label": "Cu", "xyz": [1.1496940401965814, 0.5145786941879775, 9.056539445870353]}, {"species": [{"element": "Cu", "occu": 1}], "abc": [0.99511089, 0.06294377, 0.68858285], "properties": {"magmom": 0.0}, "label": "Cu", "xyz": [5.045029464251333, 0.5000848523219736, 6.920923075194583]}, {"species": [{"element": "Cu", "occu": 1}], "abc": [0.49621503, 0.93328644, 0.30733348], "properties": {"magmom": -0.0}, "label": "Cu", "xyz": [2.341283020457128, 7.471126150368346, 3.0889984749284025]}, {"species": [{"element": "Cu", "occu": 1}], "abc": [0.50378497, 0.5667135600000001, 0.80733348], "properties": {"magmom": -0.0}, "label": "Cu", "xyz": [2.4506525745428718, 4.5358459196316545, 8.114481664928404]}, {"species": [{"element": "Cu", "occu": 1}], "abc": [0.25034689, 0.81829741, 0.75516521], "properties": {"magmom": -0.0}, "label": "Cu", "xyz": [1.1140088053292343, 6.551346556860975, 7.5901401370556405]}, {"species": [{"element": "Cu", "occu": 1}], "abc": [0.25034814, 0.40094492, 0.9839288700000001], "properties": {"magmom": 0.0}, "label": "Cu", "xyz": [1.1947351652564375, 3.209489791580402, 9.889435992681392]}, {"species": [{"element": "Cu", "occu": 1}], "abc": [0.7496518600000001, 0.09905508, 0.48392887], "properties": {"magmom": 0.0}, "label": "Cu", "xyz": [3.7906100997435628, 0.7902058384195978, 4.863952802681391]}, {"species": [{"element": "Cu", "occu": 1}], "abc": [0.23988764, 0.14996269, 0.14254036], "properties": {"magmom": 0.0}, "label": "Cu", "xyz": [1.1901167704655518, 1.1998469359054362, 1.4326683661530968]}, {"species": [{"element": "Cu", "occu": 1}], "abc": [0.7713235700000001, 0.43562352, 0.40106156], "properties": {"magmom": -0.0}, "label": "Cu", "xyz": [3.835651224803419, 3.485116935812022, 4.031056255870353]}, {"species": [{"element": "Cu", "occu": 1}], "abc": [0.7496518600000001, 0.59905508, 0.01607113], "properties": {"magmom": 0.0}, "label": "Cu", "xyz": [3.6939052647435626, 4.793844058419597, 0.1615303873186094]}, {"species": [{"element": "Cu", "occu": 1}], "abc": [0.49621503, 0.43328644, 0.19266652], "properties": {"magmom": -0.0}, "label": "Cu", "xyz": [2.437987855457128, 3.4674879303683457, 1.9364847150715978]}, {"species": [{"element": "Cu", "occu": 1}], "abc": [0.74965311, 0.68170259, 0.25516521000000003], "properties": {"magmom": -0.0}, "label": "Cu", "xyz": [3.677926789670766, 5.455625513139025, 2.56465694705564]}, {"species": [{"element": "Cu", "occu": 1}], "abc": [0.50378497, 0.06671356, 0.6926665200000001], "properties": {"magmom": -0.0}, "label": "Cu", "xyz": [2.547357409542872, 0.5322076996316542, 6.961967905071599]}]}, "task_ids": null, "uncorrected_energy_per_atom": null, "energy_per_atom": -13.612169515000001, "formation_energy_per_atom": -0.11435060523809501, "energy_above_hull": 0.010206252142856, "is_stable": false, "equilibrium_reaction_energy_per_atom": null, "decomposes_to": null, "xas": null, "grain_boundaries": null, "band_gap": 0.0, "cbm": null, "vbm": null, "efermi": 5.90958239, "is_gap_direct": null, "is_metal": null, "es_source_calc_id": null, "bandstructure": null, "dos": null, "dos_energy_up": null, "dos_energy_down": null, "is_magnetic": null, "ordering": null, "total_magnetization": 1e-07, "total_magnetization_normalized_vol": null, "total_magnetization_normalized_formula_units": null, "num_magnetic_sites": null, "num_unique_magnetic_sites": null, "types_of_magnetic_species": null, "bulk_modulus": null, "shear_modulus": null, "universal_anisotropy": null, "homogeneous_poisson": null, "e_total": null, "e_ionic": null, "e_electronic": null, "n": null, "e_ij_max": null, "weighted_surface_energy_EV_PER_ANG2": null, "weighted_surface_energy": null, "weighted_work_function": null, "surface_anisotropy": null, "shape_factor": null, "has_reconstructed": null, "possible_species": null, "has_props": null, "theoretical": null, "database_IDs": null, "fields_not_requested": ["builder_meta", "nsites", "elements", "nelements", "composition", "composition_reduced", "chemsys", "symmetry", "property_name", "deprecated", "deprecation_reasons", "last_updated", "origins", "warnings", "task_ids", "uncorrected_energy_per_atom", "equilibrium_reaction_energy_per_atom", "decomposes_to", "xas", "grain_boundaries", "cbm", "vbm", "is_gap_direct", "is_metal", "es_source_calc_id", "bandstructure", "dos", "dos_energy_up", "dos_energy_down", "is_magnetic", "ordering", "total_magnetization_normalized_vol", "total_magnetization_normalized_formula_units", "num_magnetic_sites", "num_unique_magnetic_sites", "types_of_magnetic_species", "bulk_modulus", "shear_modulus", "universal_anisotropy", "homogeneous_poisson", "e_total", "e_ionic", "e_electronic", "n", "e_ij_max", "weighted_surface_energy_EV_PER_ANG2", "weighted_surface_energy", "weighted_work_function", "surface_anisotropy", "shape_factor", "has_reconstructed", "possible_species", "has_props", "theoretical", "database_IDs"]}