{"builder_meta": null, "nsites": null, "elements": null, "nelements": null, "composition": null, "composition_reduced": null, "formula_pretty": "PrCu2", "formula_anonymous": "AB2", "chemsys": null, "volume": 116.28186732623597, "density": 7.654226731870147, "density_atomic": 19.380311221039328, "symmetry": null, "property_name": null, "material_id": "mp-1071904", "deprecated": null, "deprecation_reasons": null, "last_updated": null, "origins": null, "warnings": null, "structure": {"@module": "pymatgen.core.structure", "@class": "Structure", "charge": 0, "lattice": {"matrix": [[-4.31107816, 0.0, 1e-08], [-2.1555401, -3.63622608, 3.70890089], [-2.1555401, 3.63622608, 3.70890089]], "pbc": [true, true, true], "a": 4.31107816, "b": 5.623561063900966, "c": 5.623561063900966, "alpha": 80.57232981687727, "beta": 67.46143575505447, "gamma": 67.46143575505447, "volume": 116.28186732623597}, "properties": {}, "sites": [{"species": [{"element": "Pr", "occu": 1}], "abc": [0.53197425, 0.71802575, 0.21802575000000002], "properties": {"magmom": 0.0}, "label": "Pr", "xyz": [-4.31107911477253, -1.81811304, 3.4717222467555775]}, {"species": [{"element": "Pr", "occu": 1}], "abc": [0.46802575, 0.28197425, 0.78197425], "properties": {"magmom": 0.0}, "label": "Pr", "xyz": [-4.311079245227471, 1.8181130399999998, 3.946079543244422]}, {"species": [{"element": "Cu", "occu": 1}], "abc": [0.16595971, 0.29069041, 0.37738818], "properties": {"magmom": -0.0}, "label": "Cu", "xyz": [-2.1555354719173927, 0.3152526923518417, 2.477837278700542]}, {"species": [{"element": "Cu", "occu": 1}], "abc": [0.83404029, 0.70930959, 0.62261182], "properties": {"magmom": -0.0}, "label": "Cu", "xyz": [-6.4666228880826075, -0.3152526923518413, 4.939964511299458]}, {"species": [{"element": "Cu", "occu": 1}], "abc": [0.83404029, 0.12261182, 0.20930959000000002], "properties": {"magmom": -0.0}, "label": "Cu", "xyz": [-4.311082788082607, 0.31525269235184167, 1.231063621299458]}, {"species": [{"element": "Cu", "occu": 1}], "abc": [0.16595971, 0.8773881800000001, 0.7906904100000001], "properties": {"magmom": -0.0}, "label": "Cu", "xyz": [-4.311075571917393, -0.3152526923518417, 6.186738168700542]}]}, "task_ids": null, "uncorrected_energy_per_atom": null, "energy_per_atom": -17.205733191666667, "formation_energy_per_atom": -0.17321706888888802, "energy_above_hull": 0.0, "is_stable": true, "equilibrium_reaction_energy_per_atom": null, "decomposes_to": null, "xas": null, "grain_boundaries": null, "band_gap": 0.0, "cbm": null, "vbm": null, "efermi": 4.9014660899999996, "is_gap_direct": null, "is_metal": null, "es_source_calc_id": null, "bandstructure": null, "dos": null, "dos_energy_up": null, "dos_energy_down": null, "is_magnetic": null, "ordering": null, "total_magnetization": 2e-07, "total_magnetization_normalized_vol": null, "total_magnetization_normalized_formula_units": null, "num_magnetic_sites": null, "num_unique_magnetic_sites": null, "types_of_magnetic_species": null, "bulk_modulus": null, "shear_modulus": null, "universal_anisotropy": null, "homogeneous_poisson": null, "e_total": null, "e_ionic": null, "e_electronic": null, "n": null, "e_ij_max": null, "weighted_surface_energy_EV_PER_ANG2": null, "weighted_surface_energy": null, "weighted_work_function": null, "surface_anisotropy": null, "shape_factor": null, "has_reconstructed": null, "possible_species": null, "has_props": null, "theoretical": null, "database_IDs": null, "fields_not_requested": ["builder_meta", "nsites", "elements", "nelements", "composition", "composition_reduced", "chemsys", "symmetry", "property_name", "deprecated", "deprecation_reasons", "last_updated", "origins", "warnings", "task_ids", "uncorrected_energy_per_atom", "equilibrium_reaction_energy_per_atom", "decomposes_to", "xas", "grain_boundaries", "cbm", "vbm", "is_gap_direct", "is_metal", "es_source_calc_id", "bandstructure", "dos", "dos_energy_up", "dos_energy_down", "is_magnetic", "ordering", "total_magnetization_normalized_vol", "total_magnetization_normalized_formula_units", "num_magnetic_sites", "num_unique_magnetic_sites", "types_of_magnetic_species", "bulk_modulus", "shear_modulus", "universal_anisotropy", "homogeneous_poisson", "e_total", "e_ionic", "e_electronic", "n", "e_ij_max", "weighted_surface_energy_EV_PER_ANG2", "weighted_surface_energy", "weighted_work_function", "surface_anisotropy", "shape_factor", "has_reconstructed", "possible_species", "has_props", "theoretical", "database_IDs"]}