{"builder_meta": null, "nsites": null, "elements": null, "nelements": null, "composition": null, "composition_reduced": null, "formula_pretty": "PrDy3", "formula_anonymous": "AB3", "chemsys": null, "volume": 270.1898214478687, "density": 7.724165529134373, "density_atomic": 33.77372768098359, "symmetry": null, "property_name": null, "material_id": "mp-1186524", "deprecated": null, "deprecation_reasons": null, "last_updated": null, "origins": null, "warnings": null, "structure": {"@module": "pymatgen.core.structure", "@class": "Structure", "charge": 0, "lattice": {"matrix": [[3.65631278, -6.33292041, -0.0], [3.65631278, 6.33292041, 0.0], [-0.0, 0.0, 5.83433844]], "pbc": [true, true, true], "a": 7.3126263452049765, "b": 7.3126263452049765, "c": 5.83433844, "alpha": 90.0, "beta": 90.0, "gamma": 120.00000710397876, "volume": 270.1898214478687}, "properties": {}, "sites": [{"species": [{"element": "Pr", "occu": 1}], "abc": [0.333333, 0.666667, 0.75], "properties": {"magmom": 0.28300000000000003}, "label": "Pr", "xyz": [3.6563127800000004, 2.1109776919469403, 4.37575383]}, {"species": [{"element": "Pr", "occu": 1}], "abc": [0.666667, 0.333333, 0.25], "properties": {"magmom": 0.28300000000000003}, "label": "Pr", "xyz": [3.6563127800000004, -2.1109776919469403, 1.45858461]}, {"species": [{"element": "Dy", "occu": 1}], "abc": [0.16399337, 0.32798474, 0.25], "properties": {"magmom": 0.426}, "label": "Dy", "xyz": [1.798825851073246, 1.038544294136862, 1.45858461]}, {"species": [{"element": "Dy", "occu": 1}], "abc": [0.67201526, 0.83600663, 0.25], "properties": {"magmom": 0.426}, "label": "Dy", "xyz": [5.513799708926754, 1.0385442941368614, 1.45858461]}, {"species": [{"element": "Dy", "occu": 1}], "abc": [0.16399337, 0.83600663, 0.25], "properties": {"magmom": 0.426}, "label": "Dy", "xyz": [3.65631278, 4.255806490044636, 1.45858461]}, {"species": [{"element": "Dy", "occu": 1}], "abc": [0.83600663, 0.67201526, 0.75], "properties": {"magmom": 0.426}, "label": "Dy", "xyz": [5.513799708926754, -1.0385442941368614, 4.37575383]}, {"species": [{"element": "Dy", "occu": 1}], "abc": [0.32798474, 0.16399337, 0.75], "properties": {"magmom": 0.426}, "label": "Dy", "xyz": [1.798825851073246, -1.038544294136862, 4.37575383]}, {"species": [{"element": "Dy", "occu": 1}], "abc": [0.83600663, 0.16399337, 0.75], "properties": {"magmom": 0.426}, "label": "Dy", "xyz": [3.65631278, -4.255806490044636, 4.37575383]}]}, "task_ids": null, "uncorrected_energy_per_atom": null, "energy_per_atom": -31.32369044375, "formation_energy_per_atom": 0.013651067083337002, "energy_above_hull": 0.013651067083337002, "is_stable": false, "equilibrium_reaction_energy_per_atom": null, "decomposes_to": null, "xas": null, "grain_boundaries": null, "band_gap": 0.0, "cbm": null, "vbm": null, "efermi": 3.19609003, "is_gap_direct": null, "is_metal": null, "es_source_calc_id": null, "bandstructure": null, "dos": null, "dos_energy_up": null, "dos_energy_down": null, "is_magnetic": null, "ordering": null, "total_magnetization": 4.8452473, "total_magnetization_normalized_vol": null, "total_magnetization_normalized_formula_units": null, "num_magnetic_sites": null, "num_unique_magnetic_sites": null, "types_of_magnetic_species": null, "bulk_modulus": null, "shear_modulus": null, "universal_anisotropy": null, "homogeneous_poisson": null, "e_total": null, "e_ionic": null, "e_electronic": null, "n": null, "e_ij_max": null, "weighted_surface_energy_EV_PER_ANG2": null, "weighted_surface_energy": null, "weighted_work_function": null, "surface_anisotropy": null, "shape_factor": null, "has_reconstructed": null, "possible_species": null, "has_props": null, "theoretical": null, "database_IDs": null, "fields_not_requested": ["builder_meta", "nsites", "elements", "nelements", "composition", "composition_reduced", "chemsys", "symmetry", "property_name", "deprecated", "deprecation_reasons", "last_updated", "origins", "warnings", "task_ids", "uncorrected_energy_per_atom", "equilibrium_reaction_energy_per_atom", "decomposes_to", "xas", "grain_boundaries", "cbm", "vbm", "is_gap_direct", "is_metal", "es_source_calc_id", "bandstructure", "dos", "dos_energy_up", "dos_energy_down", "is_magnetic", "ordering", "total_magnetization_normalized_vol", "total_magnetization_normalized_formula_units", "num_magnetic_sites", "num_unique_magnetic_sites", "types_of_magnetic_species", "bulk_modulus", "shear_modulus", "universal_anisotropy", "homogeneous_poisson", "e_total", "e_ionic", "e_electronic", "n", "e_ij_max", "weighted_surface_energy_EV_PER_ANG2", "weighted_surface_energy", "weighted_work_function", "surface_anisotropy", "shape_factor", "has_reconstructed", "possible_species", "has_props", "theoretical", "database_IDs"]}