{"builder_meta": null, "nsites": null, "elements": null, "nelements": null, "composition": null, "composition_reduced": null, "formula_pretty": "PrEr3", "formula_anonymous": "AB3", "chemsys": null, "volume": 261.335564570524, "density": 8.167299927837814, "density_atomic": 32.6669455713155, "symmetry": null, "property_name": null, "material_id": "mp-1186525", "deprecated": null, "deprecation_reasons": null, "last_updated": null, "origins": null, "warnings": null, "structure": {"@module": "pymatgen.core.structure", "@class": "Structure", "charge": 0, "lattice": {"matrix": [[3.63118536, -6.28939902, -0.0], [3.63118536, 6.28939902, 0.0], [0.0, 0.0, 5.72151384]], "pbc": [true, true, true], "a": 7.262372005856991, "b": 7.262372005856991, "c": 5.72151384, "alpha": 90.0, "beta": 90.0, "gamma": 120.00001171402555, "volume": 261.335564570524}, "properties": {}, "sites": [{"species": [{"element": "Pr", "occu": 1}], "abc": [0.333333, 0.666667, 0.75], "properties": {"magmom": 0.2}, "label": "Pr", "xyz": [3.63118536, 2.0964705329326803, 4.29113538]}, {"species": [{"element": "Pr", "occu": 1}], "abc": [0.666667, 0.333333, 0.25], "properties": {"magmom": 0.2}, "label": "Pr", "xyz": [3.63118536, -2.0964705329326803, 1.43037846]}, {"species": [{"element": "Er", "occu": 1}], "abc": [0.16453299, 0.32906599000000003, 0.25], "properties": {"magmom": 0.314}, "label": "Er", "xyz": [1.792349389886933, 1.0348136889576602, 1.43037846]}, {"species": [{"element": "Er", "occu": 1}], "abc": [0.67093401, 0.83546701, 0.25], "properties": {"magmom": 0.314}, "label": "Er", "xyz": [5.470021330113067, 1.0348136889576605, 1.43037846]}, {"species": [{"element": "Er", "occu": 1}], "abc": [0.16453299, 0.83546701, 0.25], "properties": {"magmom": 0.314}, "label": "Er", "xyz": [3.63118536, 4.21977176787266, 1.43037846]}, {"species": [{"element": "Er", "occu": 1}], "abc": [0.83546701, 0.67093401, 0.75], "properties": {"magmom": 0.314}, "label": "Er", "xyz": [5.470021330113067, -1.0348136889576605, 4.29113538]}, {"species": [{"element": "Er", "occu": 1}], "abc": [0.32906599000000003, 0.16453299, 0.75], "properties": {"magmom": 0.314}, "label": "Er", "xyz": [1.792349389886933, -1.0348136889576602, 4.29113538]}, {"species": [{"element": "Er", "occu": 1}], "abc": [0.83546701, 0.16453299, 0.75], "properties": {"magmom": 0.314}, "label": "Er", "xyz": [3.63118536, -4.21977176787266, 4.29113538]}]}, "task_ids": null, "uncorrected_energy_per_atom": null, "energy_per_atom": -32.77122456, "formation_energy_per_atom": 0.023840907083332002, "energy_above_hull": 0.023840907083332002, "is_stable": false, "equilibrium_reaction_energy_per_atom": null, "decomposes_to": null, "xas": null, "grain_boundaries": null, "band_gap": 0.0, "cbm": null, "vbm": null, "efermi": 3.12078552, "is_gap_direct": null, "is_metal": null, "es_source_calc_id": null, "bandstructure": null, "dos": null, "dos_energy_up": null, "dos_energy_down": null, "is_magnetic": null, "ordering": null, "total_magnetization": 3.2641126, "total_magnetization_normalized_vol": null, "total_magnetization_normalized_formula_units": null, "num_magnetic_sites": null, "num_unique_magnetic_sites": null, "types_of_magnetic_species": null, "bulk_modulus": null, "shear_modulus": null, "universal_anisotropy": null, "homogeneous_poisson": null, "e_total": null, "e_ionic": null, "e_electronic": null, "n": null, "e_ij_max": null, "weighted_surface_energy_EV_PER_ANG2": null, "weighted_surface_energy": null, "weighted_work_function": null, "surface_anisotropy": null, "shape_factor": null, "has_reconstructed": null, "possible_species": null, "has_props": null, "theoretical": null, "database_IDs": null, "fields_not_requested": ["builder_meta", "nsites", "elements", "nelements", "composition", "composition_reduced", "chemsys", "symmetry", "property_name", "deprecated", "deprecation_reasons", "last_updated", "origins", "warnings", "task_ids", "uncorrected_energy_per_atom", "equilibrium_reaction_energy_per_atom", "decomposes_to", "xas", "grain_boundaries", "cbm", "vbm", "is_gap_direct", "is_metal", "es_source_calc_id", "bandstructure", "dos", "dos_energy_up", "dos_energy_down", "is_magnetic", "ordering", "total_magnetization_normalized_vol", "total_magnetization_normalized_formula_units", "num_magnetic_sites", "num_unique_magnetic_sites", "types_of_magnetic_species", "bulk_modulus", "shear_modulus", "universal_anisotropy", "homogeneous_poisson", "e_total", "e_ionic", "e_electronic", "n", "e_ij_max", "weighted_surface_energy_EV_PER_ANG2", "weighted_surface_energy", "weighted_work_function", "surface_anisotropy", "shape_factor", "has_reconstructed", "possible_species", "has_props", "theoretical", "database_IDs"]}