{"builder_meta": null, "nsites": null, "elements": null, "nelements": null, "composition": null, "composition_reduced": null, "formula_pretty": "PrEu3", "formula_anonymous": "AB3", "chemsys": null, "volume": 325.8618085855859, "density": 6.082388961503129, "density_atomic": 40.732726073198236, "symmetry": null, "property_name": null, "material_id": "mp-1186547", "deprecated": null, "deprecation_reasons": null, "last_updated": null, "origins": null, "warnings": null, "structure": {"@module": "pymatgen.core.structure", "@class": "Structure", "charge": 0, "lattice": {"matrix": [[3.876521, -6.714332, 0.0], [3.876521, 6.714332, 0.0], [0.0, 0.0, 6.259772]], "pbc": [true, true, true], "a": 7.753042581442784, "b": 7.753042581442784, "c": 6.259772, "alpha": 90.0, "beta": 90.0, "gamma": 120.00000496165784, "volume": 325.8618085855859}, "properties": {}, "sites": [{"species": [{"element": "Pr", "occu": 1}], "abc": [0.333333, 0.666667, 0.75], "properties": {"magmom": 0.153}, "label": "Pr", "xyz": [3.8765209999999994, 2.2381151428879997, 4.694829]}, {"species": [{"element": "Pr", "occu": 1}], "abc": [0.666667, 0.333333, 0.25], "properties": {"magmom": 0.155}, "label": "Pr", "xyz": [3.8765209999999994, -2.2381151428879997, 1.564943]}, {"species": [{"element": "Eu", "occu": 1}], "abc": [0.169336, 0.338673, 0.25], "properties": {"magmom": 6.902}, "label": "Eu", "xyz": [1.969307556689, 1.136984837884, 1.564943]}, {"species": [{"element": "Eu", "occu": 1}], "abc": [0.661327, 0.830664, 0.25], "properties": {"magmom": 6.924}, "label": "Eu", "xyz": [5.783734443310999, 1.1369848378839995, 1.564943]}, {"species": [{"element": "Eu", "occu": 1}], "abc": [0.169336, 0.830664, 0.25], "properties": {"magmom": 6.904}, "label": "Eu", "xyz": [3.8765209999999994, 4.440375752895999, 1.564943]}, {"species": [{"element": "Eu", "occu": 1}], "abc": [0.830664, 0.661327, 0.75], "properties": {"magmom": 6.902}, "label": "Eu", "xyz": [5.783734443310999, -1.1369848378839995, 4.694829]}, {"species": [{"element": "Eu", "occu": 1}], "abc": [0.338673, 0.169336, 0.75], "properties": {"magmom": 6.924}, "label": "Eu", "xyz": [1.969307556689, -1.136984837884, 4.694829]}, {"species": [{"element": "Eu", "occu": 1}], "abc": [0.830664, 0.169336, 0.75], "properties": {"magmom": 6.904}, "label": "Eu", "xyz": [3.8765209999999994, -4.440375752895999, 4.694829]}]}, "task_ids": null, "uncorrected_energy_per_atom": null, "energy_per_atom": -36.18744471958333, "formation_energy_per_atom": 0.054206408749998006, "energy_above_hull": 0.054206408749998006, "is_stable": false, "equilibrium_reaction_energy_per_atom": null, "decomposes_to": null, "xas": null, "grain_boundaries": null, "band_gap": 0.0, "cbm": null, "vbm": null, "efermi": 2.37306375, "is_gap_direct": null, "is_metal": null, "es_source_calc_id": null, "bandstructure": null, "dos": null, "dos_energy_up": null, "dos_energy_down": null, "is_magnetic": null, "ordering": null, "total_magnetization": 44.3648081, "total_magnetization_normalized_vol": null, "total_magnetization_normalized_formula_units": null, "num_magnetic_sites": null, "num_unique_magnetic_sites": null, "types_of_magnetic_species": null, "bulk_modulus": null, "shear_modulus": null, "universal_anisotropy": null, "homogeneous_poisson": null, "e_total": null, "e_ionic": null, "e_electronic": null, "n": null, "e_ij_max": null, "weighted_surface_energy_EV_PER_ANG2": null, "weighted_surface_energy": null, "weighted_work_function": null, "surface_anisotropy": null, "shape_factor": null, "has_reconstructed": null, "possible_species": null, "has_props": null, "theoretical": null, "database_IDs": null, "fields_not_requested": ["builder_meta", "nsites", "elements", "nelements", "composition", "composition_reduced", "chemsys", "symmetry", "property_name", "deprecated", "deprecation_reasons", "last_updated", "origins", "warnings", "task_ids", "uncorrected_energy_per_atom", "equilibrium_reaction_energy_per_atom", "decomposes_to", "xas", "grain_boundaries", "cbm", "vbm", "is_gap_direct", "is_metal", "es_source_calc_id", "bandstructure", "dos", "dos_energy_up", "dos_energy_down", "is_magnetic", "ordering", "total_magnetization_normalized_vol", "total_magnetization_normalized_formula_units", "num_magnetic_sites", "num_unique_magnetic_sites", "types_of_magnetic_species", "bulk_modulus", "shear_modulus", "universal_anisotropy", "homogeneous_poisson", "e_total", "e_ionic", "e_electronic", "n", "e_ij_max", "weighted_surface_energy_EV_PER_ANG2", "weighted_surface_energy", "weighted_work_function", "surface_anisotropy", "shape_factor", "has_reconstructed", "possible_species", "has_props", "theoretical", "database_IDs"]}