{"builder_meta": null, "nsites": null, "elements": null, "nelements": null, "composition": null, "composition_reduced": null, "formula_pretty": "PrF3", "formula_anonymous": "AB3", "chemsys": null, "volume": 314.0666198268443, "density": 6.278134809847106, "density_atomic": 13.086109159451846, "symmetry": null, "property_name": null, "material_id": "mp-2651", "deprecated": null, "deprecation_reasons": null, "last_updated": null, "origins": null, "warnings": null, "structure": {"@module": "pymatgen.core.structure", "@class": "Structure", "charge": 0, "lattice": {"matrix": [[7.06402107, -1e-08, -0.0], [-3.53201155, 6.1176229, 0.0], [-0.0, 0.0, 7.26753433]], "pbc": [true, true, true], "a": 7.06402107, "b": 7.064022617173434, "c": 7.26753433, "alpha": 90.0, "beta": 90.0, "gamma": 120.00000234211203, "volume": 314.0666198268443}, "properties": {}, "sites": [{"species": [{"element": "Pr", "occu": 1}], "abc": [0.65671949, 0.65671949, 0.75], "properties": {"magmom": 0.0}, "label": "Pr", "xyz": [2.3195394906495443, 4.0175621843331255, 5.4506507475]}, {"species": [{"element": "Pr", "occu": 1}], "abc": [-0.0, 0.34328051, 0.75], "properties": {"magmom": 0.0}, "label": "Pr", "xyz": [-1.2124707262098904, 2.100060709099679, 5.4506507475]}, {"species": [{"element": "Pr", "occu": 1}], "abc": [0.34328051, 0.0, 0.75], "properties": {"magmom": 0.0}, "label": "Pr", "xyz": [2.4249407555603457, -3.4328051e-09, 5.4506507475]}, {"species": [{"element": "Pr", "occu": 1}], "abc": [0.34328051, 0.34328051, 0.25], "properties": {"magmom": 0.0}, "label": "Pr", "xyz": [1.2124700293504553, 2.100060705666874, 1.8168835825]}, {"species": [{"element": "Pr", "occu": 1}], "abc": [0.0, 0.65671949, 0.25], "properties": {"magmom": 0.0}, "label": "Pr", "xyz": [-2.3195408237901094, 4.01756219090032, 1.8168835825]}, {"species": [{"element": "Pr", "occu": 1}], "abc": [0.65671949, -0.0, 0.25], "properties": {"magmom": 0.0}, "label": "Pr", "xyz": [4.639080314439654, -6.5671948999999994e-09, 1.8168835825]}, {"species": [{"element": "F", "occu": 1}], "abc": [0.0, 0.0, 0.75], "properties": {"magmom": -0.0}, "label": "F", "xyz": [0.0, 0.0, 5.4506507475]}, {"species": [{"element": "F", "occu": 1}], "abc": [0.0, 0.0, 0.25], "properties": {"magmom": -0.0}, "label": "F", "xyz": [0.0, 0.0, 1.8168835825]}, {"species": [{"element": "F", "occu": 1}], "abc": [0.333333, 0.666667, 0.67958419], "properties": {"magmom": 0.0}, "label": "F", "xyz": [-4.2086775398075815e-06, 4.07841730254097, 4.938901430950243]}, {"species": [{"element": "F", "occu": 1}], "abc": [0.666667, 0.333333, 0.82041581], "properties": {"magmom": 0.0}, "label": "F", "xyz": [3.5320137286775406, 2.03920558745903, 5.962400064049757]}, {"species": [{"element": "F", "occu": 1}], "abc": [0.666667, 0.333333, 0.32041581], "properties": {"magmom": 0.0}, "label": "F", "xyz": [3.5320137286775406, 2.03920558745903, 2.3286328990497576]}, {"species": [{"element": "F", "occu": 1}], "abc": [0.333333, 0.666667, 0.17958419], "properties": {"magmom": 0.0}, "label": "F", "xyz": [-4.2086775398075815e-06, 4.07841730254097, 1.3051342659502427]}, {"species": [{"element": "F", "occu": 1}], "abc": [0.36997075, 0.0587809, 0.08164221], "properties": {"magmom": -0.0}, "label": "F", "xyz": [2.405866355564308, 0.3595993762229025, 0.5933375639520694]}, {"species": [{"element": "F", "occu": 1}], "abc": [0.9412191, 0.31118984, 0.08164221], "properties": {"magmom": -0.0}, "label": "F", "xyz": [5.549665444763784, 1.9037420820191449, 0.5933375639520694]}, {"species": [{"element": "F", "occu": 1}], "abc": [0.6888101600000001, 0.63002925, 0.08164221], "properties": {"magmom": -0.0}, "label": "F", "xyz": [2.6404988956322337, 3.854281360581723, 0.5933375639520694]}, {"species": [{"element": "F", "occu": 1}], "abc": [0.31118984, 0.9412191, 0.41835779], "properties": {"magmom": -0.0}, "label": "F", "xyz": [-1.1261451457506761, 5.758023516965491, 3.040429601047931]}, {"species": [{"element": "F", "occu": 1}], "abc": [0.63002925, 0.6888101600000001, 0.41835779], "properties": {"magmom": -0.0}, "label": "F", "xyz": [2.0176544558389495, 4.213880802268371, 3.040429601047931]}, {"species": [{"element": "F", "occu": 1}], "abc": [0.0587809, 0.36997075, 0.41835779], "properties": {"magmom": -0.0}, "label": "F", "xyz": [-0.8915114460485997, 2.263341531942366, 3.040429601047931]}, {"species": [{"element": "F", "occu": 1}], "abc": [0.63002925, 0.9412191, 0.9183577900000001], "properties": {"magmom": -0.0}, "label": "F", "xyz": [1.126143164435693, 5.758023513777097, 6.674196766047931]}, {"species": [{"element": "F", "occu": 1}], "abc": [0.0587809, 0.6888101600000001, 0.9183577900000001], "properties": {"magmom": -0.0}, "label": "F", "xyz": [-2.017655924763785, 4.213880807980855, 6.674196766047931]}, {"species": [{"element": "F", "occu": 1}], "abc": [0.31118984, 0.36997075, 0.9183577900000001], "properties": {"magmom": -0.0}, "label": "F", "xyz": [0.891510624367766, 2.263341529418277, 6.674196766047931]}, {"species": [{"element": "F", "occu": 1}], "abc": [0.6888101600000001, 0.0587809, 0.58164221], "properties": {"magmom": -0.0}, "label": "F", "xyz": [4.6581546657506765, 0.3595993730345084, 4.22710472895207]}, {"species": [{"element": "F", "occu": 1}], "abc": [0.36997075, 0.31118984, 0.58164221], "properties": {"magmom": -0.0}, "label": "F", "xyz": [1.5143550641610506, 1.9037420877316285, 4.22710472895207]}, {"species": [{"element": "F", "occu": 1}], "abc": [0.9412191, 0.63002925, 0.58164221], "properties": {"magmom": -0.0}, "label": "F", "xyz": [4.423520966048599, 3.8542813580576336, 4.22710472895207]}]}, "task_ids": null, "uncorrected_energy_per_atom": null, "energy_per_atom": -14.132479332499999, "formation_energy_per_atom": -4.436969277916666, "energy_above_hull": 0.0, "is_stable": true, "equilibrium_reaction_energy_per_atom": null, "decomposes_to": null, "xas": null, "grain_boundaries": null, "band_gap": 7.5968, "cbm": null, "vbm": null, "efermi": -0.28738757, "is_gap_direct": null, "is_metal": null, "es_source_calc_id": null, "bandstructure": null, "dos": null, "dos_energy_up": null, "dos_energy_down": null, "is_magnetic": null, "ordering": null, "total_magnetization": 0.0, "total_magnetization_normalized_vol": null, "total_magnetization_normalized_formula_units": null, "num_magnetic_sites": null, "num_unique_magnetic_sites": null, "types_of_magnetic_species": null, "bulk_modulus": null, "shear_modulus": null, "universal_anisotropy": null, "homogeneous_poisson": null, "e_total": null, "e_ionic": null, "e_electronic": null, "n": null, "e_ij_max": null, "weighted_surface_energy_EV_PER_ANG2": null, "weighted_surface_energy": null, "weighted_work_function": null, "surface_anisotropy": null, "shape_factor": null, "has_reconstructed": null, "possible_species": null, "has_props": null, "theoretical": null, "database_IDs": null, "fields_not_requested": ["builder_meta", "nsites", "elements", "nelements", "composition", "composition_reduced", "chemsys", "symmetry", "property_name", "deprecated", "deprecation_reasons", "last_updated", "origins", "warnings", "task_ids", "uncorrected_energy_per_atom", "equilibrium_reaction_energy_per_atom", "decomposes_to", "xas", "grain_boundaries", "cbm", "vbm", "is_gap_direct", "is_metal", "es_source_calc_id", "bandstructure", "dos", "dos_energy_up", "dos_energy_down", "is_magnetic", "ordering", "total_magnetization_normalized_vol", "total_magnetization_normalized_formula_units", "num_magnetic_sites", "num_unique_magnetic_sites", "types_of_magnetic_species", "bulk_modulus", "shear_modulus", "universal_anisotropy", "homogeneous_poisson", "e_total", "e_ionic", "e_electronic", "n", "e_ij_max", "weighted_surface_energy_EV_PER_ANG2", "weighted_surface_energy", "weighted_work_function", "surface_anisotropy", "shape_factor", "has_reconstructed", "possible_species", "has_props", "theoretical", "database_IDs"]}