{
  "builder_meta": null,
  "nsites": null,
  "elements": null,
  "nelements": null,
  "composition": null,
  "composition_reduced": null,
  "formula_pretty": "PrGa3",
  "formula_anonymous": "AB3",
  "chemsys": null,
  "volume": 166.68985658336226,
  "density": 6.97482097044983,
  "density_atomic": 20.836232072920282,
  "symmetry": null,
  "property_name": null,
  "material_id": "mp-862756",
  "deprecated": null,
  "deprecation_reasons": null,
  "last_updated": null,
  "origins": null,
  "warnings": null,
  "structure": {
    "@module": "pymatgen.core.structure",
    "@class": "Structure",
    "charge": 0,
    "lattice": {
      "matrix": [
        [6.51510175, -1e-8, 0.0],
        [-3.25755139, 5.64224453, -0.0],
        [0.0, -0.0, 4.53456954]
      ],
      "pbc": [true, true, true],
      "a": 6.51510175,
      "b": 6.51510279234379,
      "c": 4.53456954,
      "alpha": 90.0,
      "beta": 90.0,
      "gamma": 120.00000002526876,
      "volume": 166.68985658336226
    },
    "properties": {},
    "sites": [
      {
        "species": [{ "element": "Pr", "occu": 1 }],
        "abc": [0.333333999999999, 0.666667, 0.750002],
        "properties": { "magmom": -0.0 },
        "label": "Pr",
        "xyz": [2.914217363425564e-6, 3.7614982307481704, 3.4009362241390795]
      },
      {
        "species": [{ "element": "Pr", "occu": 1 }],
        "abc": [0.666667999999999, 0.333333999999999, 0.250001],
        "properties": { "magmom": -0.0 },
        "label": "Pr",
        "xyz": [3.257557218434737, 1.8807519314963344, 1.1336469195695398]
      },
      {
        "species": [{ "element": "Ga", "occu": 1 }],
        "abc": [0.13907675, 0.278152499999999, 0.250001],
        "properties": { "magmom": -0.0 },
        "label": "Ga",
        "xyz": [3.114302340678776e-6, 1.5694044202400521, 1.1336469195695398]
      },
      {
        "species": [{ "element": "Ga", "occu": 1 }],
        "abc": [0.7218475, 0.86092525, 0.250001],
        "properties": { "magmom": -0.0 },
        "label": "Ga",
        "xyz": [1.8984016656595277, 4.857550775332908, 1.1336469195695398]
      },
      {
        "species": [{ "element": "Ga", "occu": 1 }],
        "abc": [0.13907975, 0.86092525, 0.250001],
        "properties": { "magmom": -0.0 },
        "label": "Ga",
        "xyz": [-1.898389522209035, 4.857550781160585, 1.1336469195695398]
      },
      {
        "species": [{ "element": "Ga", "occu": 1 }],
        "abc": [0.86092225, 0.7218465, 0.750002],
        "properties": { "magmom": -0.0 },
        "label": "Ga",
        "xyz": [3.2575439881473027, 4.072834457515422, 3.4009362241390795]
      },
      {
        "species": [{ "element": "Ga", "occu": 1 }],
        "abc": [0.2781515, 0.13907575, 0.750002],
        "properties": { "magmom": -0.0 },
        "label": "Ga",
        "xyz": [1.3591389216873326, 0.7846993869116325, 3.4009362241390795]
      },
      {
        "species": [{ "element": "Ga", "occu": 1 }],
        "abc": [0.86092225, 0.13907575, 0.750002],
        "properties": { "magmom": -0.0 },
        "label": "Ga",
        "xyz": [5.1559496548611445, 0.7846993810839251, 3.4009362241390795]
      }
    ]
  },
  "task_ids": null,
  "uncorrected_energy_per_atom": null,
  "energy_per_atom": -16.56922472375,
  "formation_energy_per_atom": -0.636153669166667,
  "energy_above_hull": 0.0,
  "is_stable": true,
  "equilibrium_reaction_energy_per_atom": null,
  "decomposes_to": null,
  "xas": null,
  "grain_boundaries": null,
  "band_gap": 0.0,
  "cbm": null,
  "vbm": null,
  "efermi": 3.74006335,
  "is_gap_direct": null,
  "is_metal": null,
  "es_source_calc_id": null,
  "bandstructure": null,
  "dos": null,
  "dos_energy_up": null,
  "dos_energy_down": null,
  "is_magnetic": null,
  "ordering": null,
  "total_magnetization": 0.0,
  "total_magnetization_normalized_vol": null,
  "total_magnetization_normalized_formula_units": null,
  "num_magnetic_sites": null,
  "num_unique_magnetic_sites": null,
  "types_of_magnetic_species": null,
  "bulk_modulus": null,
  "shear_modulus": null,
  "universal_anisotropy": null,
  "homogeneous_poisson": null,
  "e_total": null,
  "e_ionic": null,
  "e_electronic": null,
  "n": null,
  "e_ij_max": null,
  "weighted_surface_energy_EV_PER_ANG2": null,
  "weighted_surface_energy": null,
  "weighted_work_function": null,
  "surface_anisotropy": null,
  "shape_factor": null,
  "has_reconstructed": null,
  "possible_species": null,
  "has_props": null,
  "theoretical": null,
  "database_IDs": null,
  "fields_not_requested": [
    "builder_meta",
    "nsites",
    "elements",
    "nelements",
    "composition",
    "composition_reduced",
    "chemsys",
    "symmetry",
    "property_name",
    "deprecated",
    "deprecation_reasons",
    "last_updated",
    "origins",
    "warnings",
    "task_ids",
    "uncorrected_energy_per_atom",
    "equilibrium_reaction_energy_per_atom",
    "decomposes_to",
    "xas",
    "grain_boundaries",
    "cbm",
    "vbm",
    "is_gap_direct",
    "is_metal",
    "es_source_calc_id",
    "bandstructure",
    "dos",
    "dos_energy_up",
    "dos_energy_down",
    "is_magnetic",
    "ordering",
    "total_magnetization_normalized_vol",
    "total_magnetization_normalized_formula_units",
    "num_magnetic_sites",
    "num_unique_magnetic_sites",
    "types_of_magnetic_species",
    "bulk_modulus",
    "shear_modulus",
    "universal_anisotropy",
    "homogeneous_poisson",
    "e_total",
    "e_ionic",
    "e_electronic",
    "n",
    "e_ij_max",
    "weighted_surface_energy_EV_PER_ANG2",
    "weighted_surface_energy",
    "weighted_work_function",
    "surface_anisotropy",
    "shape_factor",
    "has_reconstructed",
    "possible_species",
    "has_props",
    "theoretical",
    "database_IDs"
  ]
}
