{"builder_meta": null, "nsites": null, "elements": null, "nelements": null, "composition": null, "composition_reduced": null, "formula_pretty": "PrGe2", "formula_anonymous": "AB2", "chemsys": null, "volume": 140.17319323415245, "density": 6.780551434104893, "density_atomic": 23.362198872358743, "symmetry": null, "property_name": null, "material_id": "mp-11722", "deprecated": null, "deprecation_reasons": null, "last_updated": null, "origins": null, "warnings": null, "structure": {"@module": "pymatgen.core.structure", "@class": "Structure", "charge": 0, "lattice": {"matrix": [[4.05140207, 0.0, -1.18225663], [-0.34499882, 4.03668647, -1.18225663], [0.25540791, 0.2781687, 8.40812261]], "pbc": [true, true, true], "a": 4.220377882604737, "b": 4.220378251064875, "c": 8.416598888562023, "alpha": 104.5199743470555, "beta": 104.51998274871978, "gamma": 89.99999419153303, "volume": 140.17319323415245}, "properties": {}, "sites": [{"species": [{"element": "Pr", "occu": 1}], "abc": [0.875, 0.625, 0.25], "properties": {"magmom": 0.0}, "label": "Pr", "xyz": [3.39320452625, 2.59247121875, 0.3286457075]}, {"species": [{"element": "Pr", "occu": 1}], "abc": [0.125, 0.375, 0.75], "properties": {"magmom": 0.0}, "label": "Pr", "xyz": [0.56860663375, 1.7223839512500003, 5.7149636425]}, {"species": [{"element": "Ge", "occu": 1}], "abc": [0.70627512, 0.95627512, 0.91255025], "properties": {"magmom": -0.0}, "label": "Ge", "xyz": [2.7645632472846176, 4.114025755228802, 5.707273345838061]}, {"species": [{"element": "Ge", "occu": 1}], "abc": [0.45627512000000003, 0.20627512, 0.41255025], "properties": {"magmom": -0.0}, "label": "Ge", "xyz": [1.8827578897846178, 0.9474265527288015, 2.6854686708380613]}, {"species": [{"element": "Ge", "occu": 1}], "abc": [0.54372488, 0.79372488, 0.58744975], "properties": {"magmom": -0.0}, "label": "Ge", "xyz": [2.079053270215382, 3.367428617271199, 3.358140679161939]}, {"species": [{"element": "Ge", "occu": 1}], "abc": [0.29372488, 0.04372488, 0.08744975], "properties": {"magmom": -0.0}, "label": "Ge", "xyz": [1.1972479127153826, 0.20082941477119862, 0.33633600416193876]}]}, "task_ids": null, "uncorrected_energy_per_atom": null, "energy_per_atom": -19.72893019, "formation_energy_per_atom": -0.67962634722222, "energy_above_hull": 0.04367586444444101, "is_stable": false, "equilibrium_reaction_energy_per_atom": null, "decomposes_to": null, "xas": null, "grain_boundaries": null, "band_gap": 0.0, "cbm": null, "vbm": null, "efermi": 5.398544989999999, "is_gap_direct": null, "is_metal": null, "es_source_calc_id": null, "bandstructure": null, "dos": null, "dos_energy_up": null, "dos_energy_down": null, "is_magnetic": null, "ordering": null, "total_magnetization": 1.23e-05, "total_magnetization_normalized_vol": null, "total_magnetization_normalized_formula_units": null, "num_magnetic_sites": null, "num_unique_magnetic_sites": null, "types_of_magnetic_species": null, "bulk_modulus": null, "shear_modulus": null, "universal_anisotropy": null, "homogeneous_poisson": null, "e_total": null, "e_ionic": null, "e_electronic": null, "n": null, "e_ij_max": null, "weighted_surface_energy_EV_PER_ANG2": null, "weighted_surface_energy": null, "weighted_work_function": null, "surface_anisotropy": null, "shape_factor": null, "has_reconstructed": null, "possible_species": null, "has_props": null, "theoretical": null, "database_IDs": null, "fields_not_requested": ["builder_meta", "nsites", "elements", "nelements", "composition", "composition_reduced", "chemsys", "symmetry", "property_name", "deprecated", "deprecation_reasons", "last_updated", "origins", "warnings", "task_ids", "uncorrected_energy_per_atom", "equilibrium_reaction_energy_per_atom", "decomposes_to", "xas", "grain_boundaries", "cbm", "vbm", "is_gap_direct", "is_metal", "es_source_calc_id", "bandstructure", "dos", "dos_energy_up", "dos_energy_down", "is_magnetic", "ordering", "total_magnetization_normalized_vol", "total_magnetization_normalized_formula_units", "num_magnetic_sites", "num_unique_magnetic_sites", "types_of_magnetic_species", "bulk_modulus", "shear_modulus", "universal_anisotropy", "homogeneous_poisson", "e_total", "e_ionic", "e_electronic", "n", "e_ij_max", "weighted_surface_energy_EV_PER_ANG2", "weighted_surface_energy", "weighted_work_function", "surface_anisotropy", "shape_factor", "has_reconstructed", "possible_species", "has_props", "theoretical", "database_IDs"]}