{
  "builder_meta": null,
  "nsites": null,
  "elements": null,
  "nelements": null,
  "composition": null,
  "composition_reduced": null,
  "formula_pretty": "PrGe",
  "formula_anonymous": "AB",
  "chemsys": null,
  "volume": 206.19834185655685,
  "density": 6.878895576227397,
  "density_atomic": 25.774792732069606,
  "symmetry": null,
  "property_name": null,
  "material_id": "mp-2102",
  "deprecated": null,
  "deprecation_reasons": null,
  "last_updated": null,
  "origins": null,
  "warnings": null,
  "structure": {
    "@module": "pymatgen.core.structure",
    "@class": "Structure",
    "charge": 0,
    "lattice": {
      "matrix": [
        [4.07451768, -0.0, 0.0],
        [-0.0, 6.04252799, 0.0],
        [0.0, 0.0, 8.37510559]
      ],
      "pbc": [true, true, true],
      "a": 4.07451768,
      "b": 6.04252799,
      "c": 8.37510559,
      "alpha": 90.0,
      "beta": 90.0,
      "gamma": 90.0,
      "volume": 206.19834185655685
    },
    "properties": {},
    "sites": [
      {
        "species": [{ "element": "Pr", "occu": 1 }],
        "abc": [0.25, 0.38314888, 0.68069561],
        "properties": { "magmom": 0.0 },
        "label": "Pr",
        "xyz": [1.01862942, 2.3151878317371515, 5.70089760839946]
      },
      {
        "species": [{ "element": "Pr", "occu": 1 }],
        "abc": [0.75, 0.61685112, 0.31930439],
        "properties": { "magmom": 0.0 },
        "label": "Pr",
        "xyz": [3.0558882599999997, 3.7273401582628485, 2.67420798160054]
      },
      {
        "species": [{ "element": "Pr", "occu": 1 }],
        "abc": [0.75, 0.88314888, 0.81930439],
        "properties": { "magmom": 0.0 },
        "label": "Pr",
        "xyz": [3.0558882599999997, 5.336451826737151, 6.861760776600541]
      },
      {
        "species": [{ "element": "Pr", "occu": 1 }],
        "abc": [0.25, 0.11685112, 0.18069561],
        "properties": { "magmom": 0.0 },
        "label": "Pr",
        "xyz": [1.01862942, 0.7060761632628488, 1.51334481339946]
      },
      {
        "species": [{ "element": "Ge", "occu": 1 }],
        "abc": [0.25, 0.86558288, 0.53769982],
        "properties": { "magmom": -0.0 },
        "label": "Ge",
        "xyz": [1.01862942, 5.230308780064812, 4.503292768223995]
      },
      {
        "species": [{ "element": "Ge", "occu": 1 }],
        "abc": [0.75, 0.13441712, 0.46230018],
        "properties": { "magmom": -0.0 },
        "label": "Ge",
        "xyz": [3.0558882599999997, 0.8122192099351888, 3.8718128217760066]
      },
      {
        "species": [{ "element": "Ge", "occu": 1 }],
        "abc": [0.75, 0.36558288, 0.9623001800000001],
        "properties": { "magmom": -0.0 },
        "label": "Ge",
        "xyz": [3.0558882599999997, 2.2090447850648114, 8.059365616776008]
      },
      {
        "species": [{ "element": "Ge", "occu": 1 }],
        "abc": [0.25, 0.6344171200000001, 0.03769982],
        "properties": { "magmom": -0.0 },
        "label": "Ge",
        "xyz": [1.01862942, 3.833483204935189, 0.31573997322399383]
      }
    ]
  },
  "task_ids": null,
  "uncorrected_energy_per_atom": null,
  "energy_per_atom": -22.561481476250002,
  "formation_energy_per_atom": -0.9235145020833351,
  "energy_above_hull": 0.0,
  "is_stable": true,
  "equilibrium_reaction_energy_per_atom": null,
  "decomposes_to": null,
  "xas": null,
  "grain_boundaries": null,
  "band_gap": 0.0,
  "cbm": null,
  "vbm": null,
  "efermi": 4.78622379,
  "is_gap_direct": null,
  "is_metal": null,
  "es_source_calc_id": null,
  "bandstructure": null,
  "dos": null,
  "dos_energy_up": null,
  "dos_energy_down": null,
  "is_magnetic": null,
  "ordering": null,
  "total_magnetization": 7.4e-6,
  "total_magnetization_normalized_vol": null,
  "total_magnetization_normalized_formula_units": null,
  "num_magnetic_sites": null,
  "num_unique_magnetic_sites": null,
  "types_of_magnetic_species": null,
  "bulk_modulus": null,
  "shear_modulus": null,
  "universal_anisotropy": null,
  "homogeneous_poisson": null,
  "e_total": null,
  "e_ionic": null,
  "e_electronic": null,
  "n": null,
  "e_ij_max": null,
  "weighted_surface_energy_EV_PER_ANG2": null,
  "weighted_surface_energy": null,
  "weighted_work_function": null,
  "surface_anisotropy": null,
  "shape_factor": null,
  "has_reconstructed": null,
  "possible_species": null,
  "has_props": null,
  "theoretical": null,
  "database_IDs": null,
  "fields_not_requested": [
    "builder_meta",
    "nsites",
    "elements",
    "nelements",
    "composition",
    "composition_reduced",
    "chemsys",
    "symmetry",
    "property_name",
    "deprecated",
    "deprecation_reasons",
    "last_updated",
    "origins",
    "warnings",
    "task_ids",
    "uncorrected_energy_per_atom",
    "equilibrium_reaction_energy_per_atom",
    "decomposes_to",
    "xas",
    "grain_boundaries",
    "cbm",
    "vbm",
    "is_gap_direct",
    "is_metal",
    "es_source_calc_id",
    "bandstructure",
    "dos",
    "dos_energy_up",
    "dos_energy_down",
    "is_magnetic",
    "ordering",
    "total_magnetization_normalized_vol",
    "total_magnetization_normalized_formula_units",
    "num_magnetic_sites",
    "num_unique_magnetic_sites",
    "types_of_magnetic_species",
    "bulk_modulus",
    "shear_modulus",
    "universal_anisotropy",
    "homogeneous_poisson",
    "e_total",
    "e_ionic",
    "e_electronic",
    "n",
    "e_ij_max",
    "weighted_surface_energy_EV_PER_ANG2",
    "weighted_surface_energy",
    "weighted_work_function",
    "surface_anisotropy",
    "shape_factor",
    "has_reconstructed",
    "possible_species",
    "has_props",
    "theoretical",
    "database_IDs"
  ]
}
