{
  "builder_meta": null,
  "nsites": null,
  "elements": null,
  "nelements": null,
  "composition": null,
  "composition_reduced": null,
  "formula_pretty": "PrGe5",
  "formula_anonymous": "AB5",
  "chemsys": null,
  "volume": 126.23113831165824,
  "density": 6.631410108417036,
  "density_atomic": 21.03852305194304,
  "symmetry": null,
  "property_name": null,
  "material_id": "mp-981551",
  "deprecated": null,
  "deprecation_reasons": null,
  "last_updated": null,
  "origins": null,
  "warnings": null,
  "structure": {
    "@module": "pymatgen.core.structure",
    "@class": "Structure",
    "charge": 0,
    "lattice": {
      "matrix": [
        [4.030056, 0.0, 0.0],
        [2.015028, 3.142819, 4.983174],
        [2.015028, -3.142819, 4.983174]
      ],
      "pbc": [true, true, true],
      "a": 4.030056,
      "b": 6.226529709382346,
      "c": 6.226529709382346,
      "alpha": 60.629050168983596,
      "beta": 71.11802596551587,
      "gamma": 71.11802596551587,
      "volume": 126.23113831165824
    },
    "properties": {},
    "sites": [
      {
        "species": [{ "element": "Pr", "occu": 1 }],
        "abc": [0.0, 0.0, 0.0],
        "properties": { "magmom": -0.0 },
        "label": "Pr",
        "xyz": [0.0, 0.0, 0.0]
      },
      {
        "species": [{ "element": "Ge", "occu": 1 }],
        "abc": [0.670298, 0.533652999999999, 0.125752],
        "properties": { "magmom": 0.0 },
        "label": "Ge",
        "xyz": [4.030058015027998, 1.281959012918997, 3.2859298514699953]
      },
      {
        "species": [{ "element": "Ge", "occu": 1 }],
        "abc": [0.670296999999999, 0.125752, 0.533654],
        "properties": { "magmom": 0.0 },
        "label": "Ge",
        "xyz": [4.0300559999999965, -1.2819621557379999, 3.285934834644]
      },
      {
        "species": [{ "element": "Ge", "occu": 1 }],
        "abc": [0.329702, 0.466346999999999, 0.874247999999999],
        "properties": { "magmom": 0.0 },
        "label": "Ge",
        "xyz": [4.030053984971996, -1.281959012919, 6.68041814852999]
      },
      {
        "species": [{ "element": "Ge", "occu": 1 }],
        "abc": [0.329702999999999, 0.874247999999999, 0.466346],
        "properties": { "magmom": 0.0 },
        "label": "Ge",
        "xyz": [4.030055999999994, 1.281962155737997, 6.680413165355995]
      },
      {
        "species": [{ "element": "Ge", "occu": 1 }],
        "abc": [0.0, 0.5, 0.5],
        "properties": { "magmom": 0.0 },
        "label": "Ge",
        "xyz": [2.015028, 0.0, 4.983174]
      }
    ]
  },
  "task_ids": null,
  "uncorrected_energy_per_atom": null,
  "energy_per_atom": -16.747057365555552,
  "formation_energy_per_atom": -0.286416654166664,
  "energy_above_hull": 0.07523445166666601,
  "is_stable": false,
  "equilibrium_reaction_energy_per_atom": null,
  "decomposes_to": null,
  "xas": null,
  "grain_boundaries": null,
  "band_gap": 0.0,
  "cbm": null,
  "vbm": null,
  "efermi": 5.91289968,
  "is_gap_direct": null,
  "is_metal": null,
  "es_source_calc_id": null,
  "bandstructure": null,
  "dos": null,
  "dos_energy_up": null,
  "dos_energy_down": null,
  "is_magnetic": null,
  "ordering": null,
  "total_magnetization": 2.7e-6,
  "total_magnetization_normalized_vol": null,
  "total_magnetization_normalized_formula_units": null,
  "num_magnetic_sites": null,
  "num_unique_magnetic_sites": null,
  "types_of_magnetic_species": null,
  "bulk_modulus": null,
  "shear_modulus": null,
  "universal_anisotropy": null,
  "homogeneous_poisson": null,
  "e_total": null,
  "e_ionic": null,
  "e_electronic": null,
  "n": null,
  "e_ij_max": null,
  "weighted_surface_energy_EV_PER_ANG2": null,
  "weighted_surface_energy": null,
  "weighted_work_function": null,
  "surface_anisotropy": null,
  "shape_factor": null,
  "has_reconstructed": null,
  "possible_species": null,
  "has_props": null,
  "theoretical": null,
  "database_IDs": null,
  "fields_not_requested": [
    "builder_meta",
    "nsites",
    "elements",
    "nelements",
    "composition",
    "composition_reduced",
    "chemsys",
    "symmetry",
    "property_name",
    "deprecated",
    "deprecation_reasons",
    "last_updated",
    "origins",
    "warnings",
    "task_ids",
    "uncorrected_energy_per_atom",
    "equilibrium_reaction_energy_per_atom",
    "decomposes_to",
    "xas",
    "grain_boundaries",
    "cbm",
    "vbm",
    "is_gap_direct",
    "is_metal",
    "es_source_calc_id",
    "bandstructure",
    "dos",
    "dos_energy_up",
    "dos_energy_down",
    "is_magnetic",
    "ordering",
    "total_magnetization_normalized_vol",
    "total_magnetization_normalized_formula_units",
    "num_magnetic_sites",
    "num_unique_magnetic_sites",
    "types_of_magnetic_species",
    "bulk_modulus",
    "shear_modulus",
    "universal_anisotropy",
    "homogeneous_poisson",
    "e_total",
    "e_ionic",
    "e_electronic",
    "n",
    "e_ij_max",
    "weighted_surface_energy_EV_PER_ANG2",
    "weighted_surface_energy",
    "weighted_work_function",
    "surface_anisotropy",
    "shape_factor",
    "has_reconstructed",
    "possible_species",
    "has_props",
    "theoretical",
    "database_IDs"
  ]
}
