{"builder_meta": null, "nsites": null, "elements": null, "nelements": null, "composition": null, "composition_reduced": null, "formula_pretty": "PrH3", "formula_anonymous": "AB3", "chemsys": null, "volume": 41.26647959346616, "density": 5.79171839232945, "density_atomic": 10.31661989836654, "symmetry": null, "property_name": null, "material_id": "mp-981547", "deprecated": null, "deprecation_reasons": null, "last_updated": null, "origins": null, "warnings": null, "structure": {"@module": "pymatgen.core.structure", "@class": "Structure", "charge": 0, "lattice": {"matrix": [[-1.85294802, 1.85294802, 3.00476808], [1.85294802, -1.85294802, 3.00476808], [1.85294802, 1.85294802, -3.00476808]], "pbc": [true, true, true], "a": 3.98691157968555, "b": 3.98691157968555, "c": 3.98691157968555, "alpha": 124.61091079625696, "beta": 124.61091079625696, "gamma": 82.18349500267242, "volume": 41.26647959346616}, "properties": {}, "sites": [{"species": [{"element": "Pr", "occu": 1}], "abc": [0.0, 0.0, 0.0], "properties": {"magmom": -0.0}, "label": "Pr", "xyz": [0.0, 0.0, 0.0]}, {"species": [{"element": "H", "occu": 1}], "abc": [0.749999, 0.25, 0.499998999999999], "properties": {"magmom": -0.0}, "label": "H", "xyz": [-1.7763568394002505e-15, 1.852944314103958, 1.5023840400000028]}, {"species": [{"element": "H", "occu": 1}], "abc": [0.25, 0.749999, 0.499998999999999], "properties": {"magmom": -0.0}, "label": "H", "xyz": [1.852944314103958, -1.7763568394002505e-15, 1.5023840400000028]}, {"species": [{"element": "H", "occu": 1}], "abc": [0.5, 0.5, 0.0], "properties": {"magmom": 0.0}, "label": "H", "xyz": [0.0, 0.0, 3.00476808]}]}, "task_ids": null, "uncorrected_energy_per_atom": null, "energy_per_atom": -10.545956075, "formation_energy_per_atom": -0.6036326819791651, "energy_above_hull": 0.0, "is_stable": true, "equilibrium_reaction_energy_per_atom": null, "decomposes_to": null, "xas": null, "grain_boundaries": null, "band_gap": 0.1572, "cbm": null, "vbm": null, "efermi": 3.70588672, "is_gap_direct": null, "is_metal": null, "es_source_calc_id": null, "bandstructure": null, "dos": null, "dos_energy_up": null, "dos_energy_down": null, "is_magnetic": null, "ordering": null, "total_magnetization": 0.0, "total_magnetization_normalized_vol": null, "total_magnetization_normalized_formula_units": null, "num_magnetic_sites": null, "num_unique_magnetic_sites": null, "types_of_magnetic_species": null, "bulk_modulus": null, "shear_modulus": null, "universal_anisotropy": null, "homogeneous_poisson": null, "e_total": null, "e_ionic": null, "e_electronic": null, "n": null, "e_ij_max": null, "weighted_surface_energy_EV_PER_ANG2": null, "weighted_surface_energy": null, "weighted_work_function": null, "surface_anisotropy": null, "shape_factor": null, "has_reconstructed": null, "possible_species": null, "has_props": null, "theoretical": null, "database_IDs": null, "fields_not_requested": ["builder_meta", "nsites", "elements", "nelements", "composition", "composition_reduced", "chemsys", "symmetry", "property_name", "deprecated", "deprecation_reasons", "last_updated", "origins", "warnings", "task_ids", "uncorrected_energy_per_atom", "equilibrium_reaction_energy_per_atom", "decomposes_to", "xas", "grain_boundaries", "cbm", "vbm", "is_gap_direct", "is_metal", "es_source_calc_id", "bandstructure", "dos", "dos_energy_up", "dos_energy_down", "is_magnetic", "ordering", "total_magnetization_normalized_vol", "total_magnetization_normalized_formula_units", "num_magnetic_sites", "num_unique_magnetic_sites", "types_of_magnetic_species", "bulk_modulus", "shear_modulus", "universal_anisotropy", "homogeneous_poisson", "e_total", "e_ionic", "e_electronic", "n", "e_ij_max", "weighted_surface_energy_EV_PER_ANG2", "weighted_surface_energy", "weighted_work_function", "surface_anisotropy", "shape_factor", "has_reconstructed", "possible_species", "has_props", "theoretical", "database_IDs"]}