{
  "builder_meta": null,
  "nsites": null,
  "elements": null,
  "nelements": null,
  "composition": null,
  "composition_reduced": null,
  "formula_pretty": "PrHg3",
  "formula_anonymous": "AB3",
  "chemsys": null,
  "volume": 202.13280079853493,
  "density": 12.2023268548567,
  "density_atomic": 25.266600099816866,
  "symmetry": null,
  "property_name": null,
  "material_id": "mp-861487",
  "deprecated": null,
  "deprecation_reasons": null,
  "last_updated": null,
  "origins": null,
  "warnings": null,
  "structure": {
    "@module": "pymatgen.core.structure",
    "@class": "Structure",
    "charge": 0,
    "lattice": {
      "matrix": [
        [6.81912673, 1e-8, 0.0],
        [-3.40956285, 5.90553681, -0.0],
        [0.0, 0.0, 5.01936353]
      ],
      "pbc": [true, true, true],
      "a": 6.81912673,
      "b": 6.819126325444126,
      "c": 5.01936353,
      "alpha": 90.0,
      "beta": 90.0,
      "gamma": 119.9999968819345,
      "volume": 202.13280079853493
    },
    "properties": {},
    "sites": [
      {
        "species": [{ "element": "Pr", "occu": 1 }],
        "abc": [0.333333, 0.666666, 0.75],
        "properties": { "magmom": 0.0 },
        "label": "Pr",
        "xyz": [3.4333299003819207e-7, 3.93702060630879, 3.7645226474999998]
      },
      {
        "species": [{ "element": "Pr", "occu": 1 }],
        "abc": [0.666665, 0.333333, 0.249999],
        "properties": { "magmom": 0.0 },
        "label": "Pr",
        "xyz": [3.4095533079763998, 1.9685103081543798, 1.25483586313647]
      },
      {
        "species": [{ "element": "Hg", "occu": 1 }],
        "abc": [0.16109336, 0.32218672, 0.249999],
        "properties": { "magmom": 0.0 },
        "label": "Hg",
        "xyz": [1.659261608111251e-7, 1.9026855362640966, 1.25483586313647]
      },
      {
        "species": [{ "element": "Hg", "occu": 1 }],
        "abc": [0.67781428, 0.8389076400000001, 0.249999],
        "properties": { "magmom": 0.0 },
        "label": "Hg",
        "xyz": [1.7617931507985305, 4.954199954988371, 1.25483586313647]
      },
      {
        "species": [{ "element": "Hg", "occu": 1 }],
        "abc": [0.16109236, 0.8389076400000001, 0.249999],
        "properties": { "magmom": 0.0 },
        "label": "Hg",
        "xyz": [-1.7617991058503915, 4.954199949821152, 1.25483586313647]
      },
      {
        "species": [{ "element": "Hg", "occu": 1 }],
        "abc": [0.8389076400000001, 0.67781528, 0.75],
        "properties": { "magmom": 0.0 },
        "label": "Hg",
        "xyz": [3.40956371407487, 4.002863094809533, 3.7645226474999998]
      },
      {
        "species": [{ "element": "Hg", "occu": 1 }],
        "abc": [0.32218672, 0.16109336, 0.75],
        "properties": { "magmom": 0.0 },
        "label": "Hg",
        "xyz": [1.6477741387653495, 0.9513427705484487, 3.7645226474999998]
      },
      {
        "species": [{ "element": "Hg", "occu": 1 }],
        "abc": [0.83890864, 0.16109336, 0.75],
        "properties": { "magmom": 0.0 },
        "label": "Hg",
        "xyz": [5.171366395414271, 0.9513427757156679, 3.7645226474999998]
      }
    ]
  },
  "task_ids": null,
  "uncorrected_energy_per_atom": null,
  "energy_per_atom": -44.83998899625,
  "formation_energy_per_atom": -0.46314501229166805,
  "energy_above_hull": 0.0,
  "is_stable": true,
  "equilibrium_reaction_energy_per_atom": null,
  "decomposes_to": null,
  "xas": null,
  "grain_boundaries": null,
  "band_gap": 0.0,
  "cbm": null,
  "vbm": null,
  "efermi": 3.3815288900000002,
  "is_gap_direct": null,
  "is_metal": null,
  "es_source_calc_id": null,
  "bandstructure": null,
  "dos": null,
  "dos_energy_up": null,
  "dos_energy_down": null,
  "is_magnetic": null,
  "ordering": null,
  "total_magnetization": 0.0,
  "total_magnetization_normalized_vol": null,
  "total_magnetization_normalized_formula_units": null,
  "num_magnetic_sites": null,
  "num_unique_magnetic_sites": null,
  "types_of_magnetic_species": null,
  "bulk_modulus": null,
  "shear_modulus": null,
  "universal_anisotropy": null,
  "homogeneous_poisson": null,
  "e_total": null,
  "e_ionic": null,
  "e_electronic": null,
  "n": null,
  "e_ij_max": null,
  "weighted_surface_energy_EV_PER_ANG2": null,
  "weighted_surface_energy": null,
  "weighted_work_function": null,
  "surface_anisotropy": null,
  "shape_factor": null,
  "has_reconstructed": null,
  "possible_species": null,
  "has_props": null,
  "theoretical": null,
  "database_IDs": null,
  "fields_not_requested": [
    "builder_meta",
    "nsites",
    "elements",
    "nelements",
    "composition",
    "composition_reduced",
    "chemsys",
    "symmetry",
    "property_name",
    "deprecated",
    "deprecation_reasons",
    "last_updated",
    "origins",
    "warnings",
    "task_ids",
    "uncorrected_energy_per_atom",
    "equilibrium_reaction_energy_per_atom",
    "decomposes_to",
    "xas",
    "grain_boundaries",
    "cbm",
    "vbm",
    "is_gap_direct",
    "is_metal",
    "es_source_calc_id",
    "bandstructure",
    "dos",
    "dos_energy_up",
    "dos_energy_down",
    "is_magnetic",
    "ordering",
    "total_magnetization_normalized_vol",
    "total_magnetization_normalized_formula_units",
    "num_magnetic_sites",
    "num_unique_magnetic_sites",
    "types_of_magnetic_species",
    "bulk_modulus",
    "shear_modulus",
    "universal_anisotropy",
    "homogeneous_poisson",
    "e_total",
    "e_ionic",
    "e_electronic",
    "n",
    "e_ij_max",
    "weighted_surface_energy_EV_PER_ANG2",
    "weighted_surface_energy",
    "weighted_work_function",
    "surface_anisotropy",
    "shape_factor",
    "has_reconstructed",
    "possible_species",
    "has_props",
    "theoretical",
    "database_IDs"
  ]
}
