{
  "builder_meta": null,
  "nsites": null,
  "elements": null,
  "nelements": null,
  "composition": null,
  "composition_reduced": null,
  "formula_pretty": "PrHo3",
  "formula_anonymous": "AB3",
  "chemsys": null,
  "volume": 267.35572949211905,
  "density": 7.896613089187106,
  "density_atomic": 33.41946618651488,
  "symmetry": null,
  "property_name": null,
  "material_id": "mp-975658",
  "deprecated": null,
  "deprecation_reasons": null,
  "last_updated": null,
  "origins": null,
  "warnings": null,
  "structure": {
    "@module": "pymatgen.core.structure",
    "@class": "Structure",
    "charge": 0,
    "lattice": {
      "matrix": [
        [7.28780835, -1.06e-6, 0.0],
        [-3.64390524, 6.3114270900000005, -0.0],
        [-0.0, 0.0, 5.81252748]
      ],
      "pbc": [true, true, true],
      "a": 7.287808350000076,
      "b": 7.287808814073358,
      "c": 5.81252748,
      "alpha": 90.0,
      "beta": 90.0,
      "gamma": 120.00001589530474,
      "volume": 267.3557294921191
    },
    "properties": {},
    "sites": [
      {
        "species": [{ "element": "Pr", "occu": 1 }],
        "abc": [0.666666, 0.333331999999999, 0.250001],
        "properties": { "magmom": 0.28700000000000003 },
        "label": "Pr",
        "xyz": [3.6439038200014235, 2.103799908097914, 1.4531376825274798]
      },
      {
        "species": [{ "element": "Pr", "occu": 1 }],
        "abc": [0.333333999999999, 0.666667999999999, 0.750000999999999],
        "properties": { "magmom": 0.28700000000000003 },
        "label": "Pr",
        "xyz": [-7.100014238758945e-7, 4.207626121902074, 4.359401422527474]
      },
      {
        "species": [{ "element": "Ho", "occu": 1 }],
        "abc": [0.8360544400000001, 0.67210987, 0.750000999999999],
        "properties": { "magmom": 0.443 },
        "label": "Ho",
        "xyz": [3.643899851737855, 4.241971554756672, 4.359401422527474]
      },
      {
        "species": [{ "element": "Ho", "occu": 1 }],
        "abc": [0.83605344, 0.16394656, 0.750000999999999],
        "properties": { "magmom": 0.443 },
        "label": "Ho",
        "xyz": [5.495591512014249, 1.0347358738796641, 4.359401422527474]
      },
      {
        "species": [{ "element": "Ho", "occu": 1 }],
        "abc": [0.32789113000000003, 0.16394656, 0.750000999999999],
        "properties": { "magmom": 0.443 },
        "label": "Ho",
        "xyz": [1.7922019860409613, 1.0347364125317127, 4.359401422527474]
      },
      {
        "species": [{ "element": "Ho", "occu": 1 }],
        "abc": [0.67210887, 0.8360544400000001, 0.250001],
        "properties": { "magmom": 0.443 },
        "label": "Ho",
        "xyz": [1.8516974800537978, 5.2766959288953785, 1.4531376825274798]
      },
      {
        "species": [{ "element": "Ho", "occu": 1 }],
        "abc": [0.16394556, 0.8360544400000001, 0.250001],
        "properties": { "magmom": 0.443 },
        "label": "Ho",
        "xyz": [-1.85169933372784, 5.276696467548487, 1.4531376825274798]
      },
      {
        "species": [{ "element": "Ho", "occu": 1 }],
        "abc": [0.16394556, 0.32789013, 0.250001],
        "properties": { "magmom": 0.443 },
        "label": "Ho",
        "xyz": [3.25826214475633e-6, 2.0694544752433286, 1.4531376825274798]
      }
    ]
  },
  "task_ids": null,
  "uncorrected_energy_per_atom": null,
  "energy_per_atom": -31.998834863749998,
  "formation_energy_per_atom": 0.013162164583331,
  "energy_above_hull": 0.013162164583331,
  "is_stable": false,
  "equilibrium_reaction_energy_per_atom": null,
  "decomposes_to": null,
  "xas": null,
  "grain_boundaries": null,
  "band_gap": 0.0,
  "cbm": null,
  "vbm": null,
  "efermi": 3.14233113,
  "is_gap_direct": null,
  "is_metal": null,
  "es_source_calc_id": null,
  "bandstructure": null,
  "dos": null,
  "dos_energy_up": null,
  "dos_energy_down": null,
  "is_magnetic": null,
  "ordering": null,
  "total_magnetization": 4.8799794,
  "total_magnetization_normalized_vol": null,
  "total_magnetization_normalized_formula_units": null,
  "num_magnetic_sites": null,
  "num_unique_magnetic_sites": null,
  "types_of_magnetic_species": null,
  "bulk_modulus": null,
  "shear_modulus": null,
  "universal_anisotropy": null,
  "homogeneous_poisson": null,
  "e_total": null,
  "e_ionic": null,
  "e_electronic": null,
  "n": null,
  "e_ij_max": null,
  "weighted_surface_energy_EV_PER_ANG2": null,
  "weighted_surface_energy": null,
  "weighted_work_function": null,
  "surface_anisotropy": null,
  "shape_factor": null,
  "has_reconstructed": null,
  "possible_species": null,
  "has_props": null,
  "theoretical": null,
  "database_IDs": null,
  "fields_not_requested": [
    "builder_meta",
    "nsites",
    "elements",
    "nelements",
    "composition",
    "composition_reduced",
    "chemsys",
    "symmetry",
    "property_name",
    "deprecated",
    "deprecation_reasons",
    "last_updated",
    "origins",
    "warnings",
    "task_ids",
    "uncorrected_energy_per_atom",
    "equilibrium_reaction_energy_per_atom",
    "decomposes_to",
    "xas",
    "grain_boundaries",
    "cbm",
    "vbm",
    "is_gap_direct",
    "is_metal",
    "es_source_calc_id",
    "bandstructure",
    "dos",
    "dos_energy_up",
    "dos_energy_down",
    "is_magnetic",
    "ordering",
    "total_magnetization_normalized_vol",
    "total_magnetization_normalized_formula_units",
    "num_magnetic_sites",
    "num_unique_magnetic_sites",
    "types_of_magnetic_species",
    "bulk_modulus",
    "shear_modulus",
    "universal_anisotropy",
    "homogeneous_poisson",
    "e_total",
    "e_ionic",
    "e_electronic",
    "n",
    "e_ij_max",
    "weighted_surface_energy_EV_PER_ANG2",
    "weighted_surface_energy",
    "weighted_work_function",
    "surface_anisotropy",
    "shape_factor",
    "has_reconstructed",
    "possible_species",
    "has_props",
    "theoretical",
    "database_IDs"
  ]
}
