{
  "builder_meta": null,
  "nsites": null,
  "elements": null,
  "nelements": null,
  "composition": null,
  "composition_reduced": null,
  "formula_pretty": "PrI2",
  "formula_anonymous": "AB2",
  "chemsys": null,
  "volume": 497.4689802665427,
  "density": 5.27021658780775,
  "density_atomic": 41.455748355545225,
  "symmetry": null,
  "property_name": null,
  "material_id": "mp-569673",
  "deprecated": null,
  "deprecation_reasons": null,
  "last_updated": null,
  "origins": null,
  "warnings": null,
  "structure": {
    "@module": "pymatgen.core.structure",
    "@class": "Structure",
    "charge": 0,
    "lattice": {
      "matrix": [
        [7.70265227, -0.00111134, 4.44580225],
        [2.5658939800000002, 7.26286707, 4.44680416],
        [-0.00031737000000000003, 0.00100796, 8.89214704]
      ],
      "pbc": [true, true, true],
      "a": 8.893593810924681,
      "b": 8.89421819107694,
      "c": 8.892147102791757,
      "alpha": 59.99682573913536,
      "beta": 60.00944506433755,
      "gamma": 60.020951285546815,
      "volume": 497.4689802665427
    },
    "properties": {},
    "sites": [
      {
        "species": [{ "element": "Pr", "occu": 1 }],
        "abc": [0.36050954, 0.36063738, 0.360522299999999],
        "properties": { "magmom": 0.218 },
        "label": "Pr",
        "xyz": [3.702122489980277, 2.619224094798401, 6.412255228512949]
      },
      {
        "species": [{ "element": "Pr", "occu": 1 }],
        "abc": [0.3605315, 0.9183551, 0.36054943],
        "properties": { "magmom": 0.217 },
        "label": "Pr",
        "xyz": [5.133336171901204, 6.669853760682811, 8.892655579681279]
      },
      {
        "species": [{ "element": "Pr", "occu": 1 }],
        "abc": [0.36082072, 0.36045233, 0.91825963],
        "properties": { "magmom": 0.217 },
        "label": "Pr",
        "xyz": [3.7038675735362343, 2.618441932339463, 11.372298140204308]
      },
      {
        "species": [{ "element": "Pr", "occu": 1 }],
        "abc": [0.91815526, 0.36048471, 0.36079523],
        "properties": { "magmom": 0.215 },
        "label": "Pr",
        "xyz": [7.997081739340341, 2.617495813990882, 8.893185865292349]
      },
      {
        "species": [{ "element": "I", "occu": 1 }],
        "abc": [0.62314782, 0.62315337, 0.62294374],
        "properties": { "magmom": 0.004 },
        "label": "I",
        "xyz": [6.3986387473135, 4.525815463806418, 11.080740312000144]
      },
      {
        "species": [{ "element": "I", "occu": 1 }],
        "abc": [0.11166664, 0.66453037, 0.111657399999999],
        "properties": { "magmom": -0.01 },
        "label": "I",
        "xyz": [2.5652083372804078, 4.826384187877123, 4.4443582320283666]
      },
      {
        "species": [{ "element": "I", "occu": 1 }],
        "abc": [0.62308578, 0.13076317, 0.62296847],
        "properties": { "magmom": 0.004 },
        "label": "I",
        "xyz": [5.134739816927114, 0.949650988510088, 8.89112160752162]
      },
      {
        "species": [{ "element": "I", "occu": 1 }],
        "abc": [0.13112472, 0.62302413, 0.62293398],
        "properties": { "magmom": 0.004 },
        "label": "I",
        "xyz": [2.6084242861656195, 4.5254236059805555, 8.89264141464342]
      },
      {
        "species": [{ "element": "I", "occu": 1 }],
        "abc": [0.6647006400000001, 0.11182302000000001, 0.11184923000000001],
        "properties": { "magmom": -0.01 },
        "label": "I",
        "xyz": [5.406848409819748, 0.8115297607665647, 4.446962470878983]
      },
      {
        "species": [{ "element": "I", "occu": 1 }],
        "abc": [0.11147265, 0.11197372, 0.11172497],
        "properties": { "magmom": -0.01 },
        "label": "I",
        "xyz": [1.1459122964778923, 0.8132389739793107, 1.9869854233697266]
      },
      {
        "species": [{ "element": "I", "occu": 1 }],
        "abc": [0.62300157, 0.62321865, 0.1308214],
        "properties": { "magmom": 0.004 },
        "label": "I",
        "xyz": [6.397835920845074, 4.525793706668396, 6.704356191847772]
      },
      {
        "species": [{ "element": "I", "occu": 1 }],
        "abc": [0.11178618, 0.11158404, 0.6649722100000001],
        "properties": { "magmom": -0.01 },
        "label": "I",
        "xyz": [1.14715184740142, 0.8109660825890732, 6.90620229265827]
      }
    ]
  },
  "task_ids": null,
  "uncorrected_energy_per_atom": null,
  "energy_per_atom": -4.182305339166665,
  "formation_energy_per_atom": -1.567806443055554,
  "energy_above_hull": 0.0,
  "is_stable": true,
  "equilibrium_reaction_energy_per_atom": null,
  "decomposes_to": null,
  "xas": null,
  "grain_boundaries": null,
  "band_gap": 0.0,
  "cbm": null,
  "vbm": null,
  "efermi": 4.25838298,
  "is_gap_direct": null,
  "is_metal": null,
  "es_source_calc_id": null,
  "bandstructure": null,
  "dos": null,
  "dos_energy_up": null,
  "dos_energy_down": null,
  "is_magnetic": null,
  "ordering": null,
  "total_magnetization": 1.797113599999999,
  "total_magnetization_normalized_vol": null,
  "total_magnetization_normalized_formula_units": null,
  "num_magnetic_sites": null,
  "num_unique_magnetic_sites": null,
  "types_of_magnetic_species": null,
  "bulk_modulus": null,
  "shear_modulus": null,
  "universal_anisotropy": null,
  "homogeneous_poisson": null,
  "e_total": null,
  "e_ionic": null,
  "e_electronic": null,
  "n": null,
  "e_ij_max": null,
  "weighted_surface_energy_EV_PER_ANG2": null,
  "weighted_surface_energy": null,
  "weighted_work_function": null,
  "surface_anisotropy": null,
  "shape_factor": null,
  "has_reconstructed": null,
  "possible_species": null,
  "has_props": null,
  "theoretical": null,
  "database_IDs": null,
  "fields_not_requested": [
    "builder_meta",
    "nsites",
    "elements",
    "nelements",
    "composition",
    "composition_reduced",
    "chemsys",
    "symmetry",
    "property_name",
    "deprecated",
    "deprecation_reasons",
    "last_updated",
    "origins",
    "warnings",
    "task_ids",
    "uncorrected_energy_per_atom",
    "equilibrium_reaction_energy_per_atom",
    "decomposes_to",
    "xas",
    "grain_boundaries",
    "cbm",
    "vbm",
    "is_gap_direct",
    "is_metal",
    "es_source_calc_id",
    "bandstructure",
    "dos",
    "dos_energy_up",
    "dos_energy_down",
    "is_magnetic",
    "ordering",
    "total_magnetization_normalized_vol",
    "total_magnetization_normalized_formula_units",
    "num_magnetic_sites",
    "num_unique_magnetic_sites",
    "types_of_magnetic_species",
    "bulk_modulus",
    "shear_modulus",
    "universal_anisotropy",
    "homogeneous_poisson",
    "e_total",
    "e_ionic",
    "e_electronic",
    "n",
    "e_ij_max",
    "weighted_surface_energy_EV_PER_ANG2",
    "weighted_surface_energy",
    "weighted_work_function",
    "surface_anisotropy",
    "shape_factor",
    "has_reconstructed",
    "possible_species",
    "has_props",
    "theoretical",
    "database_IDs"
  ]
}
