{"builder_meta": null, "nsites": null, "elements": null, "nelements": null, "composition": null, "composition_reduced": null, "formula_pretty": "PrI3", "formula_anonymous": "AB3", "chemsys": null, "volume": 448.6671082573845, "density": 3.861090470640918, "density_atomic": 56.08338853217306, "symmetry": null, "property_name": null, "material_id": "mp-862800", "deprecated": null, "deprecation_reasons": null, "last_updated": null, "origins": null, "warnings": null, "structure": {"@module": "pymatgen.core.structure", "@class": "Structure", "charge": 0, "lattice": {"matrix": [[11.14355378, 3.0000000000000004e-08, -0.0], [-5.57177434, 9.65059939, 0.0], [0.0, -0.0, 4.17201855]], "pbc": [true, true, true], "a": 11.14355378, "b": 11.143551403486718, "c": 4.17201855, "alpha": 90.0, "beta": 90.0, "gamma": 119.999991761057, "volume": 448.6671082573845}, "properties": {}, "sites": [{"species": [{"element": "Pr", "occu": 1}], "abc": [0.333333, 0.666667, 0.749999], "properties": {"magmom": 0.0}, "label": "Pr", "xyz": [-3.871776040220709e-06, 6.43373615353312, 3.12900974048145]}, {"species": [{"element": "Pr", "occu": 1}], "abc": [0.666667, 0.333333, 0.249998], "properties": {"magmom": 0.0}, "label": "Pr", "xyz": [5.57178331177604, 3.21686326646688, 1.0429962934629]}, {"species": [{"element": "I", "occu": 1}], "abc": [0.20973931, 0.41947761, 0.249998], "properties": {"magmom": -0.0}, "label": "I", "xyz": [6.697162564073267e-06, 4.048210373476837, 1.0429962934629]}, {"species": [{"element": "I", "occu": 1}], "abc": [0.58052239, 0.7902596900000001, 0.249998], "properties": {"magmom": -0.0}, "label": "I", "xyz": [2.0659338107807796, 7.626479699671261, 1.0429962934629]}, {"species": [{"element": "I", "occu": 1}], "abc": [0.20973831, 0.7902596900000001, 0.249998], "properties": {"magmom": -0.0}, "label": "I", "xyz": [-2.0659185254670427, 7.626479688547739, 1.0429962934629]}, {"species": [{"element": "I", "occu": 1}], "abc": [0.79026069, 0.58052239, 0.749999], "properties": {"magmom": -0.0}, "label": "I", "xyz": [5.571772742837435, 5.602389046523164, 3.12900974048145]}, {"species": [{"element": "I", "occu": 1}], "abc": [0.41947761, 0.20973931, 0.749999], "properties": {"magmom": -0.0}, "label": "I", "xyz": [3.5058512009935594, 2.0241100697293493, 3.12900974048145]}, {"species": [{"element": "I", "occu": 1}], "abc": [0.79026169, 0.20973931, 0.749999], "properties": {"magmom": -0.0}, "label": "I", "xyz": [7.637703537241383, 2.024110080852872, 3.12900974048145]}]}, "task_ids": null, "uncorrected_energy_per_atom": null, "energy_per_atom": -4.031601523749998, "formation_energy_per_atom": -1.689724197916664, "energy_above_hull": 0.0, "is_stable": true, "equilibrium_reaction_energy_per_atom": null, "decomposes_to": null, "xas": null, "grain_boundaries": null, "band_gap": 1.9493, "cbm": null, "vbm": null, "efermi": -0.09357144, "is_gap_direct": null, "is_metal": null, "es_source_calc_id": null, "bandstructure": null, "dos": null, "dos_energy_up": null, "dos_energy_down": null, "is_magnetic": null, "ordering": null, "total_magnetization": 0.0, "total_magnetization_normalized_vol": null, "total_magnetization_normalized_formula_units": null, "num_magnetic_sites": null, "num_unique_magnetic_sites": null, "types_of_magnetic_species": null, "bulk_modulus": null, "shear_modulus": null, "universal_anisotropy": null, "homogeneous_poisson": null, "e_total": null, "e_ionic": null, "e_electronic": null, "n": null, "e_ij_max": null, "weighted_surface_energy_EV_PER_ANG2": null, "weighted_surface_energy": null, "weighted_work_function": null, "surface_anisotropy": null, "shape_factor": null, "has_reconstructed": null, "possible_species": null, "has_props": null, "theoretical": null, "database_IDs": null, "fields_not_requested": ["builder_meta", "nsites", "elements", "nelements", "composition", "composition_reduced", "chemsys", "symmetry", "property_name", "deprecated", "deprecation_reasons", "last_updated", "origins", "warnings", "task_ids", "uncorrected_energy_per_atom", "equilibrium_reaction_energy_per_atom", "decomposes_to", "xas", "grain_boundaries", "cbm", "vbm", "is_gap_direct", "is_metal", "es_source_calc_id", "bandstructure", "dos", "dos_energy_up", "dos_energy_down", "is_magnetic", "ordering", "total_magnetization_normalized_vol", "total_magnetization_normalized_formula_units", "num_magnetic_sites", "num_unique_magnetic_sites", "types_of_magnetic_species", "bulk_modulus", "shear_modulus", "universal_anisotropy", "homogeneous_poisson", "e_total", "e_ionic", "e_electronic", "n", "e_ij_max", "weighted_surface_energy_EV_PER_ANG2", "weighted_surface_energy", "weighted_work_function", "surface_anisotropy", "shape_factor", "has_reconstructed", "possible_species", "has_props", "theoretical", "database_IDs"]}