{"builder_meta": null, "nsites": null, "elements": null, "nelements": null, "composition": null, "composition_reduced": null, "formula_pretty": "PrI6", "formula_anonymous": "AB6", "chemsys": null, "volume": 9098.742861660898, "density": 0.16467787488405702, "density_atomic": 1299.8204088086998, "symmetry": null, "property_name": null, "material_id": "mp-1206823", "deprecated": null, "deprecation_reasons": null, "last_updated": null, "origins": null, "warnings": null, "structure": {"@module": "pymatgen.core.structure", "@class": "Structure", "charge": 0, "lattice": {"matrix": [[-7.29673023, -12.63830766, 0.0], [-4.39644667, 10.9638282, 0.0], [0.0, 0.0, -67.11782006]], "pbc": [true, true, true], "a": 14.593460609403465, "b": 11.812462576502384, "c": 67.11782006, "alpha": 90.0, "beta": 90.0, "gamma": 128.14943304500264, "volume": 9098.742861660898}, "properties": {}, "sites": [{"species": [{"element": "Pr", "occu": 1}], "abc": [0.0, 0.0, 0.0], "properties": {"magmom": -0.022}, "label": "Pr", "xyz": [0.0, 0.0, 0.0]}, {"species": [{"element": "I", "occu": 1}], "abc": [0.0, 0.0, 0.7500095], "properties": {"magmom": 0.5650000000000001}, "label": "I", "xyz": [0.0, 0.0, -50.33900266429057]}, {"species": [{"element": "I", "occu": 1}], "abc": [0.0, 0.0, 0.24999049999999903], "properties": {"magmom": 0.5650000000000001}, "label": "I", "xyz": [0.0, 0.0, -16.778817395709364]}, {"species": [{"element": "I", "occu": 1}], "abc": [0.74083728, 0.75924773, -0.0], "properties": {"magmom": 0.166}, "label": "I", "xyz": [-8.743681930750533, -1.0386677976775793, 0.0]}, {"species": [{"element": "I", "occu": 1}], "abc": [0.25916272, 0.24075227000000002, 0.0], "properties": {"magmom": 0.166}, "label": "I", "xyz": [-2.9494949692494665, -0.6358116623224213, 0.0]}, {"species": [{"element": "I", "occu": 1}], "abc": [0.98158956, 0.24075227000000002, 0.0], "properties": {"magmom": 0.167}, "label": "I", "xyz": [-8.220848731640839, -9.766064328084017, 0.0]}, {"species": [{"element": "I", "occu": 1}], "abc": [0.01841044, 0.75924773, -0.0], "properties": {"magmom": 0.167}, "label": "I", "xyz": [-3.47232816835916, 8.091584868084016, 0.0]}]}, "task_ids": null, "uncorrected_energy_per_atom": null, "energy_per_atom": -2.408160011428571, "formation_energy_per_atom": -0.41679613309523805, "energy_above_hull": 0.54876055142857, "is_stable": false, "equilibrium_reaction_energy_per_atom": null, "decomposes_to": null, "xas": null, "grain_boundaries": null, "band_gap": 0.12710000000000002, "cbm": null, "vbm": null, "efermi": -6.22368989, "is_gap_direct": null, "is_metal": null, "es_source_calc_id": null, "bandstructure": null, "dos": null, "dos_energy_up": null, "dos_energy_down": null, "is_magnetic": null, "ordering": null, "total_magnetization": 1.969268099999999, "total_magnetization_normalized_vol": null, "total_magnetization_normalized_formula_units": null, "num_magnetic_sites": null, "num_unique_magnetic_sites": null, "types_of_magnetic_species": null, "bulk_modulus": null, "shear_modulus": null, "universal_anisotropy": null, "homogeneous_poisson": null, "e_total": null, "e_ionic": null, "e_electronic": null, "n": null, "e_ij_max": null, "weighted_surface_energy_EV_PER_ANG2": null, "weighted_surface_energy": null, "weighted_work_function": null, "surface_anisotropy": null, "shape_factor": null, "has_reconstructed": null, "possible_species": null, "has_props": null, "theoretical": null, "database_IDs": null, "fields_not_requested": ["builder_meta", "nsites", "elements", "nelements", "composition", "composition_reduced", "chemsys", "symmetry", "property_name", "deprecated", "deprecation_reasons", "last_updated", "origins", "warnings", "task_ids", "uncorrected_energy_per_atom", "equilibrium_reaction_energy_per_atom", "decomposes_to", "xas", "grain_boundaries", "cbm", "vbm", "is_gap_direct", "is_metal", "es_source_calc_id", "bandstructure", "dos", "dos_energy_up", "dos_energy_down", "is_magnetic", "ordering", "total_magnetization_normalized_vol", "total_magnetization_normalized_formula_units", "num_magnetic_sites", "num_unique_magnetic_sites", "types_of_magnetic_species", "bulk_modulus", "shear_modulus", "universal_anisotropy", "homogeneous_poisson", "e_total", "e_ionic", "e_electronic", "n", "e_ij_max", "weighted_surface_energy_EV_PER_ANG2", "weighted_surface_energy", "weighted_work_function", "surface_anisotropy", "shape_factor", "has_reconstructed", "possible_species", "has_props", "theoretical", "database_IDs"]}