{
  "builder_meta": null,
  "nsites": null,
  "elements": null,
  "nelements": null,
  "composition": null,
  "composition_reduced": null,
  "formula_pretty": "PrIr3",
  "formula_anonymous": "AB3",
  "chemsys": null,
  "volume": 147.80355023079457,
  "density": 16.12321448356526,
  "density_atomic": 18.47544377884932,
  "symmetry": null,
  "property_name": null,
  "material_id": "mp-1186752",
  "deprecated": null,
  "deprecation_reasons": null,
  "last_updated": null,
  "origins": null,
  "warnings": null,
  "structure": {
    "@module": "pymatgen.core.structure",
    "@class": "Structure",
    "charge": 0,
    "lattice": {
      "matrix": [
        [3.022639, -5.235365, 0.0],
        [3.022639, 5.235365, 0.0],
        [0.0, 0.0, 4.670051]
      ],
      "pbc": [true, true, true],
      "a": 6.045278588083927,
      "b": 6.045278588083927,
      "c": 4.670051,
      "alpha": 90.0,
      "beta": 90.0,
      "gamma": 120.00000643598442,
      "volume": 147.80355023079457
    },
    "properties": {},
    "sites": [
      {
        "species": [{ "element": "Pr", "occu": 1 }],
        "abc": [0.333333, 0.666667, 0.75],
        "properties": { "magmom": 0.0 },
        "label": "Pr",
        "xyz": [3.022639, 1.7451251569100001, 3.5025382499999997]
      },
      {
        "species": [{ "element": "Pr", "occu": 1 }],
        "abc": [0.666667, 0.333333, 0.25],
        "properties": { "magmom": 0.0 },
        "label": "Pr",
        "xyz": [3.022639, -1.7451251569100001, 1.16751275]
      },
      {
        "species": [{ "element": "Ir", "occu": 1 }],
        "abc": [0.149071999999999, 0.298143999999999, 0.25],
        "properties": { "magmom": -0.0 },
        "label": "Ir",
        "xyz": [1.351772523023994, 0.7804463312800001, 1.16751275]
      },
      {
        "species": [{ "element": "Ir", "occu": 1 }],
        "abc": [0.701855999999999, 0.850927999999999, 0.25],
        "properties": { "magmom": 0.001 },
        "label": "Ir",
        "xyz": [4.693505476975994, 0.7804463312800003, 1.16751275]
      },
      {
        "species": [{ "element": "Ir", "occu": 1 }],
        "abc": [0.149071999999999, 0.850927999999999, 0.25],
        "properties": { "magmom": -0.001 },
        "label": "Ir",
        "xyz": [3.022638999999994, 3.67447233744, 1.16751275]
      },
      {
        "species": [{ "element": "Ir", "occu": 1 }],
        "abc": [0.850927999999999, 0.701855999999999, 0.75],
        "properties": { "magmom": 0.001 },
        "label": "Ir",
        "xyz": [4.693505476975994, -0.7804463312800003, 3.5025382499999997]
      },
      {
        "species": [{ "element": "Ir", "occu": 1 }],
        "abc": [0.298143999999999, 0.149071999999999, 0.75],
        "properties": { "magmom": -0.0 },
        "label": "Ir",
        "xyz": [1.351772523023994, -0.7804463312800001, 3.5025382499999997]
      },
      {
        "species": [{ "element": "Ir", "occu": 1 }],
        "abc": [0.850927999999999, 0.149071999999999, 0.75],
        "properties": { "magmom": 0.001 },
        "label": "Ir",
        "xyz": [3.022638999999994, -3.67447233744, 3.5025382499999997]
      }
    ]
  },
  "task_ids": null,
  "uncorrected_energy_per_atom": null,
  "energy_per_atom": -46.78788392,
  "formation_energy_per_atom": -0.16737974041667,
  "energy_above_hull": 0.401786733749999,
  "is_stable": false,
  "equilibrium_reaction_energy_per_atom": null,
  "decomposes_to": null,
  "xas": null,
  "grain_boundaries": null,
  "band_gap": 0.0,
  "cbm": null,
  "vbm": null,
  "efermi": 6.71706041,
  "is_gap_direct": null,
  "is_metal": null,
  "es_source_calc_id": null,
  "bandstructure": null,
  "dos": null,
  "dos_energy_up": null,
  "dos_energy_down": null,
  "is_magnetic": null,
  "ordering": null,
  "total_magnetization": 0.0047044,
  "total_magnetization_normalized_vol": null,
  "total_magnetization_normalized_formula_units": null,
  "num_magnetic_sites": null,
  "num_unique_magnetic_sites": null,
  "types_of_magnetic_species": null,
  "bulk_modulus": null,
  "shear_modulus": null,
  "universal_anisotropy": null,
  "homogeneous_poisson": null,
  "e_total": null,
  "e_ionic": null,
  "e_electronic": null,
  "n": null,
  "e_ij_max": null,
  "weighted_surface_energy_EV_PER_ANG2": null,
  "weighted_surface_energy": null,
  "weighted_work_function": null,
  "surface_anisotropy": null,
  "shape_factor": null,
  "has_reconstructed": null,
  "possible_species": null,
  "has_props": null,
  "theoretical": null,
  "database_IDs": null,
  "fields_not_requested": [
    "builder_meta",
    "nsites",
    "elements",
    "nelements",
    "composition",
    "composition_reduced",
    "chemsys",
    "symmetry",
    "property_name",
    "deprecated",
    "deprecation_reasons",
    "last_updated",
    "origins",
    "warnings",
    "task_ids",
    "uncorrected_energy_per_atom",
    "equilibrium_reaction_energy_per_atom",
    "decomposes_to",
    "xas",
    "grain_boundaries",
    "cbm",
    "vbm",
    "is_gap_direct",
    "is_metal",
    "es_source_calc_id",
    "bandstructure",
    "dos",
    "dos_energy_up",
    "dos_energy_down",
    "is_magnetic",
    "ordering",
    "total_magnetization_normalized_vol",
    "total_magnetization_normalized_formula_units",
    "num_magnetic_sites",
    "num_unique_magnetic_sites",
    "types_of_magnetic_species",
    "bulk_modulus",
    "shear_modulus",
    "universal_anisotropy",
    "homogeneous_poisson",
    "e_total",
    "e_ionic",
    "e_electronic",
    "n",
    "e_ij_max",
    "weighted_surface_energy_EV_PER_ANG2",
    "weighted_surface_energy",
    "weighted_work_function",
    "surface_anisotropy",
    "shape_factor",
    "has_reconstructed",
    "possible_species",
    "has_props",
    "theoretical",
    "database_IDs"
  ]
}
