{"builder_meta": null, "nsites": null, "elements": null, "nelements": null, "composition": null, "composition_reduced": null, "formula_pretty": "PrIr2", "formula_anonymous": "AB2", "chemsys": null, "volume": 113.51220378275163, "density": 15.370159402537459, "density_atomic": 18.918700630458606, "symmetry": null, "property_name": null, "material_id": "mp-946", "deprecated": null, "deprecation_reasons": null, "last_updated": null, "origins": null, "warnings": null, "structure": {"@module": "pymatgen.core.structure", "@class": "Structure", "charge": 0, "lattice": {"matrix": [[4.70670027, -0.0, 2.71741495], [1.56889941, 4.43751894, 2.71741495], [1e-08, 1e-08, 5.43482787]], "pbc": [true, true, true], "a": 5.434829476819082, "b": 5.434828765659557, "c": 5.43482787, "alpha": 59.99999296116609, "beta": 59.999997318835796, "gamma": 60.00000112306873, "volume": 113.51220378275163}, "properties": {}, "sites": [{"species": [{"element": "Pr", "occu": 1}], "abc": [0.125, 0.125, 0.125], "properties": {"magmom": 0.0}, "label": "Pr", "xyz": [0.78444996125, 0.55468986875, 1.35870722125]}, {"species": [{"element": "Pr", "occu": 1}], "abc": [0.875, 0.875, 0.875], "properties": {"magmom": 0.0}, "label": "Pr", "xyz": [5.49114972875, 3.88282908125, 9.510950548750001]}, {"species": [{"element": "Ir", "occu": 1}], "abc": [-0.0, 0.5, 0.5], "properties": {"magmom": -0.0}, "label": "Ir", "xyz": [0.78444971, 2.218759475, 4.076121410000001]}, {"species": [{"element": "Ir", "occu": 1}], "abc": [0.5, 0.0, 0.5], "properties": {"magmom": -0.0}, "label": "Ir", "xyz": [2.35335014, 5e-09, 4.076121410000001]}, {"species": [{"element": "Ir", "occu": 1}], "abc": [0.5, 0.5, 0.0], "properties": {"magmom": -0.0}, "label": "Ir", "xyz": [3.13779984, 2.21875947, 2.71741495]}, {"species": [{"element": "Ir", "occu": 1}], "abc": [0.5, 0.5, 0.5], "properties": {"magmom": -0.0}, "label": "Ir", "xyz": [3.137799845, 2.218759475, 5.434828885]}]}, "task_ids": null, "uncorrected_energy_per_atom": null, "energy_per_atom": -45.466443055000006, "formation_energy_per_atom": -0.758888632222228, "energy_above_hull": 0.0, "is_stable": true, "equilibrium_reaction_energy_per_atom": null, "decomposes_to": null, "xas": null, "grain_boundaries": null, "band_gap": 0.0, "cbm": null, "vbm": null, "efermi": 6.97343159, "is_gap_direct": null, "is_metal": null, "es_source_calc_id": null, "bandstructure": null, "dos": null, "dos_energy_up": null, "dos_energy_down": null, "is_magnetic": null, "ordering": null, "total_magnetization": 0.0, "total_magnetization_normalized_vol": null, "total_magnetization_normalized_formula_units": null, "num_magnetic_sites": null, "num_unique_magnetic_sites": null, "types_of_magnetic_species": null, "bulk_modulus": null, "shear_modulus": null, "universal_anisotropy": null, "homogeneous_poisson": null, "e_total": null, "e_ionic": null, "e_electronic": null, "n": null, "e_ij_max": null, "weighted_surface_energy_EV_PER_ANG2": null, "weighted_surface_energy": null, "weighted_work_function": null, "surface_anisotropy": null, "shape_factor": null, "has_reconstructed": null, "possible_species": null, "has_props": null, "theoretical": null, "database_IDs": null, "fields_not_requested": ["builder_meta", "nsites", "elements", "nelements", "composition", "composition_reduced", "chemsys", "symmetry", "property_name", "deprecated", "deprecation_reasons", "last_updated", "origins", "warnings", "task_ids", "uncorrected_energy_per_atom", "equilibrium_reaction_energy_per_atom", "decomposes_to", "xas", "grain_boundaries", "cbm", "vbm", "is_gap_direct", "is_metal", "es_source_calc_id", "bandstructure", "dos", "dos_energy_up", "dos_energy_down", "is_magnetic", "ordering", "total_magnetization_normalized_vol", "total_magnetization_normalized_formula_units", "num_magnetic_sites", "num_unique_magnetic_sites", "types_of_magnetic_species", "bulk_modulus", "shear_modulus", "universal_anisotropy", "homogeneous_poisson", "e_total", "e_ionic", "e_electronic", "n", "e_ij_max", "weighted_surface_energy_EV_PER_ANG2", "weighted_surface_energy", "weighted_work_function", "surface_anisotropy", "shape_factor", "has_reconstructed", "possible_species", "has_props", "theoretical", "database_IDs"]}