{
  "builder_meta": null,
  "nsites": null,
  "elements": null,
  "nelements": null,
  "composition": null,
  "composition_reduced": null,
  "formula_pretty": "PrLu3",
  "formula_anonymous": "AB3",
  "chemsys": null,
  "volume": 252.378007932691,
  "density": 8.761470805333158,
  "density_atomic": 31.547250991586374,
  "symmetry": null,
  "property_name": null,
  "material_id": "mp-978088",
  "deprecated": null,
  "deprecation_reasons": null,
  "last_updated": null,
  "origins": null,
  "warnings": null,
  "structure": {
    "@module": "pymatgen.core.structure",
    "@class": "Structure",
    "charge": 0,
    "lattice": {
      "matrix": [
        [7.1637909, 2.661e-5, -0.0],
        [-3.58187295, 6.20398449, 0.0],
        [0.0, 0.0, 5.6785437]
      ],
      "pbc": [true, true, true],
      "a": 7.163790900049422,
      "b": 7.163744648024681,
      "c": 5.6785437,
      "alpha": 90.0,
      "beta": 90.0,
      "gamma": 119.99979295523353,
      "volume": 252.378007932691
    },
    "properties": {},
    "sites": [
      {
        "species": [{ "element": "Pr", "occu": 1 }],
        "abc": [0.33332733000000003, 0.6666641600000001, 0.749999],
        "properties": { "magmom": 0.257 },
        "label": "Pr",
        "xyz": [-1.9028063174886256e-5, 4.13598297851913, 4.2589020964563]
      },
      {
        "species": [{ "element": "Pr", "occu": 1 }],
        "abc": [0.66666309, 0.33333104, 0.25],
        "properties": { "magmom": 0.257 },
        "label": "Pr",
        "xyz": [3.581885541936513, 2.067998342100395, 1.419635925]
      },
      {
        "species": [{ "element": "Lu", "occu": 1 }],
        "abc": [0.16342796, 0.32684131, 0.25],
        "properties": { "magmom": 0.333 },
        "label": "Lu",
        "xyz": [5.96854219994114e-5, 2.027722766749297, 1.419635925]
      },
      {
        "species": [{ "element": "Lu", "occu": 1 }],
        "abc": [0.67315033, 0.83657366, 0.25],
        "properties": { "magmom": 0.333 },
        "label": "Lu",
        "xyz": [1.8258076449495007, 5.190107923912815, 1.419635925]
      },
      {
        "species": [{ "element": "Lu", "occu": 1 }],
        "abc": [0.16342696, 0.83658465, 0.25],
        "properties": { "magmom": 0.333 },
        "label": "Lu",
        "xyz": [-1.8257833593575536, 5.190162541963484, 1.419635925]
      },
      {
        "species": [{ "element": "Lu", "occu": 1 }],
        "abc": [0.83659472, 0.67317191, 0.749999],
        "properties": { "magmom": 0.333 },
        "label": "Lu",
        "xyz": [3.5819733869952137, 4.176370350529175, 4.2589020964563]
      },
      {
        "species": [{ "element": "Lu", "occu": 1 }],
        "abc": [0.3268159, 0.16340945, 0.749999],
        "properties": { "magmom": 0.333 },
        "label": "Lu",
        "xyz": [1.7559288816659326, 1.0137983898905296, 4.2589020964563]
      },
      {
        "species": [{ "element": "Lu", "occu": 1 }],
        "abc": [0.83659372, 0.16342381, 0.749999],
        "properties": { "magmom": 0.333 },
        "label": "Lu",
        "xyz": [5.407819153908209, 1.013901044295596, 4.2589020964563]
      }
    ]
  },
  "task_ids": null,
  "uncorrected_energy_per_atom": null,
  "energy_per_atom": -35.903919595,
  "formation_energy_per_atom": 0.0069796345833380005,
  "energy_above_hull": 0.0069796345833380005,
  "is_stable": false,
  "equilibrium_reaction_energy_per_atom": null,
  "decomposes_to": null,
  "xas": null,
  "grain_boundaries": null,
  "band_gap": 0.0,
  "cbm": null,
  "vbm": null,
  "efermi": 3.07754747,
  "is_gap_direct": null,
  "is_metal": null,
  "es_source_calc_id": null,
  "bandstructure": null,
  "dos": null,
  "dos_energy_up": null,
  "dos_energy_down": null,
  "is_magnetic": null,
  "ordering": null,
  "total_magnetization": 4.1225562,
  "total_magnetization_normalized_vol": null,
  "total_magnetization_normalized_formula_units": null,
  "num_magnetic_sites": null,
  "num_unique_magnetic_sites": null,
  "types_of_magnetic_species": null,
  "bulk_modulus": null,
  "shear_modulus": null,
  "universal_anisotropy": null,
  "homogeneous_poisson": null,
  "e_total": null,
  "e_ionic": null,
  "e_electronic": null,
  "n": null,
  "e_ij_max": null,
  "weighted_surface_energy_EV_PER_ANG2": null,
  "weighted_surface_energy": null,
  "weighted_work_function": null,
  "surface_anisotropy": null,
  "shape_factor": null,
  "has_reconstructed": null,
  "possible_species": null,
  "has_props": null,
  "theoretical": null,
  "database_IDs": null,
  "fields_not_requested": [
    "builder_meta",
    "nsites",
    "elements",
    "nelements",
    "composition",
    "composition_reduced",
    "chemsys",
    "symmetry",
    "property_name",
    "deprecated",
    "deprecation_reasons",
    "last_updated",
    "origins",
    "warnings",
    "task_ids",
    "uncorrected_energy_per_atom",
    "equilibrium_reaction_energy_per_atom",
    "decomposes_to",
    "xas",
    "grain_boundaries",
    "cbm",
    "vbm",
    "is_gap_direct",
    "is_metal",
    "es_source_calc_id",
    "bandstructure",
    "dos",
    "dos_energy_up",
    "dos_energy_down",
    "is_magnetic",
    "ordering",
    "total_magnetization_normalized_vol",
    "total_magnetization_normalized_formula_units",
    "num_magnetic_sites",
    "num_unique_magnetic_sites",
    "types_of_magnetic_species",
    "bulk_modulus",
    "shear_modulus",
    "universal_anisotropy",
    "homogeneous_poisson",
    "e_total",
    "e_ionic",
    "e_electronic",
    "n",
    "e_ij_max",
    "weighted_surface_energy_EV_PER_ANG2",
    "weighted_surface_energy",
    "weighted_work_function",
    "surface_anisotropy",
    "shape_factor",
    "has_reconstructed",
    "possible_species",
    "has_props",
    "theoretical",
    "database_IDs"
  ]
}
