{
  "builder_meta": null,
  "nsites": null,
  "elements": null,
  "nelements": null,
  "composition": null,
  "composition_reduced": null,
  "formula_pretty": "PrMn2",
  "formula_anonymous": "AB2",
  "chemsys": null,
  "volume": 224.72405629898688,
  "density": 7.412400868806042,
  "density_atomic": 18.72700469158224,
  "symmetry": null,
  "property_name": null,
  "material_id": "mp-1102427",
  "deprecated": null,
  "deprecation_reasons": null,
  "last_updated": null,
  "origins": null,
  "warnings": null,
  "structure": {
    "@module": "pymatgen.core.structure",
    "@class": "Structure",
    "charge": 0,
    "lattice": {
      "matrix": [
        [-2.778636, -4.810065, 0.0],
        [-2.778636, 4.810065, 0.0],
        [0.0, 0.0, -8.406921]
      ],
      "pbc": [true, true, true],
      "a": 5.554956644720191,
      "b": 5.554956644720191,
      "c": 8.406921,
      "alpha": 90.0,
      "beta": 90.0,
      "gamma": 119.97242223002931,
      "volume": 224.72405629898688
    },
    "properties": {},
    "sites": [
      {
        "species": [{ "element": "Pr", "occu": 1 }],
        "abc": [0.666671, 0.333329, 0.557283],
        "properties": { "magmom": -0.221 },
        "label": "Pr",
        "xyz": [-2.778636, -1.60339668723, -4.685034155643]
      },
      {
        "species": [{ "element": "Pr", "occu": 1 }],
        "abc": [0.333329, 0.666671, 0.44271699999999903],
        "properties": { "magmom": -0.221 },
        "label": "Pr",
        "xyz": [-2.778636, 1.60339668723, -3.721886844356992]
      },
      {
        "species": [{ "element": "Pr", "occu": 1 }],
        "abc": [0.333329, 0.666671, 0.057283],
        "properties": { "magmom": -0.217 },
        "label": "Pr",
        "xyz": [-2.778636, 1.60339668723, -0.48157365564300003]
      },
      {
        "species": [{ "element": "Pr", "occu": 1 }],
        "abc": [0.666671, 0.333329, 0.942716999999999],
        "properties": { "magmom": -0.217 },
        "label": "Pr",
        "xyz": [-2.778636, -1.60339668723, -7.925347344356992]
      },
      {
        "species": [{ "element": "Mn", "occu": 1 }],
        "abc": [0.0, 0.0, 0.5],
        "properties": { "magmom": -2.797 },
        "label": "Mn",
        "xyz": [0.0, 0.0, -4.2034605]
      },
      {
        "species": [{ "element": "Mn", "occu": 1 }],
        "abc": [0.0, 0.0, 0.0],
        "properties": { "magmom": -2.807 },
        "label": "Mn",
        "xyz": [0.0, 0.0, 0.0]
      },
      {
        "species": [{ "element": "Mn", "occu": 1 }],
        "abc": [0.160946, 0.321944, 0.75],
        "properties": { "magmom": 2.685 },
        "label": "Mn",
        "xyz": [-1.34177553804, 0.7744108448699999, -6.30519075]
      },
      {
        "species": [{ "element": "Mn", "occu": 1 }],
        "abc": [0.16106499999999901, 0.838935, 0.75],
        "properties": { "magmom": 2.734 },
        "label": "Mn",
        "xyz": [-2.7786359999999974, 3.2605987615500047, -6.30519075]
      },
      {
        "species": [{ "element": "Mn", "occu": 1 }],
        "abc": [0.678056, 0.839054, 0.75],
        "properties": { "magmom": 2.785 },
        "label": "Mn",
        "xyz": [-4.21549646196, 0.7744108448699998, -6.30519075]
      },
      {
        "species": [{ "element": "Mn", "occu": 1 }],
        "abc": [0.839054, 0.678056, 0.25],
        "properties": { "magmom": 2.685 },
        "label": "Mn",
        "xyz": [-4.21549646196, -0.7744108448699998, -2.10173025]
      },
      {
        "species": [{ "element": "Mn", "occu": 1 }],
        "abc": [0.838935, 0.16106499999999901, 0.25],
        "properties": { "magmom": 2.734 },
        "label": "Mn",
        "xyz": [-2.7786359999999974, -3.2605987615500047, -2.10173025]
      },
      {
        "species": [{ "element": "Mn", "occu": 1 }],
        "abc": [0.321944, 0.160946, 0.25],
        "properties": { "magmom": 2.785 },
        "label": "Mn",
        "xyz": [-1.34177553804, -0.7744108448699999, -2.10173025]
      }
    ]
  },
  "task_ids": null,
  "uncorrected_energy_per_atom": null,
  "energy_per_atom": -19.3777464467433,
  "formation_energy_per_atom": 0.212462126379307,
  "energy_above_hull": 0.21246212637931003,
  "is_stable": false,
  "equilibrium_reaction_energy_per_atom": null,
  "decomposes_to": null,
  "xas": null,
  "grain_boundaries": null,
  "band_gap": 0.0,
  "cbm": null,
  "vbm": null,
  "efermi": 4.8217376100000005,
  "is_gap_direct": null,
  "is_metal": null,
  "es_source_calc_id": null,
  "bandstructure": null,
  "dos": null,
  "dos_energy_up": null,
  "dos_energy_down": null,
  "is_magnetic": null,
  "ordering": null,
  "total_magnetization": 9.773536,
  "total_magnetization_normalized_vol": null,
  "total_magnetization_normalized_formula_units": null,
  "num_magnetic_sites": null,
  "num_unique_magnetic_sites": null,
  "types_of_magnetic_species": null,
  "bulk_modulus": null,
  "shear_modulus": null,
  "universal_anisotropy": null,
  "homogeneous_poisson": null,
  "e_total": null,
  "e_ionic": null,
  "e_electronic": null,
  "n": null,
  "e_ij_max": null,
  "weighted_surface_energy_EV_PER_ANG2": null,
  "weighted_surface_energy": null,
  "weighted_work_function": null,
  "surface_anisotropy": null,
  "shape_factor": null,
  "has_reconstructed": null,
  "possible_species": null,
  "has_props": null,
  "theoretical": null,
  "database_IDs": null,
  "fields_not_requested": [
    "builder_meta",
    "nsites",
    "elements",
    "nelements",
    "composition",
    "composition_reduced",
    "chemsys",
    "symmetry",
    "property_name",
    "deprecated",
    "deprecation_reasons",
    "last_updated",
    "origins",
    "warnings",
    "task_ids",
    "uncorrected_energy_per_atom",
    "equilibrium_reaction_energy_per_atom",
    "decomposes_to",
    "xas",
    "grain_boundaries",
    "cbm",
    "vbm",
    "is_gap_direct",
    "is_metal",
    "es_source_calc_id",
    "bandstructure",
    "dos",
    "dos_energy_up",
    "dos_energy_down",
    "is_magnetic",
    "ordering",
    "total_magnetization_normalized_vol",
    "total_magnetization_normalized_formula_units",
    "num_magnetic_sites",
    "num_unique_magnetic_sites",
    "types_of_magnetic_species",
    "bulk_modulus",
    "shear_modulus",
    "universal_anisotropy",
    "homogeneous_poisson",
    "e_total",
    "e_ionic",
    "e_electronic",
    "n",
    "e_ij_max",
    "weighted_surface_energy_EV_PER_ANG2",
    "weighted_surface_energy",
    "weighted_work_function",
    "surface_anisotropy",
    "shape_factor",
    "has_reconstructed",
    "possible_species",
    "has_props",
    "theoretical",
    "database_IDs"
  ]
}
