{
  "builder_meta": null,
  "nsites": null,
  "elements": null,
  "nelements": null,
  "composition": null,
  "composition_reduced": null,
  "formula_pretty": "PrMo3",
  "formula_anonymous": "AB3",
  "chemsys": null,
  "volume": 177.65904868280379,
  "density": 8.014441336198828,
  "density_atomic": 22.207381085350473,
  "symmetry": null,
  "property_name": null,
  "material_id": "mp-978086",
  "deprecated": null,
  "deprecation_reasons": null,
  "last_updated": null,
  "origins": null,
  "warnings": null,
  "structure": {
    "@module": "pymatgen.core.structure",
    "@class": "Structure",
    "charge": 0,
    "lattice": {
      "matrix": [
        [3.403318, -5.89472, 0.0],
        [3.403318, 5.89472, 0.0],
        [0.0, 0.0, 4.427837]
      ],
      "pbc": [true, true, true],
      "a": 6.8066362681962085,
      "b": 6.8066362681962085,
      "c": 4.427837,
      "alpha": 90.0,
      "beta": 90.0,
      "gamma": 120.00000260682627,
      "volume": 177.65904868280379
    },
    "properties": {},
    "sites": [
      {
        "species": [{ "element": "Pr", "occu": 1 }],
        "abc": [0.333333, 0.666667, 0.75],
        "properties": { "magmom": 0.0 },
        "label": "Pr",
        "xyz": [3.4033180000000005, 1.9649105964800002, 3.32087775]
      },
      {
        "species": [{ "element": "Pr", "occu": 1 }],
        "abc": [0.666667, 0.333333, 0.25],
        "properties": { "magmom": 0.0 },
        "label": "Pr",
        "xyz": [3.4033180000000005, -1.9649105964800002, 1.10695925]
      },
      {
        "species": [{ "element": "Mo", "occu": 1 }],
        "abc": [0.129765, 0.25953000000000004, 0.25],
        "properties": { "magmom": -0.0 },
        "label": "Mo",
        "xyz": [1.3248946808100002, 0.7649283408000003, 1.10695925]
      },
      {
        "species": [{ "element": "Mo", "occu": 1 }],
        "abc": [0.7404700000000001, 0.870235, 0.25],
        "properties": { "magmom": 0.0 },
        "label": "Mo",
        "xyz": [5.48174131919, 0.7649283408, 1.10695925]
      },
      {
        "species": [{ "element": "Mo", "occu": 1 }],
        "abc": [0.129765, 0.870235, 0.25],
        "properties": { "magmom": -0.0 },
        "label": "Mo",
        "xyz": [3.4033179999999996, 4.3648633184, 1.10695925]
      },
      {
        "species": [{ "element": "Mo", "occu": 1 }],
        "abc": [0.870235, 0.7404700000000001, 0.75],
        "properties": { "magmom": -0.0 },
        "label": "Mo",
        "xyz": [5.48174131919, -0.7649283408, 3.32087775]
      },
      {
        "species": [{ "element": "Mo", "occu": 1 }],
        "abc": [0.25953000000000004, 0.129765, 0.75],
        "properties": { "magmom": 0.0 },
        "label": "Mo",
        "xyz": [1.3248946808100002, -0.7649283408000003, 3.32087775]
      },
      {
        "species": [{ "element": "Mo", "occu": 1 }],
        "abc": [0.870235, 0.129765, 0.75],
        "properties": { "magmom": -0.0 },
        "label": "Mo",
        "xyz": [3.4033179999999996, -4.3648633184, 3.32087775]
      }
    ]
  },
  "task_ids": null,
  "uncorrected_energy_per_atom": null,
  "energy_per_atom": -26.33806865333333,
  "formation_energy_per_atom": 0.5669050187500021,
  "energy_above_hull": 0.5669050187500021,
  "is_stable": false,
  "equilibrium_reaction_energy_per_atom": null,
  "decomposes_to": null,
  "xas": null,
  "grain_boundaries": null,
  "band_gap": 0.0,
  "cbm": null,
  "vbm": null,
  "efermi": 5.63352931,
  "is_gap_direct": null,
  "is_metal": null,
  "es_source_calc_id": null,
  "bandstructure": null,
  "dos": null,
  "dos_energy_up": null,
  "dos_energy_down": null,
  "is_magnetic": null,
  "ordering": null,
  "total_magnetization": 0.0001682,
  "total_magnetization_normalized_vol": null,
  "total_magnetization_normalized_formula_units": null,
  "num_magnetic_sites": null,
  "num_unique_magnetic_sites": null,
  "types_of_magnetic_species": null,
  "bulk_modulus": null,
  "shear_modulus": null,
  "universal_anisotropy": null,
  "homogeneous_poisson": null,
  "e_total": null,
  "e_ionic": null,
  "e_electronic": null,
  "n": null,
  "e_ij_max": null,
  "weighted_surface_energy_EV_PER_ANG2": null,
  "weighted_surface_energy": null,
  "weighted_work_function": null,
  "surface_anisotropy": null,
  "shape_factor": null,
  "has_reconstructed": null,
  "possible_species": null,
  "has_props": null,
  "theoretical": null,
  "database_IDs": null,
  "fields_not_requested": [
    "builder_meta",
    "nsites",
    "elements",
    "nelements",
    "composition",
    "composition_reduced",
    "chemsys",
    "symmetry",
    "property_name",
    "deprecated",
    "deprecation_reasons",
    "last_updated",
    "origins",
    "warnings",
    "task_ids",
    "uncorrected_energy_per_atom",
    "equilibrium_reaction_energy_per_atom",
    "decomposes_to",
    "xas",
    "grain_boundaries",
    "cbm",
    "vbm",
    "is_gap_direct",
    "is_metal",
    "es_source_calc_id",
    "bandstructure",
    "dos",
    "dos_energy_up",
    "dos_energy_down",
    "is_magnetic",
    "ordering",
    "total_magnetization_normalized_vol",
    "total_magnetization_normalized_formula_units",
    "num_magnetic_sites",
    "num_unique_magnetic_sites",
    "types_of_magnetic_species",
    "bulk_modulus",
    "shear_modulus",
    "universal_anisotropy",
    "homogeneous_poisson",
    "e_total",
    "e_ionic",
    "e_electronic",
    "n",
    "e_ij_max",
    "weighted_surface_energy_EV_PER_ANG2",
    "weighted_surface_energy",
    "weighted_work_function",
    "surface_anisotropy",
    "shape_factor",
    "has_reconstructed",
    "possible_species",
    "has_props",
    "theoretical",
    "database_IDs"
  ]
}
