{"builder_meta": null, "nsites": null, "elements": null, "nelements": null, "composition": null, "composition_reduced": null, "formula_pretty": "PrN2", "formula_anonymous": "AB2", "chemsys": null, "volume": 173.33255143716283, "density": 4.854829638813339, "density_atomic": 19.259172381906982, "symmetry": null, "property_name": null, "material_id": "mp-1219988", "deprecated": null, "deprecation_reasons": null, "last_updated": null, "origins": null, "warnings": null, "structure": {"@module": "pymatgen.core.structure", "@class": "Structure", "charge": 0, "lattice": {"matrix": [[-2.497938, -4.320426, 0.0015819999999990002], [3.814688, 0.676756999999999, -5.444673], [5.413215, -3.128832, 0.234404]], "pbc": [true, true, true], "a": 4.990568862969832, "b": 6.682387945287373, "c": 6.256790835217764, "alpha": 65.62408530687696, "beta": 90.0066378833644, "gamma": 111.94186825239339, "volume": 173.33255143716283}, "properties": {}, "sites": [{"species": [{"element": "Pr", "occu": 1}], "abc": [0.6391100000000001, 0.278961, 0.07351099999999901], "properties": {"magmom": -0.01}, "label": "Pr", "xyz": [-0.13437712814700553, -2.802442220534998, -1.5006090802890009]}, {"species": [{"element": "Pr", "occu": 1}], "abc": [0.82359, 0.6468, 0.475159], "properties": {"magmom": 0.039}, "label": "Pr", "xyz": [2.9822012671650002, -4.607225906028001, -3.4089324067840012]}, {"species": [{"element": "Pr", "occu": 1}], "abc": [0.417064, 0.8336300000000001, 0.829653], "properties": {"magmom": 0.034}, "label": "Pr", "xyz": [6.629328407803, -3.8335740666500007, -4.343708975930001]}, {"species": [{"element": "N", "occu": 1}], "abc": [0.846266, 0.6923300000000001, 0.8175500000000001], "properties": {"magmom": 0.044}, "label": "N", "xyz": [4.952676866782001, -5.745667057106001, -3.576534675078001]}, {"species": [{"element": "N", "occu": 1}], "abc": [0.383264999999999, 0.765695, 0.263928999999999], "properties": {"magmom": 0.39}, "label": "N", "xyz": [3.392219742324997, -1.9634681207029938, -4.106486554189]}, {"species": [{"element": "N", "occu": 1}], "abc": [0.179577, 0.359635, 0.118433], "properties": {"magmom": -0.137}, "label": "N", "xyz": [1.5644263987489997, -0.9030205963630002, -1.9300497146089999]}, {"species": [{"element": "N", "occu": 1}], "abc": [0.620707999999999, 0.241768999999999, 0.7306100000000001], "properties": {"magmom": 0.057}, "label": "N", "xyz": [3.326732214117999, -4.804060065994998, -1.1441132800409952]}, {"species": [{"element": "N", "occu": 1}], "abc": [0.395739, 0.7910100000000001, 0.451528], "properties": {"magmom": 0.325}, "label": "N", "xyz": [4.473143011218, -2.5871947655400005, -4.200324761320001]}, {"species": [{"element": "N", "occu": 1}], "abc": [0.072131, 0.145169, 0.195475999999999], "properties": {"magmom": -0.15}, "label": "N", "xyz": [1.4317492917339947, -0.825004074904997, -0.7444632671910003]}]}, "task_ids": null, "uncorrected_energy_per_atom": null, "energy_per_atom": -16.71726815763889, "formation_energy_per_atom": -0.830115587361114, "energy_above_hull": 0.20041362944444402, "is_stable": false, "equilibrium_reaction_energy_per_atom": null, "decomposes_to": null, "xas": null, "grain_boundaries": null, "band_gap": 0.09729999999999901, "cbm": null, "vbm": null, "efermi": 2.71891461, "is_gap_direct": null, "is_metal": null, "es_source_calc_id": null, "bandstructure": null, "dos": null, "dos_energy_up": null, "dos_energy_down": null, "is_magnetic": null, "ordering": null, "total_magnetization": 0.9998269999999991, "total_magnetization_normalized_vol": null, "total_magnetization_normalized_formula_units": null, "num_magnetic_sites": null, "num_unique_magnetic_sites": null, "types_of_magnetic_species": null, "bulk_modulus": null, "shear_modulus": null, "universal_anisotropy": null, "homogeneous_poisson": null, "e_total": null, "e_ionic": null, "e_electronic": null, "n": null, "e_ij_max": null, "weighted_surface_energy_EV_PER_ANG2": null, "weighted_surface_energy": null, "weighted_work_function": null, "surface_anisotropy": null, "shape_factor": null, "has_reconstructed": null, "possible_species": null, "has_props": null, "theoretical": null, "database_IDs": null, "fields_not_requested": ["builder_meta", "nsites", "elements", "nelements", "composition", "composition_reduced", "chemsys", "symmetry", "property_name", "deprecated", "deprecation_reasons", "last_updated", "origins", "warnings", "task_ids", "uncorrected_energy_per_atom", "equilibrium_reaction_energy_per_atom", "decomposes_to", "xas", "grain_boundaries", "cbm", "vbm", "is_gap_direct", "is_metal", "es_source_calc_id", "bandstructure", "dos", "dos_energy_up", "dos_energy_down", "is_magnetic", "ordering", "total_magnetization_normalized_vol", "total_magnetization_normalized_formula_units", "num_magnetic_sites", "num_unique_magnetic_sites", "types_of_magnetic_species", "bulk_modulus", "shear_modulus", "universal_anisotropy", "homogeneous_poisson", "e_total", "e_ionic", "e_electronic", "n", "e_ij_max", "weighted_surface_energy_EV_PER_ANG2", "weighted_surface_energy", "weighted_work_function", "surface_anisotropy", "shape_factor", "has_reconstructed", "possible_species", "has_props", "theoretical", "database_IDs"]}