{"builder_meta": null, "nsites": null, "elements": null, "nelements": null, "composition": null, "composition_reduced": null, "formula_pretty": "PrNd", "formula_anonymous": "AB", "chemsys": null, "volume": 143.90154555874133, "density": 6.58091797157287, "density_atomic": 35.97538638968533, "symmetry": null, "property_name": null, "material_id": "mp-1219716", "deprecated": null, "deprecation_reasons": null, "last_updated": null, "origins": null, "warnings": null, "structure": {"@module": "pymatgen.core.structure", "@class": "Structure", "charge": 0, "lattice": {"matrix": [[-1.8648171900000001, -3.22994424, 0.0], [-3.72963754, 4e-08, 0.0], [0.0, 0.0, -11.94548544]], "pbc": [true, true, true], "a": 3.729622359653679, "b": 3.72963754, "c": 11.94548544, "alpha": 90.0, "beta": 90.0, "gamma": 59.999894000461914, "volume": 143.90154555874133}, "properties": {}, "sites": [{"species": [{"element": "Pr", "occu": 1}], "abc": [1.3e-07, -6.000000000000001e-08, 0.50003094], "properties": {"magmom": -0.0}, "label": "Pr", "xyz": [-1.8647982299999995e-08, -4.198927536e-07, -5.973112313319514]}, {"species": [{"element": "Pr", "occu": 1}], "abc": [1.3e-07, -6.000000000000001e-08, 0.9999690600000001], "properties": {"magmom": -0.0}, "label": "Pr", "xyz": [-1.8647982299999995e-08, -4.198927536e-07, -11.945115846680489]}, {"species": [{"element": "Nd", "occu": 1}], "abc": [0.33344385, 0.33327658, 0.75], "properties": {"magmom": -0.0}, "label": "Nd", "xyz": [-1.8648126673505945, -1.0770050293398608, -8.95911408]}, {"species": [{"element": "Nd", "occu": 1}], "abc": [0.6665559, 0.66672355, 0.25], "properties": {"magmom": -0.0}, "label": "Nd", "xyz": [-3.729642081297988, -2.1529383631740737, -2.98637136]}]}, "task_ids": null, "uncorrected_energy_per_atom": null, "energy_per_atom": -29.40571871, "formation_energy_per_atom": 0.00526396541667, "energy_above_hull": 0.00526396541667, "is_stable": false, "equilibrium_reaction_energy_per_atom": null, "decomposes_to": null, "xas": null, "grain_boundaries": null, "band_gap": 0.0, "cbm": null, "vbm": null, "efermi": 3.55060004, "is_gap_direct": null, "is_metal": null, "es_source_calc_id": null, "bandstructure": null, "dos": null, "dos_energy_up": null, "dos_energy_down": null, "is_magnetic": null, "ordering": null, "total_magnetization": 0.0001234, "total_magnetization_normalized_vol": null, "total_magnetization_normalized_formula_units": null, "num_magnetic_sites": null, "num_unique_magnetic_sites": null, "types_of_magnetic_species": null, "bulk_modulus": null, "shear_modulus": null, "universal_anisotropy": null, "homogeneous_poisson": null, "e_total": null, "e_ionic": null, "e_electronic": null, "n": null, "e_ij_max": null, "weighted_surface_energy_EV_PER_ANG2": null, "weighted_surface_energy": null, "weighted_work_function": null, "surface_anisotropy": null, "shape_factor": null, "has_reconstructed": null, "possible_species": null, "has_props": null, "theoretical": null, "database_IDs": null, "fields_not_requested": ["builder_meta", "nsites", "elements", "nelements", "composition", "composition_reduced", "chemsys", "symmetry", "property_name", "deprecated", "deprecation_reasons", "last_updated", "origins", "warnings", "task_ids", "uncorrected_energy_per_atom", "equilibrium_reaction_energy_per_atom", "decomposes_to", "xas", "grain_boundaries", "cbm", "vbm", "is_gap_direct", "is_metal", "es_source_calc_id", "bandstructure", "dos", "dos_energy_up", "dos_energy_down", "is_magnetic", "ordering", "total_magnetization_normalized_vol", "total_magnetization_normalized_formula_units", "num_magnetic_sites", "num_unique_magnetic_sites", "types_of_magnetic_species", "bulk_modulus", "shear_modulus", "universal_anisotropy", "homogeneous_poisson", "e_total", "e_ionic", "e_electronic", "n", "e_ij_max", "weighted_surface_energy_EV_PER_ANG2", "weighted_surface_energy", "weighted_work_function", "surface_anisotropy", "shape_factor", "has_reconstructed", "possible_species", "has_props", "theoretical", "database_IDs"]}