{"builder_meta": null, "nsites": null, "elements": null, "nelements": null, "composition": null, "composition_reduced": null, "formula_pretty": "PrNi", "formula_anonymous": "AB", "chemsys": null, "volume": 88.48902135346272, "density": 7.491219502483736, "density_atomic": 22.12225533836568, "symmetry": null, "property_name": null, "material_id": "mp-11799", "deprecated": null, "deprecation_reasons": null, "last_updated": null, "origins": null, "warnings": null, "structure": {"@module": "pymatgen.core.structure", "@class": "Structure", "charge": 0, "lattice": {"matrix": [[3.60743826, -0.0, -1.31072853], [-0.0, 4.32396267, -0.0], [0.01711369, 0.0, 5.66672659]], "pbc": [true, true, true], "a": 3.838179266145315, "b": 4.32396267, "c": 5.666752431878284, "alpha": 90.0, "beta": 109.79510015001644, "gamma": 90.0, "volume": 88.48902135346273}, "properties": {}, "sites": [{"species": [{"element": "Pr", "occu": 1}], "abc": [0.36304167, 0.25, 0.72608333], "properties": {"magmom": -0.0}, "label": "Pr", "xyz": [1.3220763753560818, 1.0809906675, 3.6386666382188992]}, {"species": [{"element": "Pr", "occu": 1}], "abc": [0.63695833, 0.75, 0.27391667000000003], "properties": {"magmom": -0.0}, "label": "Pr", "xyz": [2.3024755746439185, 3.2429720025, 0.7173314217811005]}, {"species": [{"element": "Ni", "occu": 1}], "abc": [0.06930209, 0.25, 0.13860618], "properties": {"magmom": 0.0}, "label": "Ni", "xyz": [0.2523750741605676, 1.0809906675, 0.6946070991926985]}, {"species": [{"element": "Ni", "occu": 1}], "abc": [0.93069791, 0.75, 0.86139382], "properties": {"magmom": 0.0}, "label": "Ni", "xyz": [3.372176875839432, 3.2429720025, 3.6613909608073008]}]}, "task_ids": null, "uncorrected_energy_per_atom": null, "energy_per_atom": -5.573386995, "formation_energy_per_atom": -0.285582925833332, "energy_above_hull": 0.0, "is_stable": true, "equilibrium_reaction_energy_per_atom": null, "decomposes_to": null, "xas": null, "grain_boundaries": null, "band_gap": 0.0, "cbm": null, "vbm": null, "efermi": 4.8591185, "is_gap_direct": null, "is_metal": null, "es_source_calc_id": null, "bandstructure": null, "dos": null, "dos_energy_up": null, "dos_energy_down": null, "is_magnetic": null, "ordering": null, "total_magnetization": 0.0, "total_magnetization_normalized_vol": null, "total_magnetization_normalized_formula_units": null, "num_magnetic_sites": null, "num_unique_magnetic_sites": null, "types_of_magnetic_species": null, "bulk_modulus": null, "shear_modulus": null, "universal_anisotropy": null, "homogeneous_poisson": null, "e_total": null, "e_ionic": null, "e_electronic": null, "n": null, "e_ij_max": null, "weighted_surface_energy_EV_PER_ANG2": null, "weighted_surface_energy": null, "weighted_work_function": null, "surface_anisotropy": null, "shape_factor": null, "has_reconstructed": null, "possible_species": null, "has_props": null, "theoretical": null, "database_IDs": null, "fields_not_requested": ["builder_meta", "nsites", "elements", "nelements", "composition", "composition_reduced", "chemsys", "symmetry", "property_name", "deprecated", "deprecation_reasons", "last_updated", "origins", "warnings", "task_ids", "uncorrected_energy_per_atom", "equilibrium_reaction_energy_per_atom", "decomposes_to", "xas", "grain_boundaries", "cbm", "vbm", "is_gap_direct", "is_metal", "es_source_calc_id", "bandstructure", "dos", "dos_energy_up", "dos_energy_down", "is_magnetic", "ordering", "total_magnetization_normalized_vol", "total_magnetization_normalized_formula_units", "num_magnetic_sites", "num_unique_magnetic_sites", "types_of_magnetic_species", "bulk_modulus", "shear_modulus", "universal_anisotropy", "homogeneous_poisson", "e_total", "e_ionic", "e_electronic", "n", "e_ij_max", "weighted_surface_energy_EV_PER_ANG2", "weighted_surface_energy", "weighted_work_function", "surface_anisotropy", "shape_factor", "has_reconstructed", "possible_species", "has_props", "theoretical", "database_IDs"]}