{"builder_meta": null, "nsites": null, "elements": null, "nelements": null, "composition": null, "composition_reduced": null, "formula_pretty": "PrNi3", "formula_anonymous": "AB3", "chemsys": null, "volume": 179.09386326107494, "density": 8.81723190808422, "density_atomic": 14.924488605089579, "symmetry": null, "property_name": null, "material_id": "mp-1102445", "deprecated": null, "deprecation_reasons": null, "last_updated": null, "origins": null, "warnings": null, "structure": {"@module": "pymatgen.core.structure", "@class": "Structure", "charge": 0, "lattice": {"matrix": [[-2.50980065, -4.34710336, 0.0], [2.50980065, -4.34710336, -0.0], [0.0, -2.8980689, 8.20751179]], "pbc": [true, true, true], "a": 5.019602267636722, "b": 5.019602267636722, "c": 8.70413999957125, "alpha": 73.24105785988513, "beta": 73.24105785988513, "gamma": 59.999987246334534, "volume": 179.09386326107494}, "properties": {}, "sites": [{"species": [{"element": "Pr", "occu": 1}], "abc": [0.13847477, 0.13847477, 0.5845767], "properties": {"magmom": -0.058}, "label": "Pr", "xyz": [0.0, -2.8980718298190844, 4.797920157409292]}, {"species": [{"element": "Pr", "occu": 1}], "abc": [0.86152523, 0.86152523, 0.4154233], "properties": {"magmom": -0.058}, "label": "Pr", "xyz": [0.0, -8.694203790180916, 3.4095916325907067]}, {"species": [{"element": "Pr", "occu": 1}], "abc": [-0.0, -0.0, 0.0], "properties": {"magmom": -0.06}, "label": "Pr", "xyz": [0.0, 0.0, 0.0]}, {"species": [{"element": "Ni", "occu": 1}], "abc": [0.08069065, 0.57943071, 0.76044993], "properties": {"magmom": 0.227}, "label": "Ni", "xyz": [1.251738126769039, -5.0734520742039475, 6.241401766179675]}, {"species": [{"element": "Ni", "occu": 1}], "abc": [0.57943071, 0.57943071, 0.76044993], "properties": {"magmom": 0.227}, "label": "Ni", "xyz": [0.0, -7.241526664796549, 6.241401766179675]}, {"species": [{"element": "Ni", "occu": 1}], "abc": [0.57943071, 0.08069065, 0.76044993], "properties": {"magmom": 0.227}, "label": "Ni", "xyz": [-1.251738126769039, -5.0734520742039475, 6.241401766179675]}, {"species": [{"element": "Ni", "occu": 1}], "abc": [0.91930935, 0.42056929, 0.23955007], "properties": {"magmom": 0.227}, "label": "Ni", "xyz": [-1.251738126769039, -6.518823545796054, 1.9661100238203253]}, {"species": [{"element": "Ni", "occu": 1}], "abc": [0.42056929, 0.42056929, 0.23955007], "properties": {"magmom": 0.227}, "label": "Ni", "xyz": [0.0, -4.350748955203452, 1.9661100238203253]}, {"species": [{"element": "Ni", "occu": 1}], "abc": [0.42056929, 0.91930935, 0.23955007], "properties": {"magmom": 0.227}, "label": "Ni", "xyz": [1.251738126769039, -6.518823545796054, 1.9661100238203253]}, {"species": [{"element": "Ni", "occu": 1}], "abc": [0.33279999, 0.33279999, 0.00160104], "properties": {"magmom": 0.36}, "label": "Ni", "xyz": [0.0, -2.898071833705589, 0.0131405546762616]}, {"species": [{"element": "Ni", "occu": 1}], "abc": [0.6672000100000001, 0.6672000100000001, 0.9983989600000001], "properties": {"magmom": 0.36}, "label": "Ni", "xyz": [0.0, -8.694203786294413, 8.19437123532374]}, {"species": [{"element": "Ni", "occu": 1}], "abc": [0.5, 0.5, 0.5], "properties": {"magmom": 0.058}, "label": "Ni", "xyz": [0.0, -5.79613781, 4.103755895]}]}, "task_ids": null, "uncorrected_energy_per_atom": null, "energy_per_atom": -5.817711294999998, "formation_energy_per_atom": -0.28374092041666404, "energy_above_hull": 0.0, "is_stable": true, "equilibrium_reaction_energy_per_atom": null, "decomposes_to": null, "xas": null, "grain_boundaries": null, "band_gap": 0.0, "cbm": null, "vbm": null, "efermi": 6.35067794, "is_gap_direct": null, "is_metal": null, "es_source_calc_id": null, "bandstructure": null, "dos": null, "dos_energy_up": null, "dos_energy_down": null, "is_magnetic": null, "ordering": null, "total_magnetization": 1.5595731, "total_magnetization_normalized_vol": null, "total_magnetization_normalized_formula_units": null, "num_magnetic_sites": null, "num_unique_magnetic_sites": null, "types_of_magnetic_species": null, "bulk_modulus": null, "shear_modulus": null, "universal_anisotropy": null, "homogeneous_poisson": null, "e_total": null, "e_ionic": null, "e_electronic": null, "n": null, "e_ij_max": null, "weighted_surface_energy_EV_PER_ANG2": null, "weighted_surface_energy": null, "weighted_work_function": null, "surface_anisotropy": null, "shape_factor": null, "has_reconstructed": null, "possible_species": null, "has_props": null, "theoretical": null, "database_IDs": null, "fields_not_requested": ["builder_meta", "nsites", "elements", "nelements", "composition", "composition_reduced", "chemsys", "symmetry", "property_name", "deprecated", "deprecation_reasons", "last_updated", "origins", "warnings", "task_ids", "uncorrected_energy_per_atom", "equilibrium_reaction_energy_per_atom", "decomposes_to", "xas", "grain_boundaries", "cbm", "vbm", "is_gap_direct", "is_metal", "es_source_calc_id", "bandstructure", "dos", "dos_energy_up", "dos_energy_down", "is_magnetic", "ordering", "total_magnetization_normalized_vol", "total_magnetization_normalized_formula_units", "num_magnetic_sites", "num_unique_magnetic_sites", "types_of_magnetic_species", "bulk_modulus", "shear_modulus", "universal_anisotropy", "homogeneous_poisson", "e_total", "e_ionic", "e_electronic", "n", "e_ij_max", "weighted_surface_energy_EV_PER_ANG2", "weighted_surface_energy", "weighted_work_function", "surface_anisotropy", "shape_factor", "has_reconstructed", "possible_species", "has_props", "theoretical", "database_IDs"]}