{"builder_meta": null, "nsites": null, "elements": null, "nelements": null, "composition": null, "composition_reduced": null, "formula_pretty": "PrNi2", "formula_anonymous": "AB2", "chemsys": null, "volume": 96.80685512467393, "density": 8.861108531179651, "density_atomic": 16.13447585411232, "symmetry": null, "property_name": null, "material_id": "mp-2016", "deprecated": null, "deprecation_reasons": null, "last_updated": null, "origins": null, "warnings": null, "structure": {"@module": "pymatgen.core.structure", "@class": "Structure", "charge": 0, "lattice": {"matrix": [[4.46335446, 2.83e-06, 2.57692393], [1.48778739, 4.2082312, 2.57692394], [-6.287e-05, -4.415e-05, 5.15395547]], "pbc": [true, true, true], "a": 5.153840313457193, "b": 5.153955582175847, "c": 5.153955470572556, "alpha": 60.00138697246108, "beta": 60.00065048102784, "gamma": 60.00064924168213, "volume": 96.80685512467394}, "properties": {}, "sites": [{"species": [{"element": "Pr", "occu": 1}], "abc": [0.87499918, 0.87499996, 0.87499996], "properties": {"magmom": 0.0}, "label": "Pr", "xyz": [5.207190388040361, 3.6821659766701975, 9.0193255001872]}, {"species": [{"element": "Pr", "occu": 1}], "abc": [0.12500082, 0.12500004, 0.12500004], "properties": {"magmom": 0.0}, "label": "Pr", "xyz": [0.743888591959638, 0.5260239033298025, 1.2884778398127992]}, {"species": [{"element": "Ni", "occu": 1}], "abc": [0.5, 0.5, 0.5], "properties": {"magmom": 0.0}, "label": "Ni", "xyz": [2.97553949, 2.10409494, 5.15390167]}, {"species": [{"element": "Ni", "occu": 1}], "abc": [0.5, 0.5, 0.0], "properties": {"magmom": -0.0}, "label": "Ni", "xyz": [2.975570925, 2.104117015, 2.576923935]}, {"species": [{"element": "Ni", "occu": 1}], "abc": [-0.0, 0.5, 0.5], "properties": {"magmom": -0.0}, "label": "Ni", "xyz": [0.74386226, 2.104093525, 3.865439705]}, {"species": [{"element": "Ni", "occu": 1}], "abc": [0.5, -0.0, 0.5], "properties": {"magmom": -0.0}, "label": "Ni", "xyz": [2.231645795, -2.0660000000000002e-05, 3.8654396999999996]}]}, "task_ids": null, "uncorrected_energy_per_atom": null, "energy_per_atom": -5.724041411666664, "formation_energy_per_atom": -0.27212647222221803, "energy_above_hull": 0.012228450000001001, "is_stable": false, "equilibrium_reaction_energy_per_atom": null, "decomposes_to": null, "xas": null, "grain_boundaries": null, "band_gap": 0.0, "cbm": null, "vbm": null, "efermi": 6.3925, "is_gap_direct": null, "is_metal": null, "es_source_calc_id": null, "bandstructure": null, "dos": null, "dos_energy_up": null, "dos_energy_down": null, "is_magnetic": null, "ordering": null, "total_magnetization": 6e-07, "total_magnetization_normalized_vol": null, "total_magnetization_normalized_formula_units": null, "num_magnetic_sites": null, "num_unique_magnetic_sites": null, "types_of_magnetic_species": null, "bulk_modulus": null, "shear_modulus": null, "universal_anisotropy": null, "homogeneous_poisson": null, "e_total": null, "e_ionic": null, "e_electronic": null, "n": null, "e_ij_max": null, "weighted_surface_energy_EV_PER_ANG2": null, "weighted_surface_energy": null, "weighted_work_function": null, "surface_anisotropy": null, "shape_factor": null, "has_reconstructed": null, "possible_species": null, "has_props": null, "theoretical": null, "database_IDs": null, "fields_not_requested": ["builder_meta", "nsites", "elements", "nelements", "composition", "composition_reduced", "chemsys", "symmetry", "property_name", "deprecated", "deprecation_reasons", "last_updated", "origins", "warnings", "task_ids", "uncorrected_energy_per_atom", "equilibrium_reaction_energy_per_atom", "decomposes_to", "xas", "grain_boundaries", "cbm", "vbm", "is_gap_direct", "is_metal", "es_source_calc_id", "bandstructure", "dos", "dos_energy_up", "dos_energy_down", "is_magnetic", "ordering", "total_magnetization_normalized_vol", "total_magnetization_normalized_formula_units", "num_magnetic_sites", "num_unique_magnetic_sites", "types_of_magnetic_species", "bulk_modulus", "shear_modulus", "universal_anisotropy", "homogeneous_poisson", "e_total", "e_ionic", "e_electronic", "n", "e_ij_max", "weighted_surface_energy_EV_PER_ANG2", "weighted_surface_energy", "weighted_work_function", "surface_anisotropy", "shape_factor", "has_reconstructed", "possible_species", "has_props", "theoretical", "database_IDs"]}