{"builder_meta": null, "nsites": null, "elements": null, "nelements": null, "composition": null, "composition_reduced": null, "formula_pretty": "PrO3", "formula_anonymous": "AB3", "chemsys": null, "volume": 121.07792651102207, "density": 5.181547997614971, "density_atomic": 15.134740813877759, "symmetry": null, "property_name": null, "material_id": "mp-720472", "deprecated": null, "deprecation_reasons": null, "last_updated": null, "origins": null, "warnings": null, "structure": {"@module": "pymatgen.core.structure", "@class": "Structure", "charge": 0, "lattice": {"matrix": [[2.814975, -4.87568, 0.0], [2.814975, 4.87568, 0.0], [0.0, 0.0, 4.41088]], "pbc": [true, true, true], "a": 5.629950240723714, "b": 5.629950240723714, "c": 4.41088, "alpha": 90.0, "beta": 90.0, "gamma": 120.00000282882651, "volume": 121.07792651102207}, "properties": {}, "sites": [{"species": [{"element": "Pr", "occu": 1}], "abc": [0.333333, 0.666667, 0.75], "properties": {"magmom": 0.005}, "label": "Pr", "xyz": [2.814975, 1.6252299171200002, 3.30816]}, {"species": [{"element": "Pr", "occu": 1}], "abc": [0.666667, 0.333333, 0.25], "properties": {"magmom": 0.005}, "label": "Pr", "xyz": [2.814975, -1.6252299171200002, 1.10272]}, {"species": [{"element": "O", "occu": 1}], "abc": [0.420153, 0.144379, 0.75], "properties": {"magmom": 0.834}, "label": "O", "xyz": [1.5891434667, -1.34458577632, 3.30816]}, {"species": [{"element": "O", "occu": 1}], "abc": [0.579847, 0.855621, 0.25], "properties": {"magmom": 0.834}, "label": "O", "xyz": [4.0408065333, 1.3445857763200002, 1.10272]}, {"species": [{"element": "O", "occu": 1}], "abc": [0.855621, 0.275773, 0.75], "properties": {"magmom": 0.834}, "label": "O", "xyz": [3.18484582515, -2.82715329664, 3.30816]}, {"species": [{"element": "O", "occu": 1}], "abc": [0.144379, 0.724227, 0.25], "properties": {"magmom": 0.834}, "label": "O", "xyz": [2.44510417485, 2.8271532966399997, 1.10272]}, {"species": [{"element": "O", "occu": 1}], "abc": [0.724227, 0.579847, 0.75], "properties": {"magmom": 0.834}, "label": "O", "xyz": [3.67093570815, -0.7039506784, 3.30816]}, {"species": [{"element": "O", "occu": 1}], "abc": [0.275773, 0.420153, 0.25], "properties": {"magmom": 0.834}, "label": "O", "xyz": [1.95901429185, 0.7039506784, 1.10272]}]}, "task_ids": null, "uncorrected_energy_per_atom": null, "energy_per_atom": -6.8482263025000005, "formation_energy_per_atom": -1.938387684166666, "energy_above_hull": 0.39240629671874905, "is_stable": false, "equilibrium_reaction_energy_per_atom": null, "decomposes_to": null, "xas": null, "grain_boundaries": null, "band_gap": 0.6315000000000001, "cbm": null, "vbm": null, "efermi": 0.75647137, "is_gap_direct": null, "is_metal": null, "es_source_calc_id": null, "bandstructure": null, "dos": null, "dos_energy_up": null, "dos_energy_down": null, "is_magnetic": null, "ordering": null, "total_magnetization": 5.9995674999999995, "total_magnetization_normalized_vol": null, "total_magnetization_normalized_formula_units": null, "num_magnetic_sites": null, "num_unique_magnetic_sites": null, "types_of_magnetic_species": null, "bulk_modulus": null, "shear_modulus": null, "universal_anisotropy": null, "homogeneous_poisson": null, "e_total": null, "e_ionic": null, "e_electronic": null, "n": null, "e_ij_max": null, "weighted_surface_energy_EV_PER_ANG2": null, "weighted_surface_energy": null, "weighted_work_function": null, "surface_anisotropy": null, "shape_factor": null, "has_reconstructed": null, "possible_species": null, "has_props": null, "theoretical": null, "database_IDs": null, "fields_not_requested": ["builder_meta", "nsites", "elements", "nelements", "composition", "composition_reduced", "chemsys", "symmetry", "property_name", "deprecated", "deprecation_reasons", "last_updated", "origins", "warnings", "task_ids", "uncorrected_energy_per_atom", "equilibrium_reaction_energy_per_atom", "decomposes_to", "xas", "grain_boundaries", "cbm", "vbm", "is_gap_direct", "is_metal", "es_source_calc_id", "bandstructure", "dos", "dos_energy_up", "dos_energy_down", "is_magnetic", "ordering", "total_magnetization_normalized_vol", "total_magnetization_normalized_formula_units", "num_magnetic_sites", "num_unique_magnetic_sites", "types_of_magnetic_species", "bulk_modulus", "shear_modulus", "universal_anisotropy", "homogeneous_poisson", "e_total", "e_ionic", "e_electronic", "n", "e_ij_max", "weighted_surface_energy_EV_PER_ANG2", "weighted_surface_energy", "weighted_work_function", "surface_anisotropy", "shape_factor", "has_reconstructed", "possible_species", "has_props", "theoretical", "database_IDs"]}