{"builder_meta": null, "nsites": null, "elements": null, "nelements": null, "composition": null, "composition_reduced": null, "formula_pretty": "PrOs2", "formula_anonymous": "AB2", "chemsys": null, "volume": 228.2070334528044, "density": 15.174840806394018, "density_atomic": 19.0172527877337, "symmetry": null, "property_name": null, "material_id": "mp-567339", "deprecated": null, "deprecation_reasons": null, "last_updated": null, "origins": null, "warnings": null, "structure": {"@module": "pymatgen.core.structure", "@class": "Structure", "charge": 0, "lattice": {"matrix": [[5.34906892, -1e-08, 0.0], [-2.67453547, 4.63242878, -0.0], [-0.0, 0.0, 9.20962785]], "pbc": [true, true, true], "a": 5.34906892, "b": 5.349068739702305, "c": 9.20962785, "alpha": 90.0, "beta": 90.0, "gamma": 120.0000137142049, "volume": 228.2070334528044}, "properties": {}, "sites": [{"species": [{"element": "Pr", "occu": 1}], "abc": [0.333333, 0.666667, 0.43531144], "properties": {"magmom": 0.0}, "label": "Pr", "xyz": [-3.347868130054721e-06, 3.0882873941429296, 4.0090563612476044]}, {"species": [{"element": "Pr", "occu": 1}], "abc": [0.666667, 0.333333, 0.56468856], "properties": {"magmom": 0.0}, "label": "Pr", "xyz": [2.67453679786813, 1.5441413758570697, 5.200571488752396]}, {"species": [{"element": "Pr", "occu": 1}], "abc": [0.666667, 0.333333, 0.93531144], "properties": {"magmom": 0.0}, "label": "Pr", "xyz": [2.67453679786813, 1.5441413758570697, 8.613870286247604]}, {"species": [{"element": "Pr", "occu": 1}], "abc": [0.333333, 0.666667, 0.06468856], "properties": {"magmom": 0.0}, "label": "Pr", "xyz": [-3.347868130054721e-06, 3.0882873941429296, 0.5957575637523961]}, {"species": [{"element": "Os", "occu": 1}], "abc": [0.16930959, 0.33862018, 0.75], "properties": {"magmom": -0.0}, "label": "Os", "xyz": [-3.0165408417826e-06, 1.5686338656276844, 6.9072208875]}, {"species": [{"element": "Os", "occu": 1}], "abc": [0.16930959, 0.83069041, 0.75], "properties": {"magmom": -0.0}, "label": "Os", "xyz": [-1.3160623004068999, 3.8481141608609035, 6.9072208875]}, {"species": [{"element": "Os", "occu": 1}], "abc": [0.33862018, 0.16930959, 0.25], "properties": {"magmom": -0.0}, "label": "Os", "xyz": [1.358478176656648, 0.7843146140597984, 2.3024069625]}, {"species": [{"element": "Os", "occu": 1}], "abc": [0.83069041, 0.6613798200000001, 0.25], "properties": {"magmom": -0.0}, "label": "Os", "xyz": [2.6745364665408413, 3.063794904372316, 2.3024069625]}, {"species": [{"element": "Os", "occu": 1}], "abc": [0.6613798200000001, 0.83069041, 0.75], "properties": {"magmom": -0.0}, "label": "Os", "xyz": [1.316055273343352, 3.848114155940201, 6.9072208875]}, {"species": [{"element": "Os", "occu": 1}], "abc": [-0.0, 0.0, -0.0], "properties": {"magmom": -0.0}, "label": "Os", "xyz": [0.0, 0.0, 0.0]}, {"species": [{"element": "Os", "occu": 1}], "abc": [0.83069041, 0.16930959, 0.25], "properties": {"magmom": -0.0}, "label": "Os", "xyz": [3.990595750406899, 0.7843146091390961, 2.3024069625]}, {"species": [{"element": "Os", "occu": 1}], "abc": [-0.0, 0.0, 0.5], "properties": {"magmom": -0.0}, "label": "Os", "xyz": [0.0, 0.0, 4.604813925]}]}, "task_ids": null, "uncorrected_energy_per_atom": null, "energy_per_atom": -45.2309913075, "formation_energy_per_atom": -0.106186618055555, "energy_above_hull": 0.0, "is_stable": true, "equilibrium_reaction_energy_per_atom": null, "decomposes_to": null, "xas": null, "grain_boundaries": null, "band_gap": 0.0, "cbm": null, "vbm": null, "efermi": 6.28257497, "is_gap_direct": null, "is_metal": null, "es_source_calc_id": null, "bandstructure": null, "dos": null, "dos_energy_up": null, "dos_energy_down": null, "is_magnetic": null, "ordering": null, "total_magnetization": 1.8e-06, "total_magnetization_normalized_vol": null, "total_magnetization_normalized_formula_units": null, "num_magnetic_sites": null, "num_unique_magnetic_sites": null, "types_of_magnetic_species": null, "bulk_modulus": null, "shear_modulus": null, "universal_anisotropy": null, "homogeneous_poisson": null, "e_total": null, "e_ionic": null, "e_electronic": null, "n": null, "e_ij_max": null, "weighted_surface_energy_EV_PER_ANG2": null, "weighted_surface_energy": null, "weighted_work_function": null, "surface_anisotropy": null, "shape_factor": null, "has_reconstructed": null, "possible_species": null, "has_props": null, "theoretical": null, "database_IDs": null, "fields_not_requested": ["builder_meta", "nsites", "elements", "nelements", "composition", "composition_reduced", "chemsys", "symmetry", "property_name", "deprecated", "deprecation_reasons", "last_updated", "origins", "warnings", "task_ids", "uncorrected_energy_per_atom", "equilibrium_reaction_energy_per_atom", "decomposes_to", "xas", "grain_boundaries", "cbm", "vbm", "is_gap_direct", "is_metal", "es_source_calc_id", "bandstructure", "dos", "dos_energy_up", "dos_energy_down", "is_magnetic", "ordering", "total_magnetization_normalized_vol", "total_magnetization_normalized_formula_units", "num_magnetic_sites", "num_unique_magnetic_sites", "types_of_magnetic_species", "bulk_modulus", "shear_modulus", "universal_anisotropy", "homogeneous_poisson", "e_total", "e_ionic", "e_electronic", "n", "e_ij_max", "weighted_surface_energy_EV_PER_ANG2", "weighted_surface_energy", "weighted_work_function", "surface_anisotropy", "shape_factor", "has_reconstructed", "possible_species", "has_props", "theoretical", "database_IDs"]}