{
  "builder_meta": null,
  "nsites": null,
  "elements": null,
  "nelements": null,
  "composition": null,
  "composition_reduced": null,
  "formula_pretty": "PrP2",
  "formula_anonymous": "AB2",
  "chemsys": null,
  "volume": 265.8390613014233,
  "density": 5.068464199954455,
  "density_atomic": 22.153255108451944,
  "symmetry": null,
  "property_name": null,
  "material_id": "mp-1095637",
  "deprecated": null,
  "deprecation_reasons": null,
  "last_updated": null,
  "origins": null,
  "warnings": null,
  "structure": {
    "@module": "pymatgen.core.structure",
    "@class": "Structure",
    "charge": 0,
    "lattice": {
      "matrix": [
        [6.6256797899999995, 0.0, 0.0],
        [0.0, 4.07218694, -0.01181197],
        [0.0, 2.73486672, 9.8448893]
      ],
      "pbc": [true, true, true],
      "a": 6.6256797899999995,
      "b": 4.072204071131731,
      "c": 10.217697456150189,
      "alpha": 74.6411364204152,
      "beta": 90.0,
      "gamma": 90.0,
      "volume": 265.83906130142327
    },
    "properties": {},
    "sites": [
      {
        "species": [{ "element": "Pr", "occu": 1 }],
        "abc": [0.31561521, 0.08010309, 0.14210454],
        "properties": { "magmom": -0.0 },
        "label": "Pr",
        "xyz": [2.0911653183136054, 0.7148317341585534, 1.3980572900314348]
      },
      {
        "species": [{ "element": "Pr", "occu": 1 }],
        "abc": [0.81561521, 0.9198969100000001, 0.35789546],
        "properties": { "magmom": -0.0 },
        "label": "Pr",
        "xyz": [5.404005213313606, 4.724788565841447, 3.5125753899685654]
      },
      {
        "species": [{ "element": "Pr", "occu": 1 }],
        "abc": [0.68438479, 0.9198969100000001, 0.85789546],
        "properties": { "magmom": -0.0 },
        "label": "Pr",
        "xyz": [4.534514471686394, 6.0922219258414465, 8.435020039968567]
      },
      {
        "species": [{ "element": "Pr", "occu": 1 }],
        "abc": [0.18438479, 0.08010309, 0.6421045400000001],
        "properties": { "magmom": -0.0 },
        "label": "Pr",
        "xyz": [1.221674576686394, 2.0822650941585534, 6.320501940031435]
      },
      {
        "species": [{ "element": "P", "occu": 1 }],
        "abc": [0.66342335, 0.53292101, 0.16162793],
        "properties": { "magmom": -0.0 },
        "label": "P",
        "xyz": [4.395630682309096, 2.612184823753099, 1.5849142316556593]
      },
      {
        "species": [{ "element": "P", "occu": 1 }],
        "abc": [0.16342335, 0.46707899, 0.33837207],
        "properties": { "magmom": -0.0 },
        "label": "P",
        "xyz": [1.0827907873090963, 2.827435476246901, 3.325718448344341]
      },
      {
        "species": [{ "element": "P", "occu": 1 }],
        "abc": [0.33657665000000003, 0.46707899, 0.83837207],
        "properties": { "magmom": -0.0 },
        "label": "P",
        "xyz": [2.2300491076909035, 4.194868836246901, 8.24816309834434]
      },
      {
        "species": [{ "element": "P", "occu": 1 }],
        "abc": [0.83657665, 0.53292101, 0.66162793],
        "properties": { "magmom": -0.0 },
        "label": "P",
        "xyz": [5.542889002690903, 3.9796181837530993, 6.507358881655659]
      },
      {
        "species": [{ "element": "P", "occu": 1 }],
        "abc": [0.37955086, 0.69205155, 0.45443125],
        "properties": { "magmom": -0.0 },
        "label": "P",
        "xyz": [2.5147824623791193, 4.0609721858697565, 4.465650858563572]
      },
      {
        "species": [{ "element": "P", "occu": 1 }],
        "abc": [0.87955086, 0.30794845, 0.04556875],
        "properties": { "magmom": -0.0 },
        "label": "P",
        "xyz": [5.827622357379119, 1.378648114130243, 0.4449818214364285]
      },
      {
        "species": [{ "element": "P", "occu": 1 }],
        "abc": [0.6204491400000001, 0.30794845, 0.54556875],
        "properties": { "magmom": -0.0 },
        "label": "P",
        "xyz": [4.110897327620881, 2.746081474130243, 5.367426471436429]
      },
      {
        "species": [{ "element": "P", "occu": 1 }],
        "abc": [0.12044914, 0.69205155, 0.9544312500000001],
        "properties": { "magmom": -0.0 },
        "label": "P",
        "xyz": [0.7980574326208805, 5.428405545869757, 9.388095508563572]
      }
    ]
  },
  "task_ids": null,
  "uncorrected_energy_per_atom": null,
  "energy_per_atom": -16.978199638333333,
  "formation_energy_per_atom": -1.175496640873014,
  "energy_above_hull": 0.016432842499998,
  "is_stable": false,
  "equilibrium_reaction_energy_per_atom": null,
  "decomposes_to": null,
  "xas": null,
  "grain_boundaries": null,
  "band_gap": 0.0,
  "cbm": null,
  "vbm": null,
  "efermi": 5.5374886199999995,
  "is_gap_direct": null,
  "is_metal": null,
  "es_source_calc_id": null,
  "bandstructure": null,
  "dos": null,
  "dos_energy_up": null,
  "dos_energy_down": null,
  "is_magnetic": null,
  "ordering": null,
  "total_magnetization": 0.0,
  "total_magnetization_normalized_vol": null,
  "total_magnetization_normalized_formula_units": null,
  "num_magnetic_sites": null,
  "num_unique_magnetic_sites": null,
  "types_of_magnetic_species": null,
  "bulk_modulus": null,
  "shear_modulus": null,
  "universal_anisotropy": null,
  "homogeneous_poisson": null,
  "e_total": null,
  "e_ionic": null,
  "e_electronic": null,
  "n": null,
  "e_ij_max": null,
  "weighted_surface_energy_EV_PER_ANG2": null,
  "weighted_surface_energy": null,
  "weighted_work_function": null,
  "surface_anisotropy": null,
  "shape_factor": null,
  "has_reconstructed": null,
  "possible_species": null,
  "has_props": null,
  "theoretical": null,
  "database_IDs": null,
  "fields_not_requested": [
    "builder_meta",
    "nsites",
    "elements",
    "nelements",
    "composition",
    "composition_reduced",
    "chemsys",
    "symmetry",
    "property_name",
    "deprecated",
    "deprecation_reasons",
    "last_updated",
    "origins",
    "warnings",
    "task_ids",
    "uncorrected_energy_per_atom",
    "equilibrium_reaction_energy_per_atom",
    "decomposes_to",
    "xas",
    "grain_boundaries",
    "cbm",
    "vbm",
    "is_gap_direct",
    "is_metal",
    "es_source_calc_id",
    "bandstructure",
    "dos",
    "dos_energy_up",
    "dos_energy_down",
    "is_magnetic",
    "ordering",
    "total_magnetization_normalized_vol",
    "total_magnetization_normalized_formula_units",
    "num_magnetic_sites",
    "num_unique_magnetic_sites",
    "types_of_magnetic_species",
    "bulk_modulus",
    "shear_modulus",
    "universal_anisotropy",
    "homogeneous_poisson",
    "e_total",
    "e_ionic",
    "e_electronic",
    "n",
    "e_ij_max",
    "weighted_surface_energy_EV_PER_ANG2",
    "weighted_surface_energy",
    "weighted_work_function",
    "surface_anisotropy",
    "shape_factor",
    "has_reconstructed",
    "possible_species",
    "has_props",
    "theoretical",
    "database_IDs"
  ]
}
