{
  "builder_meta": null,
  "nsites": null,
  "elements": null,
  "nelements": null,
  "composition": null,
  "composition_reduced": null,
  "formula_pretty": "PrP5",
  "formula_anonymous": "AB5",
  "chemsys": null,
  "volume": 262.0212136486137,
  "density": 3.748920631054796,
  "density_atomic": 21.835101137384473,
  "symmetry": null,
  "property_name": null,
  "material_id": "mp-9848",
  "deprecated": null,
  "deprecation_reasons": null,
  "last_updated": null,
  "origins": null,
  "warnings": null,
  "structure": {
    "@module": "pymatgen.core.structure",
    "@class": "Structure",
    "charge": 0,
    "lattice": {
      "matrix": [
        [5.08766921, 0.08386122, 0.0],
        [-1.24269676, 5.34340221, 0.0],
        [0.0, 0.0, 9.60147729]
      ],
      "pbc": [true, true, true],
      "a": 5.088360314934656,
      "b": 5.486004230325326,
      "c": 9.60147729,
      "alpha": 90.0,
      "beta": 90.0,
      "gamma": 102.14801770116017,
      "volume": 262.0212136486137
    },
    "properties": {},
    "sites": [
      {
        "species": [{ "element": "Pr", "occu": 1 }],
        "abc": [0.00997338, 0.35041578, 0.25],
        "properties": { "magmom": 0.0 },
        "label": "Pr",
        "xyz": [-0.384719296113243, 1.8732488330851973, 2.4003693225]
      },
      {
        "species": [{ "element": "Pr", "occu": 1 }],
        "abc": [0.99002662, 0.64958422, 0.75],
        "properties": { "magmom": 0.0 },
        "label": "Pr",
        "xyz": [4.229691746113243, 3.554014596914803, 7.2011079675000005]
      },
      {
        "species": [{ "element": "P", "occu": 1 }],
        "abc": [0.29671807, 0.9041550700000001, 0.25],
        "properties": { "magmom": -0.0 },
        "label": "P",
        "xyz": [0.3860128127630511, 4.8561473385669505, 2.4003693225]
      },
      {
        "species": [{ "element": "P", "occu": 1 }],
        "abc": [0.70328193, 0.09584493000000001, 0.75],
        "properties": { "magmom": -0.0 },
        "label": "P",
        "xyz": [3.4589596372369487, 0.57111609143305, 7.2011079675000005]
      },
      {
        "species": [{ "element": "P", "occu": 1 }],
        "abc": [0.61340406, 0.95136796, 0.41034531],
        "properties": { "magmom": 0.0 },
        "label": "P",
        "xyz": [1.9385350678911828, 5.134982472811744, 3.9399211750230103]
      },
      {
        "species": [{ "element": "P", "occu": 1 }],
        "abc": [0.38659594, 0.04863204, 0.9103453100000001],
        "properties": { "magmom": 0.0 },
        "label": "P",
        "xyz": [1.906437382108817, 0.2922809571882552, 8.74065982002301]
      },
      {
        "species": [{ "element": "P", "occu": 1 }],
        "abc": [0.38659594, 0.04863204, 0.58965469],
        "properties": { "magmom": 0.0 },
        "label": "P",
        "xyz": [1.906437382108817, 0.2922809571882552, 5.661556114976991]
      },
      {
        "species": [{ "element": "P", "occu": 1 }],
        "abc": [0.61340406, 0.95136796, 0.08965469],
        "properties": { "magmom": 0.0 },
        "label": "P",
        "xyz": [1.9385350678911828, 5.134982472811744, 0.86081746997699]
      },
      {
        "species": [{ "element": "P", "occu": 1 }],
        "abc": [0.7028185, 0.59934643, 0.46918601],
        "properties": { "magmom": -0.0 },
        "label": "P",
        "xyz": [2.8309021759898183, 3.26148825546618, 4.504878819800712]
      },
      {
        "species": [{ "element": "P", "occu": 1 }],
        "abc": [0.2971815, 0.40065357, 0.96918601],
        "properties": { "magmom": -0.0 },
        "label": "P",
        "xyz": [1.0140702740101817, 2.1657751745338194, 9.305617464800713]
      },
      {
        "species": [{ "element": "P", "occu": 1 }],
        "abc": [0.2971815, 0.40065357, 0.53081399],
        "properties": { "magmom": -0.0 },
        "label": "P",
        "xyz": [1.0140702740101817, 2.1657751745338194, 5.096598470199287]
      },
      {
        "species": [{ "element": "P", "occu": 1 }],
        "abc": [0.7028185, 0.59934643, 0.03081399],
        "properties": { "magmom": -0.0 },
        "label": "P",
        "xyz": [2.8309021759898183, 3.26148825546618, 0.2958598251992871]
      }
    ]
  },
  "task_ids": null,
  "uncorrected_energy_per_atom": null,
  "energy_per_atom": -13.043302386666667,
  "formation_energy_per_atom": -0.6409127319246031,
  "energy_above_hull": 0.0,
  "is_stable": true,
  "equilibrium_reaction_energy_per_atom": null,
  "decomposes_to": null,
  "xas": null,
  "grain_boundaries": null,
  "band_gap": 0.0,
  "cbm": null,
  "vbm": null,
  "efermi": 5.32396511,
  "is_gap_direct": null,
  "is_metal": null,
  "es_source_calc_id": null,
  "bandstructure": null,
  "dos": null,
  "dos_energy_up": null,
  "dos_energy_down": null,
  "is_magnetic": null,
  "ordering": null,
  "total_magnetization": 0.0,
  "total_magnetization_normalized_vol": null,
  "total_magnetization_normalized_formula_units": null,
  "num_magnetic_sites": null,
  "num_unique_magnetic_sites": null,
  "types_of_magnetic_species": null,
  "bulk_modulus": null,
  "shear_modulus": null,
  "universal_anisotropy": null,
  "homogeneous_poisson": null,
  "e_total": null,
  "e_ionic": null,
  "e_electronic": null,
  "n": null,
  "e_ij_max": null,
  "weighted_surface_energy_EV_PER_ANG2": null,
  "weighted_surface_energy": null,
  "weighted_work_function": null,
  "surface_anisotropy": null,
  "shape_factor": null,
  "has_reconstructed": null,
  "possible_species": null,
  "has_props": null,
  "theoretical": null,
  "database_IDs": null,
  "fields_not_requested": [
    "builder_meta",
    "nsites",
    "elements",
    "nelements",
    "composition",
    "composition_reduced",
    "chemsys",
    "symmetry",
    "property_name",
    "deprecated",
    "deprecation_reasons",
    "last_updated",
    "origins",
    "warnings",
    "task_ids",
    "uncorrected_energy_per_atom",
    "equilibrium_reaction_energy_per_atom",
    "decomposes_to",
    "xas",
    "grain_boundaries",
    "cbm",
    "vbm",
    "is_gap_direct",
    "is_metal",
    "es_source_calc_id",
    "bandstructure",
    "dos",
    "dos_energy_up",
    "dos_energy_down",
    "is_magnetic",
    "ordering",
    "total_magnetization_normalized_vol",
    "total_magnetization_normalized_formula_units",
    "num_magnetic_sites",
    "num_unique_magnetic_sites",
    "types_of_magnetic_species",
    "bulk_modulus",
    "shear_modulus",
    "universal_anisotropy",
    "homogeneous_poisson",
    "e_total",
    "e_ionic",
    "e_electronic",
    "n",
    "e_ij_max",
    "weighted_surface_energy_EV_PER_ANG2",
    "weighted_surface_energy",
    "weighted_work_function",
    "surface_anisotropy",
    "shape_factor",
    "has_reconstructed",
    "possible_species",
    "has_props",
    "theoretical",
    "database_IDs"
  ]
}
