{"builder_meta": null, "nsites": null, "elements": null, "nelements": null, "composition": null, "composition_reduced": null, "formula_pretty": "PrPb2", "formula_anonymous": "AB2", "chemsys": null, "volume": 364.90749804411143, "density": 10.107877220931988, "density_atomic": 30.40895817034262, "symmetry": null, "property_name": null, "material_id": "mp-1103021", "deprecated": null, "deprecation_reasons": null, "last_updated": null, "origins": null, "warnings": null, "structure": {"@module": "pymatgen.core.structure", "@class": "Structure", "charge": 0, "lattice": {"matrix": [[4.68681856, 0.0, 0.0], [0.0, 4.68681856, 0.0], [-2.34340877, -2.34340877, 16.61217529]], "pbc": [true, true, true], "a": 4.68681856, "b": 4.68681856, "c": 16.939524703849056, "alpha": 97.95178323265209, "beta": 97.95178323265209, "gamma": 90.0, "volume": 364.90749804411143}, "properties": {}, "sites": [{"species": [{"element": "Pr", "occu": 1}], "abc": [0.32275557, 0.82275557, 0.64551113], "properties": {"magmom": 0.0}, "label": "Pr", "xyz": [3.5264476894170116e-07, 2.343409632644769, 10.723344043205978]}, {"species": [{"element": "Pr", "occu": 1}], "abc": [0.92724443, 0.92724443, 0.8544888700000001], "properties": {"magmom": 0.0}, "label": "Pr", "xyz": [2.3434096923552303, 2.3434096923552303, 14.194918891794023]}, {"species": [{"element": "Pr", "occu": 1}], "abc": [0.17724443, 0.67724443, 0.35448887], "properties": {"magmom": 0.0}, "label": "Pr", "xyz": [1.573552309563908e-07, 2.3434094373552306, 5.888831246794022]}, {"species": [{"element": "Pr", "occu": 1}], "abc": [0.07275557, 0.07275557, 0.14551113000000002], "properties": {"magmom": 0.0}, "label": "Pr", "xyz": [9.764476904816632e-08, 9.764476904816632e-08, 2.417256398205978]}, {"species": [{"element": "Pb", "occu": 1}], "abc": [0.500055399999999, 5.5400000000000005e-05, 0.00010979], "properties": {"magmom": -0.0}, "label": "Pb", "xyz": [2.343411646899361, 2.36689936569998e-06, 0.0018238507250891]}, {"species": [{"element": "Pb", "occu": 1}], "abc": [0.7499446, 0.7499446, 0.49989021], "properties": {"magmom": -0.0}, "label": "Pb", "xyz": [2.343407168100634, 2.343407168100634, 8.304263794274911]}, {"species": [{"element": "Pb", "occu": 1}], "abc": [-5.5400000000000005e-05, 0.499944599999999, -0.00010979], "properties": {"magmom": -0.0}, "label": "Pb", "xyz": [-2.36689936569998e-06, 2.3434069131006297, -0.0018238507250891]}, {"species": [{"element": "Pb", "occu": 1}], "abc": [0.2500554, 0.2500554, 0.50010979], "properties": {"magmom": -0.0}, "label": "Pb", "xyz": [2.6218993656179634e-06, 2.6218993656179634e-06, 8.307911495725088]}, {"species": [{"element": "Pb", "occu": 1}], "abc": [0.65822103, 0.15822103, 0.31644206], "properties": {"magmom": -0.0}, "label": "Pb", "xyz": [2.3434094413854503, 1.6138545055888187e-07, 5.256790969848698]}, {"species": [{"element": "Pb", "occu": 1}], "abc": [0.59177897, 0.59177897, 0.18355794], "properties": {"magmom": -0.0}, "label": "Pb", "xyz": [2.3434093736145494, 2.3434093736145494, 3.0492966751513024]}, {"species": [{"element": "Pb", "occu": 1}], "abc": [0.84177897, 0.34177897, 0.68355794], "properties": {"magmom": -0.0}, "label": "Pb", "xyz": [2.343409628614549, 3.486145494502324e-07, 11.355384320151304]}, {"species": [{"element": "Pb", "occu": 1}], "abc": [0.40822103, 0.40822103, 0.81644206], "properties": {"magmom": -0.0}, "label": "Pb", "xyz": [4.16385450563439e-07, 4.16385450563439e-07, 13.562878614848696]}]}, "task_ids": null, "uncorrected_energy_per_atom": null, "energy_per_atom": -47.929362505, "formation_energy_per_atom": -0.604620975555557, "energy_above_hull": 0.0, "is_stable": true, "equilibrium_reaction_energy_per_atom": null, "decomposes_to": null, "xas": null, "grain_boundaries": null, "band_gap": 0.0, "cbm": null, "vbm": null, "efermi": 6.24388465, "is_gap_direct": null, "is_metal": null, "es_source_calc_id": null, "bandstructure": null, "dos": null, "dos_energy_up": null, "dos_energy_down": null, "is_magnetic": null, "ordering": null, "total_magnetization": 0.0, "total_magnetization_normalized_vol": null, "total_magnetization_normalized_formula_units": null, "num_magnetic_sites": null, "num_unique_magnetic_sites": null, "types_of_magnetic_species": null, "bulk_modulus": null, "shear_modulus": null, "universal_anisotropy": null, "homogeneous_poisson": null, "e_total": null, "e_ionic": null, "e_electronic": null, "n": null, "e_ij_max": null, "weighted_surface_energy_EV_PER_ANG2": null, "weighted_surface_energy": null, "weighted_work_function": null, "surface_anisotropy": null, "shape_factor": null, "has_reconstructed": null, "possible_species": null, "has_props": null, "theoretical": null, "database_IDs": null, "fields_not_requested": ["builder_meta", "nsites", "elements", "nelements", "composition", "composition_reduced", "chemsys", "symmetry", "property_name", "deprecated", "deprecation_reasons", "last_updated", "origins", "warnings", "task_ids", "uncorrected_energy_per_atom", "equilibrium_reaction_energy_per_atom", "decomposes_to", "xas", "grain_boundaries", "cbm", "vbm", "is_gap_direct", "is_metal", "es_source_calc_id", "bandstructure", "dos", "dos_energy_up", "dos_energy_down", "is_magnetic", "ordering", "total_magnetization_normalized_vol", "total_magnetization_normalized_formula_units", "num_magnetic_sites", "num_unique_magnetic_sites", "types_of_magnetic_species", "bulk_modulus", "shear_modulus", "universal_anisotropy", "homogeneous_poisson", "e_total", "e_ionic", "e_electronic", "n", "e_ij_max", "weighted_surface_energy_EV_PER_ANG2", "weighted_surface_energy", "weighted_work_function", "surface_anisotropy", "shape_factor", "has_reconstructed", "possible_species", "has_props", "theoretical", "database_IDs"]}