{"builder_meta": null, "nsites": null, "elements": null, "nelements": null, "composition": null, "composition_reduced": null, "formula_pretty": "PrPd", "formula_anonymous": "AB", "chemsys": null, "volume": 99.44353092444481, "density": 8.259908337072442, "density_atomic": 24.860882731111204, "symmetry": null, "property_name": null, "material_id": "mp-999291", "deprecated": null, "deprecation_reasons": null, "last_updated": null, "origins": null, "warnings": null, "structure": {"@module": "pymatgen.core.structure", "@class": "Structure", "charge": 0, "lattice": {"matrix": [[-3.93068553, -0.0, -0.0], [-0.0, 0.0, -4.65075077], [-1.96534328, -5.43982802, -0.0]], "pbc": [true, true, true], "a": 3.93068553, "b": 4.65075077, "c": 5.783969492953631, "alpha": 90.0, "beta": 70.13583247060083, "gamma": 90.0, "volume": 99.44353092444481}, "properties": {}, "sites": [{"species": [{"element": "Pr", "occu": 1}], "abc": [0.13672882, 0.75, 0.72654135], "properties": {"magmom": -0.0}, "label": "Pr", "xyz": [-1.9653411541726025, -3.952259993418627, -3.4880630775]}, {"species": [{"element": "Pr", "occu": 1}], "abc": [0.86327118, 0.25, 0.27345865], "properties": {"magmom": -0.0}, "label": "Pr", "xyz": [-3.9306876558273975, -1.487568026581373, -1.1626876925]}, {"species": [{"element": "Pd", "occu": 1}], "abc": [0.41518185, 0.75, 0.1696353], "properties": {"magmom": 0.0}, "label": "Pd", "xyz": [-1.9653408870194145, -0.922786858121106, -3.4880630775]}, {"species": [{"element": "Pd", "occu": 1}], "abc": [0.58481815, 0.25, 0.8303647], "properties": {"magmom": 0.0}, "label": "Pd", "xyz": [-3.9306879229805856, -4.517041161878894, -1.1626876925]}]}, "task_ids": null, "uncorrected_energy_per_atom": null, "energy_per_atom": -5.7726394725, "formation_energy_per_atom": -0.784962838333331, "energy_above_hull": 0.0, "is_stable": true, "equilibrium_reaction_energy_per_atom": null, "decomposes_to": null, "xas": null, "grain_boundaries": null, "band_gap": 0.0, "cbm": null, "vbm": null, "efermi": 4.55918329, "is_gap_direct": null, "is_metal": null, "es_source_calc_id": null, "bandstructure": null, "dos": null, "dos_energy_up": null, "dos_energy_down": null, "is_magnetic": null, "ordering": null, "total_magnetization": 2e-06, "total_magnetization_normalized_vol": null, "total_magnetization_normalized_formula_units": null, "num_magnetic_sites": null, "num_unique_magnetic_sites": null, "types_of_magnetic_species": null, "bulk_modulus": null, "shear_modulus": null, "universal_anisotropy": null, "homogeneous_poisson": null, "e_total": null, "e_ionic": null, "e_electronic": null, "n": null, "e_ij_max": null, "weighted_surface_energy_EV_PER_ANG2": null, "weighted_surface_energy": null, "weighted_work_function": null, "surface_anisotropy": null, "shape_factor": null, "has_reconstructed": null, "possible_species": null, "has_props": null, "theoretical": null, "database_IDs": null, "fields_not_requested": ["builder_meta", "nsites", "elements", "nelements", "composition", "composition_reduced", "chemsys", "symmetry", "property_name", "deprecated", "deprecation_reasons", "last_updated", "origins", "warnings", "task_ids", "uncorrected_energy_per_atom", "equilibrium_reaction_energy_per_atom", "decomposes_to", "xas", "grain_boundaries", "cbm", "vbm", "is_gap_direct", "is_metal", "es_source_calc_id", "bandstructure", "dos", "dos_energy_up", "dos_energy_down", "is_magnetic", "ordering", "total_magnetization_normalized_vol", "total_magnetization_normalized_formula_units", "num_magnetic_sites", "num_unique_magnetic_sites", "types_of_magnetic_species", "bulk_modulus", "shear_modulus", "universal_anisotropy", "homogeneous_poisson", "e_total", "e_ionic", "e_electronic", "n", "e_ij_max", "weighted_surface_energy_EV_PER_ANG2", "weighted_surface_energy", "weighted_work_function", "surface_anisotropy", "shape_factor", "has_reconstructed", "possible_species", "has_props", "theoretical", "database_IDs"]}