{"builder_meta": null, "nsites": null, "elements": null, "nelements": null, "composition": null, "composition_reduced": null, "formula_pretty": "PrPd5", "formula_anonymous": "AB5", "chemsys": null, "volume": 212.7846715772756, "density": 10.50409774972728, "density_atomic": 17.732055964772965, "symmetry": null, "property_name": null, "material_id": "mp-1102877", "deprecated": null, "deprecation_reasons": null, "last_updated": null, "origins": null, "warnings": null, "structure": {"@module": "pymatgen.core.structure", "@class": "Structure", "charge": 0, "lattice": {"matrix": [[-2.551828, -4.419896, 0.0], [-2.552796, 4.420455, 0.001346], [0.002509, -0.0014479999999990002, -9.430552]], "pbc": [true, true, true], "a": 5.103656218085226, "b": 5.1046245343175825, "c": 9.43055244492543, "alpha": 90.03034939878681, "beta": 90.00000300827054, "gamma": 119.9937294030196, "volume": 212.7846715772756}, "properties": {}, "sites": [{"species": [{"element": "Pr", "occu": 1}], "abc": [0.666702999999999, 0.333335999999999, 0.24972599999999903], "properties": {"magmom": -0.0}, "label": "Pr", "xyz": [-2.5516236280059954, -1.4736227382559999, -2.354605358495991]}, {"species": [{"element": "Pr", "occu": 1}], "abc": [0.333366999999999, 0.666663999999999, 0.750274], "properties": {"magmom": -0.0}, "label": "Pr", "xyz": [-2.550669999953995, 1.4724243455360007, -7.074600641504]}, {"species": [{"element": "Pd", "occu": 1}], "abc": [0.677824, 0.0, 0.5], "properties": {"magmom": 0.0}, "label": "Pd", "xyz": [-1.728435762272, -2.996635586303999, -4.715276]}, {"species": [{"element": "Pd", "occu": 1}], "abc": [0.321855, 0.321608, 0.500012], "properties": {"magmom": 0.0}, "label": "Pd", "xyz": [-1.6410636868, -0.0016359528159992894, -4.714956282256]}, {"species": [{"element": "Pd", "occu": 1}], "abc": [0.000247, 0.678392, 0.499988], "properties": {"magmom": 0.0}, "label": "Pd", "xyz": [-1.7311722156559999, 2.9969856114240003, -4.714249717744001]}, {"species": [{"element": "Pd", "occu": 1}], "abc": [0.321309, 0.0, 0.0], "properties": {"magmom": -0.0}, "label": "Pd", "xyz": [-0.819925302852, -1.420152363864, 0.0]}, {"species": [{"element": "Pd", "occu": 1}], "abc": [0.678396, 0.678156, 1e-06], "properties": {"magmom": 0.0}, "label": "Pd", "xyz": [-3.4623438295549995, -0.0006816872840001454, 0.0009033674239999999]}, {"species": [{"element": "Pd", "occu": 1}], "abc": [0.00024000000000000003, 0.321843999999999, 0.999999], "properties": {"magmom": -0.0}, "label": "Pd", "xyz": [-0.8197055170529975, 1.4201881454279965, -9.430109367424]}, {"species": [{"element": "Pd", "occu": 1}], "abc": [0.666497, 0.333256999999999, 0.750074], "properties": {"magmom": 0.0}, "label": "Pd", "xyz": [-2.5496409074219977, -1.4737859595290035, -7.073163296926]}, {"species": [{"element": "Pd", "occu": 1}], "abc": [0.33324000000000004, 0.666743, 0.249925999999999], "properties": {"magmom": 0.0}, "label": "Pd", "xyz": [-2.551802961814, 1.474059392177, -2.3560427030739906]}, {"species": [{"element": "Pd", "occu": 1}], "abc": [0.000294, 6.8e-05, 0.750193], "properties": {"magmom": 0.0}, "label": "Pd", "xyz": [0.000958406677, -0.0020851379479992498, -7.074734005008]}, {"species": [{"element": "Pd", "occu": 1}], "abc": [0.000227, 0.999931999999999, 0.249807], "properties": {"magmom": 0.0}, "label": "Pd", "xyz": [-2.5525749090649974, 4.418789372131997, -2.354471994992]}]}, "task_ids": null, "uncorrected_energy_per_atom": null, "energy_per_atom": -5.581498751666667, "formation_energy_per_atom": -0.46568533361111003, "energy_above_hull": 0.039869484999999004, "is_stable": false, "equilibrium_reaction_energy_per_atom": null, "decomposes_to": null, "xas": null, "grain_boundaries": null, "band_gap": 0.0, "cbm": null, "vbm": null, "efermi": 4.37565346, "is_gap_direct": null, "is_metal": null, "es_source_calc_id": null, "bandstructure": null, "dos": null, "dos_energy_up": null, "dos_energy_down": null, "is_magnetic": null, "ordering": null, "total_magnetization": 0.0005882, "total_magnetization_normalized_vol": null, "total_magnetization_normalized_formula_units": null, "num_magnetic_sites": null, "num_unique_magnetic_sites": null, "types_of_magnetic_species": null, "bulk_modulus": null, "shear_modulus": null, "universal_anisotropy": null, "homogeneous_poisson": null, "e_total": null, "e_ionic": null, "e_electronic": null, "n": null, "e_ij_max": null, "weighted_surface_energy_EV_PER_ANG2": null, "weighted_surface_energy": null, "weighted_work_function": null, "surface_anisotropy": null, "shape_factor": null, "has_reconstructed": null, "possible_species": null, "has_props": null, "theoretical": null, "database_IDs": null, "fields_not_requested": ["builder_meta", "nsites", "elements", "nelements", "composition", "composition_reduced", "chemsys", "symmetry", "property_name", "deprecated", "deprecation_reasons", "last_updated", "origins", "warnings", "task_ids", "uncorrected_energy_per_atom", "equilibrium_reaction_energy_per_atom", "decomposes_to", "xas", "grain_boundaries", "cbm", "vbm", "is_gap_direct", "is_metal", "es_source_calc_id", "bandstructure", "dos", "dos_energy_up", "dos_energy_down", "is_magnetic", "ordering", "total_magnetization_normalized_vol", "total_magnetization_normalized_formula_units", "num_magnetic_sites", "num_unique_magnetic_sites", "types_of_magnetic_species", "bulk_modulus", "shear_modulus", "universal_anisotropy", "homogeneous_poisson", "e_total", "e_ionic", "e_electronic", "n", "e_ij_max", "weighted_surface_energy_EV_PER_ANG2", "weighted_surface_energy", "weighted_work_function", "surface_anisotropy", "shape_factor", "has_reconstructed", "possible_species", "has_props", "theoretical", "database_IDs"]}