{
  "builder_meta": null,
  "nsites": null,
  "elements": null,
  "nelements": null,
  "composition": null,
  "composition_reduced": null,
  "formula_pretty": "PrPt",
  "formula_anonymous": "AB",
  "chemsys": null,
  "volume": 196.83165000486107,
  "density": 11.338161537793642,
  "density_atomic": 24.603956250607634,
  "symmetry": null,
  "property_name": null,
  "material_id": "mp-1078557",
  "deprecated": null,
  "deprecation_reasons": null,
  "last_updated": null,
  "origins": null,
  "warnings": null,
  "structure": {
    "@module": "pymatgen.core.structure",
    "@class": "Structure",
    "charge": 0,
    "lattice": {
      "matrix": [
        [0.0, 4.6191311, -0.0],
        [0.0, 0.0, 5.74409185],
        [7.41845162, 0.0, 0.0]
      ],
      "pbc": [true, true, true],
      "a": 4.6191311,
      "b": 5.74409185,
      "c": 7.41845162,
      "alpha": 90.0,
      "beta": 90.0,
      "gamma": 90.0,
      "volume": 196.83165000486107
    },
    "properties": {},
    "sites": [
      {
        "species": [{ "element": "Pr", "occu": 1 }],
        "abc": [0.25, 0.36194675, 0.683128499999999],
        "properties": { "magmom": 0.0 },
        "label": "Pr",
        "xyz": [5.067755727493163, 1.154782775, 2.0790553768089874]
      },
      {
        "species": [{ "element": "Pr", "occu": 1 }],
        "abc": [0.25, 0.13805325000000002, 0.1831285],
        "properties": { "magmom": 0.0 },
        "label": "Pr",
        "xyz": [1.35852991749317, 1.154782775, 0.7929905481910127]
      },
      {
        "species": [{ "element": "Pr", "occu": 1 }],
        "abc": [0.75, 0.63805325, 0.3168715],
        "properties": { "magmom": 0.0 },
        "label": "Pr",
        "xyz": [2.3506958925068298, 3.4643483249999996, 3.665036473191013]
      },
      {
        "species": [{ "element": "Pr", "occu": 1 }],
        "abc": [0.75, 0.86194675, 0.8168715],
        "properties": { "magmom": 0.0 },
        "label": "Pr",
        "xyz": [6.05992170250683, 3.4643483249999996, 4.951101301808988]
      },
      {
        "species": [{ "element": "Pt", "occu": 1 }],
        "abc": [0.25, 0.84745973, 0.54441954],
        "properties": { "magmom": 0.0 },
        "label": "Pt",
        "xyz": [4.038750018472655, 1.154782775, 4.8678865282962]
      },
      {
        "species": [{ "element": "Pt", "occu": 1 }],
        "abc": [0.25, 0.65254027, 0.04441954],
        "properties": { "magmom": 0.0 },
        "label": "Pt",
        "xyz": [0.3295242084726548, 1.154782775, 3.7482512467038]
      },
      {
        "species": [{ "element": "Pt", "occu": 1 }],
        "abc": [0.75, 0.15254027, 0.45558046],
        "properties": { "magmom": 0.0 },
        "label": "Pt",
        "xyz": [3.379701601527345, 3.4643483249999996, 0.8762053217037996]
      },
      {
        "species": [{ "element": "Pt", "occu": 1 }],
        "abc": [0.75, 0.34745973, 0.95558046],
        "properties": { "magmom": 0.0 },
        "label": "Pt",
        "xyz": [7.088927411527345, 3.4643483249999996, 1.9958406032962006]
      }
    ]
  },
  "task_ids": null,
  "uncorrected_energy_per_atom": null,
  "energy_per_atom": -6.537271248750002,
  "formation_energy_per_atom": -1.103968859583334,
  "energy_above_hull": 0.0,
  "is_stable": true,
  "equilibrium_reaction_energy_per_atom": null,
  "decomposes_to": null,
  "xas": null,
  "grain_boundaries": null,
  "band_gap": 0.0,
  "cbm": null,
  "vbm": null,
  "efermi": 5.0576266,
  "is_gap_direct": null,
  "is_metal": null,
  "es_source_calc_id": null,
  "bandstructure": null,
  "dos": null,
  "dos_energy_up": null,
  "dos_energy_down": null,
  "is_magnetic": null,
  "ordering": null,
  "total_magnetization": 0.0,
  "total_magnetization_normalized_vol": null,
  "total_magnetization_normalized_formula_units": null,
  "num_magnetic_sites": null,
  "num_unique_magnetic_sites": null,
  "types_of_magnetic_species": null,
  "bulk_modulus": null,
  "shear_modulus": null,
  "universal_anisotropy": null,
  "homogeneous_poisson": null,
  "e_total": null,
  "e_ionic": null,
  "e_electronic": null,
  "n": null,
  "e_ij_max": null,
  "weighted_surface_energy_EV_PER_ANG2": null,
  "weighted_surface_energy": null,
  "weighted_work_function": null,
  "surface_anisotropy": null,
  "shape_factor": null,
  "has_reconstructed": null,
  "possible_species": null,
  "has_props": null,
  "theoretical": null,
  "database_IDs": null,
  "fields_not_requested": [
    "builder_meta",
    "nsites",
    "elements",
    "nelements",
    "composition",
    "composition_reduced",
    "chemsys",
    "symmetry",
    "property_name",
    "deprecated",
    "deprecation_reasons",
    "last_updated",
    "origins",
    "warnings",
    "task_ids",
    "uncorrected_energy_per_atom",
    "equilibrium_reaction_energy_per_atom",
    "decomposes_to",
    "xas",
    "grain_boundaries",
    "cbm",
    "vbm",
    "is_gap_direct",
    "is_metal",
    "es_source_calc_id",
    "bandstructure",
    "dos",
    "dos_energy_up",
    "dos_energy_down",
    "is_magnetic",
    "ordering",
    "total_magnetization_normalized_vol",
    "total_magnetization_normalized_formula_units",
    "num_magnetic_sites",
    "num_unique_magnetic_sites",
    "types_of_magnetic_species",
    "bulk_modulus",
    "shear_modulus",
    "universal_anisotropy",
    "homogeneous_poisson",
    "e_total",
    "e_ionic",
    "e_electronic",
    "n",
    "e_ij_max",
    "weighted_surface_energy_EV_PER_ANG2",
    "weighted_surface_energy",
    "weighted_work_function",
    "surface_anisotropy",
    "shape_factor",
    "has_reconstructed",
    "possible_species",
    "has_props",
    "theoretical",
    "database_IDs"
  ]
}
