{"builder_meta": null, "nsites": null, "elements": null, "nelements": null, "composition": null, "composition_reduced": null, "formula_pretty": "PrRh", "formula_anonymous": "AB", "chemsys": null, "volume": 93.03047319894945, "density": 8.703841797299976, "density_atomic": 23.257618299737363, "symmetry": null, "property_name": null, "material_id": "mp-999305", "deprecated": null, "deprecation_reasons": null, "last_updated": null, "origins": null, "warnings": null, "structure": {"@module": "pymatgen.core.structure", "@class": "Structure", "charge": 0, "lattice": {"matrix": [[-3.98044112, -0.00054801, 0.0], [0.0, 0.0, -4.20201283], [-1.99097327, -5.56234669, 0.0]], "pbc": [true, true, true], "a": 3.980441157723829, "b": 4.20201283, "c": 5.90793324789714, "alpha": 90.0, "beta": 70.29791128802597, "gamma": 90.0, "volume": 93.03047319894945}, "properties": {}, "sites": [{"species": [{"element": "Pr", "occu": 1}], "abc": [0.14089148, 0.75, 0.71808903], "properties": {"magmom": 0.0}, "label": "Pr", "xyz": [-1.9905063046598857, -3.994337349085766, -3.1515096225]}, {"species": [{"element": "Pr", "occu": 1}], "abc": [0.85910852, 0.25, 0.28191097], "properties": {"magmom": 0.0}, "label": "Pr", "xyz": [-3.9809080853401144, -1.5685573509142345, -1.0505032075]}, {"species": [{"element": "Rh", "occu": 1}], "abc": [0.415771699999999, 0.75, 0.16825044], "properties": {"magmom": 0.0}, "label": "Rh", "xyz": [-1.989936899918039, -0.9360951250743607, -3.1515096225]}, {"species": [{"element": "Rh", "occu": 1}], "abc": [0.584228299999999, 0.25, 0.83174956], "properties": {"magmom": 0.0}, "label": "Rh", "xyz": [-3.9814774900819536, -4.626799574925639, -1.0505032075]}]}, "task_ids": null, "uncorrected_energy_per_atom": null, "energy_per_atom": -6.720380509999998, "formation_energy_per_atom": -0.64049084583333, "energy_above_hull": 0.0, "is_stable": true, "equilibrium_reaction_energy_per_atom": null, "decomposes_to": null, "xas": null, "grain_boundaries": null, "band_gap": 0.17550000000000002, "cbm": null, "vbm": null, "efermi": 4.48380007, "is_gap_direct": null, "is_metal": null, "es_source_calc_id": null, "bandstructure": null, "dos": null, "dos_energy_up": null, "dos_energy_down": null, "is_magnetic": null, "ordering": null, "total_magnetization": 0.0, "total_magnetization_normalized_vol": null, "total_magnetization_normalized_formula_units": null, "num_magnetic_sites": null, "num_unique_magnetic_sites": null, "types_of_magnetic_species": null, "bulk_modulus": null, "shear_modulus": null, "universal_anisotropy": null, "homogeneous_poisson": null, "e_total": null, "e_ionic": null, "e_electronic": null, "n": null, "e_ij_max": null, "weighted_surface_energy_EV_PER_ANG2": null, "weighted_surface_energy": null, "weighted_work_function": null, "surface_anisotropy": null, "shape_factor": null, "has_reconstructed": null, "possible_species": null, "has_props": null, "theoretical": null, "database_IDs": null, "fields_not_requested": ["builder_meta", "nsites", "elements", "nelements", "composition", "composition_reduced", "chemsys", "symmetry", "property_name", "deprecated", "deprecation_reasons", "last_updated", "origins", "warnings", "task_ids", "uncorrected_energy_per_atom", "equilibrium_reaction_energy_per_atom", "decomposes_to", "xas", "grain_boundaries", "cbm", "vbm", "is_gap_direct", "is_metal", "es_source_calc_id", "bandstructure", "dos", "dos_energy_up", "dos_energy_down", "is_magnetic", "ordering", "total_magnetization_normalized_vol", "total_magnetization_normalized_formula_units", "num_magnetic_sites", "num_unique_magnetic_sites", "types_of_magnetic_species", "bulk_modulus", "shear_modulus", "universal_anisotropy", "homogeneous_poisson", "e_total", "e_ionic", "e_electronic", "n", "e_ij_max", "weighted_surface_energy_EV_PER_ANG2", "weighted_surface_energy", "weighted_work_function", "surface_anisotropy", "shape_factor", "has_reconstructed", "possible_species", "has_props", "theoretical", "database_IDs"]}