{
  "builder_meta": null,
  "nsites": null,
  "elements": null,
  "nelements": null,
  "composition": null,
  "composition_reduced": null,
  "formula_pretty": "PrRu2",
  "formula_anonymous": "AB2",
  "chemsys": null,
  "volume": 112.64061835759517,
  "density": 10.114362524571728,
  "density_atomic": 18.773436392932528,
  "symmetry": null,
  "property_name": null,
  "material_id": "mp-2665",
  "deprecated": null,
  "deprecation_reasons": null,
  "last_updated": null,
  "origins": null,
  "warnings": null,
  "structure": {
    "@module": "pymatgen.core.structure",
    "@class": "Structure",
    "charge": 0,
    "lattice": {
      "matrix": [
        [4.69465173, -8.239999999999996e-6, 2.7104472900000003],
        [1.56487773, 4.42610929, 2.71044421],
        [8.249999999999996e-6, 3.079999999999999e-6, 5.42087915]
      ],
      "pbc": [true, true, true],
      "a": 5.4209113051154265,
      "b": 5.4208664964557824,
      "c": 5.420879150007153,
      "alpha": 59.999806457627464,
      "beta": 60.00001486271028,
      "gamma": 59.99996083061521,
      "volume": 112.64061835759516
    },
    "properties": {},
    "sites": [
      {
        "species": [{ "element": "Pr", "occu": 1 }],
        "abc": [0.12500209, 0.12499572, 0.12500109],
        "properties": { "magmom": -0.047 },
        "label": "Pr",
        "xyz": [0.782445327904424, 0.5532440724883745, 1.355221304141891]
      },
      {
        "species": [{ "element": "Pr", "occu": 1 }],
        "abc": [0.87499791, 0.87500428, 0.87499891],
        "properties": { "magmom": -0.047 },
        "label": "Pr",
        "xyz": [5.477092382095577, 3.872860057511626, 9.48654934585811]
      },
      {
        "species": [{ "element": "Ru", "occu": 1 }],
        "abc": [0.5, 0.0, 0.5],
        "properties": { "magmom": 0.234 },
        "label": "Ru",
        "xyz": [2.34732999, -2.579999999999998e-6, 4.06566322]
      },
      {
        "species": [{ "element": "Ru", "occu": 1 }],
        "abc": [-0.0, 0.5, 0.5],
        "properties": { "magmom": 0.234 },
        "label": "Ru",
        "xyz": [0.7824429900000001, 2.213056185, 4.06566168]
      },
      {
        "species": [{ "element": "Ru", "occu": 1 }],
        "abc": [0.5, 0.5, 0.5],
        "properties": { "magmom": 0.234 },
        "label": "Ru",
        "xyz": [3.129768855, 2.2130520650000003, 5.420885325]
      },
      {
        "species": [{ "element": "Ru", "occu": 1 }],
        "abc": [0.5, 0.5, 0.0],
        "properties": { "magmom": 0.234 },
        "label": "Ru",
        "xyz": [3.12976473, 2.2130505250000003, 2.71044575]
      }
    ]
  },
  "task_ids": null,
  "uncorrected_energy_per_atom": null,
  "energy_per_atom": -26.843458548333334,
  "formation_energy_per_atom": -0.092449562222223,
  "energy_above_hull": 0.003174256547616,
  "is_stable": false,
  "equilibrium_reaction_energy_per_atom": null,
  "decomposes_to": null,
  "xas": null,
  "grain_boundaries": null,
  "band_gap": 0.0,
  "cbm": null,
  "vbm": null,
  "efermi": 5.92373598,
  "is_gap_direct": null,
  "is_metal": null,
  "es_source_calc_id": null,
  "bandstructure": null,
  "dos": null,
  "dos_energy_up": null,
  "dos_energy_down": null,
  "is_magnetic": null,
  "ordering": null,
  "total_magnetization": 0.763724899999999,
  "total_magnetization_normalized_vol": null,
  "total_magnetization_normalized_formula_units": null,
  "num_magnetic_sites": null,
  "num_unique_magnetic_sites": null,
  "types_of_magnetic_species": null,
  "bulk_modulus": null,
  "shear_modulus": null,
  "universal_anisotropy": null,
  "homogeneous_poisson": null,
  "e_total": null,
  "e_ionic": null,
  "e_electronic": null,
  "n": null,
  "e_ij_max": null,
  "weighted_surface_energy_EV_PER_ANG2": null,
  "weighted_surface_energy": null,
  "weighted_work_function": null,
  "surface_anisotropy": null,
  "shape_factor": null,
  "has_reconstructed": null,
  "possible_species": null,
  "has_props": null,
  "theoretical": null,
  "database_IDs": null,
  "fields_not_requested": [
    "builder_meta",
    "nsites",
    "elements",
    "nelements",
    "composition",
    "composition_reduced",
    "chemsys",
    "symmetry",
    "property_name",
    "deprecated",
    "deprecation_reasons",
    "last_updated",
    "origins",
    "warnings",
    "task_ids",
    "uncorrected_energy_per_atom",
    "equilibrium_reaction_energy_per_atom",
    "decomposes_to",
    "xas",
    "grain_boundaries",
    "cbm",
    "vbm",
    "is_gap_direct",
    "is_metal",
    "es_source_calc_id",
    "bandstructure",
    "dos",
    "dos_energy_up",
    "dos_energy_down",
    "is_magnetic",
    "ordering",
    "total_magnetization_normalized_vol",
    "total_magnetization_normalized_formula_units",
    "num_magnetic_sites",
    "num_unique_magnetic_sites",
    "types_of_magnetic_species",
    "bulk_modulus",
    "shear_modulus",
    "universal_anisotropy",
    "homogeneous_poisson",
    "e_total",
    "e_ionic",
    "e_electronic",
    "n",
    "e_ij_max",
    "weighted_surface_energy_EV_PER_ANG2",
    "weighted_surface_energy",
    "weighted_work_function",
    "surface_anisotropy",
    "shape_factor",
    "has_reconstructed",
    "possible_species",
    "has_props",
    "theoretical",
    "database_IDs"
  ]
}
