{"builder_meta": null, "nsites": null, "elements": null, "nelements": null, "composition": null, "composition_reduced": null, "formula_pretty": "PrS2", "formula_anonymous": "AB2", "chemsys": null, "volume": 271.7864341590086, "density": 5.010890687055613, "density_atomic": 22.648869513250716, "symmetry": null, "property_name": null, "material_id": "mp-555096", "deprecated": null, "deprecation_reasons": null, "last_updated": null, "origins": null, "warnings": null, "structure": {"@module": "pymatgen.core.structure", "@class": "Structure", "charge": 0, "lattice": {"matrix": [[4.08673914, 0.0, 0.0], [0.0, 8.12857532, -0.00759201], [0.0, 0.0038090800000000003, 8.18156218]], "pbc": [true, true, true], "a": 4.08673914, "b": 8.12857886543084, "c": 8.181563066694334, "alpha": 90.02683855841767, "beta": 90.0, "gamma": 90.0, "volume": 271.78643415900854}, "properties": {}, "sites": [{"species": [{"element": "Pr", "occu": 1}], "abc": [0.20985867, 0.12979209, 0.27594628], "properties": {"magmom": -0.0}, "label": "Pr", "xyz": [0.8576376405573437, 1.0560758809614412, 2.2566862653144897]}, {"species": [{"element": "Pr", "occu": 1}], "abc": [0.29014133000000003, 0.62979209, 0.27594628], "properties": {"magmom": -0.0}, "label": "Pr", "xyz": [1.1857319294426563, 5.120363540961441, 2.25289026031449]}, {"species": [{"element": "Pr", "occu": 1}], "abc": [0.79014133, 0.87020791, 0.72405372], "properties": {"magmom": -0.0}, "label": "Pr", "xyz": [3.2291014994426557, 7.076308519038558, 5.917283904685511]}, {"species": [{"element": "Pr", "occu": 1}], "abc": [0.70985867, 0.37020791000000003, 0.72405372], "properties": {"magmom": -0.0}, "label": "Pr", "xyz": [2.901007210557344, 3.0120208590385587, 5.921079909685511]}, {"species": [{"element": "S", "occu": 1}], "abc": [0.73866833, 0.37460687, 0.36681632000000003], "properties": {"magmom": 0.0}, "label": "S", "xyz": [3.018744775689436, 3.0464173908926337, 2.9982865116156696]}, {"species": [{"element": "S", "occu": 1}], "abc": [0.847482499999999, 0.60593888, 0.00260785], "properties": {"magmom": -0.0}, "label": "S", "xyz": [3.4634399032150456, 4.925429758905719, 0.016735992894764202]}, {"species": [{"element": "S", "occu": 1}], "abc": [0.23866833, 0.12539313, 0.63318368], "properties": {"magmom": 0.0}, "label": "S", "xyz": [0.9753752056894361, 1.021679349107366, 5.179479663384332]}, {"species": [{"element": "S", "occu": 1}], "abc": [0.26133167, 0.62539313, 0.63318368], "properties": {"magmom": 0.0}, "label": "S", "xyz": [1.0679943643105638, 5.085967009107365, 5.175683658384331]}, {"species": [{"element": "S", "occu": 1}], "abc": [0.76133167, 0.87460687, 0.36681632000000003], "properties": {"magmom": 0.0}, "label": "S", "xyz": [3.1113639343105635, 7.110705050892634, 2.9944905066156693]}, {"species": [{"element": "S", "occu": 1}], "abc": [0.34748249999999903, 0.89406112, 0.99739215], "properties": {"magmom": -0.0}, "label": "S", "xyz": [1.420070333215046, 7.27124230109428, 8.153438172105236]}, {"species": [{"element": "S", "occu": 1}], "abc": [0.6525175, 0.10593888, 0.00260785], "properties": {"magmom": -0.0}, "label": "S", "xyz": [2.6666688067849496, 0.8611420989057196, 0.020531997894764203]}, {"species": [{"element": "S", "occu": 1}], "abc": [0.1525175, 0.39406112, 0.99739215], "properties": {"magmom": -0.0}, "label": "S", "xyz": [0.6232992367849499, 3.2069546410942804, 8.157234177105236]}]}, "task_ids": null, "uncorrected_energy_per_atom": null, "energy_per_atom": -17.168116407499998, "formation_energy_per_atom": -2.010131563263888, "energy_above_hull": 0.0, "is_stable": true, "equilibrium_reaction_energy_per_atom": null, "decomposes_to": null, "xas": null, "grain_boundaries": null, "band_gap": 0.34629999999999905, "cbm": null, "vbm": null, "efermi": 4.78249399, "is_gap_direct": null, "is_metal": null, "es_source_calc_id": null, "bandstructure": null, "dos": null, "dos_energy_up": null, "dos_energy_down": null, "is_magnetic": null, "ordering": null, "total_magnetization": 0.0, "total_magnetization_normalized_vol": null, "total_magnetization_normalized_formula_units": null, "num_magnetic_sites": null, "num_unique_magnetic_sites": null, "types_of_magnetic_species": null, "bulk_modulus": null, "shear_modulus": null, "universal_anisotropy": null, "homogeneous_poisson": null, "e_total": null, "e_ionic": null, "e_electronic": null, "n": null, "e_ij_max": null, "weighted_surface_energy_EV_PER_ANG2": null, "weighted_surface_energy": null, "weighted_work_function": null, "surface_anisotropy": null, "shape_factor": null, "has_reconstructed": null, "possible_species": null, "has_props": null, "theoretical": null, "database_IDs": null, "fields_not_requested": ["builder_meta", "nsites", "elements", "nelements", "composition", "composition_reduced", "chemsys", "symmetry", "property_name", "deprecated", "deprecation_reasons", "last_updated", "origins", "warnings", "task_ids", "uncorrected_energy_per_atom", "equilibrium_reaction_energy_per_atom", "decomposes_to", "xas", "grain_boundaries", "cbm", "vbm", "is_gap_direct", "is_metal", "es_source_calc_id", "bandstructure", "dos", "dos_energy_up", "dos_energy_down", "is_magnetic", "ordering", "total_magnetization_normalized_vol", "total_magnetization_normalized_formula_units", "num_magnetic_sites", "num_unique_magnetic_sites", "types_of_magnetic_species", "bulk_modulus", "shear_modulus", "universal_anisotropy", "homogeneous_poisson", "e_total", "e_ionic", "e_electronic", "n", "e_ij_max", "weighted_surface_energy_EV_PER_ANG2", "weighted_surface_energy", "weighted_work_function", "surface_anisotropy", "shape_factor", "has_reconstructed", "possible_species", "has_props", "theoretical", "database_IDs"]}