{
  "builder_meta": null,
  "nsites": null,
  "elements": null,
  "nelements": null,
  "composition": null,
  "composition_reduced": null,
  "formula_pretty": "PrS3",
  "formula_anonymous": "AB3",
  "chemsys": null,
  "volume": 165.11464416871075,
  "density": 4.7690283935941284,
  "density_atomic": 20.639330521088844,
  "symmetry": null,
  "property_name": null,
  "material_id": "mp-975653",
  "deprecated": null,
  "deprecation_reasons": null,
  "last_updated": null,
  "origins": null,
  "warnings": null,
  "structure": {
    "@module": "pymatgen.core.structure",
    "@class": "Structure",
    "charge": 0,
    "lattice": {
      "matrix": [
        [2.894306, -5.013085, 0.0],
        [2.894306, 5.013085, 0.0],
        [0.0, 0.0, 5.689919]
      ],
      "pbc": [true, true, true],
      "a": 5.788611961330713,
      "b": 5.788611961330713,
      "c": 5.689919,
      "alpha": 90.0,
      "beta": 90.0,
      "gamma": 119.99999955803922,
      "volume": 165.11464416871075
    },
    "properties": {},
    "sites": [
      {
        "species": [{ "element": "Pr", "occu": 1 }],
        "abc": [0.333333, 0.666667, 0.75],
        "properties": { "magmom": -0.0 },
        "label": "Pr",
        "xyz": [2.894306, 1.67103167539, 4.26743925]
      },
      {
        "species": [{ "element": "Pr", "occu": 1 }],
        "abc": [0.666667, 0.333333, 0.25],
        "properties": { "magmom": -0.0 },
        "label": "Pr",
        "xyz": [2.894306, -1.67103167539, 1.42247975]
      },
      {
        "species": [{ "element": "S", "occu": 1 }],
        "abc": [0.176787, 0.353575, 0.25],
        "properties": { "magmom": 0.0 },
        "label": "S",
        "xyz": [1.5350299187719998, 0.8862532709799998, 1.42247975]
      },
      {
        "species": [{ "element": "S", "occu": 1 }],
        "abc": [0.646424999999999, 0.823213, 0.25],
        "properties": { "magmom": 0.0 },
        "label": "S",
        "xyz": [4.2535820812279965, 0.8862532709800042, 1.42247975]
      },
      {
        "species": [{ "element": "S", "occu": 1 }],
        "abc": [0.176787, 0.823213, 0.25],
        "properties": { "magmom": 0.0 },
        "label": "S",
        "xyz": [2.894306, 3.2405884842099995, 1.42247975]
      },
      {
        "species": [{ "element": "S", "occu": 1 }],
        "abc": [0.823213, 0.646424999999999, 0.75],
        "properties": { "magmom": 0.0 },
        "label": "S",
        "xyz": [4.2535820812279965, -0.8862532709800042, 4.26743925]
      },
      {
        "species": [{ "element": "S", "occu": 1 }],
        "abc": [0.353575, 0.176787, 0.75],
        "properties": { "magmom": 0.0 },
        "label": "S",
        "xyz": [1.5350299187719998, -0.8862532709799998, 4.26743925]
      },
      {
        "species": [{ "element": "S", "occu": 1 }],
        "abc": [0.823213, 0.176787, 0.75],
        "properties": { "magmom": 0.0 },
        "label": "S",
        "xyz": [2.894306, -3.2405884842099995, 4.26743925]
      }
    ]
  },
  "task_ids": null,
  "uncorrected_energy_per_atom": null,
  "energy_per_atom": -14.522704413203122,
  "formation_energy_per_atom": -1.145466009479163,
  "energy_above_hull": 0.36213266296875,
  "is_stable": false,
  "equilibrium_reaction_energy_per_atom": null,
  "decomposes_to": null,
  "xas": null,
  "grain_boundaries": null,
  "band_gap": 0.0,
  "cbm": null,
  "vbm": null,
  "efermi": 5.39577731,
  "is_gap_direct": null,
  "is_metal": null,
  "es_source_calc_id": null,
  "bandstructure": null,
  "dos": null,
  "dos_energy_up": null,
  "dos_energy_down": null,
  "is_magnetic": null,
  "ordering": null,
  "total_magnetization": 9.09e-5,
  "total_magnetization_normalized_vol": null,
  "total_magnetization_normalized_formula_units": null,
  "num_magnetic_sites": null,
  "num_unique_magnetic_sites": null,
  "types_of_magnetic_species": null,
  "bulk_modulus": null,
  "shear_modulus": null,
  "universal_anisotropy": null,
  "homogeneous_poisson": null,
  "e_total": null,
  "e_ionic": null,
  "e_electronic": null,
  "n": null,
  "e_ij_max": null,
  "weighted_surface_energy_EV_PER_ANG2": null,
  "weighted_surface_energy": null,
  "weighted_work_function": null,
  "surface_anisotropy": null,
  "shape_factor": null,
  "has_reconstructed": null,
  "possible_species": null,
  "has_props": null,
  "theoretical": null,
  "database_IDs": null,
  "fields_not_requested": [
    "builder_meta",
    "nsites",
    "elements",
    "nelements",
    "composition",
    "composition_reduced",
    "chemsys",
    "symmetry",
    "property_name",
    "deprecated",
    "deprecation_reasons",
    "last_updated",
    "origins",
    "warnings",
    "task_ids",
    "uncorrected_energy_per_atom",
    "equilibrium_reaction_energy_per_atom",
    "decomposes_to",
    "xas",
    "grain_boundaries",
    "cbm",
    "vbm",
    "is_gap_direct",
    "is_metal",
    "es_source_calc_id",
    "bandstructure",
    "dos",
    "dos_energy_up",
    "dos_energy_down",
    "is_magnetic",
    "ordering",
    "total_magnetization_normalized_vol",
    "total_magnetization_normalized_formula_units",
    "num_magnetic_sites",
    "num_unique_magnetic_sites",
    "types_of_magnetic_species",
    "bulk_modulus",
    "shear_modulus",
    "universal_anisotropy",
    "homogeneous_poisson",
    "e_total",
    "e_ionic",
    "e_electronic",
    "n",
    "e_ij_max",
    "weighted_surface_energy_EV_PER_ANG2",
    "weighted_surface_energy",
    "weighted_work_function",
    "surface_anisotropy",
    "shape_factor",
    "has_reconstructed",
    "possible_species",
    "has_props",
    "theoretical",
    "database_IDs"
  ]
}
