{"builder_meta": null, "nsites": null, "elements": null, "nelements": null, "composition": null, "composition_reduced": null, "formula_pretty": "PrSb2", "formula_anonymous": "AB2", "chemsys": null, "volume": 363.0328563018138, "density": 7.033601725299727, "density_atomic": 30.25273802515115, "symmetry": null, "property_name": null, "material_id": "mp-1102202", "deprecated": null, "deprecation_reasons": null, "last_updated": null, "origins": null, "warnings": null, "structure": {"@module": "pymatgen.core.structure", "@class": "Structure", "charge": 0, "lattice": {"matrix": [[3.15553639, 3.07802753, 0.0], [-3.15553639, 3.07802753, 0.0], [0.0, 0.0, 18.68831924]], "pbc": [true, true, true], "a": 4.408136044186038, "b": 4.408136044186038, "c": 18.68831924, "alpha": 90.0, "beta": 90.0, "gamma": 91.42477137136898, "volume": 363.0328563018138}, "properties": {}, "sites": [{"species": [{"element": "Pr", "occu": 1}], "abc": [0.36209594, 0.36209594, 0.88841499], "properties": {"magmom": -0.0}, "label": "Pr", "xyz": [0.0, 2.2290825436424564, 16.602982950721408]}, {"species": [{"element": "Pr", "occu": 1}], "abc": [0.63790406, 0.63790406, 0.11158501], "properties": {"magmom": -0.0}, "label": "Pr", "xyz": [0.0, 3.9269725163575435, 2.085336289278592]}, {"species": [{"element": "Pr", "occu": 1}], "abc": [0.13790406, 0.13790406, 0.38841499], "properties": {"magmom": -0.0}, "label": "Pr", "xyz": [0.0, 0.8489449863575436, 7.258823330721407]}, {"species": [{"element": "Pr", "occu": 1}], "abc": [0.86209594, 0.86209594, 0.61158501], "properties": {"magmom": -0.0}, "label": "Pr", "xyz": [0.0, 5.307110073642456, 11.429495909278591]}, {"species": [{"element": "Sb", "occu": 1}], "abc": [0.36794021, 0.36794021, 0.56159452], "properties": {"magmom": -0.0}, "label": "Sb", "xyz": [0.0, 2.2650601915479625, 10.495257673194564]}, {"species": [{"element": "Sb", "occu": 1}], "abc": [0.63205979, 0.63205979, 0.43840548], "properties": {"magmom": -0.0}, "label": "Sb", "xyz": [0.0, 3.8909948684520375, 8.193061566805435]}, {"species": [{"element": "Sb", "occu": 1}], "abc": [0.13205979, 0.13205979, 0.06159452], "properties": {"magmom": -0.0}, "label": "Sb", "xyz": [0.0, 0.8129673384520375, 1.1510980531945647]}, {"species": [{"element": "Sb", "occu": 1}], "abc": [0.86794021, 0.86794021, 0.93840548], "properties": {"magmom": -0.0}, "label": "Sb", "xyz": [0.0, 5.343087721547962, 17.537221186805436]}, {"species": [{"element": "Sb", "occu": 1}], "abc": [0.8774366, 0.377436599999999, 0.75], "properties": {"magmom": -0.0}, "label": "Sb", "xyz": [1.577768195000003, 3.862534256259193, 14.016239429999999]}, {"species": [{"element": "Sb", "occu": 1}], "abc": [0.6225634, 0.122563399999999, 0.25], "properties": {"magmom": -0.0}, "label": "Sb", "xyz": [1.577768195000003, 2.2935208037408006, 4.67207981]}, {"species": [{"element": "Sb", "occu": 1}], "abc": [0.122563399999999, 0.6225634, 0.25], "properties": {"magmom": -0.0}, "label": "Sb", "xyz": [-1.577768195000003, 2.2935208037408006, 4.67207981]}, {"species": [{"element": "Sb", "occu": 1}], "abc": [0.377436599999999, 0.8774366, 0.75], "properties": {"magmom": -0.0}, "label": "Sb", "xyz": [-1.577768195000003, 3.862534256259193, 14.016239429999999]}]}, "task_ids": null, "uncorrected_energy_per_atom": null, "energy_per_atom": -27.881083110833334, "formation_energy_per_atom": -0.942220501388888, "energy_above_hull": 0.009909329166667001, "is_stable": false, "equilibrium_reaction_energy_per_atom": null, "decomposes_to": null, "xas": null, "grain_boundaries": null, "band_gap": 0.0, "cbm": null, "vbm": null, "efermi": 6.01171193, "is_gap_direct": null, "is_metal": null, "es_source_calc_id": null, "bandstructure": null, "dos": null, "dos_energy_up": null, "dos_energy_down": null, "is_magnetic": null, "ordering": null, "total_magnetization": 3e-07, "total_magnetization_normalized_vol": null, "total_magnetization_normalized_formula_units": null, "num_magnetic_sites": null, "num_unique_magnetic_sites": null, "types_of_magnetic_species": null, "bulk_modulus": null, "shear_modulus": null, "universal_anisotropy": null, "homogeneous_poisson": null, "e_total": null, "e_ionic": null, "e_electronic": null, "n": null, "e_ij_max": null, "weighted_surface_energy_EV_PER_ANG2": null, "weighted_surface_energy": null, "weighted_work_function": null, "surface_anisotropy": null, "shape_factor": null, "has_reconstructed": null, "possible_species": null, "has_props": null, "theoretical": null, "database_IDs": null, "fields_not_requested": ["builder_meta", "nsites", "elements", "nelements", "composition", "composition_reduced", "chemsys", "symmetry", "property_name", "deprecated", "deprecation_reasons", "last_updated", "origins", "warnings", "task_ids", "uncorrected_energy_per_atom", "equilibrium_reaction_energy_per_atom", "decomposes_to", "xas", "grain_boundaries", "cbm", "vbm", "is_gap_direct", "is_metal", "es_source_calc_id", "bandstructure", "dos", "dos_energy_up", "dos_energy_down", "is_magnetic", "ordering", "total_magnetization_normalized_vol", "total_magnetization_normalized_formula_units", "num_magnetic_sites", "num_unique_magnetic_sites", "types_of_magnetic_species", "bulk_modulus", "shear_modulus", "universal_anisotropy", "homogeneous_poisson", "e_total", "e_ionic", "e_electronic", "n", "e_ij_max", "weighted_surface_energy_EV_PER_ANG2", "weighted_surface_energy", "weighted_work_function", "surface_anisotropy", "shape_factor", "has_reconstructed", "possible_species", "has_props", "theoretical", "database_IDs"]}