{"builder_meta": null, "nsites": null, "elements": null, "nelements": null, "composition": null, "composition_reduced": null, "formula_pretty": "PrSe2", "formula_anonymous": "AB2", "chemsys": null, "volume": 307.62227108016253, "density": 6.452263488763646, "density_atomic": 25.63518925668021, "symmetry": null, "property_name": null, "material_id": "mp-570205", "deprecated": null, "deprecation_reasons": null, "last_updated": null, "origins": null, "warnings": null, "structure": {"@module": "pymatgen.core.structure", "@class": "Structure", "charge": 0, "lattice": {"matrix": [[4.22665075, 0.0, 0.0], [0.0, 8.47905471, 0.00576506], [0.0, 0.01558606, 8.58369958]], "pbc": [true, true, true], "a": 4.22665075, "b": 8.479056669883153, "c": 8.583713730370933, "alpha": 89.85700750488037, "beta": 90.0, "gamma": 90.0, "volume": 307.62227108016253}, "properties": {}, "sites": [{"species": [{"element": "Pr", "occu": 1}], "abc": [0.27960732, 0.37320053000000003, 0.27507317000000003], "properties": {"magmom": -0.0}, "label": "Pr", "xyz": [1.18180248878349, 3.1686750186030066, 2.3632969772457506]}, {"species": [{"element": "Pr", "occu": 1}], "abc": [0.72039268, 0.62679947, 0.72492683], "properties": {"magmom": -0.0}, "label": "Pr", "xyz": [3.04484826121651, 5.325965751396994, 6.22616766275425]}, {"species": [{"element": "Pr", "occu": 1}], "abc": [0.77960732, 0.12679947, 0.72492683], "properties": {"magmom": -0.0}, "label": "Pr", "xyz": [3.29512786378349, 1.0864383963969935, 6.22328513275425]}, {"species": [{"element": "Pr", "occu": 1}], "abc": [0.22039268, 0.87320053, 0.27507317000000003], "properties": {"magmom": -0.0}, "label": "Pr", "xyz": [0.93152288621651, 7.4082023736030065, 2.3661795072457505]}, {"species": [{"element": "Se", "occu": 1}], "abc": [0.32171836, 0.11705661, 0.99769482], "properties": {"magmom": 0.0}, "label": "Se", "xyz": [1.35979114758277, 1.0080795316833424, 8.564587445782221]}, {"species": [{"element": "Se", "occu": 1}], "abc": [0.75704317, 0.12520892, 0.36786678], "properties": {"magmom": 0.0}, "label": "Se", "xyz": [3.1997570822628774, 1.0673868765651, 3.1583797619182876]}, {"species": [{"element": "Se", "occu": 1}], "abc": [0.17828164, 0.61705661, 0.99769482], "properties": {"magmom": 0.0}, "label": "Se", "xyz": [0.75353422741723, 5.247606886683343, 8.567469975782222]}, {"species": [{"element": "Se", "occu": 1}], "abc": [0.82171836, 0.38294339, 0.00230518], "properties": {"magmom": 0.0}, "label": "Se", "xyz": [3.47311652258277, 3.2470338833166577, 0.021994664217777796]}, {"species": [{"element": "Se", "occu": 1}], "abc": [0.25704317, 0.37479108, 0.63213322], "properties": {"magmom": 0.0}, "label": "Se", "xyz": [1.0864317072628775, 3.1877265384349, 5.4282023480817125]}, {"species": [{"element": "Se", "occu": 1}], "abc": [0.67828164, 0.88294339, 0.00230518], "properties": {"magmom": 0.0}, "label": "Se", "xyz": [2.86685960241723, 7.486561238316657, 0.024877194217777798]}, {"species": [{"element": "Se", "occu": 1}], "abc": [0.74295683, 0.6252089200000001, 0.36786678], "properties": {"magmom": 0.0}, "label": "Se", "xyz": [3.140219042737123, 5.3069142315651, 3.1612622919182876]}, {"species": [{"element": "Se", "occu": 1}], "abc": [0.24295683, 0.87479108, 0.63213322], "properties": {"magmom": 0.0}, "label": "Se", "xyz": [1.0268936677371225, 7.427253893434901, 5.4310848780817125]}]}, "task_ids": null, "uncorrected_energy_per_atom": null, "energy_per_atom": -21.232988819166668, "formation_energy_per_atom": -1.890629875763887, "energy_above_hull": 0.0, "is_stable": true, "equilibrium_reaction_energy_per_atom": null, "decomposes_to": null, "xas": null, "grain_boundaries": null, "band_gap": 0.0, "cbm": null, "vbm": null, "efermi": 4.36028228, "is_gap_direct": null, "is_metal": null, "es_source_calc_id": null, "bandstructure": null, "dos": null, "dos_energy_up": null, "dos_energy_down": null, "is_magnetic": null, "ordering": null, "total_magnetization": 1e-07, "total_magnetization_normalized_vol": null, "total_magnetization_normalized_formula_units": null, "num_magnetic_sites": null, "num_unique_magnetic_sites": null, "types_of_magnetic_species": null, "bulk_modulus": null, "shear_modulus": null, "universal_anisotropy": null, "homogeneous_poisson": null, "e_total": null, "e_ionic": null, "e_electronic": null, "n": null, "e_ij_max": null, "weighted_surface_energy_EV_PER_ANG2": null, "weighted_surface_energy": null, "weighted_work_function": null, "surface_anisotropy": null, "shape_factor": null, "has_reconstructed": null, "possible_species": null, "has_props": null, "theoretical": null, "database_IDs": null, "fields_not_requested": ["builder_meta", "nsites", "elements", "nelements", "composition", "composition_reduced", "chemsys", "symmetry", "property_name", "deprecated", "deprecation_reasons", "last_updated", "origins", "warnings", "task_ids", "uncorrected_energy_per_atom", "equilibrium_reaction_energy_per_atom", "decomposes_to", "xas", "grain_boundaries", "cbm", "vbm", "is_gap_direct", "is_metal", "es_source_calc_id", "bandstructure", "dos", "dos_energy_up", "dos_energy_down", "is_magnetic", "ordering", "total_magnetization_normalized_vol", "total_magnetization_normalized_formula_units", "num_magnetic_sites", "num_unique_magnetic_sites", "types_of_magnetic_species", "bulk_modulus", "shear_modulus", "universal_anisotropy", "homogeneous_poisson", "e_total", "e_ionic", "e_electronic", "n", "e_ij_max", "weighted_surface_energy_EV_PER_ANG2", "weighted_surface_energy", "weighted_work_function", "surface_anisotropy", "shape_factor", "has_reconstructed", "possible_species", "has_props", "theoretical", "database_IDs"]}