{
  "builder_meta": null,
  "nsites": null,
  "elements": null,
  "nelements": null,
  "composition": null,
  "composition_reduced": null,
  "formula_pretty": "PrSi",
  "formula_anonymous": "AB",
  "chemsys": null,
  "volume": 198.34527922381983,
  "density": 5.6592166682451275,
  "density_atomic": 24.79315990297748,
  "symmetry": null,
  "property_name": null,
  "material_id": "mp-9968",
  "deprecated": null,
  "deprecation_reasons": null,
  "last_updated": null,
  "origins": null,
  "warnings": null,
  "structure": {
    "@module": "pymatgen.core.structure",
    "@class": "Structure",
    "charge": 0,
    "lattice": {
      "matrix": [
        [3.96197134, -0.0, 0.0],
        [-0.0, 5.99039537, 0.0],
        [0.0, 0.0, 8.35708947]
      ],
      "pbc": [true, true, true],
      "a": 3.96197134,
      "b": 5.99039537,
      "c": 8.35708947,
      "alpha": 90.0,
      "beta": 90.0,
      "gamma": 90.0,
      "volume": 198.34527922381983
    },
    "properties": {},
    "sites": [
      {
        "species": [{ "element": "Pr", "occu": 1 }],
        "abc": [0.25, 0.38664707, 0.67923782],
        "properties": { "magmom": -0.0 },
        "label": "Pr",
        "xyz": [0.990492835, 2.316168817952066, 5.6764512331477555]
      },
      {
        "species": [{ "element": "Pr", "occu": 1 }],
        "abc": [0.75, 0.61335293, 0.32076318],
        "properties": { "magmom": -0.0 },
        "label": "Pr",
        "xyz": [2.971478505, 3.674226552047934, 2.6806465939417143]
      },
      {
        "species": [{ "element": "Pr", "occu": 1 }],
        "abc": [0.75, 0.88664707, 0.82076218],
        "properties": { "magmom": -0.0 },
        "label": "Pr",
        "xyz": [2.971478505, 5.311366502952065, 6.859182971852245]
      },
      {
        "species": [{ "element": "Pr", "occu": 1 }],
        "abc": [0.25, 0.11335293, 0.17923782],
        "properties": { "magmom": -0.0 },
        "label": "Pr",
        "xyz": [0.990492835, 0.6790288670479341, 1.4979064981477552]
      },
      {
        "species": [{ "element": "Si", "occu": 1 }],
        "abc": [0.25, 0.88103558, 0.53448794],
        "properties": { "magmom": 0.0 },
        "label": "Si",
        "xyz": [0.990492835, 5.2777514592372645, 4.466763535215992]
      },
      {
        "species": [{ "element": "Si", "occu": 1 }],
        "abc": [0.75, 0.11896442, 0.46551206],
        "properties": { "magmom": 0.0 },
        "label": "Si",
        "xyz": [2.971478505, 0.7126439107627354, 3.8903259347840082]
      },
      {
        "species": [{ "element": "Si", "occu": 1 }],
        "abc": [0.75, 0.38103558, 0.96551206],
        "properties": { "magmom": 0.0 },
        "label": "Si",
        "xyz": [2.971478505, 2.2825537742372646, 8.068870669784008]
      },
      {
        "species": [{ "element": "Si", "occu": 1 }],
        "abc": [0.25, 0.61896442, 0.03448794],
        "properties": { "magmom": 0.0 },
        "label": "Si",
        "xyz": [0.990492835, 3.7078415957627353, 0.28821880021599183]
      }
    ]
  },
  "task_ids": null,
  "uncorrected_energy_per_atom": null,
  "energy_per_atom": -5.809007848749999,
  "formation_energy_per_atom": -0.698613104583332,
  "energy_above_hull": 0.0,
  "is_stable": true,
  "equilibrium_reaction_energy_per_atom": null,
  "decomposes_to": null,
  "xas": null,
  "grain_boundaries": null,
  "band_gap": 0.0,
  "cbm": null,
  "vbm": null,
  "efermi": 5.24130269,
  "is_gap_direct": null,
  "is_metal": null,
  "es_source_calc_id": null,
  "bandstructure": null,
  "dos": null,
  "dos_energy_up": null,
  "dos_energy_down": null,
  "is_magnetic": null,
  "ordering": null,
  "total_magnetization": 0.0001949,
  "total_magnetization_normalized_vol": null,
  "total_magnetization_normalized_formula_units": null,
  "num_magnetic_sites": null,
  "num_unique_magnetic_sites": null,
  "types_of_magnetic_species": null,
  "bulk_modulus": null,
  "shear_modulus": null,
  "universal_anisotropy": null,
  "homogeneous_poisson": null,
  "e_total": null,
  "e_ionic": null,
  "e_electronic": null,
  "n": null,
  "e_ij_max": null,
  "weighted_surface_energy_EV_PER_ANG2": null,
  "weighted_surface_energy": null,
  "weighted_work_function": null,
  "surface_anisotropy": null,
  "shape_factor": null,
  "has_reconstructed": null,
  "possible_species": null,
  "has_props": null,
  "theoretical": null,
  "database_IDs": null,
  "fields_not_requested": [
    "builder_meta",
    "nsites",
    "elements",
    "nelements",
    "composition",
    "composition_reduced",
    "chemsys",
    "symmetry",
    "property_name",
    "deprecated",
    "deprecation_reasons",
    "last_updated",
    "origins",
    "warnings",
    "task_ids",
    "uncorrected_energy_per_atom",
    "equilibrium_reaction_energy_per_atom",
    "decomposes_to",
    "xas",
    "grain_boundaries",
    "cbm",
    "vbm",
    "is_gap_direct",
    "is_metal",
    "es_source_calc_id",
    "bandstructure",
    "dos",
    "dos_energy_up",
    "dos_energy_down",
    "is_magnetic",
    "ordering",
    "total_magnetization_normalized_vol",
    "total_magnetization_normalized_formula_units",
    "num_magnetic_sites",
    "num_unique_magnetic_sites",
    "types_of_magnetic_species",
    "bulk_modulus",
    "shear_modulus",
    "universal_anisotropy",
    "homogeneous_poisson",
    "e_total",
    "e_ionic",
    "e_electronic",
    "n",
    "e_ij_max",
    "weighted_surface_energy_EV_PER_ANG2",
    "weighted_surface_energy",
    "weighted_work_function",
    "surface_anisotropy",
    "shape_factor",
    "has_reconstructed",
    "possible_species",
    "has_props",
    "theoretical",
    "database_IDs"
  ]
}
