{
  "builder_meta": null,
  "nsites": null,
  "elements": null,
  "nelements": null,
  "composition": null,
  "composition_reduced": null,
  "formula_pretty": "PrSn2",
  "formula_anonymous": "AB2",
  "chemsys": null,
  "volume": 170.96025496665945,
  "density": 7.34940226805918,
  "density_atomic": 28.493375827776575,
  "symmetry": null,
  "property_name": null,
  "material_id": "mp-1025069",
  "deprecated": null,
  "deprecation_reasons": null,
  "last_updated": null,
  "origins": null,
  "warnings": null,
  "structure": {
    "@module": "pymatgen.core.structure",
    "@class": "Structure",
    "charge": 0,
    "lattice": {
      "matrix": [
        [4.49527457, -3.0000000000000004e-8, 0.0],
        [0.0, 0.0, 4.60747352],
        [-2.24763572, -8.25422085, 0.0]
      ],
      "pbc": [true, true, true],
      "a": 4.49527457,
      "b": 4.60747352,
      "c": 8.554766400691173,
      "alpha": 90.0,
      "beta": 105.23240331607671,
      "gamma": 90.0,
      "volume": 170.96025496665945
    },
    "properties": {},
    "sites": [
      {
        "species": [{ "element": "Pr", "occu": 1 }],
        "abc": [0.85658905, 0.5, 0.713178099999999],
        "properties": { "magmom": 0.0 },
        "label": "Pr",
        "xyz": [2.247638401123729, -5.886729568481048, 2.30373676]
      },
      {
        "species": [{ "element": "Pr", "occu": 1 }],
        "abc": [0.14341095, 0.5, 0.286821899999999],
        "properties": { "magmom": 0.0 },
        "label": "Pr",
        "xyz": [4.488762758159126e-7, -2.3674913115189353, 2.30373676]
      },
      {
        "species": [{ "element": "Sn", "occu": 1 }],
        "abc": [0.68914511, 0.0, 0.37829121],
        "properties": { "magmom": -0.0 },
        "label": "Sn",
        "xyz": [2.2476356518648317, -3.1224992136280814, 0.0]
      },
      {
        "species": [{ "element": "Sn", "occu": 1 }],
        "abc": [0.31085489, -0.0, 0.62170879],
        "properties": { "magmom": -0.0 },
        "label": "Sn",
        "xyz": [3.1981351684695625e-6, -5.131721666371918, 0.0]
      },
      {
        "species": [{ "element": "Sn", "occu": 1 }],
        "abc": [0.5, 0.5, -0.0],
        "properties": { "magmom": 0.0 },
        "label": "Sn",
        "xyz": [2.247637285, -1.5000000000000002e-8, 2.30373676]
      },
      {
        "species": [{ "element": "Sn", "occu": 1 }],
        "abc": [-0.0, -0.0, -0.0],
        "properties": { "magmom": 0.0 },
        "label": "Sn",
        "xyz": [0.0, 0.0, 0.0]
      }
    ]
  },
  "task_ids": null,
  "uncorrected_energy_per_atom": null,
  "energy_per_atom": -4.906568053333335,
  "formation_energy_per_atom": -0.635029663888889,
  "energy_above_hull": 0.0,
  "is_stable": true,
  "equilibrium_reaction_energy_per_atom": null,
  "decomposes_to": null,
  "xas": null,
  "grain_boundaries": null,
  "band_gap": 0.0,
  "cbm": null,
  "vbm": null,
  "efermi": 6.55497025,
  "is_gap_direct": null,
  "is_metal": null,
  "es_source_calc_id": null,
  "bandstructure": null,
  "dos": null,
  "dos_energy_up": null,
  "dos_energy_down": null,
  "is_magnetic": null,
  "ordering": null,
  "total_magnetization": 0.0,
  "total_magnetization_normalized_vol": null,
  "total_magnetization_normalized_formula_units": null,
  "num_magnetic_sites": null,
  "num_unique_magnetic_sites": null,
  "types_of_magnetic_species": null,
  "bulk_modulus": null,
  "shear_modulus": null,
  "universal_anisotropy": null,
  "homogeneous_poisson": null,
  "e_total": null,
  "e_ionic": null,
  "e_electronic": null,
  "n": null,
  "e_ij_max": null,
  "weighted_surface_energy_EV_PER_ANG2": null,
  "weighted_surface_energy": null,
  "weighted_work_function": null,
  "surface_anisotropy": null,
  "shape_factor": null,
  "has_reconstructed": null,
  "possible_species": null,
  "has_props": null,
  "theoretical": null,
  "database_IDs": null,
  "fields_not_requested": [
    "builder_meta",
    "nsites",
    "elements",
    "nelements",
    "composition",
    "composition_reduced",
    "chemsys",
    "symmetry",
    "property_name",
    "deprecated",
    "deprecation_reasons",
    "last_updated",
    "origins",
    "warnings",
    "task_ids",
    "uncorrected_energy_per_atom",
    "equilibrium_reaction_energy_per_atom",
    "decomposes_to",
    "xas",
    "grain_boundaries",
    "cbm",
    "vbm",
    "is_gap_direct",
    "is_metal",
    "es_source_calc_id",
    "bandstructure",
    "dos",
    "dos_energy_up",
    "dos_energy_down",
    "is_magnetic",
    "ordering",
    "total_magnetization_normalized_vol",
    "total_magnetization_normalized_formula_units",
    "num_magnetic_sites",
    "num_unique_magnetic_sites",
    "types_of_magnetic_species",
    "bulk_modulus",
    "shear_modulus",
    "universal_anisotropy",
    "homogeneous_poisson",
    "e_total",
    "e_ionic",
    "e_electronic",
    "n",
    "e_ij_max",
    "weighted_surface_energy_EV_PER_ANG2",
    "weighted_surface_energy",
    "weighted_work_function",
    "surface_anisotropy",
    "shape_factor",
    "has_reconstructed",
    "possible_species",
    "has_props",
    "theoretical",
    "database_IDs"
  ]
}
