{"builder_meta": null, "nsites": null, "elements": null, "nelements": null, "composition": null, "composition_reduced": null, "formula_pretty": "PrTe3", "formula_anonymous": "AB3", "chemsys": null, "volume": 262.3092981658572, "density": 6.630622843971098, "density_atomic": 32.78866227073215, "symmetry": null, "property_name": null, "material_id": "mp-12351", "deprecated": null, "deprecation_reasons": null, "last_updated": null, "origins": null, "warnings": null, "structure": {"@module": "pymatgen.core.structure", "@class": "Structure", "charge": 0, "lattice": {"matrix": [[4.34285011, 0.0, -0.73084258], [0.0, 4.40523036, 0.0], [0.07241152000000001, 0.0, 13.69884856]], "pbc": [true, true, true], "a": 4.403916206590228, "b": 4.40523036, "c": 13.699039940741935, "alpha": 90.0, "beta": 99.24973351139347, "gamma": 90.0, "volume": 262.3092981658572}, "properties": {}, "sites": [{"species": [{"element": "Pr", "occu": 1}], "abc": [0.75014781, 0.25, 0.65971555], "properties": {"magmom": -0.0}, "label": "Pr", "xyz": [3.305550504917895, 1.10130759, 8.48910345128536]}, {"species": [{"element": "Pr", "occu": 1}], "abc": [0.09043226, 0.75, 0.34028445], "properties": {"magmom": -0.0}, "label": "Pr", "xyz": [0.4173742645454126, 3.30392277, 4.595413401659262]}, {"species": [{"element": "Te", "occu": 1}], "abc": [0.49314224, 0.75, 0.14722065], "properties": {"magmom": 0.0}, "label": "Te", "xyz": [2.152303302271534, 3.30392277, 1.6563440422661848]}, {"species": [{"element": "Te", "occu": 1}], "abc": [0.34592159, 0.25, 0.85277935], "properties": {"magmom": 0.0}, "label": "Te", "xyz": [1.5640366641409869, 1.10130759, 11.429280943431936]}, {"species": [{"element": "Te", "occu": 1}], "abc": [0.21435674000000002, 0.75, 0.58802812], "properties": {"magmom": 0.0}, "label": "Te", "xyz": [0.9734992018601838, 3.30392277, 7.898647131999518]}, {"species": [{"element": "Te", "occu": 1}], "abc": [0.62633162, 0.25, 0.41197188], "properties": {"magmom": 0.0}, "label": "Te", "xyz": [2.7498958548415358, 1.10130759, 5.185790578002114]}, {"species": [{"element": "Te", "occu": 1}], "abc": [0.993217199999999, 0.25, 0.14716968], "properties": {"magmom": -0.0}, "label": "Te", "xyz": [4.324050206500601, 1.10130759, 1.2901697379952854]}, {"species": [{"element": "Te", "occu": 1}], "abc": [0.84604752, 0.75, 0.85283032], "properties": {"magmom": -0.0}, "label": "Te", "xyz": [3.7360123050705134, 3.30392277, 11.064465848736939]}]}, "task_ids": null, "uncorrected_energy_per_atom": null, "energy_per_atom": -27.56474953625, "formation_energy_per_atom": -1.150842211666667, "energy_above_hull": 0.0, "is_stable": true, "equilibrium_reaction_energy_per_atom": null, "decomposes_to": null, "xas": null, "grain_boundaries": null, "band_gap": 0.0, "cbm": null, "vbm": null, "efermi": 4.91895521, "is_gap_direct": null, "is_metal": null, "es_source_calc_id": null, "bandstructure": null, "dos": null, "dos_energy_up": null, "dos_energy_down": null, "is_magnetic": null, "ordering": null, "total_magnetization": 0.0, "total_magnetization_normalized_vol": null, "total_magnetization_normalized_formula_units": null, "num_magnetic_sites": null, "num_unique_magnetic_sites": null, "types_of_magnetic_species": null, "bulk_modulus": null, "shear_modulus": null, "universal_anisotropy": null, "homogeneous_poisson": null, "e_total": null, "e_ionic": null, "e_electronic": null, "n": null, "e_ij_max": null, "weighted_surface_energy_EV_PER_ANG2": null, "weighted_surface_energy": null, "weighted_work_function": null, "surface_anisotropy": null, "shape_factor": null, "has_reconstructed": null, "possible_species": null, "has_props": null, "theoretical": null, "database_IDs": null, "fields_not_requested": ["builder_meta", "nsites", "elements", "nelements", "composition", "composition_reduced", "chemsys", "symmetry", "property_name", "deprecated", "deprecation_reasons", "last_updated", "origins", "warnings", "task_ids", "uncorrected_energy_per_atom", "equilibrium_reaction_energy_per_atom", "decomposes_to", "xas", "grain_boundaries", "cbm", "vbm", "is_gap_direct", "is_metal", "es_source_calc_id", "bandstructure", "dos", "dos_energy_up", "dos_energy_down", "is_magnetic", "ordering", "total_magnetization_normalized_vol", "total_magnetization_normalized_formula_units", "num_magnetic_sites", "num_unique_magnetic_sites", "types_of_magnetic_species", "bulk_modulus", "shear_modulus", "universal_anisotropy", "homogeneous_poisson", "e_total", "e_ionic", "e_electronic", "n", "e_ij_max", "weighted_surface_energy_EV_PER_ANG2", "weighted_surface_energy", "weighted_work_function", "surface_anisotropy", "shape_factor", "has_reconstructed", "possible_species", "has_props", "theoretical", "database_IDs"]}