{
  "builder_meta": null,
  "nsites": null,
  "elements": null,
  "nelements": null,
  "composition": null,
  "composition_reduced": null,
  "formula_pretty": "PrTm3",
  "formula_anonymous": "AB3",
  "chemsys": null,
  "volume": 258.97092834790476,
  "density": 8.30632403907144,
  "density_atomic": 32.371366043488095,
  "symmetry": null,
  "property_name": null,
  "material_id": "mp-975651",
  "deprecated": null,
  "deprecation_reasons": null,
  "last_updated": null,
  "origins": null,
  "warnings": null,
  "structure": {
    "@module": "pymatgen.core.structure",
    "@class": "Structure",
    "charge": 0,
    "lattice": {
      "matrix": [
        [7.21174735, -0.0027485400000000003, 0.0],
        [-3.60825899, 6.2498772, 0.0],
        [0.0, 0.0, 5.74691264]
      ],
      "pbc": [true, true, true],
      "a": 7.211747873761544,
      "b": 7.216681921353861,
      "c": 5.74691264,
      "alpha": 90.0,
      "beta": 90.0,
      "gamma": 120.02108508787097,
      "volume": 258.97092834790476
    },
    "properties": {},
    "sites": [
      {
        "species": [{ "element": "Pr", "occu": 1 }],
        "abc": [0.66737691, 0.33371624, 0.25],
        "properties": { "magmom": 0.28700000000000003 },
        "label": "Pr",
        "xyz": [3.60881903905469, 2.0838512075135167, 1.43672816]
      },
      {
        "species": [{ "element": "Pr", "occu": 1 }],
        "abc": [0.33262209, 0.66628076, 0.75],
        "properties": { "magmom": 0.28700000000000003 },
        "label": "Pr",
        "xyz": [-0.005327066025071492, 4.163258705603424, 4.31018448]
      },
      {
        "species": [{ "element": "Tm", "occu": 1 }],
        "abc": [0.16415914, 0.83647151, 0.25],
        "properties": { "magmom": 0.459 },
        "label": "Tm",
        "xyz": [-1.8343316029630958, 5.227393020835916, 1.43672816]
      },
      {
        "species": [{ "element": "Tm", "occu": 1 }],
        "abc": [0.83585784, 0.67230154, 0.75],
        "properties": { "magmom": 0.459 },
        "label": "Tm",
        "xyz": [3.6021574869008792, 4.1995046776633345, 4.31018448]
      },
      {
        "species": [{ "element": "Tm", "occu": 1 }],
        "abc": [0.32736245, 0.16369359, 0.75],
        "properties": { "magmom": 0.459 },
        "label": "Tm",
        "xyz": [1.7702064135541333, 1.0221650671388252, 4.31018448]
      },
      {
        "species": [{ "element": "Tm", "occu": 1 }],
        "abc": [0.67263755, 0.8363064100000001, 0.25],
        "properties": { "magmom": 0.459 },
        "label": "Tm",
        "xyz": [1.8332819464458665, 5.224963592861176, 1.43672816]
      },
      {
        "species": [{ "element": "Tm", "occu": 1 }],
        "abc": [0.16414416, 0.32769846, 0.25],
        "properties": { "magmom": 0.459 },
        "label": "Tm",
        "xyz": [0.0013452965938205441, 2.047623976839586, 1.43672816]
      },
      {
        "species": [{ "element": "Tm", "occu": 1 }],
        "abc": [0.83583986, 0.16352849, 0.75],
        "properties": { "magmom": 0.459 },
        "label": "Tm",
        "xyz": [5.437812751215746, 1.0197356419126236, 4.31018448]
      }
    ]
  },
  "task_ids": null,
  "uncorrected_energy_per_atom": null,
  "energy_per_atom": -33.68076351125,
  "formation_energy_per_atom": 0.011011798333328,
  "energy_above_hull": 0.011011798333328,
  "is_stable": false,
  "equilibrium_reaction_energy_per_atom": null,
  "decomposes_to": null,
  "xas": null,
  "grain_boundaries": null,
  "band_gap": 0.0,
  "cbm": null,
  "vbm": null,
  "efermi": 3.09784711,
  "is_gap_direct": null,
  "is_metal": null,
  "es_source_calc_id": null,
  "bandstructure": null,
  "dos": null,
  "dos_energy_up": null,
  "dos_energy_down": null,
  "is_magnetic": null,
  "ordering": null,
  "total_magnetization": 4.7500134,
  "total_magnetization_normalized_vol": null,
  "total_magnetization_normalized_formula_units": null,
  "num_magnetic_sites": null,
  "num_unique_magnetic_sites": null,
  "types_of_magnetic_species": null,
  "bulk_modulus": null,
  "shear_modulus": null,
  "universal_anisotropy": null,
  "homogeneous_poisson": null,
  "e_total": null,
  "e_ionic": null,
  "e_electronic": null,
  "n": null,
  "e_ij_max": null,
  "weighted_surface_energy_EV_PER_ANG2": null,
  "weighted_surface_energy": null,
  "weighted_work_function": null,
  "surface_anisotropy": null,
  "shape_factor": null,
  "has_reconstructed": null,
  "possible_species": null,
  "has_props": null,
  "theoretical": null,
  "database_IDs": null,
  "fields_not_requested": [
    "builder_meta",
    "nsites",
    "elements",
    "nelements",
    "composition",
    "composition_reduced",
    "chemsys",
    "symmetry",
    "property_name",
    "deprecated",
    "deprecation_reasons",
    "last_updated",
    "origins",
    "warnings",
    "task_ids",
    "uncorrected_energy_per_atom",
    "equilibrium_reaction_energy_per_atom",
    "decomposes_to",
    "xas",
    "grain_boundaries",
    "cbm",
    "vbm",
    "is_gap_direct",
    "is_metal",
    "es_source_calc_id",
    "bandstructure",
    "dos",
    "dos_energy_up",
    "dos_energy_down",
    "is_magnetic",
    "ordering",
    "total_magnetization_normalized_vol",
    "total_magnetization_normalized_formula_units",
    "num_magnetic_sites",
    "num_unique_magnetic_sites",
    "types_of_magnetic_species",
    "bulk_modulus",
    "shear_modulus",
    "universal_anisotropy",
    "homogeneous_poisson",
    "e_total",
    "e_ionic",
    "e_electronic",
    "n",
    "e_ij_max",
    "weighted_surface_energy_EV_PER_ANG2",
    "weighted_surface_energy",
    "weighted_work_function",
    "surface_anisotropy",
    "shape_factor",
    "has_reconstructed",
    "possible_species",
    "has_props",
    "theoretical",
    "database_IDs"
  ]
}
