{"builder_meta": null, "nsites": null, "elements": null, "nelements": null, "composition": null, "composition_reduced": null, "formula_pretty": "PRu", "formula_anonymous": "AB", "chemsys": null, "volume": 108.05415154192767, "density": 8.116812623039394, "density_atomic": 13.506768942740958, "symmetry": null, "property_name": null, "material_id": "mp-12636", "deprecated": null, "deprecation_reasons": null, "last_updated": null, "origins": null, "warnings": null, "structure": {"@module": "pymatgen.core.structure", "@class": "Structure", "charge": 0, "lattice": {"matrix": [[3.18493435, 0.0, 0.0], [0.0, 5.53338698, -0.00027553], [0.0, -0.00030762, 6.13126278]], "pbc": [true, true, true], "a": 3.18493435, "b": 5.533386986859884, "c": 6.131262787717013, "alpha": 90.00572765670647, "beta": 90.0, "gamma": 90.0, "volume": 108.05415154192768}, "properties": {}, "sites": [{"species": [{"element": "P", "occu": 1}], "abc": [0.25, 0.68972375, 0.93414176], "properties": {"magmom": -0.001}, "label": "P", "xyz": [0.7962335875, 3.816221057358564, 5.727278564746856]}, {"species": [{"element": "P", "occu": 1}], "abc": [0.75, 0.31027625000000003, 0.06585824], "properties": {"magmom": -0.001}, "label": "P", "xyz": [2.3887007625, 1.7168583026414364, 0.40370868525314474]}, {"species": [{"element": "P", "occu": 1}], "abc": [0.25, 0.18969939, 0.56585232], "properties": {"magmom": -0.001}, "label": "P", "xyz": [0.7962335875, 1.0495060672492638, 3.469337000719723]}, {"species": [{"element": "P", "occu": 1}], "abc": [0.75, 0.81030061, 0.43414768000000004], "properties": {"magmom": -0.001}, "label": "P", "xyz": [2.3887007625, 4.483573292750736, 2.661650249280277]}, {"species": [{"element": "Ru", "occu": 1}], "abc": [0.25, 0.48607137, 0.29287316], "properties": {"magmom": -0.248}, "label": "Ru", "xyz": [0.7962335875, 2.6895308964672835, 1.7955483779244088]}, {"species": [{"element": "Ru", "occu": 1}], "abc": [0.75, 0.51392863, 0.70712684], "properties": {"magmom": -0.248}, "label": "Ru", "xyz": [2.3887007625, 2.843548463532717, 4.335438872075592]}, {"species": [{"element": "Ru", "occu": 1}], "abc": [0.25, 0.98607255, 0.20715036], "properties": {"magmom": -0.248}, "label": "Ru", "xyz": [0.7962335875, 5.456257285911657, 1.2698215995618993]}, {"species": [{"element": "Ru", "occu": 1}], "abc": [0.75, 0.013927450000000001, 0.79284864], "properties": {"magmom": -0.248}, "label": "Ru", "xyz": [2.3887007625, 0.07682207439596421, 4.86115951917532]}]}, "task_ids": null, "uncorrected_energy_per_atom": null, "energy_per_atom": -17.82223707, "formation_energy_per_atom": -0.608931266488095, "energy_above_hull": 0.0, "is_stable": true, "equilibrium_reaction_energy_per_atom": null, "decomposes_to": null, "xas": null, "grain_boundaries": null, "band_gap": 0.0, "cbm": null, "vbm": null, "efermi": 9.62913991, "is_gap_direct": null, "is_metal": null, "es_source_calc_id": null, "bandstructure": null, "dos": null, "dos_energy_up": null, "dos_energy_down": null, "is_magnetic": null, "ordering": null, "total_magnetization": 0.9881175, "total_magnetization_normalized_vol": null, "total_magnetization_normalized_formula_units": null, "num_magnetic_sites": null, "num_unique_magnetic_sites": null, "types_of_magnetic_species": null, "bulk_modulus": null, "shear_modulus": null, "universal_anisotropy": null, "homogeneous_poisson": null, "e_total": null, "e_ionic": null, "e_electronic": null, "n": null, "e_ij_max": null, "weighted_surface_energy_EV_PER_ANG2": null, "weighted_surface_energy": null, "weighted_work_function": null, "surface_anisotropy": null, "shape_factor": null, "has_reconstructed": null, "possible_species": null, "has_props": null, "theoretical": null, "database_IDs": null, "fields_not_requested": ["builder_meta", "nsites", "elements", "nelements", "composition", "composition_reduced", "chemsys", "symmetry", "property_name", "deprecated", "deprecation_reasons", "last_updated", "origins", "warnings", "task_ids", "uncorrected_energy_per_atom", "equilibrium_reaction_energy_per_atom", "decomposes_to", "xas", "grain_boundaries", "cbm", "vbm", "is_gap_direct", "is_metal", "es_source_calc_id", "bandstructure", "dos", "dos_energy_up", "dos_energy_down", "is_magnetic", "ordering", "total_magnetization_normalized_vol", "total_magnetization_normalized_formula_units", "num_magnetic_sites", "num_unique_magnetic_sites", "types_of_magnetic_species", "bulk_modulus", "shear_modulus", "universal_anisotropy", "homogeneous_poisson", "e_total", "e_ionic", "e_electronic", "n", "e_ij_max", "weighted_surface_energy_EV_PER_ANG2", "weighted_surface_energy", "weighted_work_function", "surface_anisotropy", "shape_factor", "has_reconstructed", "possible_species", "has_props", "theoretical", "database_IDs"]}