{
  "builder_meta": null,
  "nsites": null,
  "elements": null,
  "nelements": null,
  "composition": null,
  "composition_reduced": null,
  "formula_pretty": "PRu2",
  "formula_anonymous": "AB2",
  "chemsys": null,
  "volume": 158.07899848291754,
  "density": 9.794963593596528,
  "density_atomic": 13.173249873576461,
  "symmetry": null,
  "property_name": null,
  "material_id": "mp-21911",
  "deprecated": null,
  "deprecation_reasons": null,
  "last_updated": null,
  "origins": null,
  "warnings": null,
  "structure": {
    "@module": "pymatgen.core.structure",
    "@class": "Structure",
    "charge": 0,
    "lattice": {
      "matrix": [
        [3.86569481, 0.0, 0.0],
        [0.0, 5.84423685, 0.0],
        [0.0, 0.0, 6.99711164]
      ],
      "pbc": [true, true, true],
      "a": 3.86569481,
      "b": 5.84423685,
      "c": 6.99711164,
      "alpha": 90.0,
      "beta": 90.0,
      "gamma": 90.0,
      "volume": 158.07899848291754
    },
    "properties": {},
    "sites": [
      {
        "species": [{ "element": "P", "occu": 1 }],
        "abc": [0.25, 0.74987527, 0.38927392],
        "properties": { "magmom": -0.0 },
        "label": "P",
        "xyz": [0.9664237025, 4.382448685837699, 2.723793076780429]
      },
      {
        "species": [{ "element": "P", "occu": 1 }],
        "abc": [0.75, 0.25012473, 0.6107260800000001],
        "properties": { "magmom": -0.0 },
        "label": "P",
        "xyz": [2.8992711074999997, 1.4617881641623005, 4.273318563219572]
      },
      {
        "species": [{ "element": "P", "occu": 1 }],
        "abc": [0.25, 0.24987527, 0.11072608],
        "properties": { "magmom": -0.0 },
        "label": "P",
        "xyz": [0.9664237025, 1.4603302608376996, 0.7747627432195713]
      },
      {
        "species": [{ "element": "P", "occu": 1 }],
        "abc": [0.75, 0.75012473, 0.88927392],
        "properties": { "magmom": -0.0 },
        "label": "P",
        "xyz": [2.8992711074999997, 4.383906589162301, 6.222348896780429]
      },
      {
        "species": [{ "element": "Ru", "occu": 1 }],
        "abc": [0.75, 0.01317568, 0.34991124],
        "properties": { "magmom": -0.0 },
        "label": "Ru",
        "xyz": [2.8992711074999997, 0.07700179457980799, 2.448368010370834]
      },
      {
        "species": [{ "element": "Ru", "occu": 1 }],
        "abc": [0.25, 0.98682432, 0.65008876],
        "properties": { "magmom": -0.0 },
        "label": "Ru",
        "xyz": [0.9664237025, 5.767235055420191, 4.548743629629167]
      },
      {
        "species": [{ "element": "Ru", "occu": 1 }],
        "abc": [0.75, 0.51317568, 0.15008876000000002],
        "properties": { "magmom": -0.0 },
        "label": "Ru",
        "xyz": [2.8992711074999997, 2.999120219579808, 1.0501878096291666]
      },
      {
        "species": [{ "element": "Ru", "occu": 1 }],
        "abc": [0.25, 0.48682432000000003, 0.8499112400000001],
        "properties": { "magmom": -0.0 },
        "label": "Ru",
        "xyz": [0.9664237025, 2.845116630420192, 5.946923830370834]
      },
      {
        "species": [{ "element": "Ru", "occu": 1 }],
        "abc": [0.25, 0.36144774, 0.42071217],
        "properties": { "magmom": -0.0 },
        "label": "Ru",
        "xyz": [0.9664237025, 2.112386201457219, 2.943770021796659]
      },
      {
        "species": [{ "element": "Ru", "occu": 1 }],
        "abc": [0.75, 0.63855226, 0.5792878300000001],
        "properties": { "magmom": -0.0 },
        "label": "Ru",
        "xyz": [2.8992711074999997, 3.731850648542781, 4.0533416182033415]
      },
      {
        "species": [{ "element": "Ru", "occu": 1 }],
        "abc": [0.25, 0.86144774, 0.07928783],
        "properties": { "magmom": -0.0 },
        "label": "Ru",
        "xyz": [0.9664237025, 5.034504626457219, 0.5547857982033412]
      },
      {
        "species": [{ "element": "Ru", "occu": 1 }],
        "abc": [0.75, 0.13855226, 0.92071217],
        "properties": { "magmom": -0.0 },
        "label": "Ru",
        "xyz": [2.8992711074999997, 0.8097322235427811, 6.442325841796659]
      }
    ]
  },
  "task_ids": null,
  "uncorrected_energy_per_atom": null,
  "energy_per_atom": -20.382994194166667,
  "formation_energy_per_atom": -0.432611893492063,
  "energy_above_hull": 0.0,
  "is_stable": true,
  "equilibrium_reaction_energy_per_atom": null,
  "decomposes_to": null,
  "xas": null,
  "grain_boundaries": null,
  "band_gap": 0.0,
  "cbm": null,
  "vbm": null,
  "efermi": 9.43634301,
  "is_gap_direct": null,
  "is_metal": null,
  "es_source_calc_id": null,
  "bandstructure": null,
  "dos": null,
  "dos_energy_up": null,
  "dos_energy_down": null,
  "is_magnetic": null,
  "ordering": null,
  "total_magnetization": 1e-7,
  "total_magnetization_normalized_vol": null,
  "total_magnetization_normalized_formula_units": null,
  "num_magnetic_sites": null,
  "num_unique_magnetic_sites": null,
  "types_of_magnetic_species": null,
  "bulk_modulus": null,
  "shear_modulus": null,
  "universal_anisotropy": null,
  "homogeneous_poisson": null,
  "e_total": null,
  "e_ionic": null,
  "e_electronic": null,
  "n": null,
  "e_ij_max": null,
  "weighted_surface_energy_EV_PER_ANG2": null,
  "weighted_surface_energy": null,
  "weighted_work_function": null,
  "surface_anisotropy": null,
  "shape_factor": null,
  "has_reconstructed": null,
  "possible_species": null,
  "has_props": null,
  "theoretical": null,
  "database_IDs": null,
  "fields_not_requested": [
    "builder_meta",
    "nsites",
    "elements",
    "nelements",
    "composition",
    "composition_reduced",
    "chemsys",
    "symmetry",
    "property_name",
    "deprecated",
    "deprecation_reasons",
    "last_updated",
    "origins",
    "warnings",
    "task_ids",
    "uncorrected_energy_per_atom",
    "equilibrium_reaction_energy_per_atom",
    "decomposes_to",
    "xas",
    "grain_boundaries",
    "cbm",
    "vbm",
    "is_gap_direct",
    "is_metal",
    "es_source_calc_id",
    "bandstructure",
    "dos",
    "dos_energy_up",
    "dos_energy_down",
    "is_magnetic",
    "ordering",
    "total_magnetization_normalized_vol",
    "total_magnetization_normalized_formula_units",
    "num_magnetic_sites",
    "num_unique_magnetic_sites",
    "types_of_magnetic_species",
    "bulk_modulus",
    "shear_modulus",
    "universal_anisotropy",
    "homogeneous_poisson",
    "e_total",
    "e_ionic",
    "e_electronic",
    "n",
    "e_ij_max",
    "weighted_surface_energy_EV_PER_ANG2",
    "weighted_surface_energy",
    "weighted_work_function",
    "surface_anisotropy",
    "shape_factor",
    "has_reconstructed",
    "possible_species",
    "has_props",
    "theoretical",
    "database_IDs"
  ]
}
