{"builder_meta": null, "nsites": null, "elements": null, "nelements": null, "composition": null, "composition_reduced": null, "formula_pretty": "PrY3", "formula_anonymous": "AB3", "chemsys": null, "volume": 279.1161109502747, "density": 4.850150475557649, "density_atomic": 34.889513868784334, "symmetry": null, "property_name": null, "material_id": "mp-1186784", "deprecated": null, "deprecation_reasons": null, "last_updated": null, "origins": null, "warnings": null, "structure": {"@module": "pymatgen.core.structure", "@class": "Structure", "charge": 0, "lattice": {"matrix": [[3.69041187, -6.39197978, 0.0], [3.69041187, 6.39197978, -0.0], [0.0, -0.0, 5.91622495]], "pbc": [true, true, true], "a": 7.380822804956487, "b": 7.380822804956487, "c": 5.91622495, "alpha": 90.0, "beta": 90.0, "gamma": 119.99999161855204, "volume": 279.1161109502747}, "properties": {}, "sites": [{"species": [{"element": "Pr", "occu": 1}], "abc": [0.666667, 0.333333, 0.25], "properties": {"magmom": 0.295}, "label": "Pr", "xyz": [3.69041187, -2.13066418798652, 1.4790562375]}, {"species": [{"element": "Pr", "occu": 1}], "abc": [0.333333, 0.666667, 0.75], "properties": {"magmom": 0.295}, "label": "Pr", "xyz": [3.69041187, 2.13066418798652, 4.4371687125]}, {"species": [{"element": "Y", "occu": 1}], "abc": [0.6713236, 0.8356618, 0.25], "properties": {"magmom": 0.395}, "label": "Y", "xyz": [5.561396808076698, 1.050446451481596, 1.4790562375]}, {"species": [{"element": "Y", "occu": 1}], "abc": [0.1643382, 0.3286764, 0.25], "properties": {"magmom": 0.395}, "label": "Y", "xyz": [1.819426931923302, 1.0504464514815959, 1.4790562375]}, {"species": [{"element": "Y", "occu": 1}], "abc": [0.8356618, 0.1643382, 0.75], "properties": {"magmom": 0.395}, "label": "Y", "xyz": [3.69041187, -4.291086877036808, 4.4371687125]}, {"species": [{"element": "Y", "occu": 1}], "abc": [0.8356618, 0.6713236, 0.75], "properties": {"magmom": 0.395}, "label": "Y", "xyz": [5.561396808076698, -1.050446451481596, 4.4371687125]}, {"species": [{"element": "Y", "occu": 1}], "abc": [0.3286764, 0.1643382, 0.75], "properties": {"magmom": 0.395}, "label": "Y", "xyz": [1.819426931923302, -1.0504464514815959, 4.4371687125]}, {"species": [{"element": "Y", "occu": 1}], "abc": [0.1643382, 0.8356618, 0.25], "properties": {"magmom": 0.395}, "label": "Y", "xyz": [3.69041187, 4.291086877036808, 1.4790562375]}]}, "task_ids": null, "uncorrected_energy_per_atom": null, "energy_per_atom": -22.56505571375, "formation_energy_per_atom": 0.021134098333334003, "energy_above_hull": 0.021134098333334003, "is_stable": false, "equilibrium_reaction_energy_per_atom": null, "decomposes_to": null, "xas": null, "grain_boundaries": null, "band_gap": 0.0, "cbm": null, "vbm": null, "efermi": 3.13077184, "is_gap_direct": null, "is_metal": null, "es_source_calc_id": null, "bandstructure": null, "dos": null, "dos_energy_up": null, "dos_energy_down": null, "is_magnetic": null, "ordering": null, "total_magnetization": 5.3742247, "total_magnetization_normalized_vol": null, "total_magnetization_normalized_formula_units": null, "num_magnetic_sites": null, "num_unique_magnetic_sites": null, "types_of_magnetic_species": null, "bulk_modulus": null, "shear_modulus": null, "universal_anisotropy": null, "homogeneous_poisson": null, "e_total": null, "e_ionic": null, "e_electronic": null, "n": null, "e_ij_max": null, "weighted_surface_energy_EV_PER_ANG2": null, "weighted_surface_energy": null, "weighted_work_function": null, "surface_anisotropy": null, "shape_factor": null, "has_reconstructed": null, "possible_species": null, "has_props": null, "theoretical": null, "database_IDs": null, "fields_not_requested": ["builder_meta", "nsites", "elements", "nelements", "composition", "composition_reduced", "chemsys", "symmetry", "property_name", "deprecated", "deprecation_reasons", "last_updated", "origins", "warnings", "task_ids", "uncorrected_energy_per_atom", "equilibrium_reaction_energy_per_atom", "decomposes_to", "xas", "grain_boundaries", "cbm", "vbm", "is_gap_direct", "is_metal", "es_source_calc_id", "bandstructure", "dos", "dos_energy_up", "dos_energy_down", "is_magnetic", "ordering", "total_magnetization_normalized_vol", "total_magnetization_normalized_formula_units", "num_magnetic_sites", "num_unique_magnetic_sites", "types_of_magnetic_species", "bulk_modulus", "shear_modulus", "universal_anisotropy", "homogeneous_poisson", "e_total", "e_ionic", "e_electronic", "n", "e_ij_max", "weighted_surface_energy_EV_PER_ANG2", "weighted_surface_energy", "weighted_work_function", "surface_anisotropy", "shape_factor", "has_reconstructed", "possible_species", "has_props", "theoretical", "database_IDs"]}