{
  "builder_meta": null,
  "nsites": null,
  "elements": null,
  "nelements": null,
  "composition": null,
  "composition_reduced": null,
  "formula_pretty": "PrZn3",
  "formula_anonymous": "AB3",
  "chemsys": null,
  "volume": 313.501066708047,
  "density": 7.142881686598714,
  "density_atomic": 19.593816669252938,
  "symmetry": null,
  "property_name": null,
  "material_id": "mp-1188870",
  "deprecated": null,
  "deprecation_reasons": null,
  "last_updated": null,
  "origins": null,
  "warnings": null,
  "structure": {
    "@module": "pymatgen.core.structure",
    "@class": "Structure",
    "charge": 0,
    "lattice": {
      "matrix": [
        [4.52779674, -1e-8, -1.399999999999999e-7],
        [-2e-8, 6.74203025, -1.2210000000000002e-5],
        [-3.1e-7, -1.319e-5, 10.26978623]
      ],
      "pbc": [true, true, true],
      "a": 4.527796740000002,
      "b": 6.742030250011057,
      "c": 10.269786230008474,
      "alpha": 90.00017735204845,
      "beta": 90.00000350110136,
      "gamma": 90.00000029650504,
      "volume": 313.50106670804706
    },
    "properties": {},
    "sites": [
      {
        "species": [{ "element": "Pr", "occu": 1 }],
        "abc": [0.25000005000000003, 0.28056903, 0.6545253400000001],
        "properties": { "magmom": 0.0 },
        "label": "Pr",
        "xyz": [1.131949202875601, 1.8915962517839224, 6.721831863170205]
      },
      {
        "species": [{ "element": "Pr", "occu": 1 }],
        "abc": [0.24999997000000002, 0.78057188, 0.84547748],
        "properties": { "magmom": 0.0 },
        "label": "Pr",
        "xyz": [1.1319487714566414, 5.262628072911409, 8.682863416096449]
      },
      {
        "species": [{ "element": "Pr", "occu": 1 }],
        "abc": [0.75000001, 0.71946754, 0.34551814000000003],
        "properties": { "magmom": -0.0 },
        "label": "Pr",
        "xyz": [3.395847478777994, 4.850667353688819, 3.5483885466885474]
      },
      {
        "species": [{ "element": "Pr", "occu": 1 }],
        "abc": [0.74999998, 0.21946728000000001, 0.15447903],
        "properties": { "magmom": 0.0 },
        "label": "Pr",
        "xyz": [3.39584741216622, 1.4796529955668145, 1.5864638304222707]
      },
      {
        "species": [{ "element": "Zn", "occu": 1 }],
        "abc": [0.24999993, 0.53468237, 0.10903006],
        "properties": { "magmom": -0.0 },
        "label": "Zn",
        "xyz": [1.1319488235612623, 3.6048432720752017, 1.1197088453723458]
      },
      {
        "species": [{ "element": "Zn", "occu": 1 }],
        "abc": [0.25, 0.03468301, 0.39097098],
        "properties": { "magmom": 0.0 },
        "label": "Zn",
        "xyz": [1.131949063105336, 0.2338287431738263, 4.015187928254053]
      },
      {
        "species": [{ "element": "Zn", "occu": 1 }],
        "abc": [0.74999998, 0.46529765, 0.89089093],
        "properties": { "magmom": 0.0 },
        "label": "Zn",
        "xyz": [3.3958471789619242, 3.1370390732025464, 9.14925361906159]
      },
      {
        "species": [{ "element": "Zn", "occu": 1 }],
        "abc": [0.7500000800000001, 0.96529667, 0.60910686],
        "properties": { "magmom": -0.0 },
        "label": "Zn",
        "xyz": [3.39584770909468, 6.5080513077447835, 6.255385352154186]
      },
      {
        "species": [{ "element": "Zn", "occu": 1 }],
        "abc": [0.24999995, 0.9085481, 0.14751839],
        "properties": { "magmom": 0.0 },
        "label": "Zn",
        "xyz": [1.1319488947085, 6.125456825512462, 1.5149712019214756]
      },
      {
        "species": [{ "element": "Zn", "occu": 1 }],
        "abc": [0.24999994, 0.40854875, 0.352485799999999],
        "properties": { "magmom": 0.0 },
        "label": "Zn",
        "xyz": [1.1319487958906227, 2.7544433793119865, 3.6199487917302946]
      },
      {
        "species": [{ "element": "Zn", "occu": 1 }],
        "abc": [0.75000003, 0.09145028000000001, 0.8524204400000001],
        "properties": { "magmom": 0.0 },
        "label": "Zn",
        "xyz": [3.395847424754561, 0.6165493032053663, 8.754174475274619]
      },
      {
        "species": [{ "element": "Zn", "occu": 1 }],
        "abc": [0.7500001, 0.59145007, 0.64757693],
        "properties": { "magmom": 0.0 },
        "label": "Zn",
        "xyz": [3.3958477952018247, 3.98756571426491, 6.650469311974305]
      },
      {
        "species": [{ "element": "Zn", "occu": 1 }],
        "abc": [0.24999993, 0.22696076, 0.95280818],
        "properties": { "magmom": 0.0 },
        "label": "Zn",
        "xyz": [1.1319485681444772, 1.5301637394430967, 9.785133520604491]
      },
      {
        "species": [{ "element": "Zn", "occu": 1 }],
        "abc": [0.24999998, 0.7269589, 0.54719267],
        "properties": { "magmom": -0.0 },
        "label": "Zn",
        "xyz": [1.1319489102751596, 4.901171674335407, 5.619542836354769]
      },
      {
        "species": [{ "element": "Zn", "occu": 1 }],
        "abc": [0.74999998, 0.77302393, 0.04714284],
        "properties": { "magmom": -0.0 },
        "label": "Zn",
        "xyz": [3.395847434369306, 5.211750090719823, 0.4841373454529107]
      },
      {
        "species": [{ "element": "Zn", "occu": 1 }],
        "abc": [0.7500001, 0.27302379, 0.45285692],
        "properties": { "magmom": 0.0 },
        "label": "Zn",
        "xyz": [3.3958478619335533, 1.8407286704668715, 4.650740322555722]
      }
    ]
  },
  "task_ids": null,
  "uncorrected_energy_per_atom": null,
  "energy_per_atom": -2.4775446225,
  "formation_energy_per_atom": -0.33386905041666604,
  "energy_above_hull": 0.0020210922656250002,
  "is_stable": false,
  "equilibrium_reaction_energy_per_atom": null,
  "decomposes_to": null,
  "xas": null,
  "grain_boundaries": null,
  "band_gap": 0.0,
  "cbm": null,
  "vbm": null,
  "efermi": 2.963466539999999,
  "is_gap_direct": null,
  "is_metal": null,
  "es_source_calc_id": null,
  "bandstructure": null,
  "dos": null,
  "dos_energy_up": null,
  "dos_energy_down": null,
  "is_magnetic": null,
  "ordering": null,
  "total_magnetization": 1e-7,
  "total_magnetization_normalized_vol": null,
  "total_magnetization_normalized_formula_units": null,
  "num_magnetic_sites": null,
  "num_unique_magnetic_sites": null,
  "types_of_magnetic_species": null,
  "bulk_modulus": null,
  "shear_modulus": null,
  "universal_anisotropy": null,
  "homogeneous_poisson": null,
  "e_total": null,
  "e_ionic": null,
  "e_electronic": null,
  "n": null,
  "e_ij_max": null,
  "weighted_surface_energy_EV_PER_ANG2": null,
  "weighted_surface_energy": null,
  "weighted_work_function": null,
  "surface_anisotropy": null,
  "shape_factor": null,
  "has_reconstructed": null,
  "possible_species": null,
  "has_props": null,
  "theoretical": null,
  "database_IDs": null,
  "fields_not_requested": [
    "builder_meta",
    "nsites",
    "elements",
    "nelements",
    "composition",
    "composition_reduced",
    "chemsys",
    "symmetry",
    "property_name",
    "deprecated",
    "deprecation_reasons",
    "last_updated",
    "origins",
    "warnings",
    "task_ids",
    "uncorrected_energy_per_atom",
    "equilibrium_reaction_energy_per_atom",
    "decomposes_to",
    "xas",
    "grain_boundaries",
    "cbm",
    "vbm",
    "is_gap_direct",
    "is_metal",
    "es_source_calc_id",
    "bandstructure",
    "dos",
    "dos_energy_up",
    "dos_energy_down",
    "is_magnetic",
    "ordering",
    "total_magnetization_normalized_vol",
    "total_magnetization_normalized_formula_units",
    "num_magnetic_sites",
    "num_unique_magnetic_sites",
    "types_of_magnetic_species",
    "bulk_modulus",
    "shear_modulus",
    "universal_anisotropy",
    "homogeneous_poisson",
    "e_total",
    "e_ionic",
    "e_electronic",
    "n",
    "e_ij_max",
    "weighted_surface_energy_EV_PER_ANG2",
    "weighted_surface_energy",
    "weighted_work_function",
    "surface_anisotropy",
    "shape_factor",
    "has_reconstructed",
    "possible_species",
    "has_props",
    "theoretical",
    "database_IDs"
  ]
}
