{
  "builder_meta": null,
  "nsites": null,
  "elements": null,
  "nelements": null,
  "composition": null,
  "composition_reduced": null,
  "formula_pretty": "PrZn2",
  "formula_anonymous": "AB2",
  "chemsys": null,
  "volume": 128.7103636852611,
  "density": 7.011262252752805,
  "density_atomic": 21.45172728087685,
  "symmetry": null,
  "property_name": null,
  "material_id": "mp-1072856",
  "deprecated": null,
  "deprecation_reasons": null,
  "last_updated": null,
  "origins": null,
  "warnings": null,
  "structure": {
    "@module": "pymatgen.core.structure",
    "@class": "Structure",
    "charge": 0,
    "lattice": {
      "matrix": [
        [4.60285898, 0.0, 0.0],
        [2.30142949, -3.7702961200000003, 3.7083472200000003],
        [2.30142949, -3.7702961200000003, -3.7083472200000003]
      ],
      "pbc": [true, true, true],
      "a": 4.60285898,
      "b": 5.767456079937709,
      "c": 5.767456079937709,
      "alpha": 80.0284791713172,
      "beta": 66.48199739283346,
      "gamma": 66.48199739283346,
      "volume": 128.71036368526111
    },
    "properties": {},
    "sites": [
      {
        "species": [{ "element": "Pr", "occu": 1 }],
        "abc": [0.75, 0.70731798, 0.79268202],
        "properties": { "magmom": -0.0 },
        "label": "Pr",
        "xyz": [6.904288469999999, -5.65544418, -0.31655950042196856]
      },
      {
        "species": [{ "element": "Pr", "occu": 1 }],
        "abc": [0.25, 0.29268202, 0.20731798],
        "properties": { "magmom": -0.0 },
        "label": "Pr",
        "xyz": [2.30142949, -1.8851480600000001, 0.3165595004219687]
      },
      {
        "species": [{ "element": "Zn", "occu": 1 }],
        "abc": [0.560335199999999, 0.2751573, 0.6041713],
        "properties": { "magmom": -0.0 },
        "label": "Zn",
        "xyz": [4.602856678570505, -3.315329208785032, -1.2200981522410799]
      },
      {
        "species": [{ "element": "Zn", "occu": 1 }],
        "abc": [0.439664799999999, 0.7248427, 0.3958287],
        "properties": { "magmom": -0.0 },
        "label": "Zn",
        "xyz": [4.602861281429485, -4.225263031214968, 1.22009815224108]
      },
      {
        "species": [{ "element": "Zn", "occu": 1 }],
        "abc": [0.0603352, 0.1041713, 0.775157299999999],
        "properties": { "magmom": -0.0 },
        "label": "Zn",
        "xyz": [2.3014271885705075, -3.3153292087850286, -2.488249067758917]
      },
      {
        "species": [{ "element": "Zn", "occu": 1 }],
        "abc": [0.9396648, 0.895828699999999, 0.224842699999999],
        "properties": { "magmom": -0.0 },
        "label": "Zn",
        "xyz": [6.904290771429484, -4.225263031214961, 2.4882490677589204]
      }
    ]
  },
  "task_ids": null,
  "uncorrected_energy_per_atom": null,
  "energy_per_atom": -2.794057250000001,
  "formation_energy_per_atom": -0.35573769055555604,
  "energy_above_hull": 0.0,
  "is_stable": true,
  "equilibrium_reaction_energy_per_atom": null,
  "decomposes_to": null,
  "xas": null,
  "grain_boundaries": null,
  "band_gap": 0.0,
  "cbm": null,
  "vbm": null,
  "efermi": 3.21953405,
  "is_gap_direct": null,
  "is_metal": null,
  "es_source_calc_id": null,
  "bandstructure": null,
  "dos": null,
  "dos_energy_up": null,
  "dos_energy_down": null,
  "is_magnetic": null,
  "ordering": null,
  "total_magnetization": 3e-7,
  "total_magnetization_normalized_vol": null,
  "total_magnetization_normalized_formula_units": null,
  "num_magnetic_sites": null,
  "num_unique_magnetic_sites": null,
  "types_of_magnetic_species": null,
  "bulk_modulus": null,
  "shear_modulus": null,
  "universal_anisotropy": null,
  "homogeneous_poisson": null,
  "e_total": null,
  "e_ionic": null,
  "e_electronic": null,
  "n": null,
  "e_ij_max": null,
  "weighted_surface_energy_EV_PER_ANG2": null,
  "weighted_surface_energy": null,
  "weighted_work_function": null,
  "surface_anisotropy": null,
  "shape_factor": null,
  "has_reconstructed": null,
  "possible_species": null,
  "has_props": null,
  "theoretical": null,
  "database_IDs": null,
  "fields_not_requested": [
    "builder_meta",
    "nsites",
    "elements",
    "nelements",
    "composition",
    "composition_reduced",
    "chemsys",
    "symmetry",
    "property_name",
    "deprecated",
    "deprecation_reasons",
    "last_updated",
    "origins",
    "warnings",
    "task_ids",
    "uncorrected_energy_per_atom",
    "equilibrium_reaction_energy_per_atom",
    "decomposes_to",
    "xas",
    "grain_boundaries",
    "cbm",
    "vbm",
    "is_gap_direct",
    "is_metal",
    "es_source_calc_id",
    "bandstructure",
    "dos",
    "dos_energy_up",
    "dos_energy_down",
    "is_magnetic",
    "ordering",
    "total_magnetization_normalized_vol",
    "total_magnetization_normalized_formula_units",
    "num_magnetic_sites",
    "num_unique_magnetic_sites",
    "types_of_magnetic_species",
    "bulk_modulus",
    "shear_modulus",
    "universal_anisotropy",
    "homogeneous_poisson",
    "e_total",
    "e_ionic",
    "e_electronic",
    "n",
    "e_ij_max",
    "weighted_surface_energy_EV_PER_ANG2",
    "weighted_surface_energy",
    "weighted_work_function",
    "surface_anisotropy",
    "shape_factor",
    "has_reconstructed",
    "possible_species",
    "has_props",
    "theoretical",
    "database_IDs"
  ]
}
