{
  "builder_meta": null,
  "nsites": null,
  "elements": null,
  "nelements": null,
  "composition": null,
  "composition_reduced": null,
  "formula_pretty": "PS",
  "formula_anonymous": "AB",
  "chemsys": null,
  "volume": 405.47341626624575,
  "density": 2.065305843722483,
  "density_atomic": 25.34208851664036,
  "symmetry": null,
  "property_name": null,
  "material_id": "mp-612",
  "deprecated": null,
  "deprecation_reasons": null,
  "last_updated": null,
  "origins": null,
  "warnings": null,
  "structure": {
    "@module": "pymatgen.core.structure",
    "@class": "Structure",
    "charge": 0,
    "lattice": {
      "matrix": [
        [6.73623053, 0.03747976, 1.11704107],
        [0.38963989, 6.72505607, 1.11704109],
        [0.02504523, 0.02376945, 8.9612847]
      ],
      "pbc": [true, true, true],
      "a": 6.828322432177649,
      "b": 6.82832184253726,
      "c": 8.96135122203974,
      "alpha": 80.42375164294812,
      "beta": 80.42376042338343,
      "gamma": 84.92497697211454,
      "volume": 405.47341626624575
    },
    "properties": {},
    "sites": [
      {
        "species": [{ "element": "P", "occu": 1 }],
        "abc": [0.19704518000000001, 0.7978108500000001, 0.42952494],
        "properties": { "magmom": -0.0 },
        "label": "P",
        "xyz": [1.6489582400531884, 5.382917477145, 4.9603903332937875]
      },
      {
        "species": [{ "element": "P", "occu": 1 }],
        "abc": [0.20218915, 0.8029548200000001, 0.07047506],
        "properties": { "magmom": -0.0 },
        "label": "P",
        "xyz": [1.6766210168914832, 5.409169340408279, 1.7543341887215265]
      },
      {
        "species": [{ "element": "P", "occu": 1 }],
        "abc": [0.8029548200000001, 0.20218915, 0.57047506],
        "properties": { "magmom": -0.0 },
        "label": "P",
        "xyz": [5.5019574099468125, 1.4033878028550006, 6.234976526706213]
      },
      {
        "species": [{ "element": "P", "occu": 1 }],
        "abc": [0.7978108500000001, 0.19704518000000001, 0.92952494],
        "properties": { "magmom": -0.0 },
        "label": "P",
        "xyz": [5.474294633108517, 1.3771359395917218, 9.441032671278474]
      },
      {
        "species": [{ "element": "P", "occu": 1 }],
        "abc": [0.52882934, 0.76540975, 0.13353023],
        "properties": { "magmom": -0.0 },
        "label": "P",
        "xyz": [3.8638948113849807, 5.170417822144315, 2.642320640324103]
      },
      {
        "species": [{ "element": "P", "occu": 1 }],
        "abc": [0.23459025, 0.47117066, 0.36646977000000003],
        "properties": { "magmom": -0.0 },
        "label": "P",
        "xyz": [1.7730192079016571, 3.186152278181773, 4.072403874407506]
      },
      {
        "species": [{ "element": "P", "occu": 1 }],
        "abc": [0.47117066, 0.23459025, 0.86646977],
        "properties": { "magmom": -0.0 },
        "label": "P",
        "xyz": [3.2870208386150193, 1.6158874578556854, 8.553046219675899]
      },
      {
        "species": [{ "element": "P", "occu": 1 }],
        "abc": [0.76540975, 0.52882934, 0.63353023],
        "properties": { "magmom": -0.0 },
        "label": "P",
        "xyz": [5.3778964420983435, 3.6001530018182275, 7.122962985592494]
      },
      {
        "species": [{ "element": "S", "occu": 1 }],
        "abc": [0.530350299999999, 0.4696497, 0.25],
        "properties": { "magmom": -0.0 },
        "label": "S",
        "xyz": [3.7618174474011856, 3.184240330218607, 3.357362254392993]
      },
      {
        "species": [{ "element": "S", "occu": 1 }],
        "abc": [0.4696497, 0.530350299999999, 0.75],
        "properties": { "magmom": -0.0 },
        "label": "S",
        "xyz": [3.3890982025988077, 3.602064949781387, 7.838004605607005]
      },
      {
        "species": [{ "element": "S", "occu": 1 }],
        "abc": [0.05135006, 0.94864994, 0.25],
        "properties": { "magmom": -0.0 },
        "label": "S",
        "xyz": [0.7217990076594384, 6.387590987726922, 3.357362263972999]
      },
      {
        "species": [{ "element": "S", "occu": 1 }],
        "abc": [0.94864994, 0.05135006, 0.75],
        "properties": { "magmom": -0.0 },
        "label": "S",
        "xyz": [6.429116642340562, 0.39871429227307864, 7.838004596027002]
      },
      {
        "species": [{ "element": "S", "occu": 1 }],
        "abc": [0.48049346, 0.8989859800000001, 0.33294453],
        "properties": { "magmom": 0.0 },
        "label": "S",
        "xyz": [3.595334185407168, 6.071653809564877, 4.524545930318012]
      },
      {
        "species": [{ "element": "S", "occu": 1 }],
        "abc": [0.10101402, 0.51950654, 0.16705547],
        "properties": { "magmom": 0.0 },
        "label": "S",
        "xyz": [0.8870581392508193, 3.5014674080993244, 2.190178588051839]
      },
      {
        "species": [{ "element": "S", "occu": 1 }],
        "abc": [0.51950654, 0.10101402, 0.66705547],
        "properties": { "magmom": 0.0 },
        "label": "S",
        "xyz": [3.555581464592832, 0.7146514704351232, 6.670820929681988]
      },
      {
        "species": [{ "element": "S", "occu": 1 }],
        "abc": [0.8989859800000001, 0.48049346, 0.83294453],
        "properties": { "magmom": 0.0 },
        "label": "S",
        "xyz": [6.263857510749182, 3.2848378719006757, 9.005188271948162]
      }
    ]
  },
  "task_ids": null,
  "uncorrected_energy_per_atom": null,
  "energy_per_atom": -8.6688904425,
  "formation_energy_per_atom": -0.150352745394345,
  "energy_above_hull": 0.026489451484373,
  "is_stable": false,
  "equilibrium_reaction_energy_per_atom": null,
  "decomposes_to": null,
  "xas": null,
  "grain_boundaries": null,
  "band_gap": 2.4974,
  "cbm": null,
  "vbm": null,
  "efermi": 0.90834762,
  "is_gap_direct": null,
  "is_metal": null,
  "es_source_calc_id": null,
  "bandstructure": null,
  "dos": null,
  "dos_energy_up": null,
  "dos_energy_down": null,
  "is_magnetic": null,
  "ordering": null,
  "total_magnetization": 2e-7,
  "total_magnetization_normalized_vol": null,
  "total_magnetization_normalized_formula_units": null,
  "num_magnetic_sites": null,
  "num_unique_magnetic_sites": null,
  "types_of_magnetic_species": null,
  "bulk_modulus": null,
  "shear_modulus": null,
  "universal_anisotropy": null,
  "homogeneous_poisson": null,
  "e_total": null,
  "e_ionic": null,
  "e_electronic": null,
  "n": null,
  "e_ij_max": null,
  "weighted_surface_energy_EV_PER_ANG2": null,
  "weighted_surface_energy": null,
  "weighted_work_function": null,
  "surface_anisotropy": null,
  "shape_factor": null,
  "has_reconstructed": null,
  "possible_species": null,
  "has_props": null,
  "theoretical": null,
  "database_IDs": null,
  "fields_not_requested": [
    "builder_meta",
    "nsites",
    "elements",
    "nelements",
    "composition",
    "composition_reduced",
    "chemsys",
    "symmetry",
    "property_name",
    "deprecated",
    "deprecation_reasons",
    "last_updated",
    "origins",
    "warnings",
    "task_ids",
    "uncorrected_energy_per_atom",
    "equilibrium_reaction_energy_per_atom",
    "decomposes_to",
    "xas",
    "grain_boundaries",
    "cbm",
    "vbm",
    "is_gap_direct",
    "is_metal",
    "es_source_calc_id",
    "bandstructure",
    "dos",
    "dos_energy_up",
    "dos_energy_down",
    "is_magnetic",
    "ordering",
    "total_magnetization_normalized_vol",
    "total_magnetization_normalized_formula_units",
    "num_magnetic_sites",
    "num_unique_magnetic_sites",
    "types_of_magnetic_species",
    "bulk_modulus",
    "shear_modulus",
    "universal_anisotropy",
    "homogeneous_poisson",
    "e_total",
    "e_ionic",
    "e_electronic",
    "n",
    "e_ij_max",
    "weighted_surface_energy_EV_PER_ANG2",
    "weighted_surface_energy",
    "weighted_work_function",
    "surface_anisotropy",
    "shape_factor",
    "has_reconstructed",
    "possible_species",
    "has_props",
    "theoretical",
    "database_IDs"
  ]
}
