{"builder_meta": null, "nsites": null, "elements": null, "nelements": null, "composition": null, "composition_reduced": null, "formula_pretty": "Pt3I8", "formula_anonymous": "A3B8", "chemsys": null, "volume": 1586.2979200308637, "density": 6.7015720503331835, "density_atomic": 36.052225455246905, "symmetry": null, "property_name": null, "material_id": "mp-28320", "deprecated": null, "deprecation_reasons": null, "last_updated": null, "origins": null, "warnings": null, "structure": {"@module": "pymatgen.core.structure", "@class": "Structure", "charge": 0, "lattice": {"matrix": [[10.91345009, -0.0, 0.0], [-0.0, 12.05622499, -0.0], [-0.0, 0.0, 12.05622499]], "pbc": [true, true, true], "a": 10.91345009, "b": 12.05622499, "c": 12.05622499, "alpha": 90.0, "beta": 90.0, "gamma": 90.0, "volume": 1586.2979200308637}, "properties": {}, "sites": [{"species": [{"element": "Pt", "occu": 1}], "abc": [0.51610267, 0.13130384, 0.61680548], "properties": {"magmom": 0.0}, "label": "Pt", "xyz": [5.63246073036074, 1.5830286370909616, 7.436345641944945]}, {"species": [{"element": "Pt", "occu": 1}], "abc": [0.01610267, 0.86869616, 0.38319452], "properties": {"magmom": 0.0}, "label": "Pt", "xyz": [0.17573568536074027, 10.473196352909039, 4.619879348055055]}, {"species": [{"element": "Pt", "occu": 1}], "abc": [0.26610267, 0.11680548, 0.36869616], "properties": {"magmom": 0.0}, "label": "Pt", "xyz": [2.90409820786074, 1.4082331469449454, 4.445083857909038]}, {"species": [{"element": "Pt", "occu": 1}], "abc": [0.76610267, 0.88319452, 0.6313038400000001], "properties": {"magmom": 0.0}, "label": "Pt", "xyz": [8.36082325286074, 10.647991843055054, 7.611141132090963]}, {"species": [{"element": "Pt", "occu": 1}], "abc": [0.48389733, 0.61680548, 0.13130384], "properties": {"magmom": 0.0}, "label": "Pt", "xyz": [5.28098935963926, 7.436345641944945, 1.5830286370909616]}, {"species": [{"element": "Pt", "occu": 1}], "abc": [0.73389733, 0.36869616, 0.11680548], "properties": {"magmom": 0.0}, "label": "Pt", "xyz": [8.00935188213926, 4.445083857909038, 1.4082331469449454]}, {"species": [{"element": "Pt", "occu": 1}], "abc": [0.23389733000000001, 0.6313038400000001, 0.88319452], "properties": {"magmom": 0.0}, "label": "Pt", "xyz": [2.5526268371392598, 7.611141132090963, 10.647991843055054]}, {"species": [{"element": "Pt", "occu": 1}], "abc": [0.98389733, 0.38319452, 0.86869616], "properties": {"magmom": 0.0}, "label": "Pt", "xyz": [10.73771440463926, 4.619879348055055, 10.473196352909039]}, {"species": [{"element": "Pt", "occu": 1}], "abc": [0.5, 0.1237677, 0.1237677], "properties": {"magmom": -0.0}, "label": "Pt", "xyz": [5.456725045, 1.492171237694823, 1.492171237694823]}, {"species": [{"element": "Pt", "occu": 1}], "abc": [0.75, 0.376232299999999, 0.623767699999999], "properties": {"magmom": -0.0}, "label": "Pt", "xyz": [8.1850875675, 4.535941257305165, 7.5202837326948115]}, {"species": [{"element": "Pt", "occu": 1}], "abc": [0.25, 0.623767699999999, 0.376232299999999], "properties": {"magmom": -0.0}, "label": "Pt", "xyz": [2.7283625225, 7.5202837326948115, 4.535941257305165]}, {"species": [{"element": "Pt", "occu": 1}], "abc": [-0.0, 0.8762323, 0.8762323], "properties": {"magmom": -0.0}, "label": "Pt", "xyz": [0.0, 10.564053752305178, 10.564053752305178]}, {"species": [{"element": "I", "occu": 1}], "abc": [0.50336823, 0.12736154, 0.34887522], "properties": {"magmom": -0.0}, "label": "I", "xyz": [5.493484054996641, 1.5354993813128845, 4.206118145755748]}, {"species": [{"element": "I", "occu": 1}], "abc": [0.0033682300000000003, 0.87263846, 0.65112478], "properties": {"magmom": -0.0}, "label": "I", "xyz": [0.0367590099966407, 10.520725608687115, 7.850106844244252]}, {"species": [{"element": "I", "occu": 1}], "abc": [0.25336823, 0.84887522, 0.37263846], "properties": {"magmom": -0.0}, "label": "I", "xyz": [2.7651215324966407, 10.234230640755749, 4.492613113687115]}, {"species": [{"element": "I", "occu": 1}], "abc": [0.75336823, 0.15112478000000001, 0.62736154], "properties": {"magmom": -0.0}, "label": "I", "xyz": [8.22184657749664, 1.8219943492442525, 7.563611876312885]}, {"species": [{"element": "I", "occu": 1}], "abc": [0.49663177000000003, 0.34887522, 0.12736154], "properties": {"magmom": -0.0}, "label": "I", "xyz": [5.419966035003359, 4.206118145755748, 1.5354993813128845]}, {"species": [{"element": "I", "occu": 1}], "abc": [0.74663177, 0.37263846, 0.84887522], "properties": {"magmom": -0.0}, "label": "I", "xyz": [8.148328557503358, 4.492613113687115, 10.234230640755749]}, {"species": [{"element": "I", "occu": 1}], "abc": [0.24663177, 0.62736154, 0.15112478000000001], "properties": {"magmom": -0.0}, "label": "I", "xyz": [2.691603512503359, 7.563611876312885, 1.8219943492442525]}, {"species": [{"element": "I", "occu": 1}], "abc": [-0.0033682300000000003, 0.65112478, 0.87263846], "properties": {"magmom": -0.0}, "label": "I", "xyz": [-0.0367590099966407, 7.850106844244252, 10.520725608687115]}, {"species": [{"element": "I", "occu": 1}], "abc": [0.47189959000000004, 0.12403299, 0.9004462400000001], "properties": {"magmom": 0.0}, "label": "I", "xyz": [5.150052622956463, 1.49536963362242, 10.855982460839538]}, {"species": [{"element": "I", "occu": 1}], "abc": [0.97189959, 0.87596701, 0.09955376], "properties": {"magmom": 0.0}, "label": "I", "xyz": [10.606777667956463, 10.56085535637758, 1.2002425291604626]}, {"species": [{"element": "I", "occu": 1}], "abc": [0.22189959, 0.40044624, 0.37596701], "properties": {"magmom": 0.0}, "label": "I", "xyz": [2.421690100456463, 4.827869965839538, 4.53274286137758]}, {"species": [{"element": "I", "occu": 1}], "abc": [0.72189959, 0.59955376, 0.62403299], "properties": {"magmom": 0.0}, "label": "I", "xyz": [7.878415145456463, 7.2283550241604635, 7.523482128622421]}, {"species": [{"element": "I", "occu": 1}], "abc": [0.97266197, 0.37761423, 0.08767807], "properties": {"magmom": 0.0}, "label": "I", "xyz": [10.615097864036077, 4.552602116305608, 1.0570665386089693]}, {"species": [{"element": "I", "occu": 1}], "abc": [0.22266197000000001, 0.41232193, 0.87761423], "properties": {"magmom": 0.0}, "label": "I", "xyz": [2.4300102965360773, 4.9710459563910305, 10.58071461130561]}, {"species": [{"element": "I", "occu": 1}], "abc": [0.72266197, 0.58767807, 0.12238577], "properties": {"magmom": 0.0}, "label": "I", "xyz": [7.886735341536077, 7.08517903360897, 1.4755103786943924]}, {"species": [{"element": "I", "occu": 1}], "abc": [0.47266197, 0.6223857700000001, 0.9123219300000001], "properties": {"magmom": 0.0}, "label": "I", "xyz": [5.158372819036077, 7.503622873694393, 10.999158451391033]}, {"species": [{"element": "I", "occu": 1}], "abc": [0.77733803, 0.87761423, 0.41232193], "properties": {"magmom": 0.0}, "label": "I", "xyz": [8.483439793463923, 10.58071461130561, 4.9710459563910305]}, {"species": [{"element": "I", "occu": 1}], "abc": [0.27733803, 0.12238577, 0.58767807], "properties": {"magmom": 0.0}, "label": "I", "xyz": [3.0267147484639225, 1.4755103786943924, 7.08517903360897]}, {"species": [{"element": "I", "occu": 1}], "abc": [0.02733803, 0.08767807, 0.37761423], "properties": {"magmom": 0.0}, "label": "I", "xyz": [0.2983522259639227, 1.0570665386089693, 4.552602116305608]}, {"species": [{"element": "I", "occu": 1}], "abc": [0.52733803, 0.9123219300000001, 0.6223857700000001], "properties": {"magmom": 0.0}, "label": "I", "xyz": [5.755077270963922, 10.999158451391033, 7.503622873694393]}, {"species": [{"element": "I", "occu": 1}], "abc": [0.9917201600000001, 0.38851562, 0.65130341], "properties": {"magmom": 0.0}, "label": "I", "xyz": [10.823088469406814, 4.684031726849344, 7.852260447714216]}, {"species": [{"element": "I", "occu": 1}], "abc": [0.24172016000000002, 0.84869659, 0.8885156200000001], "properties": {"magmom": 0.0}, "label": "I", "xyz": [2.6380009019068145, 10.232077037285784, 10.712144221849345]}, {"species": [{"element": "I", "occu": 1}], "abc": [0.74172016, 0.15130341, 0.11148438000000001], "properties": {"magmom": 0.0}, "label": "I", "xyz": [8.094725946906813, 1.824147952714216, 1.3440807681506564]}, {"species": [{"element": "I", "occu": 1}], "abc": [0.49172016, 0.61148438, 0.34869659000000003], "properties": {"magmom": 0.0}, "label": "I", "xyz": [5.366363424406814, 7.372193263150657, 4.203964542285784]}, {"species": [{"element": "I", "occu": 1}], "abc": [0.75827984, 0.8885156200000001, 0.84869659], "properties": {"magmom": 0.0}, "label": "I", "xyz": [8.275449188093186, 10.712144221849345, 10.232077037285784]}, {"species": [{"element": "I", "occu": 1}], "abc": [0.25827984, 0.11148438000000001, 0.15130341], "properties": {"magmom": 0.0}, "label": "I", "xyz": [2.8187241430931853, 1.3440807681506564, 1.824147952714216]}, {"species": [{"element": "I", "occu": 1}], "abc": [0.00827984, 0.65130341, 0.38851562], "properties": {"magmom": 0.0}, "label": "I", "xyz": [0.0903616205931856, 7.852260447714216, 4.684031726849344]}, {"species": [{"element": "I", "occu": 1}], "abc": [0.50827984, 0.34869659000000003, 0.61148438], "properties": {"magmom": 0.0}, "label": "I", "xyz": [5.547086665593186, 4.203964542285784, 7.372193263150657]}, {"species": [{"element": "I", "occu": 1}], "abc": [0.02810041, 0.09955376, 0.87596701], "properties": {"magmom": 0.0}, "label": "I", "xyz": [0.3066724220435369, 1.2002425291604626, 10.56085535637758]}, {"species": [{"element": "I", "occu": 1}], "abc": [0.27810041, 0.62403299, 0.59955376], "properties": {"magmom": 0.0}, "label": "I", "xyz": [3.035034944543537, 7.523482128622421, 7.2283550241604635]}, {"species": [{"element": "I", "occu": 1}], "abc": [0.77810041, 0.37596701, 0.40044624], "properties": {"magmom": 0.0}, "label": "I", "xyz": [8.491759989543537, 4.53274286137758, 4.827869965839538]}, {"species": [{"element": "I", "occu": 1}], "abc": [0.52810041, 0.9004462400000001, 0.12403299], "properties": {"magmom": 0.0}, "label": "I", "xyz": [5.763397467043537, 10.855982460839538, 1.49536963362242]}]}, "task_ids": null, "uncorrected_energy_per_atom": null, "energy_per_atom": -3.193400871136361, "formation_energy_per_atom": -0.42926442749999705, "energy_above_hull": 0.0, "is_stable": true, "equilibrium_reaction_energy_per_atom": null, "decomposes_to": null, "xas": null, "grain_boundaries": null, "band_gap": 0.8003999999999991, "cbm": null, "vbm": null, "efermi": null, "is_gap_direct": null, "is_metal": null, "es_source_calc_id": null, "bandstructure": null, "dos": null, "dos_energy_up": null, "dos_energy_down": null, "is_magnetic": null, "ordering": null, "total_magnetization": 0.0, "total_magnetization_normalized_vol": null, "total_magnetization_normalized_formula_units": null, "num_magnetic_sites": null, "num_unique_magnetic_sites": null, "types_of_magnetic_species": null, "bulk_modulus": null, "shear_modulus": null, "universal_anisotropy": null, "homogeneous_poisson": null, "e_total": null, "e_ionic": null, "e_electronic": null, "n": null, "e_ij_max": null, "weighted_surface_energy_EV_PER_ANG2": null, "weighted_surface_energy": null, "weighted_work_function": null, "surface_anisotropy": null, "shape_factor": null, "has_reconstructed": null, "possible_species": null, "has_props": null, "theoretical": null, "database_IDs": null, "fields_not_requested": ["builder_meta", "nsites", "elements", "nelements", "composition", "composition_reduced", "chemsys", "symmetry", "property_name", "deprecated", "deprecation_reasons", "last_updated", "origins", "warnings", "task_ids", "uncorrected_energy_per_atom", "equilibrium_reaction_energy_per_atom", "decomposes_to", "xas", "grain_boundaries", "cbm", "vbm", "is_gap_direct", "is_metal", "es_source_calc_id", "bandstructure", "dos", "dos_energy_up", "dos_energy_down", "is_magnetic", "ordering", "total_magnetization_normalized_vol", "total_magnetization_normalized_formula_units", "num_magnetic_sites", "num_unique_magnetic_sites", "types_of_magnetic_species", "bulk_modulus", "shear_modulus", "universal_anisotropy", "homogeneous_poisson", "e_total", "e_ionic", "e_electronic", "n", "e_ij_max", "weighted_surface_energy_EV_PER_ANG2", "weighted_surface_energy", "weighted_work_function", "surface_anisotropy", "shape_factor", "has_reconstructed", "possible_species", "has_props", "theoretical", "database_IDs"]}