{
  "builder_meta": null,
  "nsites": null,
  "elements": null,
  "nelements": null,
  "composition": null,
  "composition_reduced": null,
  "formula_pretty": "Pt3O4",
  "formula_anonymous": "A3B4",
  "chemsys": null,
  "volume": 175.86560263715103,
  "density": 12.260547925324396,
  "density_atomic": 12.561828759796501,
  "symmetry": null,
  "property_name": null,
  "material_id": "mp-1604",
  "deprecated": null,
  "deprecation_reasons": null,
  "last_updated": null,
  "origins": null,
  "warnings": null,
  "structure": {
    "@module": "pymatgen.core.structure",
    "@class": "Structure",
    "charge": 0,
    "lattice": {
      "matrix": [
        [5.60264674, 7.9e-7, -4.099999999999998e-7],
        [7.9e-7, 5.60267625, 3.1e-7],
        [-4.099999999999998e-7, 3.1e-7, 5.60263251]
      ],
      "pbc": [true, true, true],
      "a": 5.60264674000007,
      "b": 5.602676250000064,
      "c": 5.602632510000024,
      "alpha": 89.99999365954463,
      "beta": 90.00000838578596,
      "gamma": 89.99998384208462,
      "volume": 175.86560263715106
    },
    "properties": {},
    "sites": [
      {
        "species": [{ "element": "Pt", "occu": 1 }],
        "abc": [0.5000001, 0.250000799999999, 4.929999999999998e-6],
        "properties": { "magmom": -0.0 },
        "label": "Pt",
        "xyz": [2.801324127763284, 1.400673939642602, 2.7493478481299987e-5]
      },
      {
        "species": [{ "element": "Pt", "occu": 1 }],
        "abc": [0.50000002, 0.74999916, 5.05e-6],
        "properties": { "magmom": -0.0 },
        "label": "Pt",
        "xyz": [2.801324074550201, 4.202002876253531, 2.8320793906900002e-5]
      },
      {
        "species": [{ "element": "Pt", "occu": 1 }],
        "abc": [-9.8e-7, 0.49999662, 0.74999748],
        "properties": { "magmom": -0.0 },
        "label": "Pt",
        "xyz": [-5.403095442199999e-6, 2.80131942045272, 4.201960418865429]
      },
      {
        "species": [{ "element": "Pt", "occu": 1 }],
        "abc": [0.99999779, 0.49999637, 0.25000258000000003],
        "properties": { "magmom": -0.0 },
        "label": "Pt",
        "xyz": [5.602634650646779, 2.8013186547842666, 1.4006723272916568]
      },
      {
        "species": [{ "element": "Pt", "occu": 1 }],
        "abc": [0.7500068400000001, 3.5e-6, 0.49999453],
        "properties": { "magmom": -0.0 },
        "label": "Pt",
        "xyz": [4.202023172108709, 2.03568705829e-5, 2.801285301098451]
      },
      {
        "species": [{ "element": "Pt", "occu": 1 }],
        "abc": [0.2499977, 3.29e-6, 0.49999515],
        "properties": { "magmom": -0.0 },
        "label": "Pt",
        "xyz": [1.4006485939170854, 1.8785301541999995e-5, 2.8012889797342893]
      },
      {
        "species": [{ "element": "O", "occu": 1 }],
        "abc": [0.750003299999999, 0.249999399999999, 0.25000205000000003],
        "properties": { "magmom": -0.0 },
        "label": "O",
        "xyz": [4.202003638732922, 1.400666370897487, 1.400669382895107]
      },
      {
        "species": [{ "element": "O", "occu": 1 }],
        "abc": [0.24999888, 0.24999949999999901, 0.74999735],
        "properties": { "magmom": -0.0 },
        "label": "O",
        "xyz": [1.4006553000363426, 1.4006666911601633, 4.201959510524153]
      },
      {
        "species": [{ "element": "O", "occu": 1 }],
        "abc": [0.24999483, 0.74999879, 0.25000305],
        "properties": { "magmom": -0.0 },
        "label": "O",
        "xyz": [1.4006332093141476, 4.202000683258598, 1.4006753455309002]
      },
      {
        "species": [{ "element": "O", "occu": 1 }],
        "abc": [0.75000259, 0.75000193, 0.7499964100000001],
        "properties": { "magmom": -0.0 },
        "label": "O",
        "xyz": [4.201999850858053, 4.202018825666096, 4.201954194048826]
      },
      {
        "species": [{ "element": "O", "occu": 1 }],
        "abc": [0.24999754000000002, 0.75000065, 0.7499968300000001],
        "properties": { "magmom": -0.0 },
        "label": "O",
        "xyz": [1.400648187490833, 4.202011259236637, 4.201956752156153]
      },
      {
        "species": [{ "element": "O", "occu": 1 }],
        "abc": [0.75000447, 0.75000058, 0.25000323],
        "properties": { "magmom": -0.0 },
        "label": "O",
        "xyz": [4.2020105888300625, 4.202011107056758, 1.4006761490013546]
      },
      {
        "species": [{ "element": "O", "occu": 1 }],
        "abc": [0.24999683, 0.2500015, 0.25000264],
        "properties": { "magmom": -0.0 },
        "label": "O",
        "xyz": [1.4006440196099366, 1.400677741512689, 1.4006728934515913]
      },
      {
        "species": [{ "element": "O", "occu": 1 }],
        "abc": [0.75000207, 0.24999792, 0.74999771],
        "properties": { "magmom": -0.0 },
        "label": "O",
        "xyz": [4.201996542478048, 1.4006582339343254, 4.201961322470059]
      }
    ]
  },
  "task_ids": null,
  "uncorrected_energy_per_atom": null,
  "energy_per_atom": -6.256103304285712,
  "formation_energy_per_atom": -0.8267827357142831,
  "energy_above_hull": 0.0,
  "is_stable": true,
  "equilibrium_reaction_energy_per_atom": null,
  "decomposes_to": null,
  "xas": null,
  "grain_boundaries": null,
  "band_gap": 0.0,
  "cbm": null,
  "vbm": null,
  "efermi": 3.98054978,
  "is_gap_direct": null,
  "is_metal": null,
  "es_source_calc_id": null,
  "bandstructure": null,
  "dos": null,
  "dos_energy_up": null,
  "dos_energy_down": null,
  "is_magnetic": null,
  "ordering": null,
  "total_magnetization": 9.9e-6,
  "total_magnetization_normalized_vol": null,
  "total_magnetization_normalized_formula_units": null,
  "num_magnetic_sites": null,
  "num_unique_magnetic_sites": null,
  "types_of_magnetic_species": null,
  "bulk_modulus": null,
  "shear_modulus": null,
  "universal_anisotropy": null,
  "homogeneous_poisson": null,
  "e_total": null,
  "e_ionic": null,
  "e_electronic": null,
  "n": null,
  "e_ij_max": null,
  "weighted_surface_energy_EV_PER_ANG2": null,
  "weighted_surface_energy": null,
  "weighted_work_function": null,
  "surface_anisotropy": null,
  "shape_factor": null,
  "has_reconstructed": null,
  "possible_species": null,
  "has_props": null,
  "theoretical": null,
  "database_IDs": null,
  "fields_not_requested": [
    "builder_meta",
    "nsites",
    "elements",
    "nelements",
    "composition",
    "composition_reduced",
    "chemsys",
    "symmetry",
    "property_name",
    "deprecated",
    "deprecation_reasons",
    "last_updated",
    "origins",
    "warnings",
    "task_ids",
    "uncorrected_energy_per_atom",
    "equilibrium_reaction_energy_per_atom",
    "decomposes_to",
    "xas",
    "grain_boundaries",
    "cbm",
    "vbm",
    "is_gap_direct",
    "is_metal",
    "es_source_calc_id",
    "bandstructure",
    "dos",
    "dos_energy_up",
    "dos_energy_down",
    "is_magnetic",
    "ordering",
    "total_magnetization_normalized_vol",
    "total_magnetization_normalized_formula_units",
    "num_magnetic_sites",
    "num_unique_magnetic_sites",
    "types_of_magnetic_species",
    "bulk_modulus",
    "shear_modulus",
    "universal_anisotropy",
    "homogeneous_poisson",
    "e_total",
    "e_ionic",
    "e_electronic",
    "n",
    "e_ij_max",
    "weighted_surface_energy_EV_PER_ANG2",
    "weighted_surface_energy",
    "weighted_work_function",
    "surface_anisotropy",
    "shape_factor",
    "has_reconstructed",
    "possible_species",
    "has_props",
    "theoretical",
    "database_IDs"
  ]
}
