{"builder_meta": null, "nsites": null, "elements": null, "nelements": null, "composition": null, "composition_reduced": null, "formula_pretty": "Pt3Rh", "formula_anonymous": "AB3", "chemsys": null, "volume": 60.119927402725324, "density": 19.007215445705754, "density_atomic": 15.029981850681331, "symmetry": null, "property_name": null, "material_id": "mp-974616", "deprecated": null, "deprecation_reasons": null, "last_updated": null, "origins": null, "warnings": null, "structure": {"@module": "pymatgen.core.structure", "@class": "Structure", "charge": 0, "lattice": {"matrix": [[-1.95599501, 1.95599501, 3.92846575], [1.95599501, -1.95599501, 3.92846575], [1.95599501, 1.95599501, -3.92846575]], "pbc": [true, true, true], "a": 4.8046515073637615, "b": 4.8046515073637615, "c": 4.8046515073637615, "alpha": 131.95385958793767, "beta": 131.95385958793767, "gamma": 70.30191041714286, "volume": 60.119927402725324}, "properties": {}, "sites": [{"species": [{"element": "Pt", "occu": 1}], "abc": [0.75, 0.250001, 0.499998999999999], "properties": {"magmom": 0.394}, "label": "Pt", "xyz": [-1.7763568394002505e-15, 1.9559910980099782, 1.9642407319315034]}, {"species": [{"element": "Pt", "occu": 1}], "abc": [0.250001, 0.75, 0.499998999999999], "properties": {"magmom": 0.394}, "label": "Pt", "xyz": [1.9559910980099782, -1.7763568394002505e-15, 1.9642407319315034]}, {"species": [{"element": "Pt", "occu": 1}], "abc": [0.5, 0.5, -0.0], "properties": {"magmom": 0.311}, "label": "Pt", "xyz": [0.0, 0.0, 3.92846575]}, {"species": [{"element": "Rh", "occu": 1}], "abc": [-0.0, -0.0, -0.0], "properties": {"magmom": 0.987}, "label": "Rh", "xyz": [0.0, 0.0, 0.0]}]}, "task_ids": null, "uncorrected_energy_per_atom": null, "energy_per_atom": -44.68466399, "formation_energy_per_atom": -0.034819157499995, "energy_above_hull": 0.0, "is_stable": true, "equilibrium_reaction_energy_per_atom": null, "decomposes_to": null, "xas": null, "grain_boundaries": null, "band_gap": 0.0, "cbm": null, "vbm": null, "efermi": 7.26562988, "is_gap_direct": null, "is_metal": null, "es_source_calc_id": null, "bandstructure": null, "dos": null, "dos_energy_up": null, "dos_energy_down": null, "is_magnetic": null, "ordering": null, "total_magnetization": 2.0615835, "total_magnetization_normalized_vol": null, "total_magnetization_normalized_formula_units": null, "num_magnetic_sites": null, "num_unique_magnetic_sites": null, "types_of_magnetic_species": null, "bulk_modulus": null, "shear_modulus": null, "universal_anisotropy": null, "homogeneous_poisson": null, "e_total": null, "e_ionic": null, "e_electronic": null, "n": null, "e_ij_max": null, "weighted_surface_energy_EV_PER_ANG2": null, "weighted_surface_energy": null, "weighted_work_function": null, "surface_anisotropy": null, "shape_factor": null, "has_reconstructed": null, "possible_species": null, "has_props": null, "theoretical": null, "database_IDs": null, "fields_not_requested": ["builder_meta", "nsites", "elements", "nelements", "composition", "composition_reduced", "chemsys", "symmetry", "property_name", "deprecated", "deprecation_reasons", "last_updated", "origins", "warnings", "task_ids", "uncorrected_energy_per_atom", "equilibrium_reaction_energy_per_atom", "decomposes_to", "xas", "grain_boundaries", "cbm", "vbm", "is_gap_direct", "is_metal", "es_source_calc_id", "bandstructure", "dos", "dos_energy_up", "dos_energy_down", "is_magnetic", "ordering", "total_magnetization_normalized_vol", "total_magnetization_normalized_formula_units", "num_magnetic_sites", "num_unique_magnetic_sites", "types_of_magnetic_species", "bulk_modulus", "shear_modulus", "universal_anisotropy", "homogeneous_poisson", "e_total", "e_ionic", "e_electronic", "n", "e_ij_max", "weighted_surface_energy_EV_PER_ANG2", "weighted_surface_energy", "weighted_work_function", "surface_anisotropy", "shape_factor", "has_reconstructed", "possible_species", "has_props", "theoretical", "database_IDs"]}