{"builder_meta": null, "nsites": null, "elements": null, "nelements": null, "composition": null, "composition_reduced": null, "formula_pretty": "Pt5Se4", "formula_anonymous": "A4B5", "chemsys": null, "volume": 338.4855910648233, "density": 12.669299560980619, "density_atomic": 18.80475505915685, "symmetry": null, "property_name": null, "material_id": "mp-29767", "deprecated": null, "deprecation_reasons": null, "last_updated": null, "origins": null, "warnings": null, "structure": {"@module": "pymatgen.core.structure", "@class": "Structure", "charge": 0, "lattice": {"matrix": [[4.65976483, 0.0, 0.0], [0.0, 6.47861183, -1.327503329999999], [0.0, 0.00890869, 11.21046211]], "pbc": [true, true, true], "a": 4.65976483, "b": 6.613219816018294, "c": 11.21046564976242, "alpha": 101.53439958121481, "beta": 90.0, "gamma": 90.0, "volume": 338.4855910648233}, "properties": {}, "sites": [{"species": [{"element": "Pt", "occu": 1}], "abc": [0.66812768, 0.6684194800000001, 0.997620899999999], "properties": {"magmom": -0.0}, "label": "Pt", "xyz": [3.1133178652134945, 4.33931784586607, 10.29646221405722]}, {"species": [{"element": "Pt", "occu": 1}], "abc": [0.16812768, 0.33158052, 0.5023791], "properties": {"magmom": -0.0}, "label": "Pt", "xyz": [0.7834354502134945, 2.152657019133931, 5.191727620942769]}, {"species": [{"element": "Pt", "occu": 1}], "abc": [0.33187232, 0.33158052, 0.0023791], "properties": {"magmom": -0.0}, "label": "Pt", "xyz": [1.5464469647865058, 2.148202674133931, -0.4135034340572302]}, {"species": [{"element": "Pt", "occu": 1}], "abc": [0.83187232, 0.6684194800000001, 0.4976209], "properties": {"magmom": -0.0}, "label": "Pt", "xyz": [3.876329379786506, 4.33486350086607, 4.691231159057231]}, {"species": [{"element": "Pt", "occu": 1}], "abc": [0.33812083, 0.7771266, 0.8270984100000001], "properties": {"magmom": -0.0}, "label": "Pt", "xyz": [1.575563551924409, 5.042069947501861, 8.240517237214668]}, {"species": [{"element": "Pt", "occu": 1}], "abc": [0.83812083, 0.2228734, 0.67290159], "properties": {"magmom": -0.0}, "label": "Pt", "xyz": [3.9054459669244093, 1.449904917498139, 7.247672597785334]}, {"species": [{"element": "Pt", "occu": 1}], "abc": [0.66187917, 0.2228734, 0.17290159], "properties": {"magmom": -0.0}, "label": "Pt", "xyz": [3.084201278075591, 1.4454505724981392, 1.642441542785333]}, {"species": [{"element": "Pt", "occu": 1}], "abc": [0.16187917000000002, 0.7771266, 0.32709841], "properties": {"magmom": -0.0}, "label": "Pt", "xyz": [0.7543188630755913, 5.037615602501861, 2.635286182214668]}, {"species": [{"element": "Pt", "occu": 1}], "abc": [0.0, -0.0, 0.0], "properties": {"magmom": 0.0}, "label": "Pt", "xyz": [0.0, 0.0, 0.0]}, {"species": [{"element": "Pt", "occu": 1}], "abc": [0.5, -0.0, 0.5], "properties": {"magmom": 0.0}, "label": "Pt", "xyz": [2.329882415, 0.004454345, 5.605231055]}, {"species": [{"element": "Se", "occu": 1}], "abc": [0.63522344, 0.08891519, 0.86210123], "properties": {"magmom": -0.0}, "label": "Se", "xyz": [2.959991844903615, 0.5837271944073865, 9.546517963086814]}, {"species": [{"element": "Se", "occu": 1}], "abc": [0.13522344, 0.91108481, 0.6378987700000001], "properties": {"magmom": -0.0}, "label": "Se", "xyz": [0.6301094299036153, 5.908247670592614, 5.941671871913189]}, {"species": [{"element": "Se", "occu": 1}], "abc": [0.36477656, 0.91108481, 0.13789877], "properties": {"magmom": -0.0}, "label": "Se", "xyz": [1.699772985096385, 5.903793325592614, 0.3364408169131883]}, {"species": [{"element": "Se", "occu": 1}], "abc": [0.86477656, 0.08891519, 0.36210123], "properties": {"magmom": -0.0}, "label": "Se", "xyz": [4.029655400096385, 0.5792728494073864, 3.9412869080868127]}, {"species": [{"element": "Se", "occu": 1}], "abc": [0.03953635, 0.48614809000000003, 0.85573889], "properties": {"magmom": -0.0}, "label": "Se", "xyz": [0.1842300932365705, 3.1571882794978587, 8.947865194050319]}, {"species": [{"element": "Se", "occu": 1}], "abc": [0.53953635, 0.51385191, 0.64426111], "properties": {"magmom": -0.0}, "label": "Se", "xyz": [2.5141125082365705, 3.3347865855021412, 6.540324640949682]}, {"species": [{"element": "Se", "occu": 1}], "abc": [0.96046365, 0.51385191, 0.14426111], "properties": {"magmom": -0.0}, "label": "Se", "xyz": [4.4755347367634295, 3.330332240502141, 0.9350935859496824]}, {"species": [{"element": "Se", "occu": 1}], "abc": [0.46046365, 0.48614809000000003, 0.35573889000000003], "properties": {"magmom": -0.0}, "label": "Se", "xyz": [2.14565232176343, 3.152733934497859, 3.3426341390503187]}]}, "task_ids": null, "uncorrected_energy_per_atom": null, "energy_per_atom": -35.34828546055556, "formation_energy_per_atom": -0.383304857916666, "energy_above_hull": 0.0, "is_stable": true, "equilibrium_reaction_energy_per_atom": null, "decomposes_to": null, "xas": null, "grain_boundaries": null, "band_gap": 0.0, "cbm": null, "vbm": null, "efermi": 5.63762045, "is_gap_direct": null, "is_metal": null, "es_source_calc_id": null, "bandstructure": null, "dos": null, "dos_energy_up": null, "dos_energy_down": null, "is_magnetic": null, "ordering": null, "total_magnetization": 2e-07, "total_magnetization_normalized_vol": null, "total_magnetization_normalized_formula_units": null, "num_magnetic_sites": null, "num_unique_magnetic_sites": null, "types_of_magnetic_species": null, "bulk_modulus": null, "shear_modulus": null, "universal_anisotropy": null, "homogeneous_poisson": null, "e_total": null, "e_ionic": null, "e_electronic": null, "n": null, "e_ij_max": null, "weighted_surface_energy_EV_PER_ANG2": null, "weighted_surface_energy": null, "weighted_work_function": null, "surface_anisotropy": null, "shape_factor": null, "has_reconstructed": null, "possible_species": null, "has_props": null, "theoretical": null, "database_IDs": null, "fields_not_requested": ["builder_meta", "nsites", "elements", "nelements", "composition", "composition_reduced", "chemsys", "symmetry", "property_name", "deprecated", "deprecation_reasons", "last_updated", "origins", "warnings", "task_ids", "uncorrected_energy_per_atom", "equilibrium_reaction_energy_per_atom", "decomposes_to", "xas", "grain_boundaries", "cbm", "vbm", "is_gap_direct", "is_metal", "es_source_calc_id", "bandstructure", "dos", "dos_energy_up", "dos_energy_down", "is_magnetic", "ordering", "total_magnetization_normalized_vol", "total_magnetization_normalized_formula_units", "num_magnetic_sites", "num_unique_magnetic_sites", "types_of_magnetic_species", "bulk_modulus", "shear_modulus", "universal_anisotropy", "homogeneous_poisson", "e_total", "e_ionic", "e_electronic", "n", "e_ij_max", "weighted_surface_energy_EV_PER_ANG2", "weighted_surface_energy", "weighted_work_function", "surface_anisotropy", "shape_factor", "has_reconstructed", "possible_species", "has_props", "theoretical", "database_IDs"]}