{"builder_meta": null, "nsites": null, "elements": null, "nelements": null, "composition": null, "composition_reduced": null, "formula_pretty": "PtCl2", "formula_anonymous": "AB2", "chemsys": null, "volume": 459.5501320120263, "density": 5.766771747723599, "density_atomic": 25.530562889557018, "symmetry": null, "property_name": null, "material_id": "mp-23290", "deprecated": null, "deprecation_reasons": null, "last_updated": null, "origins": null, "warnings": null, "structure": {"@module": "pymatgen.core.structure", "@class": "Structure", "charge": 0, "lattice": {"matrix": [[7.83373606, 0.09070009, -2.49276359], [-3.43361022, 7.04172965, -2.4927636], [0.05595485, 0.09070009, 8.22059273]], "pbc": [true, true, true], "a": 8.221284417881431, "b": 8.22128371801281, "c": 8.221283493718811, "alpha": 107.25207524446486, "beta": 107.25207040420973, "gamma": 107.25207713506822, "volume": 459.5501320120263}, "properties": {}, "sites": [{"species": [{"element": "Pt", "occu": 1}], "abc": [0.931998999999999, 0.931998999999999, 0.67852055], "properties": {"magmom": -0.0}, "label": "Pt", "xyz": [4.138879398351323, 6.708959260202103, 0.931334744932796]}, {"species": [{"element": "Pt", "occu": 1}], "abc": [0.931998999999999, 0.67852055, 0.931998999999999], "properties": {"magmom": -0.0}, "label": "Pt", "xyz": [5.023408943469061, 4.947023061429128, 3.6469397017588747]}, {"species": [{"element": "Pt", "occu": 1}], "abc": [0.67852055, 0.931998999999999, 0.931998999999999], "properties": {"magmom": -0.0}, "label": "Pt", "xyz": [2.1673794728014064, 6.708959260202103, 3.64693969922409]}, {"species": [{"element": "Pt", "occu": 1}], "abc": [0.32147945, 0.068000999999999, 0.068000999999999], "properties": {"magmom": -0.0}, "label": "Pt", "xyz": [2.2887012171986, 0.5141705697978833, -0.4118741592241012]}, {"species": [{"element": "Pt", "occu": 1}], "abc": [0.068000999999999, 0.068000999999999, 0.32147945], "properties": {"magmom": -0.0}, "label": "Pt", "xyz": [0.31720129164866806, 0.5141705697978833, 2.3037307950672132]}, {"species": [{"element": "Pt", "occu": 1}], "abc": [0.068000999999999, 0.32147945, 0.068000999999999], "properties": {"magmom": -0.0}, "label": "Pt", "xyz": [-0.5673282534690768, 2.2761067685708727, -0.4118741617588857]}, {"species": [{"element": "Cl", "occu": 1}], "abc": [0.246635399999999, 0.0, 0.753364599999999], "properties": {"magmom": 0.0}, "label": "Cl", "xyz": [1.974231029840826, 0.09070008999999982, 5.578299808674267]}, {"species": [{"element": "Cl", "occu": 1}], "abc": [0.0, 0.753364599999999, 0.246635399999999], "properties": {"magmom": 0.0}, "label": "Cl", "xyz": [-2.5729599431345185, 5.327359694057569, 0.14952932379207606]}, {"species": [{"element": "Cl", "occu": 1}], "abc": [0.753364599999999, 0.246635399999999, -0.0], "properties": {"magmom": 0.0}, "label": "Cl", "xyz": [5.054809603293684, 1.8050700459424167, -2.4927635924663494]}, {"species": [{"element": "Cl", "occu": 1}], "abc": [0.753364599999999, -0.0, 0.246635399999999], "properties": {"magmom": 0.0}, "label": "Cl", "xyz": [5.915459880159158, 0.09070008999999982, 0.149529331325722]}, {"species": [{"element": "Cl", "occu": 1}], "abc": [-0.0, 0.246635399999999, 0.753364599999999], "properties": {"magmom": 0.0}, "label": "Cl", "xyz": [-0.8046954268654746, 1.8050700459424167, 5.578299806207912]}, {"species": [{"element": "Cl", "occu": 1}], "abc": [0.246635399999999, 0.753364599999999, 0.0], "properties": {"magmom": 0.0}, "label": "Cl", "xyz": [-0.6546837632936924, 5.327359694057569, -2.4927635975336413]}, {"species": [{"element": "Cl", "occu": 1}], "abc": [0.37894806000000003, 0.13149949, 0.37894806000000003], "properties": {"magmom": 0.0}, "label": "Cl", "xyz": [2.538265071555347, 0.9947251039875292, 1.8427525985239046]}, {"species": [{"element": "Cl", "occu": 1}], "abc": [0.37894806000000003, 0.37894806000000003, 0.13149949], "properties": {"magmom": 0.0}, "label": "Cl", "xyz": [1.6747771850618969, 2.7147474286372586, -0.808252105235044]}, {"species": [{"element": "Cl", "occu": 1}], "abc": [0.13149949, 0.37894806000000003, 0.37894806000000003], "properties": {"magmom": 0.0}, "label": "Cl", "xyz": [-0.2498236531254728, 2.7147474286372586, 1.8427525960494189]}, {"species": [{"element": "Cl", "occu": 1}], "abc": [0.8685005100000001, 0.62105194, 0.62105194], "properties": {"magmom": 0.0}, "label": "Cl", "xyz": [4.705904343125473, 4.508382401362741, 1.3923129439505804]}, {"species": [{"element": "Cl", "occu": 1}], "abc": [0.62105194, 0.8685005100000001, 0.62105194], "properties": {"magmom": 0.0}, "label": "Cl", "xyz": [1.9178156184446522, 6.228404726012471, 1.3923129414760949]}, {"species": [{"element": "Cl", "occu": 1}], "abc": [0.62105194, 0.62105194, 0.8685005100000001], "properties": {"magmom": 0.0}, "label": "Cl", "xyz": [2.7813035049381023, 4.508382401362741, 4.043317645235044]}]}, "task_ids": null, "uncorrected_energy_per_atom": null, "energy_per_atom": -21.739262241666665, "formation_energy_per_atom": -0.47506400999999804, "energy_above_hull": 0.0, "is_stable": true, "equilibrium_reaction_energy_per_atom": null, "decomposes_to": null, "xas": null, "grain_boundaries": null, "band_gap": 1.7917, "cbm": null, "vbm": null, "efermi": 0.50718291, "is_gap_direct": null, "is_metal": null, "es_source_calc_id": null, "bandstructure": null, "dos": null, "dos_energy_up": null, "dos_energy_down": null, "is_magnetic": null, "ordering": null, "total_magnetization": 0.0, "total_magnetization_normalized_vol": null, "total_magnetization_normalized_formula_units": null, "num_magnetic_sites": null, "num_unique_magnetic_sites": null, "types_of_magnetic_species": null, "bulk_modulus": null, "shear_modulus": null, "universal_anisotropy": null, "homogeneous_poisson": null, "e_total": null, "e_ionic": null, "e_electronic": null, "n": null, "e_ij_max": null, "weighted_surface_energy_EV_PER_ANG2": null, "weighted_surface_energy": null, "weighted_work_function": null, "surface_anisotropy": null, "shape_factor": null, "has_reconstructed": null, "possible_species": null, "has_props": null, "theoretical": null, "database_IDs": null, "fields_not_requested": ["builder_meta", "nsites", "elements", "nelements", "composition", "composition_reduced", "chemsys", "symmetry", "property_name", "deprecated", "deprecation_reasons", "last_updated", "origins", "warnings", "task_ids", "uncorrected_energy_per_atom", "equilibrium_reaction_energy_per_atom", "decomposes_to", "xas", "grain_boundaries", "cbm", "vbm", "is_gap_direct", "is_metal", "es_source_calc_id", "bandstructure", "dos", "dos_energy_up", "dos_energy_down", "is_magnetic", "ordering", "total_magnetization_normalized_vol", "total_magnetization_normalized_formula_units", "num_magnetic_sites", "num_unique_magnetic_sites", "types_of_magnetic_species", "bulk_modulus", "shear_modulus", "universal_anisotropy", "homogeneous_poisson", "e_total", "e_ionic", "e_electronic", "n", "e_ij_max", "weighted_surface_energy_EV_PER_ANG2", "weighted_surface_energy", "weighted_work_function", "surface_anisotropy", "shape_factor", "has_reconstructed", "possible_species", "has_props", "theoretical", "database_IDs"]}