{
  "builder_meta": null,
  "nsites": null,
  "elements": null,
  "nelements": null,
  "composition": null,
  "composition_reduced": null,
  "formula_pretty": "PtF4",
  "formula_anonymous": "AB4",
  "chemsys": null,
  "volume": 126.28380539682139,
  "density": 7.128942063800023,
  "density_atomic": 12.628380539682139,
  "symmetry": null,
  "property_name": null,
  "material_id": "mp-8943",
  "deprecated": null,
  "deprecation_reasons": null,
  "last_updated": null,
  "origins": null,
  "warnings": null,
  "structure": {
    "@module": "pymatgen.core.structure",
    "@class": "Structure",
    "charge": 0,
    "lattice": {
      "matrix": [
        [5.24777791, -0.02120546, -1.4495356400000001],
        [-2.97317595, 4.32433327, -1.44953563],
        [0.00922416, 0.01745087, 5.56859168]
      ],
      "pbc": [true, true, true],
      "a": 5.444334324400733,
      "b": 5.4443353131789,
      "c": 5.568626663420406,
      "alpha": 105.34677425368848,
      "beta": 105.34678121202951,
      "gamma": 117.29647979225727,
      "volume": 126.28380539682139
    },
    "properties": {},
    "sites": [
      {
        "species": [{ "element": "Pt", "occu": 1 }],
        "abc": [0.75559752, 0.25559752, 0.5],
        "properties": { "magmom": 0.0 },
        "label": "Pt",
        "xyz": [3.209883654963139, 1.0979915014790314, 1.3185325930847496]
      },
      {
        "species": [{ "element": "Pt", "occu": 1 }],
        "abc": [0.00559752, 0.00559752, 0.0],
        "properties": { "magmom": 0.0 },
        "label": "Pt",
        "xyz": [0.012732129963139202, 0.0240868439790312, -0.0162276094152504]
      },
      {
        "species": [{ "element": "F", "occu": 1 }],
        "abc": [0.9824096600000001, 0.74206943, 0.16816139],
        "properties": { "magmom": 0.0 },
        "label": "F",
        "xyz": [2.950715877379585, 3.191057638606102, -1.5632717767178383]
      },
      {
        "species": [{ "element": "F", "occu": 1 }],
        "abc": [0.57390703, 0.81424827, 0.83183861],
        "properties": { "magmom": 0.0 },
        "label": "F",
        "xyz": [0.5985062731674186, 3.52342722887665, 2.6199889896863557]
      },
      {
        "species": [{ "element": "F", "occu": 1 }],
        "abc": [0.05349851, 0.31045258000000003, 0.3278663],
        "properties": { "magmom": -0.0 },
        "label": "F",
        "xyz": [-0.639257554265729, 1.3470875121161534, 1.2981934772650623]
      },
      {
        "species": [{ "element": "F", "occu": 1 }],
        "abc": [0.98258628, 0.72563121, 0.6721337],
        "properties": { "magmom": -0.0 },
        "label": "F",
        "xyz": [3.0051651815018676, 3.1287643069175872, 1.2667160042975838]
      },
      {
        "species": [{ "element": "F", "occu": 1 }],
        "abc": [0.06045258, 0.30349851, 0.8278662999999991],
        "properties": { "magmom": -0.0 },
        "label": "F",
        "xyz": [-0.5774763856565187, 1.325593766600022, 4.082489317195517]
      },
      {
        "species": [{ "element": "F", "occu": 1 }],
        "abc": [0.47563121, 0.23258628, 0.1721337],
        "properties": { "magmom": -0.0 },
        "label": "F",
        "xyz": [1.8060748119387973, 0.9986984929724481, -0.06804420063286487]
      },
      {
        "species": [{ "element": "F", "occu": 1 }],
        "abc": [0.56424827, 0.82390703, 0.33183861000000003],
        "properties": { "magmom": 0.0 },
        "label": "F",
        "xyz": [0.5144899728626048, 3.5566743095404245, -0.16430685021705682]
      },
      {
        "species": [{ "element": "F", "occu": 1 }],
        "abc": [0.49206943000000003, 0.23240966000000002, 0.66816139],
        "properties": { "magmom": 0.0 },
        "label": "F",
        "xyz": [1.8974395008477964, 1.0062422639482098, 2.6705596981855635]
      }
    ]
  },
  "task_ids": null,
  "uncorrected_energy_per_atom": null,
  "energy_per_atom": -14.173459388000001,
  "formation_energy_per_atom": -1.375093648,
  "energy_above_hull": 0.0,
  "is_stable": true,
  "equilibrium_reaction_energy_per_atom": null,
  "decomposes_to": null,
  "xas": null,
  "grain_boundaries": null,
  "band_gap": 1.295399999999999,
  "cbm": null,
  "vbm": null,
  "efermi": -0.8847514,
  "is_gap_direct": null,
  "is_metal": null,
  "es_source_calc_id": null,
  "bandstructure": null,
  "dos": null,
  "dos_energy_up": null,
  "dos_energy_down": null,
  "is_magnetic": null,
  "ordering": null,
  "total_magnetization": 0.0,
  "total_magnetization_normalized_vol": null,
  "total_magnetization_normalized_formula_units": null,
  "num_magnetic_sites": null,
  "num_unique_magnetic_sites": null,
  "types_of_magnetic_species": null,
  "bulk_modulus": null,
  "shear_modulus": null,
  "universal_anisotropy": null,
  "homogeneous_poisson": null,
  "e_total": null,
  "e_ionic": null,
  "e_electronic": null,
  "n": null,
  "e_ij_max": null,
  "weighted_surface_energy_EV_PER_ANG2": null,
  "weighted_surface_energy": null,
  "weighted_work_function": null,
  "surface_anisotropy": null,
  "shape_factor": null,
  "has_reconstructed": null,
  "possible_species": null,
  "has_props": null,
  "theoretical": null,
  "database_IDs": null,
  "fields_not_requested": [
    "builder_meta",
    "nsites",
    "elements",
    "nelements",
    "composition",
    "composition_reduced",
    "chemsys",
    "symmetry",
    "property_name",
    "deprecated",
    "deprecation_reasons",
    "last_updated",
    "origins",
    "warnings",
    "task_ids",
    "uncorrected_energy_per_atom",
    "equilibrium_reaction_energy_per_atom",
    "decomposes_to",
    "xas",
    "grain_boundaries",
    "cbm",
    "vbm",
    "is_gap_direct",
    "is_metal",
    "es_source_calc_id",
    "bandstructure",
    "dos",
    "dos_energy_up",
    "dos_energy_down",
    "is_magnetic",
    "ordering",
    "total_magnetization_normalized_vol",
    "total_magnetization_normalized_formula_units",
    "num_magnetic_sites",
    "num_unique_magnetic_sites",
    "types_of_magnetic_species",
    "bulk_modulus",
    "shear_modulus",
    "universal_anisotropy",
    "homogeneous_poisson",
    "e_total",
    "e_ionic",
    "e_electronic",
    "n",
    "e_ij_max",
    "weighted_surface_energy_EV_PER_ANG2",
    "weighted_surface_energy",
    "weighted_work_function",
    "surface_anisotropy",
    "shape_factor",
    "has_reconstructed",
    "possible_species",
    "has_props",
    "theoretical",
    "database_IDs"
  ]
}
