{"builder_meta": null, "nsites": null, "elements": null, "nelements": null, "composition": null, "composition_reduced": null, "formula_pretty": "PtF5", "formula_anonymous": "AB5", "chemsys": null, "volume": 627.4335536959325, "density": 6.141623176055008, "density_atomic": 13.07153236866526, "symmetry": null, "property_name": null, "material_id": "mp-541341", "deprecated": null, "deprecation_reasons": null, "last_updated": null, "origins": null, "warnings": null, "structure": {"@module": "pymatgen.core.structure", "@class": "Structure", "charge": 0, "lattice": {"matrix": [[5.2846957, 0.0, -0.87575749], [0.0, 9.74498816, 0.0], [-0.03587267, 0.0, 12.18928677]], "pbc": [true, true, true], "a": 5.356767665569377, "b": 9.74498816, "c": 12.189339555929598, "alpha": 90.0, "beta": 99.57792405480143, "gamma": 90.0, "volume": 627.4335536959323}, "properties": {}, "sites": [{"species": [{"element": "Pt", "occu": 1}], "abc": [-0.0005103, 0.25176128000000003, 0.00032482], "properties": {"magmom": -0.451}, "label": "Pt", "xyz": [-0.0027084323763794, 2.453410692746445, 0.004406223175778401]}, {"species": [{"element": "Pt", "occu": 1}], "abc": [0.00050086, 0.75167874, 0.49968073], "properties": {"magmom": -0.451}, "label": "Pt", "xyz": [-0.0152779892443471, 7.325100421423719, 6.090313079516501]}, {"species": [{"element": "Pt", "occu": 1}], "abc": [0.00050086, 0.74832126, 0.99968073], "properties": {"magmom": -0.451}, "label": "Pt", "xyz": [-0.0332143242443471, 7.292381818576281, 12.184956464516501]}, {"species": [{"element": "Pt", "occu": 1}], "abc": [-0.0005103, 0.24823872, 0.50032482], "properties": {"magmom": -0.451}, "label": "Pt", "xyz": [-0.0206447673763794, 2.419083387253555, 6.099049608175779]}, {"species": [{"element": "Pt", "occu": 1}], "abc": [0.30553836, -0.00028921000000000003, 0.20213003000000002], "properties": {"magmom": -0.453}, "label": "Pt", "xyz": [1.607426313413772, -0.0028183480257536002, 2.196243393246387]}, {"species": [{"element": "Pt", "occu": 1}], "abc": [0.69445526, 0.49961594000000004, 0.29786782], "properties": {"magmom": -0.453}, "label": "Pt", "xyz": [3.659299412353903, 4.868751419847271, 3.022621882119844]}, {"species": [{"element": "Pt", "occu": 1}], "abc": [0.69445526, 0.00038406000000000003, 0.79786782], "properties": {"magmom": -0.453}, "label": "Pt", "xyz": [3.641363077353903, 0.0037426601527296003, 9.117265267119844]}, {"species": [{"element": "Pt", "occu": 1}], "abc": [0.30553836, 0.50028921, 0.70213003], "properties": {"magmom": -0.453}, "label": "Pt", "xyz": [1.5894899784137722, 4.8753124280257545, 8.290886778246387]}, {"species": [{"element": "F", "occu": 1}], "abc": [0.10552438, 0.82962627, 0.15462791], "properties": {"magmom": -0.021}, "label": "F", "xyz": [0.5521173212429464, 8.084698178374964, 1.7923901714731447]}, {"species": [{"element": "F", "occu": 1}], "abc": [0.8944932800000001, 0.32954247000000003, 0.34535911], "properties": {"magmom": -0.021}, "label": "F", "xyz": [4.714735837110373, 3.2113874683671555, 3.4263220407073085]}, {"species": [{"element": "F", "occu": 1}], "abc": [0.8944932800000001, 0.17045753, 0.84535911], "properties": {"magmom": -0.021}, "label": "F", "xyz": [4.696799502110373, 1.6611066116328448, 9.520965425707306]}, {"species": [{"element": "F", "occu": 1}], "abc": [0.10552438, 0.67037373, 0.65462791], "properties": {"magmom": -0.021}, "label": "F", "xyz": [0.5341809862429464, 6.532784061625037, 7.887033556473145]}, {"species": [{"element": "F", "occu": 1}], "abc": [0.49202744, 0.155994499999999, 0.24832082], "properties": {"magmom": -0.108}, "label": "F", "xyz": [2.5913073656200187, 1.5201645555251104, 2.595956970076026]}, {"species": [{"element": "F", "occu": 1}], "abc": [0.50792324, 0.65588791, 0.25165584], "properties": {"magmom": -0.108}, "label": "F", "xyz": [2.6751921954561757, 6.391619917237146, 2.6226876193301694]}, {"species": [{"element": "F", "occu": 1}], "abc": [0.50792324, 0.84411209, 0.75165584], "properties": {"magmom": -0.108}, "label": "F", "xyz": [2.6572558604561753, 8.225862322762854, 8.71733100433017]}, {"species": [{"element": "F", "occu": 1}], "abc": [0.49202744, 0.344005499999999, 0.74832082], "properties": {"magmom": -0.108}, "label": "F", "xyz": [2.573371030620019, 3.3523295244748703, 8.690600355076025]}, {"species": [{"element": "F", "occu": 1}], "abc": [0.80970606, 0.40625642, 0.95250838], "properties": {"magmom": -0.117}, "label": "F", "xyz": [4.244881114757968, 3.958964002823987, 10.901291647904744]}, {"species": [{"element": "F", "occu": 1}], "abc": [0.1902188, 0.90616598, 0.54750979], "properties": {"magmom": -0.117}, "label": "F", "xyz": [0.9856078364007208, 8.830576746094797, 6.5071683008536665]}, {"species": [{"element": "F", "occu": 1}], "abc": [0.1902188, 0.59383402, 0.04750979], "properties": {"magmom": -0.117}, "label": "F", "xyz": [1.0035441714007207, 5.786905493905203, 0.41252491585366635]}, {"species": [{"element": "F", "occu": 1}], "abc": [0.80970606, 0.09374358, 0.45250838], "properties": {"magmom": -0.117}, "label": "F", "xyz": [4.262817449757968, 0.9135300771760129, 4.806648262904743]}, {"species": [{"element": "F", "occu": 1}], "abc": [0.09850153, 0.32935555, 0.14207352], "properties": {"magmom": -0.031}, "label": "F", "xyz": [0.5154540555357227, 3.209565935180288, 1.645511425029371]}, {"species": [{"element": "F", "occu": 1}], "abc": [0.90150646, 0.8292875200000001, 0.35793703], "properties": {"magmom": -0.031}, "label": "F", "xyz": [4.751347155726252, 8.081397063635764, 3.5734960696437077]}, {"species": [{"element": "F", "occu": 1}], "abc": [0.90150646, 0.67071248, 0.85793703], "properties": {"magmom": -0.031}, "label": "F", "xyz": [4.733410820726252, 6.536085176364238, 9.66813945464371]}, {"species": [{"element": "F", "occu": 1}], "abc": [0.09850153, 0.17064445, 0.6420735200000001], "properties": {"magmom": -0.031}, "label": "F", "xyz": [0.4975177205357227, 1.662928144819712, 7.740154810029372]}, {"species": [{"element": "F", "occu": 1}], "abc": [0.7207295300000001, 0.335131, 0.5462345], "properties": {"magmom": -0.149}, "label": "F", "xyz": [3.7892413580929065, 3.2658476270489603, 6.027024680005884]}, {"species": [{"element": "F", "occu": 1}], "abc": [0.27924965, 0.8351809, 0.95374694], "properties": {"magmom": -0.149}, "label": "F", "xyz": [1.4415359753393755, 8.138827981958144, 11.380939985102607]}, {"species": [{"element": "F", "occu": 1}], "abc": [0.27924965, 0.6648191, 0.45374694], "properties": {"magmom": -0.149}, "label": "F", "xyz": [1.4594723103393754, 6.478654258041856, 5.286296600102605]}, {"species": [{"element": "F", "occu": 1}], "abc": [0.7207295300000001, 0.164869, 0.0462345], "properties": {"magmom": -0.149}, "label": "F", "xyz": [3.8071776930929064, 1.6066464529510398, -0.06761870499411482]}, {"species": [{"element": "F", "occu": 1}], "abc": [0.20165332, 0.08232187, 0.04756264], "properties": {"magmom": -0.018000000000000002}, "label": "F", "xyz": [1.0639702342056754, 0.8022256484590593, 0.4031552531249061]}, {"species": [{"element": "F", "occu": 1}], "abc": [0.7984488, 0.58222787, 0.45243557], "properties": {"magmom": -0.019}, "label": "F", "xyz": [4.203328868131288, 5.673803699572019, 4.815619390696897]}, {"species": [{"element": "F", "occu": 1}], "abc": [0.7984488, 0.91777213, 0.95243557], "properties": {"magmom": -0.019}, "label": "F", "xyz": [4.185392533131288, 8.943678540427982, 10.910262775696898]}, {"species": [{"element": "F", "occu": 1}], "abc": [0.20165332, 0.41767813000000004, 0.54756264], "properties": {"magmom": -0.018000000000000002}, "label": "F", "xyz": [1.0460338992056752, 4.070268431540941, 6.497798638124907]}, {"species": [{"element": "F", "occu": 1}], "abc": [0.41283459, 0.41850836, 0.34577012], "properties": {"magmom": -0.161}, "label": "F", "xyz": [2.169301485173643, 4.078359013061018, 3.8531481648537333]}, {"species": [{"element": "F", "occu": 1}], "abc": [0.58717497, 0.91860522, 0.15423134], "properties": {"magmom": -0.161}, "label": "F", "xyz": [3.097508349143151, 8.951796992614195, 1.3657471542633468]}, {"species": [{"element": "F", "occu": 1}], "abc": [0.58717497, 0.58139478, 0.65423134], "properties": {"magmom": -0.161}, "label": "F", "xyz": [3.0795720141431513, 5.665685247385805, 7.460390539263347]}, {"species": [{"element": "F", "occu": 1}], "abc": [0.41283459, 0.08149164, 0.8457701200000001], "properties": {"magmom": -0.161}, "label": "F", "xyz": [2.151365150173643, 0.7941350669389825, 9.947791549853735]}, {"species": [{"element": "F", "occu": 1}], "abc": [0.59958722, 0.08137128, 0.65726258], "properties": {"magmom": -0.035}, "label": "F", "xyz": [3.145058239673266, 0.7929621601640449, 7.4864690719867895]}, {"species": [{"element": "F", "occu": 1}], "abc": [0.4003902, 0.58124746, 0.8427449300000001], "properties": {"magmom": -0.035}, "label": "F", "xyz": [2.085708857494077, 5.664249615730074, 9.92181490916098]}, {"species": [{"element": "F", "occu": 1}], "abc": [0.4003902, 0.9187525400000001, 0.34274493], "properties": {"magmom": -0.035}, "label": "F", "xyz": [2.103645192494077, 8.953232624269926, 3.827171524160978]}, {"species": [{"element": "F", "occu": 1}], "abc": [0.59958722, 0.41862872, 0.15726258], "properties": {"magmom": -0.035}, "label": "F", "xyz": [3.1629945746732657, 4.079531919835955, 1.391825686986789]}, {"species": [{"element": "F", "occu": 1}], "abc": [0.01454359, 0.07378048, 0.24646656], "properties": {"magmom": -0.171}, "label": "F", "xyz": [0.0680170339626478, 0.7189899040391168, 2.9915149211814223]}, {"species": [{"element": "F", "occu": 1}], "abc": [0.98546418, 0.57363086, 0.25351589], "properties": {"magmom": -0.171}, "label": "F", "xyz": [5.1987840226883, 5.5900259389106175, 2.2271502472000675]}, {"species": [{"element": "F", "occu": 1}], "abc": [0.98546418, 0.92636914, 0.75351589], "properties": {"magmom": -0.171}, "label": "F", "xyz": [5.1808476876883, 9.027456301089384, 8.321793632200066]}, {"species": [{"element": "F", "occu": 1}], "abc": [0.01454359, 0.42621952, 0.74646656], "properties": {"magmom": -0.171}, "label": "F", "xyz": [0.0500806989626478, 4.153504175960883, 9.086158306181423]}, {"species": [{"element": "F", "occu": 1}], "abc": [0.29006214, 0.3232945, 0.95397825], "properties": {"magmom": -0.184}, "label": "F", "xyz": [1.4986683970413708, 3.15050107469312, 11.374290369922324]}, {"species": [{"element": "F", "occu": 1}], "abc": [0.70997742, 0.82324317, 0.546055899999999], "properties": {"magmom": -0.184}, "label": "F", "xyz": [3.732426135468841, 8.022494944450868, 6.034263914254556]}, {"species": [{"element": "F", "occu": 1}], "abc": [0.70997742, 0.67675683, 0.0460559], "properties": {"magmom": -0.184}, "label": "F", "xyz": [3.7503624704688407, 6.594987295549132, -0.06037947074543282]}, {"species": [{"element": "F", "occu": 1}], "abc": [0.29006214, 0.1767055, 0.45397825], "properties": {"magmom": -0.184}, "label": "F", "xyz": [1.5166047320413707, 1.72199300530688, 5.279646984922325]}]}, "task_ids": null, "uncorrected_energy_per_atom": null, "energy_per_atom": -12.426994273124999, "formation_energy_per_atom": -1.240684831458331, "energy_above_hull": 0.004269665416661001, "is_stable": false, "equilibrium_reaction_energy_per_atom": null, "decomposes_to": null, "xas": null, "grain_boundaries": null, "band_gap": 0.0, "cbm": null, "vbm": null, "efermi": -2.48247112, "is_gap_direct": null, "is_metal": null, "es_source_calc_id": null, "bandstructure": null, "dos": null, "dos_energy_up": null, "dos_energy_down": null, "is_magnetic": null, "ordering": null, "total_magnetization": 7.9755696, "total_magnetization_normalized_vol": null, "total_magnetization_normalized_formula_units": null, "num_magnetic_sites": null, "num_unique_magnetic_sites": null, "types_of_magnetic_species": null, "bulk_modulus": null, "shear_modulus": null, "universal_anisotropy": null, "homogeneous_poisson": null, "e_total": null, "e_ionic": null, "e_electronic": null, "n": null, "e_ij_max": null, "weighted_surface_energy_EV_PER_ANG2": null, "weighted_surface_energy": null, "weighted_work_function": null, "surface_anisotropy": null, "shape_factor": null, "has_reconstructed": null, "possible_species": null, "has_props": null, "theoretical": null, "database_IDs": null, "fields_not_requested": ["builder_meta", "nsites", "elements", "nelements", "composition", "composition_reduced", "chemsys", "symmetry", "property_name", "deprecated", "deprecation_reasons", "last_updated", "origins", "warnings", "task_ids", "uncorrected_energy_per_atom", "equilibrium_reaction_energy_per_atom", "decomposes_to", "xas", "grain_boundaries", "cbm", "vbm", "is_gap_direct", "is_metal", "es_source_calc_id", "bandstructure", "dos", "dos_energy_up", "dos_energy_down", "is_magnetic", "ordering", "total_magnetization_normalized_vol", "total_magnetization_normalized_formula_units", "num_magnetic_sites", "num_unique_magnetic_sites", "types_of_magnetic_species", "bulk_modulus", "shear_modulus", "universal_anisotropy", "homogeneous_poisson", "e_total", "e_ionic", "e_electronic", "n", "e_ij_max", "weighted_surface_energy_EV_PER_ANG2", "weighted_surface_energy", "weighted_work_function", "surface_anisotropy", "shape_factor", "has_reconstructed", "possible_species", "has_props", "theoretical", "database_IDs"]}