{"builder_meta": null, "nsites": null, "elements": null, "nelements": null, "composition": null, "composition_reduced": null, "formula_pretty": "PtF6", "formula_anonymous": "AB6", "chemsys": null, "volume": 370.297478393237, "density": 5.543976694578307, "density_atomic": 13.224909942615607, "symmetry": null, "property_name": null, "material_id": "mp-505319", "deprecated": null, "deprecation_reasons": null, "last_updated": null, "origins": null, "warnings": null, "structure": {"@module": "pymatgen.core.structure", "@class": "Structure", "charge": 0, "lattice": {"matrix": [[4.84435337, 0.0, 0.0], [0.0, 8.42276074, 0.0], [0.0, 0.0, 9.07528924]], "pbc": [true, true, true], "a": 4.84435337, "b": 8.42276074, "c": 9.07528924, "alpha": 90.0, "beta": 90.0, "gamma": 90.0, "volume": 370.297478393237}, "properties": {}, "sites": [{"species": [{"element": "Pt", "occu": 1}], "abc": [0.91333621, 0.75, 0.12609386], "properties": {"magmom": 0.846}, "label": "Pt", "xyz": [4.424523346856528, 6.317070554999999, 1.1443382508880664]}, {"species": [{"element": "Pt", "occu": 1}], "abc": [0.41333621, 0.25, 0.37390614], "properties": {"magmom": 0.846}, "label": "Pt", "xyz": [2.0023466618565275, 2.105690185, 3.3933063691119334]}, {"species": [{"element": "Pt", "occu": 1}], "abc": [0.08666379, 0.25, 0.87390614], "properties": {"magmom": 0.846}, "label": "Pt", "xyz": [0.41983002314347234, 2.105690185, 7.930950989111934]}, {"species": [{"element": "Pt", "occu": 1}], "abc": [0.58666379, 0.75, 0.62609386], "properties": {"magmom": 0.846}, "label": "Pt", "xyz": [2.842006708143473, 6.317070554999999, 5.681982870888066]}, {"species": [{"element": "F", "occu": 1}], "abc": [0.22929995, 0.75, 0.00693929], "properties": {"magmom": 0.17}, "label": "F", "xyz": [1.1108099855233315, 6.317070554999999, 0.0629760638702396]}, {"species": [{"element": "F", "occu": 1}], "abc": [0.72929995, 0.25, 0.49306071], "properties": {"magmom": 0.17}, "label": "F", "xyz": [3.5329866705233317, 2.105690185, 4.47466855612976]}, {"species": [{"element": "F", "occu": 1}], "abc": [0.77070005, 0.25, 0.9930607100000001], "properties": {"magmom": 0.17}, "label": "F", "xyz": [3.733543384476669, 2.105690185, 9.01231317612976]}, {"species": [{"element": "F", "occu": 1}], "abc": [0.27070005, 0.75, 0.50693929], "properties": {"magmom": 0.17}, "label": "F", "xyz": [1.3113666994766686, 6.317070554999999, 4.60062068387024]}, {"species": [{"element": "F", "occu": 1}], "abc": [0.59671807, 0.75, 0.2451735], "properties": {"magmom": 0.17}, "label": "F", "xyz": [2.890713193344396, 6.317070554999999, 2.2250204264831397]}, {"species": [{"element": "F", "occu": 1}], "abc": [0.09671807, 0.25, 0.2548265], "properties": {"magmom": 0.17}, "label": "F", "xyz": [0.468536508344396, 2.105690185, 2.3126241935168603]}, {"species": [{"element": "F", "occu": 1}], "abc": [0.40328193, 0.25, 0.7548265], "properties": {"magmom": 0.17}, "label": "F", "xyz": [1.9536401766556042, 2.105690185, 6.85026881351686]}, {"species": [{"element": "F", "occu": 1}], "abc": [0.90328193, 0.75, 0.745173499999999], "properties": {"magmom": 0.17}, "label": "F", "xyz": [4.375816861655604, 6.317070554999999, 6.762665046483131]}, {"species": [{"element": "F", "occu": 1}], "abc": [0.75727597, 0.90779577, 0.00717207], "properties": {"magmom": 0.178}, "label": "F", "xyz": [3.6685123972895193, 7.646146571494069, 0.0650886096995268]}, {"species": [{"element": "F", "occu": 1}], "abc": [0.25727597, 0.09220423, 0.49282793], "properties": {"magmom": 0.178}, "label": "F", "xyz": [1.2463357122895191, 0.7766141685059301, 4.472556010300473]}, {"species": [{"element": "F", "occu": 1}], "abc": [0.24272403, 0.40779577, 0.99282793], "properties": {"magmom": 0.178}, "label": "F", "xyz": [1.1758409727104813, 3.4347662014940696, 9.010200630300474]}, {"species": [{"element": "F", "occu": 1}], "abc": [0.74272403, 0.59220423, 0.50717207], "properties": {"magmom": 0.178}, "label": "F", "xyz": [3.598017657710481, 4.98799453850593, 4.602733229699527]}, {"species": [{"element": "F", "occu": 1}], "abc": [0.24272403, 0.09220423, 0.99282793], "properties": {"magmom": 0.178}, "label": "F", "xyz": [1.1758409727104813, 0.7766141685059301, 9.010200630300474]}, {"species": [{"element": "F", "occu": 1}], "abc": [0.74272403, 0.90779577, 0.50717207], "properties": {"magmom": 0.178}, "label": "F", "xyz": [3.598017657710481, 7.646146571494069, 4.602733229699527]}, {"species": [{"element": "F", "occu": 1}], "abc": [0.75727597, 0.59220423, 0.00717207], "properties": {"magmom": 0.178}, "label": "F", "xyz": [3.6685123972895193, 4.98799453850593, 0.0650886096995268]}, {"species": [{"element": "F", "occu": 1}], "abc": [0.25727597, 0.40779577, 0.49282793], "properties": {"magmom": 0.178}, "label": "F", "xyz": [1.2463357122895191, 3.4347662014940696, 4.472556010300473]}, {"species": [{"element": "F", "occu": 1}], "abc": [0.06772889, 0.90733207, 0.24583034], "properties": {"magmom": 0.176}, "label": "F", "xyz": [0.32810267651785935, 7.642240937338932, 2.230981439467542]}, {"species": [{"element": "F", "occu": 1}], "abc": [0.56772889, 0.09266793, 0.25416966], "properties": {"magmom": 0.176}, "label": "F", "xyz": [2.7502793615178596, 0.7805198026610681, 2.3066631805324587]}, {"species": [{"element": "F", "occu": 1}], "abc": [0.9322711100000001, 0.40733207, 0.75416966], "properties": {"magmom": 0.176}, "label": "F", "xyz": [4.516250693482141, 3.4308605673389314, 6.844307800532458]}, {"species": [{"element": "F", "occu": 1}], "abc": [0.43227111, 0.5926679300000001, 0.74583034], "properties": {"magmom": 0.176}, "label": "F", "xyz": [2.0940740084821408, 4.991900172661068, 6.768626059467542]}, {"species": [{"element": "F", "occu": 1}], "abc": [0.9322711100000001, 0.09266793, 0.75416966], "properties": {"magmom": 0.176}, "label": "F", "xyz": [4.516250693482141, 0.7805198026610681, 6.844307800532458]}, {"species": [{"element": "F", "occu": 1}], "abc": [0.43227111, 0.90733207, 0.74583034], "properties": {"magmom": 0.176}, "label": "F", "xyz": [2.0940740084821408, 7.642240937338932, 6.768626059467542]}, {"species": [{"element": "F", "occu": 1}], "abc": [0.06772889, 0.5926679300000001, 0.24583034], "properties": {"magmom": 0.176}, "label": "F", "xyz": [0.32810267651785935, 4.991900172661068, 2.230981439467542]}, {"species": [{"element": "F", "occu": 1}], "abc": [0.56772889, 0.40733207, 0.25416966], "properties": {"magmom": 0.176}, "label": "F", "xyz": [2.7502793615178596, 3.4308605673389314, 2.3066631805324587]}]}, "task_ids": null, "uncorrected_energy_per_atom": null, "energy_per_atom": -11.1868386175, "formation_energy_per_atom": -1.151997960357141, "energy_above_hull": 0.0, "is_stable": true, "equilibrium_reaction_energy_per_atom": null, "decomposes_to": null, "xas": null, "grain_boundaries": null, "band_gap": 0.0, "cbm": null, "vbm": null, "efermi": -3.11831946, "is_gap_direct": null, "is_metal": null, "es_source_calc_id": null, "bandstructure": null, "dos": null, "dos_energy_up": null, "dos_energy_down": null, "is_magnetic": null, "ordering": null, "total_magnetization": 7.9999998, "total_magnetization_normalized_vol": null, "total_magnetization_normalized_formula_units": null, "num_magnetic_sites": null, "num_unique_magnetic_sites": null, "types_of_magnetic_species": null, "bulk_modulus": null, "shear_modulus": null, "universal_anisotropy": null, "homogeneous_poisson": null, "e_total": null, "e_ionic": null, "e_electronic": null, "n": null, "e_ij_max": null, "weighted_surface_energy_EV_PER_ANG2": null, "weighted_surface_energy": null, "weighted_work_function": null, "surface_anisotropy": null, "shape_factor": null, "has_reconstructed": null, "possible_species": null, "has_props": null, "theoretical": null, "database_IDs": null, "fields_not_requested": ["builder_meta", "nsites", "elements", "nelements", "composition", "composition_reduced", "chemsys", "symmetry", "property_name", "deprecated", "deprecation_reasons", "last_updated", "origins", "warnings", "task_ids", "uncorrected_energy_per_atom", "equilibrium_reaction_energy_per_atom", "decomposes_to", "xas", "grain_boundaries", "cbm", "vbm", "is_gap_direct", "is_metal", "es_source_calc_id", "bandstructure", "dos", "dos_energy_up", "dos_energy_down", "is_magnetic", "ordering", "total_magnetization_normalized_vol", "total_magnetization_normalized_formula_units", "num_magnetic_sites", "num_unique_magnetic_sites", "types_of_magnetic_species", "bulk_modulus", "shear_modulus", "universal_anisotropy", "homogeneous_poisson", "e_total", "e_ionic", "e_electronic", "n", "e_ij_max", "weighted_surface_energy_EV_PER_ANG2", "weighted_surface_energy", "weighted_work_function", "surface_anisotropy", "shape_factor", "has_reconstructed", "possible_species", "has_props", "theoretical", "database_IDs"]}