{"builder_meta": null, "nsites": null, "elements": null, "nelements": null, "composition": null, "composition_reduced": null, "formula_pretty": "PtI2", "formula_anonymous": "AB2", "chemsys": null, "volume": 414.63337721648315, "density": 7.190972117054134, "density_atomic": 34.55278143470693, "symmetry": null, "property_name": null, "material_id": "mp-28319", "deprecated": null, "deprecation_reasons": null, "last_updated": null, "origins": null, "warnings": null, "structure": {"@module": "pymatgen.core.structure", "@class": "Structure", "charge": 0, "lattice": {"matrix": [[6.80148125, -0.03086482, 0.0], [-1.58252345, 6.84346447, 0.0], [0.0, 0.0, 8.91745072]], "pbc": [true, true, true], "a": 6.80155128123101, "b": 7.024057689252864, "c": 8.91745072, "alpha": 90.0, "beta": 90.0, "gamma": 103.28055101446428, "volume": 414.63337721648315}, "properties": {}, "sites": [{"species": [{"element": "Pt", "occu": 1}], "abc": [0.77152874, 0.50031921, 0.62996453], "properties": {"magmom": -0.0}, "label": "Pt", "xyz": [4.455771376635651, 3.400103641608542, 5.617677651622961]}, {"species": [{"element": "Pt", "occu": 1}], "abc": [0.22847126, -0.00031921, 0.12996453], "properties": {"magmom": -0.0}, "label": "Pt", "xyz": [1.5544481483643495, -0.009236226608541901, 1.1589522916229615]}, {"species": [{"element": "Pt", "occu": 1}], "abc": [0.22847126, 0.49968079, 0.37003547000000003], "properties": {"magmom": -0.0}, "label": "Pt", "xyz": [0.7631864233643496, 3.4124960083914577, 3.2997730683770388]}, {"species": [{"element": "Pt", "occu": 1}], "abc": [0.77152874, 0.00031921, 0.87003547], "properties": {"magmom": -0.0}, "label": "Pt", "xyz": [5.247033101635651, -0.021628593391458104, 7.758498428377038]}, {"species": [{"element": "I", "occu": 1}], "abc": [0.5532543600000001, 0.25812826, 0.82395695], "properties": {"magmom": 0.0}, "label": "I", "xyz": [3.3544551314630535, 1.749415479777307, 7.347595497026504]}, {"species": [{"element": "I", "occu": 1}], "abc": [0.44674564, 0.24187174, 0.32395695], "properties": {"magmom": 0.0}, "label": "I", "xyz": [2.655764393536947, 1.641451935222693, 2.888870137026504]}, {"species": [{"element": "I", "occu": 1}], "abc": [0.44674564, 0.74187174, 0.17604405], "properties": {"magmom": 0.0}, "label": "I", "xyz": [1.8645026685369472, 5.0631841702226925, 1.569864140424216]}, {"species": [{"element": "I", "occu": 1}], "abc": [0.5532543600000001, 0.75812826, 0.67604305], "properties": {"magmom": 0.0}, "label": "I", "xyz": [2.5631934064630535, 5.171147714777307, 6.028580582973496]}, {"species": [{"element": "I", "occu": 1}], "abc": [0.01721496, 0.7742274100000001, 0.92432686], "properties": {"magmom": 0.0}, "label": "I", "xyz": [-1.1081458042982646, 5.2978664353934155, 8.242639223222339]}, {"species": [{"element": "I", "occu": 1}], "abc": [0.98278504, 0.72577259, 0.42432686000000003], "properties": {"magmom": 0.0}, "label": "I", "xyz": [5.535841879298265, 4.936465449606585, 3.7839138632223395]}, {"species": [{"element": "I", "occu": 1}], "abc": [0.98278504, 0.22577259, 0.07567314], "properties": {"magmom": 0.0}, "label": "I", "xyz": [6.327103604298265, 1.5147332146065844, 0.6748114967776607]}, {"species": [{"element": "I", "occu": 1}], "abc": [0.01721496, 0.27422741, 0.57567314], "properties": {"magmom": 0.0}, "label": "I", "xyz": [-0.3168840792982645, 1.8761342003934154, 5.133536856777661]}]}, "task_ids": null, "uncorrected_energy_per_atom": null, "energy_per_atom": -3.455521305000005, "formation_energy_per_atom": -0.41580178833333703, "energy_above_hull": 0.0, "is_stable": true, "equilibrium_reaction_energy_per_atom": null, "decomposes_to": null, "xas": null, "grain_boundaries": null, "band_gap": 1.2328000000000001, "cbm": null, "vbm": null, "efermi": 2.5678605, "is_gap_direct": null, "is_metal": null, "es_source_calc_id": null, "bandstructure": null, "dos": null, "dos_energy_up": null, "dos_energy_down": null, "is_magnetic": null, "ordering": null, "total_magnetization": 0.0, "total_magnetization_normalized_vol": null, "total_magnetization_normalized_formula_units": null, "num_magnetic_sites": null, "num_unique_magnetic_sites": null, "types_of_magnetic_species": null, "bulk_modulus": null, "shear_modulus": null, "universal_anisotropy": null, "homogeneous_poisson": null, "e_total": null, "e_ionic": null, "e_electronic": null, "n": null, "e_ij_max": null, "weighted_surface_energy_EV_PER_ANG2": null, "weighted_surface_energy": null, "weighted_work_function": null, "surface_anisotropy": null, "shape_factor": null, "has_reconstructed": null, "possible_species": null, "has_props": null, "theoretical": null, "database_IDs": null, "fields_not_requested": ["builder_meta", "nsites", "elements", "nelements", "composition", "composition_reduced", "chemsys", "symmetry", "property_name", "deprecated", "deprecation_reasons", "last_updated", "origins", "warnings", "task_ids", "uncorrected_energy_per_atom", "equilibrium_reaction_energy_per_atom", "decomposes_to", "xas", "grain_boundaries", "cbm", "vbm", "is_gap_direct", "is_metal", "es_source_calc_id", "bandstructure", "dos", "dos_energy_up", "dos_energy_down", "is_magnetic", "ordering", "total_magnetization_normalized_vol", "total_magnetization_normalized_formula_units", "num_magnetic_sites", "num_unique_magnetic_sites", "types_of_magnetic_species", "bulk_modulus", "shear_modulus", "universal_anisotropy", "homogeneous_poisson", "e_total", "e_ionic", "e_electronic", "n", "e_ij_max", "weighted_surface_energy_EV_PER_ANG2", "weighted_surface_energy", "weighted_work_function", "surface_anisotropy", "shape_factor", "has_reconstructed", "possible_species", "has_props", "theoretical", "database_IDs"]}