{"builder_meta": null, "nsites": null, "elements": null, "nelements": null, "composition": null, "composition_reduced": null, "formula_pretty": "PtI3", "formula_anonymous": "AB3", "chemsys": null, "volume": 561.7954759846644, "density": 6.8077023374121834, "density_atomic": 35.11221724904153, "symmetry": null, "property_name": null, "material_id": "mp-28268", "deprecated": null, "deprecation_reasons": null, "last_updated": null, "origins": null, "warnings": null, "structure": {"@module": "pymatgen.core.structure", "@class": "Structure", "charge": 0, "lattice": {"matrix": [[6.84770075, -0.0, 1.3522167600000001], [3.42385038, 6.1152139, 0.6761083800000001], [0.06716579, -0.0, 13.42922501]], "pbc": [true, true, true], "a": 6.979935223737786, "b": 7.041002415060342, "c": 13.429392972601399, "alpha": 84.3497735252492, "beta": 78.5429472803652, "gamma": 60.28649086057974, "volume": 561.7954759846644}, "properties": {}, "sites": [{"species": [{"element": "Pt", "occu": 1}], "abc": [0.09530734, 0.80938631, 0.75], "properties": {"magmom": 0.0}, "label": "Pt", "xyz": [3.474228111158803, 4.949570413381709, 10.748027806847297]}, {"species": [{"element": "Pt", "occu": 1}], "abc": [0.90469266, 0.19061369, 0.25], "properties": {"magmom": 0.0}, "label": "Pt", "xyz": [6.864488808841197, 1.165643486618291, 4.709522343152704]}, {"species": [{"element": "Pt", "occu": 1}], "abc": [0.5, 0.5, 0.5], "properties": {"magmom": 0.0}, "label": "Pt", "xyz": [5.16935846, 3.05760695, 7.728775075]}, {"species": [{"element": "Pt", "occu": 1}], "abc": [0.0, 0.5, -0.0], "properties": {"magmom": 0.0}, "label": "Pt", "xyz": [1.71192519, 3.05760695, 0.33805419000000003]}, {"species": [{"element": "I", "occu": 1}], "abc": [0.80782147, 0.12468766, 0.6404771300000001], "properties": {"magmom": -0.0}, "label": "I", "xyz": [6.001649730470795, 0.762491711590474, 9.777763595159449]}, {"species": [{"element": "I", "occu": 1}], "abc": [0.06749087, 0.12468766, 0.85952287], "properties": {"magmom": -0.0}, "label": "I", "xyz": [0.9467997057760806, 0.762491711590474, 11.718290679840552]}, {"species": [{"element": "I", "occu": 1}], "abc": [0.19217853000000001, 0.87531234, 0.35952287], "properties": {"magmom": -0.0}, "label": "I", "xyz": [4.337067189529204, 5.352722188409526, 5.67978655484055]}, {"species": [{"element": "I", "occu": 1}], "abc": [0.93250913, 0.87531234, 0.14047713], "properties": {"magmom": -0.0}, "label": "I", "xyz": [9.39191721422392, 5.352722188409526, 3.7392594701594493]}, {"species": [{"element": "I", "occu": 1}], "abc": [0.8455236500000001, 0.50385311, 0.38018245], "properties": {"magmom": -0.0}, "label": "I", "xyz": [7.540545848983805, 3.0811695418302287, 6.589546226369511]}, {"species": [{"element": "I", "occu": 1}], "abc": [0.65062424, 0.50385311, 0.11981755000000001], "properties": {"magmom": -0.0}, "label": "I", "xyz": [6.1884453987554755, 3.0811695418302287, 2.82950115084725]}, {"species": [{"element": "I", "occu": 1}], "abc": [0.15447635, 0.49614689, 0.61981755], "properties": {"magmom": -0.0}, "label": "I", "xyz": [2.7981710710161956, 3.034044358169771, 8.86800392363049]}, {"species": [{"element": "I", "occu": 1}], "abc": [0.34937576, 0.49614689, 0.8801824500000001], "properties": {"magmom": -0.0}, "label": "I", "xyz": [4.150271521244524, 3.034044358169771, 12.628048999152751]}, {"species": [{"element": "I", "occu": 1}], "abc": [0.24475855, 0.20133141000000002, 0.12236313], "properties": {"magmom": 0.0}, "label": "I", "xyz": [2.373580547331671, 1.231184636938599, 2.1103304726193954]}, {"species": [{"element": "I", "occu": 1}], "abc": [0.55391004, 0.20133141000000002, 0.37763687], "properties": {"magmom": 0.0}, "label": "I", "xyz": [4.507703099681643, 1.231184636938599, 5.956498792380605]}, {"species": [{"element": "I", "occu": 1}], "abc": [0.75524145, 0.79866859, 0.87763687], "properties": {"magmom": 0.0}, "label": "I", "xyz": [7.965136372668329, 4.884029263061401, 13.347219677380606]}, {"species": [{"element": "I", "occu": 1}], "abc": [0.44608996, 0.79866859, 0.62236313], "properties": {"magmom": 0.0}, "label": "I", "xyz": [5.831013820318357, 4.884029263061401, 9.501051357619394]}]}, "task_ids": null, "uncorrected_energy_per_atom": null, "energy_per_atom": -3.091859785625001, "formation_energy_per_atom": -0.431066994375, "energy_above_hull": 0.0, "is_stable": true, "equilibrium_reaction_energy_per_atom": null, "decomposes_to": null, "xas": null, "grain_boundaries": null, "band_gap": 0.3481, "cbm": null, "vbm": null, "efermi": 3.18174568, "is_gap_direct": null, "is_metal": null, "es_source_calc_id": null, "bandstructure": null, "dos": null, "dos_energy_up": null, "dos_energy_down": null, "is_magnetic": null, "ordering": null, "total_magnetization": 0.0, "total_magnetization_normalized_vol": null, "total_magnetization_normalized_formula_units": null, "num_magnetic_sites": null, "num_unique_magnetic_sites": null, "types_of_magnetic_species": null, "bulk_modulus": null, "shear_modulus": null, "universal_anisotropy": null, "homogeneous_poisson": null, "e_total": null, "e_ionic": null, "e_electronic": null, "n": null, "e_ij_max": null, "weighted_surface_energy_EV_PER_ANG2": null, "weighted_surface_energy": null, "weighted_work_function": null, "surface_anisotropy": null, "shape_factor": null, "has_reconstructed": null, "possible_species": null, "has_props": null, "theoretical": null, "database_IDs": null, "fields_not_requested": ["builder_meta", "nsites", "elements", "nelements", "composition", "composition_reduced", "chemsys", "symmetry", "property_name", "deprecated", "deprecation_reasons", "last_updated", "origins", "warnings", "task_ids", "uncorrected_energy_per_atom", "equilibrium_reaction_energy_per_atom", "decomposes_to", "xas", "grain_boundaries", "cbm", "vbm", "is_gap_direct", "is_metal", "es_source_calc_id", "bandstructure", "dos", "dos_energy_up", "dos_energy_down", "is_magnetic", "ordering", "total_magnetization_normalized_vol", "total_magnetization_normalized_formula_units", "num_magnetic_sites", "num_unique_magnetic_sites", "types_of_magnetic_species", "bulk_modulus", "shear_modulus", "universal_anisotropy", "homogeneous_poisson", "e_total", "e_ionic", "e_electronic", "n", "e_ij_max", "weighted_surface_energy_EV_PER_ANG2", "weighted_surface_energy", "weighted_work_function", "surface_anisotropy", "shape_factor", "has_reconstructed", "possible_species", "has_props", "theoretical", "database_IDs"]}