{"builder_meta": null, "nsites": null, "elements": null, "nelements": null, "composition": null, "composition_reduced": null, "formula_pretty": "PtI4", "formula_anonymous": "AB4", "chemsys": null, "volume": 1478.1072968000688, "density": 6.315449095958814, "density_atomic": 36.95268242000172, "symmetry": null, "property_name": null, "material_id": "mp-669496", "deprecated": null, "deprecation_reasons": null, "last_updated": null, "origins": null, "warnings": null, "structure": {"@module": "pymatgen.core.structure", "@class": "Structure", "charge": 0, "lattice": {"matrix": [[6.9337497500000005, 0.0, 0.0], [-0.0, 13.39515033, 0.0], [0.0, 0.0, 15.91439766]], "pbc": [true, true, true], "a": 6.9337497500000005, "b": 13.39515033, "c": 15.91439766, "alpha": 90.0, "beta": 90.0, "gamma": 90.0, "volume": 1478.107296800069}, "properties": {}, "sites": [{"species": [{"element": "Pt", "occu": 1}], "abc": [0.59471344, 0.67288741, 0.6890907900000001], "properties": {"magmom": -0.0}, "label": "Pt", "xyz": [4.123594165921641, 9.013428012114344, 10.966464855903553]}, {"species": [{"element": "Pt", "occu": 1}], "abc": [0.09471344, 0.82711259, 0.31090921], "properties": {"magmom": -0.0}, "label": "Pt", "xyz": [0.65671929092164, 11.079297482885655, 4.947932804096449]}, {"species": [{"element": "Pt", "occu": 1}], "abc": [0.9052865600000001, 0.17288741, 0.6890907900000001], "properties": {"magmom": -0.0}, "label": "Pt", "xyz": [6.277030459078361, 2.3158528471143454, 10.966464855903553]}, {"species": [{"element": "Pt", "occu": 1}], "abc": [0.40528656, 0.32711259, 0.31090921], "properties": {"magmom": -0.0}, "label": "Pt", "xyz": [2.8101555840783603, 4.381722317885655, 4.947932804096449]}, {"species": [{"element": "Pt", "occu": 1}], "abc": [0.40528656, 0.17288741, 0.81090921], "properties": {"magmom": -0.0}, "label": "Pt", "xyz": [2.8101555840783603, 2.3158528471143454, 12.905131634096449]}, {"species": [{"element": "Pt", "occu": 1}], "abc": [0.59471344, 0.82711259, 0.18909079], "properties": {"magmom": -0.0}, "label": "Pt", "xyz": [4.123594165921641, 11.079297482885655, 3.0092660259035515]}, {"species": [{"element": "Pt", "occu": 1}], "abc": [0.9052865600000001, 0.32711259, 0.18909079], "properties": {"magmom": -0.0}, "label": "Pt", "xyz": [6.277030459078361, 4.381722317885655, 3.0092660259035515]}, {"species": [{"element": "Pt", "occu": 1}], "abc": [0.09471344, 0.67288741, 0.81090921], "properties": {"magmom": -0.0}, "label": "Pt", "xyz": [0.65671929092164, 9.013428012114344, 12.905131634096449]}, {"species": [{"element": "I", "occu": 1}], "abc": [0.22128843, 0.44009607, 0.18481554], "properties": {"magmom": -0.0}, "label": "I", "xyz": [1.5343585961903927, 5.895153017292203, 2.9412279973076365]}, {"species": [{"element": "I", "occu": 1}], "abc": [0.7499003200000001, 0.4459411, 0.07272943], "properties": {"magmom": 0.0}, "label": "I", "xyz": [5.199621156324921, 5.973448072825563, 1.1574450706051338]}, {"species": [{"element": "I", "occu": 1}], "abc": [0.58548356, 0.28459095, 0.69318345], "properties": {"magmom": -0.0}, "label": "I", "xyz": [4.05959648777911, 3.8121385578075135, 11.031597074630728]}, {"species": [{"element": "I", "occu": 1}], "abc": [0.75009968, 0.5540589, 0.57272943], "properties": {"magmom": 0.0}, "label": "I", "xyz": [5.201003468675081, 7.421702257174437, 9.114643900605135]}, {"species": [{"element": "I", "occu": 1}], "abc": [0.27871157, 0.94009507, 0.18481554], "properties": {"magmom": -0.0}, "label": "I", "xyz": [1.9325162788096077, 12.592714787141874, 2.9412279973076365]}, {"species": [{"element": "I", "occu": 1}], "abc": [0.05582413, 0.20939305, 0.06882496], "properties": {"magmom": 0.0}, "label": "I", "xyz": [0.3870705474314675, 2.8048513828072066, 1.0953077823735937]}, {"species": [{"element": "I", "occu": 1}], "abc": [0.44417587000000003, 0.79060695, 0.56882496], "properties": {"magmom": 0.0}, "label": "I", "xyz": [3.079804327568533, 10.590298947192794, 9.052506612373595]}, {"species": [{"element": "I", "occu": 1}], "abc": [0.25009968, 0.5540589, 0.92727057], "properties": {"magmom": 0.0}, "label": "I", "xyz": [1.73412859367508, 7.421702257174437, 14.756952589394867]}, {"species": [{"element": "I", "occu": 1}], "abc": [0.05582413, 0.29060695000000003, 0.56882496], "properties": {"magmom": 0.0}, "label": "I", "xyz": [0.3870705474314675, 3.892723782192794, 9.052506612373595]}, {"species": [{"element": "I", "occu": 1}], "abc": [0.91451644, 0.71540905, 0.19318345], "properties": {"magmom": -0.0}, "label": "I", "xyz": [6.34102813722089, 9.583011772192487, 3.074398244630727]}, {"species": [{"element": "I", "occu": 1}], "abc": [0.55582413, 0.29060695000000003, 0.9311750400000001], "properties": {"magmom": 0.0}, "label": "I", "xyz": [3.8539454224314675, 3.892723782192794, 14.819089877626409]}, {"species": [{"element": "I", "occu": 1}], "abc": [0.44417587000000003, 0.70939305, 0.06882496], "properties": {"magmom": 0.0}, "label": "I", "xyz": [3.079804327568533, 9.502426547807206, 1.0953077823735937]}, {"species": [{"element": "I", "occu": 1}], "abc": [0.24990032, 0.4459411, 0.42727057], "properties": {"magmom": 0.0}, "label": "I", "xyz": [1.7327462813249201, 5.973448072825563, 6.799753759394867]}, {"species": [{"element": "I", "occu": 1}], "abc": [0.41451644, 0.71540905, 0.30681655], "properties": {"magmom": -0.0}, "label": "I", "xyz": [2.87415326222089, 9.583011772192487, 4.8828005853692735]}, {"species": [{"element": "I", "occu": 1}], "abc": [0.24990032, 0.0540589, 0.92727057], "properties": {"magmom": 0.0}, "label": "I", "xyz": [1.7327462813249201, 0.724127092174437, 14.756952589394867]}, {"species": [{"element": "I", "occu": 1}], "abc": [0.91451644, 0.78459095, 0.69318345], "properties": {"magmom": -0.0}, "label": "I", "xyz": [6.34102813722089, 10.509713722807513, 11.031597074630728]}, {"species": [{"element": "I", "occu": 1}], "abc": [0.58548356, 0.21540905, 0.19318345], "properties": {"magmom": -0.0}, "label": "I", "xyz": [4.05959648777911, 2.8854366071924864, 3.074398244630727]}, {"species": [{"element": "I", "occu": 1}], "abc": [0.55582413, 0.20939305, 0.43117504], "properties": {"magmom": 0.0}, "label": "I", "xyz": [3.8539454224314675, 2.8048513828072066, 6.861891047626407]}, {"species": [{"element": "I", "occu": 1}], "abc": [0.08548356, 0.21540905, 0.30681655], "properties": {"magmom": -0.0}, "label": "I", "xyz": [0.5927216127791101, 2.8854366071924864, 4.8828005853692735]}, {"species": [{"element": "I", "occu": 1}], "abc": [0.22128843, 0.05990393, 0.68481554], "properties": {"magmom": -0.0}, "label": "I", "xyz": [1.5343585961903927, 0.802422147707797, 10.898426827307636]}, {"species": [{"element": "I", "occu": 1}], "abc": [0.72128843, 0.44009607, 0.31518446], "properties": {"magmom": -0.0}, "label": "I", "xyz": [5.0012334711903925, 5.895153017292203, 5.015970832692364]}, {"species": [{"element": "I", "occu": 1}], "abc": [0.7499003200000001, 0.0540589, 0.57272943], "properties": {"magmom": 0.0}, "label": "I", "xyz": [5.199621156324921, 0.724127092174437, 9.114643900605135]}, {"species": [{"element": "I", "occu": 1}], "abc": [0.77871157, 0.55990493, 0.81518446], "properties": {"magmom": -0.0}, "label": "I", "xyz": [5.399391153809608, 7.500010707858126, 12.973169662692364]}, {"species": [{"element": "I", "occu": 1}], "abc": [0.94417587, 0.79060695, 0.9311750400000001], "properties": {"magmom": 0.0}, "label": "I", "xyz": [6.546679202568533, 10.590298947192794, 14.819089877626409]}, {"species": [{"element": "I", "occu": 1}], "abc": [0.27871157, 0.55990493, 0.68481554], "properties": {"magmom": -0.0}, "label": "I", "xyz": [1.9325162788096077, 7.500010707858126, 10.898426827307636]}, {"species": [{"element": "I", "occu": 1}], "abc": [0.25009968, 0.9459411, 0.42727057], "properties": {"magmom": 0.0}, "label": "I", "xyz": [1.73412859367508, 12.671023237825562, 6.799753759394867]}, {"species": [{"element": "I", "occu": 1}], "abc": [0.41451644, 0.78459095, 0.80681655], "properties": {"magmom": -0.0}, "label": "I", "xyz": [2.87415326222089, 10.509713722807513, 12.839999415369272]}, {"species": [{"element": "I", "occu": 1}], "abc": [0.72128843, 0.05990393, 0.81518446], "properties": {"magmom": -0.0}, "label": "I", "xyz": [5.0012334711903925, 0.802422147707797, 12.973169662692364]}, {"species": [{"element": "I", "occu": 1}], "abc": [0.94417587, 0.70939305, 0.43117504], "properties": {"magmom": 0.0}, "label": "I", "xyz": [6.546679202568533, 9.502426547807206, 6.861891047626407]}, {"species": [{"element": "I", "occu": 1}], "abc": [0.08548356, 0.28459095, 0.80681655], "properties": {"magmom": -0.0}, "label": "I", "xyz": [0.5927216127791101, 3.8121385578075135, 12.839999415369272]}, {"species": [{"element": "I", "occu": 1}], "abc": [0.75009968, 0.9459411, 0.07272943], "properties": {"magmom": 0.0}, "label": "I", "xyz": [5.201003468675081, 12.671023237825562, 1.1574450706051338]}, {"species": [{"element": "I", "occu": 1}], "abc": [0.77871157, 0.94009507, 0.31518446], "properties": {"magmom": -0.0}, "label": "I", "xyz": [5.399391153809608, 12.592714787141874, 5.015970832692364]}]}, "task_ids": null, "uncorrected_energy_per_atom": null, "energy_per_atom": -2.8664368227500012, "formation_energy_per_atom": -0.433000066749999, "energy_above_hull": 0.0, "is_stable": true, "equilibrium_reaction_energy_per_atom": null, "decomposes_to": null, "xas": null, "grain_boundaries": null, "band_gap": 0.7298, "cbm": null, "vbm": null, "efermi": 3.27139686, "is_gap_direct": null, "is_metal": null, "es_source_calc_id": null, "bandstructure": null, "dos": null, "dos_energy_up": null, "dos_energy_down": null, "is_magnetic": null, "ordering": null, "total_magnetization": 0.0, "total_magnetization_normalized_vol": null, "total_magnetization_normalized_formula_units": null, "num_magnetic_sites": null, "num_unique_magnetic_sites": null, "types_of_magnetic_species": null, "bulk_modulus": null, "shear_modulus": null, "universal_anisotropy": null, "homogeneous_poisson": null, "e_total": null, "e_ionic": null, "e_electronic": null, "n": null, "e_ij_max": null, "weighted_surface_energy_EV_PER_ANG2": null, "weighted_surface_energy": null, "weighted_work_function": null, "surface_anisotropy": null, "shape_factor": null, "has_reconstructed": null, "possible_species": null, "has_props": null, "theoretical": null, "database_IDs": null, "fields_not_requested": ["builder_meta", "nsites", "elements", "nelements", "composition", "composition_reduced", "chemsys", "symmetry", "property_name", "deprecated", "deprecation_reasons", "last_updated", "origins", "warnings", "task_ids", "uncorrected_energy_per_atom", "equilibrium_reaction_energy_per_atom", "decomposes_to", "xas", "grain_boundaries", "cbm", "vbm", "is_gap_direct", "is_metal", "es_source_calc_id", "bandstructure", "dos", "dos_energy_up", "dos_energy_down", "is_magnetic", "ordering", "total_magnetization_normalized_vol", "total_magnetization_normalized_formula_units", "num_magnetic_sites", "num_unique_magnetic_sites", "types_of_magnetic_species", "bulk_modulus", "shear_modulus", "universal_anisotropy", "homogeneous_poisson", "e_total", "e_ionic", "e_electronic", "n", "e_ij_max", "weighted_surface_energy_EV_PER_ANG2", "weighted_surface_energy", "weighted_work_function", "surface_anisotropy", "shape_factor", "has_reconstructed", "possible_species", "has_props", "theoretical", "database_IDs"]}