{
  "builder_meta": null,
  "nsites": null,
  "elements": null,
  "nelements": null,
  "composition": null,
  "composition_reduced": null,
  "formula_pretty": "PtO2",
  "formula_anonymous": "AB2",
  "chemsys": null,
  "volume": 64.74041172752274,
  "density": 11.648979383694853,
  "density_atomic": 10.79006862125379,
  "symmetry": null,
  "property_name": null,
  "material_id": "mp-1285",
  "deprecated": null,
  "deprecation_reasons": null,
  "last_updated": null,
  "origins": null,
  "warnings": null,
  "structure": {
    "@module": "pymatgen.core.structure",
    "@class": "Structure",
    "charge": 0,
    "lattice": {
      "matrix": [
        [3.15683565, 0.0, 0.0],
        [0.0, 4.54716258, 0.0],
        [0.0, 0.0, 4.51006709]
      ],
      "pbc": [true, true, true],
      "a": 3.15683565,
      "b": 4.54716258,
      "c": 4.51006709,
      "alpha": 90.0,
      "beta": 90.0,
      "gamma": 90.0,
      "volume": 64.74041172752274
    },
    "properties": {},
    "sites": [
      {
        "species": [{ "element": "Pt", "occu": 1 }],
        "abc": [-0.0, -0.0, 0.0],
        "properties": { "magmom": 0.0 },
        "label": "Pt",
        "xyz": [0.0, 0.0, 0.0]
      },
      {
        "species": [{ "element": "Pt", "occu": 1 }],
        "abc": [0.5, 0.5, 0.5],
        "properties": { "magmom": 0.0 },
        "label": "Pt",
        "xyz": [1.578417825, 2.27358129, 2.255033545]
      },
      {
        "species": [{ "element": "O", "occu": 1 }],
        "abc": [-0.0, 0.73860307, 0.64080937],
        "properties": { "magmom": 0.0 },
        "label": "O",
        "xyz": [0.0, 3.358548241377121, 2.8900932506006334]
      },
      {
        "species": [{ "element": "O", "occu": 1 }],
        "abc": [0.0, 0.26139693, 0.35919063],
        "properties": { "magmom": 0.0 },
        "label": "O",
        "xyz": [0.0, 1.1886143386228796, 1.6199738393993666]
      },
      {
        "species": [{ "element": "O", "occu": 1 }],
        "abc": [0.5, 0.23860307, 0.8591906300000001],
        "properties": { "magmom": 0.0 },
        "label": "O",
        "xyz": [1.578417825, 1.0849669513771207, 3.8750073843993667]
      },
      {
        "species": [{ "element": "O", "occu": 1 }],
        "abc": [0.5, 0.76139693, 0.14080937],
        "properties": { "magmom": 0.0 },
        "label": "O",
        "xyz": [1.578417825, 3.4621956286228794, 0.6350597056006332]
      }
    ]
  },
  "task_ids": null,
  "uncorrected_energy_per_atom": null,
  "energy_per_atom": -6.248954900000001,
  "formation_energy_per_atom": -0.9266031233333341,
  "energy_above_hull": 0.0,
  "is_stable": true,
  "equilibrium_reaction_energy_per_atom": null,
  "decomposes_to": null,
  "xas": null,
  "grain_boundaries": null,
  "band_gap": 0.6463999999999991,
  "cbm": null,
  "vbm": null,
  "efermi": 4.60796705,
  "is_gap_direct": null,
  "is_metal": null,
  "es_source_calc_id": null,
  "bandstructure": null,
  "dos": null,
  "dos_energy_up": null,
  "dos_energy_down": null,
  "is_magnetic": null,
  "ordering": null,
  "total_magnetization": 0.0,
  "total_magnetization_normalized_vol": null,
  "total_magnetization_normalized_formula_units": null,
  "num_magnetic_sites": null,
  "num_unique_magnetic_sites": null,
  "types_of_magnetic_species": null,
  "bulk_modulus": null,
  "shear_modulus": null,
  "universal_anisotropy": null,
  "homogeneous_poisson": null,
  "e_total": null,
  "e_ionic": null,
  "e_electronic": null,
  "n": null,
  "e_ij_max": null,
  "weighted_surface_energy_EV_PER_ANG2": null,
  "weighted_surface_energy": null,
  "weighted_work_function": null,
  "surface_anisotropy": null,
  "shape_factor": null,
  "has_reconstructed": null,
  "possible_species": null,
  "has_props": null,
  "theoretical": null,
  "database_IDs": null,
  "fields_not_requested": [
    "builder_meta",
    "nsites",
    "elements",
    "nelements",
    "composition",
    "composition_reduced",
    "chemsys",
    "symmetry",
    "property_name",
    "deprecated",
    "deprecation_reasons",
    "last_updated",
    "origins",
    "warnings",
    "task_ids",
    "uncorrected_energy_per_atom",
    "equilibrium_reaction_energy_per_atom",
    "decomposes_to",
    "xas",
    "grain_boundaries",
    "cbm",
    "vbm",
    "is_gap_direct",
    "is_metal",
    "es_source_calc_id",
    "bandstructure",
    "dos",
    "dos_energy_up",
    "dos_energy_down",
    "is_magnetic",
    "ordering",
    "total_magnetization_normalized_vol",
    "total_magnetization_normalized_formula_units",
    "num_magnetic_sites",
    "num_unique_magnetic_sites",
    "types_of_magnetic_species",
    "bulk_modulus",
    "shear_modulus",
    "universal_anisotropy",
    "homogeneous_poisson",
    "e_total",
    "e_ionic",
    "e_electronic",
    "n",
    "e_ij_max",
    "weighted_surface_energy_EV_PER_ANG2",
    "weighted_surface_energy",
    "weighted_work_function",
    "surface_anisotropy",
    "shape_factor",
    "has_reconstructed",
    "possible_species",
    "has_props",
    "theoretical",
    "database_IDs"
  ]
}
