{"builder_meta": null, "nsites": null, "elements": null, "nelements": null, "composition": null, "composition_reduced": null, "formula_pretty": "PtO3", "formula_anonymous": "AB3", "chemsys": null, "volume": 88.66194038208619, "density": 9.105315939524148, "density_atomic": 11.082742547760773, "symmetry": null, "property_name": null, "material_id": "mp-768247", "deprecated": null, "deprecation_reasons": null, "last_updated": null, "origins": null, "warnings": null, "structure": {"@module": "pymatgen.core.structure", "@class": "Structure", "charge": 0, "lattice": {"matrix": [[4.500366, -2.447476, 0.0], [4.500366, 2.447476, 0.0], [3.169332, 0.0, 4.024769]], "pbc": [true, true, true], "a": 5.122834459996926, "b": 5.122834459996926, "c": 5.122834257477495, "alpha": 57.07817500508026, "beta": 57.07817500508026, "gamma": 57.078172861906815, "volume": 88.66194038208619}, "properties": {}, "sites": [{"species": [{"element": "Pt", "occu": 1}], "abc": [0.0, 0.0, 0.0], "properties": {"magmom": 0.116}, "label": "Pt", "xyz": [0.0, 0.0, 0.0]}, {"species": [{"element": "Pt", "occu": 1}], "abc": [0.5, 0.5, 0.5], "properties": {"magmom": 0.116}, "label": "Pt", "xyz": [6.085032, 0.0, 2.0123845]}, {"species": [{"element": "O", "occu": 1}], "abc": [0.925354999999999, 0.25, 0.574645], "properties": {"magmom": 0.092}, "label": "O", "xyz": [7.110768467069995, -1.6529151539799978, 2.312813382005]}, {"species": [{"element": "O", "occu": 1}], "abc": [0.75, 0.425355, 0.074645], "properties": {"magmom": 0.092}, "label": "O", "xyz": [5.52610246707, -0.79456084602, 0.300428882005]}, {"species": [{"element": "O", "occu": 1}], "abc": [0.425355, 0.074645, 0.75], "properties": {"magmom": 0.092}, "label": "O", "xyz": [4.6271819999999995, -0.85835430796, 3.0185767500000003]}, {"species": [{"element": "O", "occu": 1}], "abc": [0.574645, 0.925354999999999, 0.25], "properties": {"magmom": 0.092}, "label": "O", "xyz": [7.542881999999995, 0.8583543079599978, 1.00619225]}, {"species": [{"element": "O", "occu": 1}], "abc": [0.25, 0.574645, 0.925354999999999], "properties": {"magmom": 0.092}, "label": "O", "xyz": [6.643961532929996, 0.79456084602, 3.724340117994996]}, {"species": [{"element": "O", "occu": 1}], "abc": [0.074645, 0.75, 0.425355], "properties": {"magmom": 0.092}, "label": "O", "xyz": [5.059295532929999, 1.65291515398, 1.711955617995]}]}, "task_ids": null, "uncorrected_energy_per_atom": null, "energy_per_atom": -5.83687958625, "formation_energy_per_atom": -0.6081255025000001, "energy_above_hull": 0.08682684, "is_stable": false, "equilibrium_reaction_energy_per_atom": null, "decomposes_to": null, "xas": null, "grain_boundaries": null, "band_gap": 0.0, "cbm": null, "vbm": null, "efermi": 2.73267253, "is_gap_direct": null, "is_metal": null, "es_source_calc_id": null, "bandstructure": null, "dos": null, "dos_energy_up": null, "dos_energy_down": null, "is_magnetic": null, "ordering": null, "total_magnetization": 0.866497, "total_magnetization_normalized_vol": null, "total_magnetization_normalized_formula_units": null, "num_magnetic_sites": null, "num_unique_magnetic_sites": null, "types_of_magnetic_species": null, "bulk_modulus": null, "shear_modulus": null, "universal_anisotropy": null, "homogeneous_poisson": null, "e_total": null, "e_ionic": null, "e_electronic": null, "n": null, "e_ij_max": null, "weighted_surface_energy_EV_PER_ANG2": null, "weighted_surface_energy": null, "weighted_work_function": null, "surface_anisotropy": null, "shape_factor": null, "has_reconstructed": null, "possible_species": null, "has_props": null, "theoretical": null, "database_IDs": null, "fields_not_requested": ["builder_meta", "nsites", "elements", "nelements", "composition", "composition_reduced", "chemsys", "symmetry", "property_name", "deprecated", "deprecation_reasons", "last_updated", "origins", "warnings", "task_ids", "uncorrected_energy_per_atom", "equilibrium_reaction_energy_per_atom", "decomposes_to", "xas", "grain_boundaries", "cbm", "vbm", "is_gap_direct", "is_metal", "es_source_calc_id", "bandstructure", "dos", "dos_energy_up", "dos_energy_down", "is_magnetic", "ordering", "total_magnetization_normalized_vol", "total_magnetization_normalized_formula_units", "num_magnetic_sites", "num_unique_magnetic_sites", "types_of_magnetic_species", "bulk_modulus", "shear_modulus", "universal_anisotropy", "homogeneous_poisson", "e_total", "e_ionic", "e_electronic", "n", "e_ij_max", "weighted_surface_energy_EV_PER_ANG2", "weighted_surface_energy", "weighted_work_function", "surface_anisotropy", "shape_factor", "has_reconstructed", "possible_species", "has_props", "theoretical", "database_IDs"]}