{
  "builder_meta": null,
  "nsites": null,
  "elements": null,
  "nelements": null,
  "composition": null,
  "composition_reduced": null,
  "formula_pretty": "PtO6",
  "formula_anonymous": "AB6",
  "chemsys": null,
  "volume": 186.44276848195454,
  "density": 5.184973165299647,
  "density_atomic": 13.317340605853897,
  "symmetry": null,
  "property_name": null,
  "material_id": "mp-1179845",
  "deprecated": null,
  "deprecation_reasons": null,
  "last_updated": null,
  "origins": null,
  "warnings": null,
  "structure": {
    "@module": "pymatgen.core.structure",
    "@class": "Structure",
    "charge": 0,
    "lattice": {
      "matrix": [
        [4.505783, -3.680476999999999, 0.0],
        [4.505783, 3.680476999999999, 0.0],
        [1.499444, 0.0, 5.621357]
      ],
      "pbc": [true, true, true],
      "a": 5.817902662525215,
      "b": 5.817902662525215,
      "c": 5.817902270628564,
      "alpha": 78.48623973529594,
      "beta": 78.48623973529594,
      "gamma": 78.48624015713565,
      "volume": 186.4427684819545
    },
    "properties": {},
    "sites": [
      {
        "species": [{ "element": "Pt", "occu": 1 }],
        "abc": [0.0, 0.0, 0.0],
        "properties": { "magmom": 0.201 },
        "label": "Pt",
        "xyz": [0.0, 0.0, 0.0]
      },
      {
        "species": [{ "element": "Pt", "occu": 1 }],
        "abc": [0.5, 0.5, 0.5],
        "properties": { "magmom": 0.201 },
        "label": "Pt",
        "xyz": [5.255505, 0.0, 2.8106785]
      },
      {
        "species": [{ "element": "O", "occu": 1 }],
        "abc": [0.7150029999999991, 0.13012, 0.829263],
        "properties": { "magmom": 0.253 },
        "label": "O",
        "xyz": [5.051374276080995, -2.1526484291909957, 4.661583369891]
      },
      {
        "species": [{ "element": "O", "occu": 1 }],
        "abc": [0.670736999999999, 0.36988000000000004, 0.784997],
        "properties": { "magmom": 0.253 },
        "label": "O",
        "xyz": [5.865853429778996, -1.1072972687889961, 4.412748380928999]
      },
      {
        "species": [{ "element": "O", "occu": 1 }],
        "abc": [0.284997, 0.8698800000000001, 0.170737],
        "properties": { "magmom": 0.253 },
        "label": "O",
        "xyz": [5.459635723919001, 2.1526484291909997, 0.959773630109]
      },
      {
        "species": [{ "element": "O", "occu": 1 }],
        "abc": [0.329263, 0.63012, 0.215003],
        "properties": { "magmom": 0.253 },
        "label": "O",
        "xyz": [4.645156570220999, 1.107297268789, 1.208608619071]
      },
      {
        "species": [{ "element": "O", "occu": 1 }],
        "abc": [0.8698800000000001, 0.170737, 0.284997],
        "properties": { "magmom": 0.253 },
        "label": "O",
        "xyz": [5.116131429779001, -2.5731797312109994, 1.602069880929]
      },
      {
        "species": [{ "element": "O", "occu": 1 }],
        "abc": [0.215003, 0.329263, 0.63012],
        "properties": { "magmom": 0.253 },
        "label": "O",
        "xyz": [3.397174143558, 0.4205313020199998, 3.5421294728399997]
      },
      {
        "species": [{ "element": "O", "occu": 1 }],
        "abc": [0.13012, 0.829263, 0.7150029999999991],
        "properties": { "magmom": 0.253 },
        "label": "O",
        "xyz": [5.394878570220999, 2.573179731210999, 4.019287119070994]
      },
      {
        "species": [{ "element": "O", "occu": 1 }],
        "abc": [0.784997, 0.670736999999999, 0.36988000000000004],
        "properties": { "magmom": 0.253 },
        "label": "O",
        "xyz": [7.1138358564419955, -0.4205313020200032, 2.07922752716]
      },
      {
        "species": [{ "element": "O", "occu": 1 }],
        "abc": [0.170737, 0.284997, 0.8698800000000001],
        "properties": { "magmom": 0.253 },
        "label": "O",
        "xyz": [3.357774856442, 0.4205313020199998, 4.88990602716]
      },
      {
        "species": [{ "element": "O", "occu": 1 }],
        "abc": [0.63012, 0.215003, 0.329263],
        "properties": { "magmom": 0.253 },
        "label": "O",
        "xyz": [4.301652276081, -1.5278285708089996, 1.8509048698909998]
      },
      {
        "species": [{ "element": "O", "occu": 1 }],
        "abc": [0.829263, 0.7150029999999991, 0.13012],
        "properties": { "magmom": 0.253 },
        "label": "O",
        "xyz": [7.153235143557995, -0.4205313020200032, 0.73145097284]
      },
      {
        "species": [{ "element": "O", "occu": 1 }],
        "abc": [0.36988000000000004, 0.784997, 0.670736999999999],
        "properties": { "magmom": 0.253 },
        "label": "O",
        "xyz": [6.209357723918998, 1.5278285708089994, 3.7704521301089944]
      }
    ]
  },
  "task_ids": null,
  "uncorrected_energy_per_atom": null,
  "energy_per_atom": -5.248406776428572,
  "formation_energy_per_atom": -0.13999258357142902,
  "energy_above_hull": 0.25712304071428504,
  "is_stable": false,
  "equilibrium_reaction_energy_per_atom": null,
  "decomposes_to": null,
  "xas": null,
  "grain_boundaries": null,
  "band_gap": 0.0,
  "cbm": null,
  "vbm": null,
  "efermi": 1.01995242,
  "is_gap_direct": null,
  "is_metal": null,
  "es_source_calc_id": null,
  "bandstructure": null,
  "dos": null,
  "dos_energy_up": null,
  "dos_energy_down": null,
  "is_magnetic": null,
  "ordering": null,
  "total_magnetization": 4.0000194,
  "total_magnetization_normalized_vol": null,
  "total_magnetization_normalized_formula_units": null,
  "num_magnetic_sites": null,
  "num_unique_magnetic_sites": null,
  "types_of_magnetic_species": null,
  "bulk_modulus": null,
  "shear_modulus": null,
  "universal_anisotropy": null,
  "homogeneous_poisson": null,
  "e_total": null,
  "e_ionic": null,
  "e_electronic": null,
  "n": null,
  "e_ij_max": null,
  "weighted_surface_energy_EV_PER_ANG2": null,
  "weighted_surface_energy": null,
  "weighted_work_function": null,
  "surface_anisotropy": null,
  "shape_factor": null,
  "has_reconstructed": null,
  "possible_species": null,
  "has_props": null,
  "theoretical": null,
  "database_IDs": null,
  "fields_not_requested": [
    "builder_meta",
    "nsites",
    "elements",
    "nelements",
    "composition",
    "composition_reduced",
    "chemsys",
    "symmetry",
    "property_name",
    "deprecated",
    "deprecation_reasons",
    "last_updated",
    "origins",
    "warnings",
    "task_ids",
    "uncorrected_energy_per_atom",
    "equilibrium_reaction_energy_per_atom",
    "decomposes_to",
    "xas",
    "grain_boundaries",
    "cbm",
    "vbm",
    "is_gap_direct",
    "is_metal",
    "es_source_calc_id",
    "bandstructure",
    "dos",
    "dos_energy_up",
    "dos_energy_down",
    "is_magnetic",
    "ordering",
    "total_magnetization_normalized_vol",
    "total_magnetization_normalized_formula_units",
    "num_magnetic_sites",
    "num_unique_magnetic_sites",
    "types_of_magnetic_species",
    "bulk_modulus",
    "shear_modulus",
    "universal_anisotropy",
    "homogeneous_poisson",
    "e_total",
    "e_ionic",
    "e_electronic",
    "n",
    "e_ij_max",
    "weighted_surface_energy_EV_PER_ANG2",
    "weighted_surface_energy",
    "weighted_work_function",
    "surface_anisotropy",
    "shape_factor",
    "has_reconstructed",
    "possible_species",
    "has_props",
    "theoretical",
    "database_IDs"
  ]
}
