{"builder_meta": null, "nsites": null, "elements": null, "nelements": null, "composition": null, "composition_reduced": null, "formula_pretty": "PtPb4", "formula_anonymous": "AB4", "chemsys": null, "volume": 276.44667707742894, "density": 12.30037850077302, "density_atomic": 27.644667707742894, "symmetry": null, "property_name": null, "material_id": "mp-21296", "deprecated": null, "deprecation_reasons": null, "last_updated": null, "origins": null, "warnings": null, "structure": {"@module": "pymatgen.core.structure", "@class": "Structure", "charge": 0, "lattice": {"matrix": [[6.08984512, -0.0, 0.0], [0.0, 6.73755872, 0.0], [-0.0, 0.0, 6.73755872]], "pbc": [true, true, true], "a": 6.08984512, "b": 6.73755872, "c": 6.73755872, "alpha": 90.0, "beta": 90.0, "gamma": 90.0, "volume": 276.44667707742894}, "properties": {}, "sites": [{"species": [{"element": "Pt", "occu": 1}], "abc": [0.0, 0.75, 0.75], "properties": {"magmom": -0.0}, "label": "Pt", "xyz": [0.0, 5.05316904, 5.05316904]}, {"species": [{"element": "Pt", "occu": 1}], "abc": [0.0, 0.25, 0.25], "properties": {"magmom": -0.0}, "label": "Pt", "xyz": [0.0, 1.68438968, 1.68438968]}, {"species": [{"element": "Pb", "occu": 1}], "abc": [0.25177775, 0.92385007, 0.07614993], "properties": {"magmom": 0.0}, "label": "Pb", "xyz": [1.53328750216208, 6.22449409510111, 0.5130646248988896]}, {"species": [{"element": "Pb", "occu": 1}], "abc": [0.25177775, 0.07614993, 0.57614993], "properties": {"magmom": 0.0}, "label": "Pb", "xyz": [1.53328750216208, 0.5130646248988896, 3.88184398489889]}, {"species": [{"element": "Pb", "occu": 1}], "abc": [0.74822225, 0.42385007, 0.57614993], "properties": {"magmom": 0.0}, "label": "Pb", "xyz": [4.556557617837919, 2.8557147351011105, 3.88184398489889]}, {"species": [{"element": "Pb", "occu": 1}], "abc": [0.74822225, 0.07614993, 0.92385007], "properties": {"magmom": 0.0}, "label": "Pb", "xyz": [4.556557617837919, 0.5130646248988896, 6.22449409510111]}, {"species": [{"element": "Pb", "occu": 1}], "abc": [0.74822225, 0.92385007, 0.42385007], "properties": {"magmom": 0.0}, "label": "Pb", "xyz": [4.556557617837919, 6.22449409510111, 2.8557147351011105]}, {"species": [{"element": "Pb", "occu": 1}], "abc": [0.74822225, 0.57614993, 0.07614993], "properties": {"magmom": 0.0}, "label": "Pb", "xyz": [4.556557617837919, 3.88184398489889, 0.5130646248988896]}, {"species": [{"element": "Pb", "occu": 1}], "abc": [0.25177775, 0.57614993, 0.42385007], "properties": {"magmom": 0.0}, "label": "Pb", "xyz": [1.53328750216208, 3.88184398489889, 2.8557147351011105]}, {"species": [{"element": "Pb", "occu": 1}], "abc": [0.25177775, 0.42385007, 0.92385007], "properties": {"magmom": 0.0}, "label": "Pb", "xyz": [1.53328750216208, 2.8557147351011105, 6.22449409510111]}]}, "task_ids": null, "uncorrected_energy_per_atom": null, "energy_per_atom": -55.490264178, "formation_energy_per_atom": -0.16461350999999202, "energy_above_hull": 0.0, "is_stable": true, "equilibrium_reaction_energy_per_atom": null, "decomposes_to": null, "xas": null, "grain_boundaries": null, "band_gap": 0.0, "cbm": null, "vbm": null, "efermi": 6.7453991, "is_gap_direct": null, "is_metal": null, "es_source_calc_id": null, "bandstructure": null, "dos": null, "dos_energy_up": null, "dos_energy_down": null, "is_magnetic": null, "ordering": null, "total_magnetization": 4e-07, "total_magnetization_normalized_vol": null, "total_magnetization_normalized_formula_units": null, "num_magnetic_sites": null, "num_unique_magnetic_sites": null, "types_of_magnetic_species": null, "bulk_modulus": null, "shear_modulus": null, "universal_anisotropy": null, "homogeneous_poisson": null, "e_total": null, "e_ionic": null, "e_electronic": null, "n": null, "e_ij_max": null, "weighted_surface_energy_EV_PER_ANG2": null, "weighted_surface_energy": null, "weighted_work_function": null, "surface_anisotropy": null, "shape_factor": null, "has_reconstructed": null, "possible_species": null, "has_props": null, "theoretical": null, "database_IDs": null, "fields_not_requested": ["builder_meta", "nsites", "elements", "nelements", "composition", "composition_reduced", "chemsys", "symmetry", "property_name", "deprecated", "deprecation_reasons", "last_updated", "origins", "warnings", "task_ids", "uncorrected_energy_per_atom", "equilibrium_reaction_energy_per_atom", "decomposes_to", "xas", "grain_boundaries", "cbm", "vbm", "is_gap_direct", "is_metal", "es_source_calc_id", "bandstructure", "dos", "dos_energy_up", "dos_energy_down", "is_magnetic", "ordering", "total_magnetization_normalized_vol", "total_magnetization_normalized_formula_units", "num_magnetic_sites", "num_unique_magnetic_sites", "types_of_magnetic_species", "bulk_modulus", "shear_modulus", "universal_anisotropy", "homogeneous_poisson", "e_total", "e_ionic", "e_electronic", "n", "e_ij_max", "weighted_surface_energy_EV_PER_ANG2", "weighted_surface_energy", "weighted_work_function", "surface_anisotropy", "shape_factor", "has_reconstructed", "possible_species", "has_props", "theoretical", "database_IDs"]}