{
  "builder_meta": null,
  "nsites": null,
  "elements": null,
  "nelements": null,
  "composition": null,
  "composition_reduced": null,
  "formula_pretty": "PtPb2",
  "formula_anonymous": "AB2",
  "chemsys": null,
  "volume": 143.28079024001573,
  "density": 14.127113491938026,
  "density_atomic": 23.88013170666929,
  "symmetry": null,
  "property_name": null,
  "material_id": "mp-21318",
  "deprecated": null,
  "deprecation_reasons": null,
  "last_updated": null,
  "origins": null,
  "warnings": null,
  "structure": {
    "@module": "pymatgen.core.structure",
    "@class": "Structure",
    "charge": 0,
    "lattice": {
      "matrix": [
        [5.5613738, -0.00960731, -1.4725735],
        [-3.29654753, 4.4790336, -1.4725735],
        [0.00486851, 0.00960732, 5.75302739]
      ],
      "pbc": [true, true, true],
      "a": 5.753037767704479,
      "b": 5.75303748643969,
      "c": 5.753037471899294,
      "alpha": 104.78240472701695,
      "beta": 104.78240207393847,
      "gamma": 119.32101326859438,
      "volume": 143.28079024001573
    },
    "properties": {},
    "sites": [
      {
        "species": [{ "element": "Pt", "occu": 1 }],
        "abc": [0.25, 0.25, -0.0],
        "properties": { "magmom": 0.0 },
        "label": "Pt",
        "xyz": [0.5662065675000001, 1.1173565725, -0.73628675]
      },
      {
        "species": [{ "element": "Pt", "occu": 1 }],
        "abc": [0.75, 0.75, -0.0],
        "properties": { "magmom": 0.0 },
        "label": "Pt",
        "xyz": [1.6986197025000007, 3.3520697175, -2.20886025]
      },
      {
        "species": [{ "element": "Pb", "occu": 1 }],
        "abc": [0.66066024, 0.16066024, 0.82132149],
        "properties": { "magmom": 0.0 },
        "label": "Pb",
        "xyz": [3.1485530439837848, 0.7211461437910165, 3.5156302541103313]
      },
      {
        "species": [{ "element": "Pb", "occu": 1 }],
        "abc": [0.16066024, 0.33933976, 0.5],
        "properties": { "magmom": 0.0 },
        "label": "Pb",
        "xyz": [-0.22272374322108052, 1.5231743341255817, 2.1402269449999998]
      },
      {
        "species": [{ "element": "Pb", "occu": 1 }],
        "abc": [0.83933976, 0.66066024, 0.5],
        "properties": { "magmom": 0.0 },
        "label": "Pb",
        "xyz": [2.4924185232210814, 2.955859275874418, 0.667653445]
      },
      {
        "species": [{ "element": "Pb", "occu": 1 }],
        "abc": [0.33933976, 0.83933976, 0.17867851],
        "properties": { "magmom": 0.0 },
        "label": "Pb",
        "xyz": [-0.8788582639837846, 3.757887466208984, -0.707749864110331]
      }
    ]
  },
  "task_ids": null,
  "uncorrected_energy_per_atom": null,
  "energy_per_atom": -54.856384416666664,
  "formation_energy_per_atom": -0.170389376666662,
  "energy_above_hull": 0.059663255555555,
  "is_stable": false,
  "equilibrium_reaction_energy_per_atom": null,
  "decomposes_to": null,
  "xas": null,
  "grain_boundaries": null,
  "band_gap": 0.0,
  "cbm": null,
  "vbm": null,
  "efermi": 7.4917896,
  "is_gap_direct": null,
  "is_metal": null,
  "es_source_calc_id": null,
  "bandstructure": null,
  "dos": null,
  "dos_energy_up": null,
  "dos_energy_down": null,
  "is_magnetic": null,
  "ordering": null,
  "total_magnetization": 0.0,
  "total_magnetization_normalized_vol": null,
  "total_magnetization_normalized_formula_units": null,
  "num_magnetic_sites": null,
  "num_unique_magnetic_sites": null,
  "types_of_magnetic_species": null,
  "bulk_modulus": null,
  "shear_modulus": null,
  "universal_anisotropy": null,
  "homogeneous_poisson": null,
  "e_total": null,
  "e_ionic": null,
  "e_electronic": null,
  "n": null,
  "e_ij_max": null,
  "weighted_surface_energy_EV_PER_ANG2": null,
  "weighted_surface_energy": null,
  "weighted_work_function": null,
  "surface_anisotropy": null,
  "shape_factor": null,
  "has_reconstructed": null,
  "possible_species": null,
  "has_props": null,
  "theoretical": null,
  "database_IDs": null,
  "fields_not_requested": [
    "builder_meta",
    "nsites",
    "elements",
    "nelements",
    "composition",
    "composition_reduced",
    "chemsys",
    "symmetry",
    "property_name",
    "deprecated",
    "deprecation_reasons",
    "last_updated",
    "origins",
    "warnings",
    "task_ids",
    "uncorrected_energy_per_atom",
    "equilibrium_reaction_energy_per_atom",
    "decomposes_to",
    "xas",
    "grain_boundaries",
    "cbm",
    "vbm",
    "is_gap_direct",
    "is_metal",
    "es_source_calc_id",
    "bandstructure",
    "dos",
    "dos_energy_up",
    "dos_energy_down",
    "is_magnetic",
    "ordering",
    "total_magnetization_normalized_vol",
    "total_magnetization_normalized_formula_units",
    "num_magnetic_sites",
    "num_unique_magnetic_sites",
    "types_of_magnetic_species",
    "bulk_modulus",
    "shear_modulus",
    "universal_anisotropy",
    "homogeneous_poisson",
    "e_total",
    "e_ionic",
    "e_electronic",
    "n",
    "e_ij_max",
    "weighted_surface_energy_EV_PER_ANG2",
    "weighted_surface_energy",
    "weighted_work_function",
    "surface_anisotropy",
    "shape_factor",
    "has_reconstructed",
    "possible_species",
    "has_props",
    "theoretical",
    "database_IDs"
  ]
}
