{"builder_meta": null, "nsites": null, "elements": null, "nelements": null, "composition": null, "composition_reduced": null, "formula_pretty": "PtRh3", "formula_anonymous": "AB3", "chemsys": null, "volume": 56.641870099150005, "density": 14.769646739385594, "density_atomic": 14.160467524787501, "symmetry": null, "property_name": null, "material_id": "mp-974376", "deprecated": null, "deprecation_reasons": null, "last_updated": null, "origins": null, "warnings": null, "structure": {"@module": "pymatgen.core.structure", "@class": "Structure", "charge": 0, "lattice": {"matrix": [[-1.9191582, 1.9191582, 3.84464319], [1.9191582, -1.9191582, 3.84464319], [1.9191582, 1.9191582, -3.84464319]], "pbc": [true, true, true], "a": 4.706125545676386, "b": 4.706125545676386, "c": 4.706125545676386, "alpha": 131.86657666827904, "beta": 131.86657666827904, "gamma": 70.43983632838936, "volume": 56.641870099150005}, "properties": {}, "sites": [{"species": [{"element": "Pt", "occu": 1}], "abc": [0.0, 0.0, 0.0], "properties": {"magmom": -0.0}, "label": "Pt", "xyz": [0.0, 0.0, 0.0]}, {"species": [{"element": "Rh", "occu": 1}], "abc": [0.750000999999999, 0.25, 0.500001], "properties": {"magmom": -0.0}, "label": "Rh", "xyz": [1.887379141862766e-15, 1.919162038316398, 1.922321594999996]}, {"species": [{"element": "Rh", "occu": 1}], "abc": [0.25, 0.750000999999999, 0.500001], "properties": {"magmom": -0.0}, "label": "Rh", "xyz": [1.919162038316398, 1.887379141862766e-15, 1.922321594999996]}, {"species": [{"element": "Rh", "occu": 1}], "abc": [0.5, 0.5, 0.0], "properties": {"magmom": -0.0}, "label": "Rh", "xyz": [0.0, 0.0, 3.84464319]}]}, "task_ids": null, "uncorrected_energy_per_atom": null, "energy_per_atom": -30.9987959025, "formation_energy_per_atom": -0.024695205, "energy_above_hull": 0.0, "is_stable": true, "equilibrium_reaction_energy_per_atom": null, "decomposes_to": null, "xas": null, "grain_boundaries": null, "band_gap": 0.0, "cbm": null, "vbm": null, "efermi": 7.18106601, "is_gap_direct": null, "is_metal": null, "es_source_calc_id": null, "bandstructure": null, "dos": null, "dos_energy_up": null, "dos_energy_down": null, "is_magnetic": null, "ordering": null, "total_magnetization": 0.0006795, "total_magnetization_normalized_vol": null, "total_magnetization_normalized_formula_units": null, "num_magnetic_sites": null, "num_unique_magnetic_sites": null, "types_of_magnetic_species": null, "bulk_modulus": null, "shear_modulus": null, "universal_anisotropy": null, "homogeneous_poisson": null, "e_total": null, "e_ionic": null, "e_electronic": null, "n": null, "e_ij_max": null, "weighted_surface_energy_EV_PER_ANG2": null, "weighted_surface_energy": null, "weighted_work_function": null, "surface_anisotropy": null, "shape_factor": null, "has_reconstructed": null, "possible_species": null, "has_props": null, "theoretical": null, "database_IDs": null, "fields_not_requested": ["builder_meta", "nsites", "elements", "nelements", "composition", "composition_reduced", "chemsys", "symmetry", "property_name", "deprecated", "deprecation_reasons", "last_updated", "origins", "warnings", "task_ids", "uncorrected_energy_per_atom", "equilibrium_reaction_energy_per_atom", "decomposes_to", "xas", "grain_boundaries", "cbm", "vbm", "is_gap_direct", "is_metal", "es_source_calc_id", "bandstructure", "dos", "dos_energy_up", "dos_energy_down", "is_magnetic", "ordering", "total_magnetization_normalized_vol", "total_magnetization_normalized_formula_units", "num_magnetic_sites", "num_unique_magnetic_sites", "types_of_magnetic_species", "bulk_modulus", "shear_modulus", "universal_anisotropy", "homogeneous_poisson", "e_total", "e_ionic", "e_electronic", "n", "e_ij_max", "weighted_surface_energy_EV_PER_ANG2", "weighted_surface_energy", "weighted_work_function", "surface_anisotropy", "shape_factor", "has_reconstructed", "possible_species", "has_props", "theoretical", "database_IDs"]}