{"builder_meta": null, "nsites": null, "elements": null, "nelements": null, "composition": null, "composition_reduced": null, "formula_pretty": "Pu2Co", "formula_anonymous": "AB2", "chemsys": null, "volume": 182.63919377557113, "density": 14.91800174447549, "density_atomic": 20.293243752841235, "symmetry": null, "property_name": null, "material_id": "mp-20026", "deprecated": null, "deprecation_reasons": null, "last_updated": null, "origins": null, "warnings": null, "structure": {"@module": "pymatgen.core.structure", "@class": "Structure", "charge": 0, "lattice": {"matrix": [[3.613965, -6.259572, 0.0], [3.613965, 6.259572, 0.0], [0.0, 0.0, 4.036783]], "pbc": [true, true, true], "a": 7.227930868817784, "b": 7.227930868817784, "c": 4.036783, "alpha": 90.0, "beta": 90.0, "gamma": 120.0000079525554, "volume": 182.63919377557113}, "properties": {}, "sites": [{"species": [{"element": "Pu", "occu": 1}], "abc": [0.577083999999999, 0.0, 0.5], "properties": {"magmom": 5.364}, "label": "Pu", "xyz": [2.0855613780599964, -3.612298848047994, 2.0183915]}, {"species": [{"element": "Pu", "occu": 1}], "abc": [0.422915999999999, 0.422915999999999, 0.5], "properties": {"magmom": 5.272}, "label": "Pu", "xyz": [3.0568072438799927, 0.0, 2.0183915]}, {"species": [{"element": "Pu", "occu": 1}], "abc": [0.0, 0.577083999999999, 0.5], "properties": {"magmom": 5.364}, "label": "Pu", "xyz": [2.0855613780599964, 3.612298848047994, 2.0183915]}, {"species": [{"element": "Pu", "occu": 1}], "abc": [0.0, 0.255181999999999, 0.0], "properties": {"magmom": 5.231}, "label": "Pu", "xyz": [0.9222188166299964, 1.597330102103994, 0.0]}, {"species": [{"element": "Pu", "occu": 1}], "abc": [0.744818, 0.744818, 0.0], "properties": {"magmom": 5.214}, "label": "Pu", "xyz": [5.38349236674, 0.0, 0.0]}, {"species": [{"element": "Pu", "occu": 1}], "abc": [0.255181999999999, 0.0, 0.0], "properties": {"magmom": 5.248}, "label": "Pu", "xyz": [0.9222188166299964, -1.597330102103994, 0.0]}, {"species": [{"element": "Co", "occu": 1}], "abc": [0.666667, 0.333333, 0.0], "properties": {"magmom": -0.543}, "label": "Co", "xyz": [3.6139649999999994, -2.0865281730480003, 0.0]}, {"species": [{"element": "Co", "occu": 1}], "abc": [0.333333, 0.666667, 0.0], "properties": {"magmom": -0.543}, "label": "Co", "xyz": [3.6139649999999994, 2.0865281730480003, 0.0]}, {"species": [{"element": "Co", "occu": 1}], "abc": [0.0, 0.0, 0.5], "properties": {"magmom": -0.134}, "label": "Co", "xyz": [0.0, 0.0, 2.0183915]}]}, "task_ids": null, "uncorrected_energy_per_atom": null, "energy_per_atom": -61.88779534034724, "formation_energy_per_atom": 0.094513803819432, "energy_above_hull": 0.1443674236111, "is_stable": false, "equilibrium_reaction_energy_per_atom": null, "decomposes_to": null, "xas": null, "grain_boundaries": null, "band_gap": 0.0, "cbm": null, "vbm": null, "efermi": 11.30278836, "is_gap_direct": null, "is_metal": null, "es_source_calc_id": null, "bandstructure": null, "dos": null, "dos_energy_up": null, "dos_energy_down": null, "is_magnetic": null, "ordering": null, "total_magnetization": 32.0401819, "total_magnetization_normalized_vol": null, "total_magnetization_normalized_formula_units": null, "num_magnetic_sites": null, "num_unique_magnetic_sites": null, "types_of_magnetic_species": null, "bulk_modulus": null, "shear_modulus": null, "universal_anisotropy": null, "homogeneous_poisson": null, "e_total": null, "e_ionic": null, "e_electronic": null, "n": null, "e_ij_max": null, "weighted_surface_energy_EV_PER_ANG2": null, "weighted_surface_energy": null, "weighted_work_function": null, "surface_anisotropy": null, "shape_factor": null, "has_reconstructed": null, "possible_species": null, "has_props": null, "theoretical": null, "database_IDs": null, "fields_not_requested": ["builder_meta", "nsites", "elements", "nelements", "composition", "composition_reduced", "chemsys", "symmetry", "property_name", "deprecated", "deprecation_reasons", "last_updated", "origins", "warnings", "task_ids", "uncorrected_energy_per_atom", "equilibrium_reaction_energy_per_atom", "decomposes_to", "xas", "grain_boundaries", "cbm", "vbm", "is_gap_direct", "is_metal", "es_source_calc_id", "bandstructure", "dos", "dos_energy_up", "dos_energy_down", "is_magnetic", "ordering", "total_magnetization_normalized_vol", "total_magnetization_normalized_formula_units", "num_magnetic_sites", "num_unique_magnetic_sites", "types_of_magnetic_species", "bulk_modulus", "shear_modulus", "universal_anisotropy", "homogeneous_poisson", "e_total", "e_ionic", "e_electronic", "n", "e_ij_max", "weighted_surface_energy_EV_PER_ANG2", "weighted_surface_energy", "weighted_work_function", "surface_anisotropy", "shape_factor", "has_reconstructed", "possible_species", "has_props", "theoretical", "database_IDs"]}