{"builder_meta": null, "nsites": null, "elements": null, "nelements": null, "composition": null, "composition_reduced": null, "formula_pretty": "Pu2C3", "formula_anonymous": "A2B3", "chemsys": null, "volume": 272.8400140260383, "density": 12.757304346412958, "density_atomic": 13.642000701301916, "symmetry": null, "property_name": null, "material_id": "mp-19891", "deprecated": null, "deprecation_reasons": null, "last_updated": null, "origins": null, "warnings": null, "structure": {"@module": "pymatgen.core.structure", "@class": "Structure", "charge": 0, "lattice": {"matrix": [[6.67249788, 0.00018468, -2.35827887], [-3.33633554, 5.77840217, -2.35929208], [0.00036356, -0.00022728, 7.07628913]], "pbc": [true, true, true], "a": 7.076984331012729, "b": 7.077239969965589, "c": 7.0762891429893, "alpha": 109.47610742019971, "beta": 109.46212947059033, "gamma": 109.47314244604847, "volume": 272.8400140260383}, "properties": {}, "sites": [{"species": [{"element": "Pu", "occu": 1}], "abc": [0.59641995, 0.596478899999999, 0.59642728], "properties": {"magmom": 4.384}, "label": "Pu", "xyz": [1.98977393613652, 3.446669560963375, 1.4066993679109006]}, {"species": [{"element": "Pu", "occu": 1}], "abc": [0.40350033, 0.49994071, -3.9330000000000005e-05], "properties": {"magmom": 4.385}, "label": "Pu", "xyz": [1.0243851235396524, 2.8889330109152076, -2.1313507703010868]}, {"species": [{"element": "Pu", "occu": 1}], "abc": [0.49999262, 0.99991849, 0.40355365], "properties": {"magmom": 4.386}, "label": "Pu", "xyz": [0.0002828176405050356, 5.777931791402613, -0.6825594981376741]}, {"species": [{"element": "Pu", "occu": 1}], "abc": [4.5530000000000006e-05, 0.40354415, 0.49995498], "properties": {"magmom": 4.385}, "label": "Pu", "xyz": [-1.3458731271430857, 2.3317267706914313, 2.5856401010010845]}, {"species": [{"element": "Pu", "occu": 1}], "abc": [0.5000355400000001, 0.999945899999999, 0.903436599999999], "properties": {"magmom": 4.3870000000000005}, "label": "Pu", "xyz": [0.0006594897376687465, 5.777976571935677, 2.8545909016946416]}, {"species": [{"element": "Pu", "occu": 1}], "abc": [-8.66e-06, 0.90353872, 0.49997326000000003], "properties": {"magmom": 4.383}, "label": "Pu", "xyz": [-3.014384356855344, 5.22089646480516, 1.4062640216543407]}, {"species": [{"element": "Pu", "occu": 1}], "abc": [0.90357588, 0.50003825, 3.6360000000000004e-05], "properties": {"magmom": 4.383}, "label": "Pu", "xyz": [4.360812772103771, 2.88958897301262, -3.3103628942949483]}, {"species": [{"element": "Pu", "occu": 1}], "abc": [0.09643279, 0.09657749, 0.09648761], "properties": {"magmom": 4.383}, "label": "Pu", "xyz": [0.3212677536219823, 0.5580594572928096, 0.2275043075272528]}, {"species": [{"element": "C", "occu": 1}], "abc": [0.75000858, 0.79015945, 0.04005016], "properties": {"magmom": -0.111}, "label": "C", "xyz": [2.3682081653661275, 4.565988489510195, -3.3495398069920994]}, {"species": [{"element": "C", "occu": 1}], "abc": [0.7499201, 0.95978363, 0.20992701], "properties": {"magmom": -0.111}, "label": "C", "xyz": [1.8017563630039337, 5.546106593355711, -2.547426423834536]}, {"species": [{"element": "C", "occu": 1}], "abc": [0.29018289, 0.25002887, 0.54019349], "properties": {"magmom": -0.11}, "label": "C", "xyz": [1.1022609060754578, 1.4446981807703658, 2.54834201069888]}, {"species": [{"element": "C", "occu": 1}], "abc": [0.5402445300000001, 0.29014643, 0.25005904], "properties": {"magmom": -0.11}, "label": "C", "xyz": [2.636845546358057, 1.676625699670942, -0.18909736746112005]}, {"species": [{"element": "C", "occu": 1}], "abc": [0.20979688, 0.7500273, 0.95986485], "properties": {"magmom": -0.111}, "label": "C", "xyz": [-1.1021245314647614, 4.333779965083932, 4.527988186554371]}, {"species": [{"element": "C", "occu": 1}], "abc": [0.95986156, 0.20981879, 0.75002829], "properties": {"magmom": -0.11}, "label": "C", "xyz": [5.704921018441809, 1.2124241522459238, 2.5487719911640676]}, {"species": [{"element": "C", "occu": 1}], "abc": [0.25009406, 0.70988986, 0.45998342000000003], "properties": {"magmom": -0.111}, "label": "C", "xyz": [-0.6995114526808563, 4.101970749824299, 0.9903466133454044]}, {"species": [{"element": "C", "occu": 1}], "abc": [0.709844599999999, 0.45988516, 0.25000173], "properties": {"magmom": -0.111}, "label": "C", "xyz": [3.2021962756318136, 2.6574756802023307, -0.9899304123809376]}, {"species": [{"element": "C", "occu": 1}], "abc": [0.25003198, 0.54019551, 0.29006259], "properties": {"magmom": -0.111}, "label": "C", "xyz": [-0.13383016692400276, 3.1214471576888676, 0.1884426289838237]}, {"species": [{"element": "C", "occu": 1}], "abc": [0.45969847, 0.24987636, 0.7097585], "properties": {"magmom": -0.11}, "label": "C", "xyz": [2.2339237258406692, 1.4438096840572607, 3.348827852975547]}, {"species": [{"element": "C", "occu": 1}], "abc": [0.04016435, 0.7500009, 0.79017813], "properties": {"magmom": -0.11}, "label": "C", "xyz": [-2.2339708403144654, 4.3336346539287245, 3.7273389907875707]}, {"species": [{"element": "C", "occu": 1}], "abc": [0.79015903, 0.04020714, 0.75005839], "properties": {"magmom": -0.111}, "label": "C", "xyz": [5.138462633622368, 0.23230847832427498, 3.349354300672154]}]}, "task_ids": null, "uncorrected_energy_per_atom": null, "energy_per_atom": -11.286928664000005, "formation_energy_per_atom": 0.14544362400000002, "energy_above_hull": 0.14544362400000002, "is_stable": false, "equilibrium_reaction_energy_per_atom": null, "decomposes_to": null, "xas": null, "grain_boundaries": null, "band_gap": 0.0, "cbm": null, "vbm": null, "efermi": 11.22733374, "is_gap_direct": null, "is_metal": null, "es_source_calc_id": null, "bandstructure": null, "dos": null, "dos_energy_up": null, "dos_energy_down": null, "is_magnetic": null, "ordering": null, "total_magnetization": 34.1536688, "total_magnetization_normalized_vol": null, "total_magnetization_normalized_formula_units": null, "num_magnetic_sites": null, "num_unique_magnetic_sites": null, "types_of_magnetic_species": null, "bulk_modulus": null, "shear_modulus": null, "universal_anisotropy": null, "homogeneous_poisson": null, "e_total": null, "e_ionic": null, "e_electronic": null, "n": null, "e_ij_max": null, "weighted_surface_energy_EV_PER_ANG2": null, "weighted_surface_energy": null, "weighted_work_function": null, "surface_anisotropy": null, "shape_factor": null, "has_reconstructed": null, "possible_species": null, "has_props": null, "theoretical": null, "database_IDs": null, "fields_not_requested": ["builder_meta", "nsites", "elements", "nelements", "composition", "composition_reduced", "chemsys", "symmetry", "property_name", "deprecated", "deprecation_reasons", "last_updated", "origins", "warnings", "task_ids", "uncorrected_energy_per_atom", "equilibrium_reaction_energy_per_atom", "decomposes_to", "xas", "grain_boundaries", "cbm", "vbm", "is_gap_direct", "is_metal", "es_source_calc_id", "bandstructure", "dos", "dos_energy_up", "dos_energy_down", "is_magnetic", "ordering", "total_magnetization_normalized_vol", "total_magnetization_normalized_formula_units", "num_magnetic_sites", "num_unique_magnetic_sites", "types_of_magnetic_species", "bulk_modulus", "shear_modulus", "universal_anisotropy", "homogeneous_poisson", "e_total", "e_ionic", "e_electronic", "n", "e_ij_max", "weighted_surface_energy_EV_PER_ANG2", "weighted_surface_energy", "weighted_work_function", "surface_anisotropy", "shape_factor", "has_reconstructed", "possible_species", "has_props", "theoretical", "database_IDs"]}