{"builder_meta": null, "nsites": null, "elements": null, "nelements": null, "composition": null, "composition_reduced": null, "formula_pretty": "Pu2O3", "formula_anonymous": "A2B3", "chemsys": null, "volume": 659.8237253747416, "density": 10.791317941430924, "density_atomic": 16.49559313436854, "symmetry": null, "property_name": null, "material_id": "mp-637224", "deprecated": null, "deprecation_reasons": null, "last_updated": null, "origins": null, "warnings": null, "structure": {"@module": "pymatgen.core.structure", "@class": "Structure", "charge": 0, "lattice": {"matrix": [[8.96803129, -0.01769705, -3.14643474], [-4.50013315, 7.74076108, -3.1719988900000002], [0.01076321, 0.02082022, 9.49922553]], "pbc": [true, true, true], "a": 9.503996526571159, "b": 9.499060870608892, "c": 9.499254444326363, "alpha": 109.4313589462381, "beta": 109.26867199256844, "gamma": 109.75474633742276, "volume": 659.8237253747416}, "properties": {}, "sites": [{"species": [{"element": "Pu", "occu": 1}], "abc": [0.226882399999999, 0.75008364, 0.97696459], "properties": {"magmom": 4.9190000000000005}, "label": "Pu", "xyz": [-1.3302725162416449, 5.822543715775822, 6.1872718364922505]}, {"species": [{"element": "Pu", "occu": 1}], "abc": [0.97669075, 0.22695477, 0.75007458], "properties": {"magmom": 4.942}, "label": "Pu", "xyz": [7.745739732846145, 1.7551348232710717, 3.3321336151831673]}, {"species": [{"element": "Pu", "occu": 1}], "abc": [0.7731196300000001, 0.24991364, 0.02303641], "properties": {"magmom": 4.9190000000000005}, "label": "Pu", "xyz": [5.808964322470533, 1.9213194642492497, -3.006468196692259]}, {"species": [{"element": "Pu", "occu": 1}], "abc": [0.25017228, 0.02316971, 0.7731646], "properties": {"magmom": 4.93}, "label": "Pu", "xyz": [2.1476077878381212, 0.1910213351233248, 6.483819860033609]}, {"species": [{"element": "Pu", "occu": 1}], "abc": [0.72728198, 0.75018994, 0.47672719], "properties": {"magmom": 4.915}, "label": "Pu", "xyz": [3.1514640503613234, 5.804095909571158, -0.13940785052399107]}, {"species": [{"element": "Pu", "occu": 1}], "abc": [0.74983287, 0.97683676, 0.22684088], "properties": {"magmom": 4.93}, "label": "Pu", "xyz": [2.3310706906439336, 7.552913020555861, -3.303012631249434]}, {"species": [{"element": "Pu", "occu": 1}], "abc": [0.24985142000000002, 0.52297562, 0.27333699], "properties": {"magmom": 4.928}, "label": "Pu", "xyz": [-0.10984258836873292, 4.049498628278497, 0.15147043983796227]}, {"species": [{"element": "Pu", "occu": 1}], "abc": [0.75014824, 0.477018899999999, 0.72666002], "properties": {"magmom": 4.928}, "label": "Pu", "xyz": [4.588525517785763, 3.6943431461153176, 3.0293115098194345]}, {"species": [{"element": "Pu", "occu": 1}], "abc": [-3.23e-06, 0.50000322, 0.49999589], "properties": {"magmom": 4.939}, "label": "Pu", "xyz": [-2.2447284714066025, 3.8808155468410446, 3.163574227330856]}, {"species": [{"element": "Pu", "occu": 1}], "abc": [0.27271111, 0.24980796, 0.52326521], "properties": {"magmom": 4.915}, "label": "Pu", "xyz": [1.327144699021682, 1.9397720488835175, 3.320155959471686]}, {"species": [{"element": "Pu", "occu": 1}], "abc": [0.52293082, 0.27313545, 0.24998754], "properties": {"magmom": 4.941}, "label": "Pu", "xyz": [3.463204731670594, 2.1102267236402636, -0.13706502073444105]}, {"species": [{"element": "Pu", "occu": 1}], "abc": [0.47707331000000003, 0.7268694800000001, 0.75001667], "properties": {"magmom": 4.941}, "label": "Pu", "xyz": [1.0154715159553187, 5.633695702876171, 3.317868279743919]}, {"species": [{"element": "Pu", "occu": 1}], "abc": [0.02330538, 0.77304246, 0.2499205], "properties": {"magmom": 4.942}, "label": "Pu", "xyz": [-3.2671006767134037, 5.988727950872838, -0.15136748823340573]}, {"species": [{"element": "Pu", "occu": 1}], "abc": [0.99999547, -1.55e-06, 0.99999699], "properties": {"magmom": 4.944}, "label": "Pu", "xyz": [8.978760817627379, 0.003111189319100302, 6.352781367278807]}, {"species": [{"element": "Pu", "occu": 1}], "abc": [0.50000166, -4.599999999999997e-06, 0.49999853], "properties": {"magmom": 4.925}, "label": "Pu", "xyz": [4.489432821722513, 0.0015259175162056007, 3.1763907992516964]}, {"species": [{"element": "Pu", "occu": 1}], "abc": [0.50000376, 0.50000643, 7.44e-06], "properties": {"magmom": 4.938}, "label": "Pu", "xyz": [2.233953934019779, 3.8615818764552734, -3.159178367309542]}, {"species": [{"element": "O", "occu": 1}], "abc": [0.26037894, 0.99263819, 0.52588472], "properties": {"magmom": -0.061}, "label": "O", "xyz": [-2.126257335920814, 7.690116164118557, 1.0275849788289166]}, {"species": [{"element": "O", "occu": 1}], "abc": [0.76033516, 0.23424393000000002, 0.26732326], "properties": {"magmom": -0.06}, "label": "O", "xyz": [5.767457887573142, 1.8053363363112838, -0.5960025112618683]}, {"species": [{"element": "O", "occu": 1}], "abc": [0.23545959, 0.26781838, 0.76107298], "properties": {"magmom": -0.06}, "label": "O", "xyz": [0.91458218894234, 2.084796859155097, 5.639226043885424]}, {"species": [{"element": "O", "occu": 1}], "abc": [0.50663682, 0.76759635, 0.53230386], "properties": {"magmom": -0.059000000000000004}, "label": "O", "xyz": [1.094978372201086, 5.943896657566726, 1.027559955450367]}, {"species": [{"element": "O", "occu": 1}], "abc": [0.7649186, 0.53360034, 0.507107], "properties": {"magmom": -0.067}, "label": "O", "xyz": [4.463999459351194, 4.127494020740178, 0.7177776183459237]}, {"species": [{"element": "O", "occu": 1}], "abc": [0.26454282, 0.0258587, 0.03189437], "properties": {"magmom": -0.06}, "label": "O", "xyz": [2.2564039800210605, 0.1961484388268764, -0.6114186729951439]}, {"species": [{"element": "O", "occu": 1}], "abc": [0.03330551, 0.26594007000000003, 0.02565472], "properties": {"magmom": -0.061}, "label": "O", "xyz": [-0.8978047419720614, 2.058523271107169, -0.7046552493549383]}, {"species": [{"element": "O", "occu": 1}], "abc": [0.47348197000000003, 0.742445599999999, 0.00715027], "properties": {"magmom": -0.067}, "label": "O", "xyz": [0.9051740254367728, 5.738863640594511, -3.776894710926626]}, {"species": [{"element": "O", "occu": 1}], "abc": [0.7348653900000001, 0.24194997000000001, 0.76848883], "properties": {"magmom": -0.067}, "label": "O", "xyz": [5.509760137479493, 1.8758720680412109, 4.220377684860649]}, {"species": [{"element": "O", "occu": 1}], "abc": [0.46666722, 0.49258967000000003, 0.23253612], "properties": {"magmom": -0.061}, "label": "O", "xyz": [1.9708699627548982, 3.80960176599669, -0.8219187917415458]}, {"species": [{"element": "O", "occu": 1}], "abc": [0.026547420000000002, 0.03333891, 0.26880339000000003], "properties": {"magmom": -0.066}, "label": "O", "xyz": [0.09094174648818726, 0.26319527167505763, 2.364143314779366]}, {"species": [{"element": "O", "occu": 1}], "abc": [0.76455069, 0.73219449, 0.23893581], "properties": {"magmom": -0.06}, "label": "O", "xyz": [3.5641135303142963, 5.659187015524063, -2.4584238146678583]}, {"species": [{"element": "O", "occu": 1}], "abc": [0.9940832900000001, 0.525647499999999, 0.26119375], "properties": {"magmom": -0.059000000000000004}, "label": "O", "xyz": [6.552297592803463, 4.056757479449624, -2.3140331463643298]}, {"species": [{"element": "O", "occu": 1}], "abc": [0.73545389, 0.97414206, 0.96811739], "properties": {"magmom": -0.06}, "label": "O", "xyz": [2.222224571630152, 7.547741997220626, 3.792330224938514]}, {"species": [{"element": "O", "occu": 1}], "abc": [0.23506525, 0.46639774, 0.4928859], "properties": {"magmom": -0.067}, "label": "O", "xyz": [0.014525620780330374, 3.616375504982345, 2.4630037423117335]}, {"species": [{"element": "O", "occu": 1}], "abc": [0.53332627, 0.50741719, 0.76746357], "properties": {"magmom": -0.061}, "label": "O", "xyz": [2.5077021311114005, 3.9343356943778467, 4.002706470359403]}, {"species": [{"element": "O", "occu": 1}], "abc": [0.00591843, 0.47434848, 0.73879413], "properties": {"magmom": -0.059000000000000004}, "label": "O", "xyz": [-2.07360285770448, 3.687095369910836, 5.494717255318694]}, {"species": [{"element": "O", "occu": 1}], "abc": [0.9734498300000001, 0.96665838, 0.73118311], "properties": {"magmom": -0.066}, "label": "O", "xyz": [4.3877069914832685, 7.4806677684563345, 0.8165375944885058]}, {"species": [{"element": "O", "occu": 1}], "abc": [0.73961896, 0.0073603900000000005, 0.47411221000000003], "properties": {"magmom": -0.061}, "label": "O", "xyz": [6.604906210201125, 0.0537570672464394, 2.153188870300084]}, {"species": [{"element": "O", "occu": 1}], "abc": [0.9666986200000001, 0.73405843, 0.97434606], "properties": {"magmom": -0.061}, "label": "O", "xyz": [5.376509888536319, 5.6853493109021676, 3.88544632197371]}, {"species": [{"element": "O", "occu": 1}], "abc": [0.26514193, 0.7580391, 0.2315146], "properties": {"magmom": -0.067}, "label": "O", "xyz": [-1.0309839181173084, 5.867927517311133, -1.0395415644715094]}, {"species": [{"element": "O", "occu": 1}], "abc": [0.49335213, 0.23239092, 0.4676913], "properties": {"magmom": -0.059000000000000004}, "label": "O", "xyz": [3.3836411156542225, 1.7998891473272631, 2.1532611159478137]}, {"species": [{"element": "O", "occu": 1}], "abc": [0.52653054, 0.25756426, 0.99286646], "properties": {"magmom": -0.067}, "label": "O", "xyz": [3.573555323390314, 2.005097060241915, 6.957774895162093]}, {"species": [{"element": "O", "occu": 1}], "abc": [0.23967186000000001, 0.76576111, 0.73268317], "properties": {"magmom": -0.06}, "label": "O", "xyz": [-1.2887561934571212, 5.938586936765283, 3.7768174164357466]}]}, "task_ids": null, "uncorrected_energy_per_atom": null, "energy_per_atom": -12.169002618000002, "formation_energy_per_atom": -3.305053022499996, "energy_above_hull": 0.0, "is_stable": true, "equilibrium_reaction_energy_per_atom": null, "decomposes_to": null, "xas": null, "grain_boundaries": null, "band_gap": 0.0, "cbm": null, "vbm": null, "efermi": 9.25786051, "is_gap_direct": null, "is_metal": null, "es_source_calc_id": null, "bandstructure": null, "dos": null, "dos_energy_up": null, "dos_energy_down": null, "is_magnetic": null, "ordering": null, "total_magnetization": 80.00099, "total_magnetization_normalized_vol": null, "total_magnetization_normalized_formula_units": null, "num_magnetic_sites": null, "num_unique_magnetic_sites": null, "types_of_magnetic_species": null, "bulk_modulus": null, "shear_modulus": null, "universal_anisotropy": null, "homogeneous_poisson": null, "e_total": null, "e_ionic": null, "e_electronic": null, "n": null, "e_ij_max": null, "weighted_surface_energy_EV_PER_ANG2": null, "weighted_surface_energy": null, "weighted_work_function": null, "surface_anisotropy": null, "shape_factor": null, "has_reconstructed": null, "possible_species": null, "has_props": null, "theoretical": null, "database_IDs": null, "fields_not_requested": ["builder_meta", "nsites", "elements", "nelements", "composition", "composition_reduced", "chemsys", "symmetry", "property_name", "deprecated", "deprecation_reasons", "last_updated", "origins", "warnings", "task_ids", "uncorrected_energy_per_atom", "equilibrium_reaction_energy_per_atom", "decomposes_to", "xas", "grain_boundaries", "cbm", "vbm", "is_gap_direct", "is_metal", "es_source_calc_id", "bandstructure", "dos", "dos_energy_up", "dos_energy_down", "is_magnetic", "ordering", "total_magnetization_normalized_vol", "total_magnetization_normalized_formula_units", "num_magnetic_sites", "num_unique_magnetic_sites", "types_of_magnetic_species", "bulk_modulus", "shear_modulus", "universal_anisotropy", "homogeneous_poisson", "e_total", "e_ionic", "e_electronic", "n", "e_ij_max", "weighted_surface_energy_EV_PER_ANG2", "weighted_surface_energy", "weighted_work_function", "surface_anisotropy", "shape_factor", "has_reconstructed", "possible_species", "has_props", "theoretical", "database_IDs"]}