{"builder_meta": null, "nsites": null, "elements": null, "nelements": null, "composition": null, "composition_reduced": null, "formula_pretty": "Pu2Pt", "formula_anonymous": "AB2", "chemsys": null, "volume": 291.45899787403306, "density": 15.567028996094018, "density_atomic": 24.28824982283609, "symmetry": null, "property_name": null, "material_id": "mp-615820", "deprecated": null, "deprecation_reasons": null, "last_updated": null, "origins": null, "warnings": null, "structure": {"@module": "pymatgen.core.structure", "@class": "Structure", "charge": 0, "lattice": {"matrix": [[4.638928, -8.1e-05, 0.000345], [-0.000301999999999, 7.002093, 0.063558], [0.000472, 0.082501999999999, 8.973631]], "pbc": [true, true, true], "a": 4.638928013536101, "b": 7.0023814585622945, "c": 8.974010258905937, "alpha": 88.95318803589059, "beta": 89.99273470660575, "gamma": 90.0034327827417, "volume": 291.4589978740331}, "properties": {}, "sites": [{"species": [{"element": "Pu", "occu": 1}], "abc": [0.7499300000000001, 0.650918, 0.581135], "properties": {"magmom": 5.42}, "label": "Pu", "xyz": [3.478948993524001, 4.605672426814, 5.256520823278999]}, {"species": [{"element": "Pu", "occu": 1}], "abc": [0.249967, 0.843243, 0.080776], "properties": {"magmom": 0.012}, "label": "Pu", "xyz": [1.1593623822620007, 5.9111098418240005, 0.7785350948649999]}, {"species": [{"element": "Pu", "occu": 1}], "abc": [0.249934, 0.981462, 0.681701], "properties": {"magmom": 5.458}, "label": "Pu", "xyz": [1.159451192100001, 6.928509651213999, 6.179799215357]}, {"species": [{"element": "Pu", "occu": 1}], "abc": [0.749946999999999, 0.017137, 0.322061999999999], "properties": {"magmom": 5.44}, "label": "Pu", "xyz": [3.4790969747059957, 0.1465048811579996, 2.8914134722829905]}, {"species": [{"element": "Pu", "occu": 1}], "abc": [0.250143, 0.48391000000000006, 0.816728], "properties": {"magmom": 5.474}, "label": "Pu", "xyz": [1.1606347215000006, 3.455744255503, 7.359858350482999]}, {"species": [{"element": "Pu", "occu": 1}], "abc": [0.750023999999999, 0.518008, 0.178203], "properties": {"magmom": 5.433}, "label": "Pu", "xyz": [3.479235007671996, 3.6417815427060005, 1.6323102758369998]}, {"species": [{"element": "Pu", "occu": 1}], "abc": [0.7500829999999991, 0.158582, 0.9191900000000001], "properties": {"magmom": 5.394}, "label": "Pu", "xyz": [3.4799669969399956, 1.1861801687829994, 8.258809812281]}, {"species": [{"element": "Pu", "occu": 1}], "abc": [0.249976999999999, 0.345582, 0.418170999999999], "properties": {"magmom": 5.438}, "label": "Pu", "xyz": [1.1597183156039959, 2.454276998831, 3.7745629917219907]}, {"species": [{"element": "Pt", "occu": 1}], "abc": [0.749873, 0.23393000000000003, 0.599256999999999], "properties": {"magmom": -0.044}, "label": "Pt", "xyz": [3.4788190585880003, 1.6873787767909998, 5.392638021291991]}, {"species": [{"element": "Pt", "occu": 1}], "abc": [0.7501300000000001, 0.740803, 0.899191], "properties": {"magmom": -0.061}, "label": "Pt", "xyz": [3.4799997562860012, 5.261295796030999, 8.116350984444999]}, {"species": [{"element": "Pt", "occu": 1}], "abc": [0.249998, 0.763193, 0.402142], "properties": {"magmom": -0.055}, "label": "Pt", "xyz": [1.1596820488820008, 5.377105632395001, 3.6572671876059997]}, {"species": [{"element": "Pt", "occu": 1}], "abc": [0.249996, 0.263233, 0.101446], "properties": {"magmom": -0.054}, "label": "Pt", "xyz": [1.1596818304340002, 1.851531194885, 0.9271557820599998]}]}, "task_ids": null, "uncorrected_energy_per_atom": null, "energy_per_atom": -11.908599090000001, "formation_energy_per_atom": -0.059599662499991005, "energy_above_hull": 0.307721992083335, "is_stable": false, "equilibrium_reaction_energy_per_atom": null, "decomposes_to": null, "xas": null, "grain_boundaries": null, "band_gap": 0.0, "cbm": null, "vbm": null, "efermi": 10.24528154, "is_gap_direct": null, "is_metal": null, "es_source_calc_id": null, "bandstructure": null, "dos": null, "dos_energy_up": null, "dos_energy_down": null, "is_magnetic": null, "ordering": null, "total_magnetization": 40.5199545, "total_magnetization_normalized_vol": null, "total_magnetization_normalized_formula_units": null, "num_magnetic_sites": null, "num_unique_magnetic_sites": null, "types_of_magnetic_species": null, "bulk_modulus": null, "shear_modulus": null, "universal_anisotropy": null, "homogeneous_poisson": null, "e_total": null, "e_ionic": null, "e_electronic": null, "n": null, "e_ij_max": null, "weighted_surface_energy_EV_PER_ANG2": null, "weighted_surface_energy": null, "weighted_work_function": null, "surface_anisotropy": null, "shape_factor": null, "has_reconstructed": null, "possible_species": null, "has_props": null, "theoretical": null, "database_IDs": null, "fields_not_requested": ["builder_meta", "nsites", "elements", "nelements", "composition", "composition_reduced", "chemsys", "symmetry", "property_name", "deprecated", "deprecation_reasons", "last_updated", "origins", "warnings", "task_ids", "uncorrected_energy_per_atom", "equilibrium_reaction_energy_per_atom", "decomposes_to", "xas", "grain_boundaries", "cbm", "vbm", "is_gap_direct", "is_metal", "es_source_calc_id", "bandstructure", "dos", "dos_energy_up", "dos_energy_down", "is_magnetic", "ordering", "total_magnetization_normalized_vol", "total_magnetization_normalized_formula_units", "num_magnetic_sites", "num_unique_magnetic_sites", "types_of_magnetic_species", "bulk_modulus", "shear_modulus", "universal_anisotropy", "homogeneous_poisson", "e_total", "e_ionic", "e_electronic", "n", "e_ij_max", "weighted_surface_energy_EV_PER_ANG2", "weighted_surface_energy", "weighted_work_function", "surface_anisotropy", "shape_factor", "has_reconstructed", "possible_species", "has_props", "theoretical", "database_IDs"]}