{"builder_meta": null, "nsites": null, "elements": null, "nelements": null, "composition": null, "composition_reduced": null, "formula_pretty": "Pu2Sn3", "formula_anonymous": "A2B3", "chemsys": null, "volume": 568.4826922257434, "density": 9.862821587767467, "density_atomic": 28.424134611287172, "symmetry": null, "property_name": null, "material_id": "mp-1210741", "deprecated": null, "deprecation_reasons": null, "last_updated": null, "origins": null, "warnings": null, "structure": {"@module": "pymatgen.core.structure", "@class": "Structure", "charge": 0, "lattice": {"matrix": [[7.267902, 0.0, 0.0], [0.0, 7.267902, 0.0], [-3.633950999999999, -3.633950999999999, 10.762152]], "pbc": [true, true, true], "a": 7.267902, "b": 7.267902, "c": 11.926236431159076, "alpha": 107.74025107943942, "beta": 107.74025107943942, "gamma": 90.0, "volume": 568.4826922257434}, "properties": {}, "sites": [{"species": [{"element": "Pu", "occu": 1}], "abc": [0.295942, 0.516672, 0.591885], "properties": {"magmom": 5.608}, "label": "Pu", "xyz": [-3.6339509992266983e-06, 1.604240374509001, 6.3699563365200005]}, {"species": [{"element": "Pu", "occu": 1}], "abc": [0.295942, 0.075213, 0.591885], "properties": {"magmom": 5.607}, "label": "Pu", "xyz": [-3.6339509992266983e-06, -1.6042403745089993, 6.3699563365200005]}, {"species": [{"element": "Pu", "occu": 1}], "abc": [0.325213, 0.045942, 0.091885], "properties": {"magmom": 5.607}, "label": "Pu", "xyz": [2.029710625491, -3.633950999892832e-06, 0.98888033652]}, {"species": [{"element": "Pu", "occu": 1}], "abc": [0.954058, 0.674786999999999, 0.908115], "properties": {"magmom": 5.607}, "label": "Pu", "xyz": [3.633954633951001, 1.6042403745089944, 9.773271663480001]}, {"species": [{"element": "Pu", "occu": 1}], "abc": [0.954058, 0.233327999999999, 0.908115], "properties": {"magmom": 5.607}, "label": "Pu", "xyz": [3.633954633951001, -1.6042403745090061, 9.773271663480001]}, {"species": [{"element": "Pu", "occu": 1}], "abc": [0.766672, 0.045942, 0.091885], "properties": {"magmom": 5.607}, "label": "Pu", "xyz": [5.238191374509, -3.633950999892832e-06, 0.98888033652]}, {"species": [{"element": "Pu", "occu": 1}], "abc": [0.924786999999999, 0.704058, 0.408115], "properties": {"magmom": 5.608}, "label": "Pu", "xyz": [5.238191374508993, 3.6339546339510007, 4.39219566348]}, {"species": [{"element": "Pu", "occu": 1}], "abc": [0.483328, 0.704058, 0.408115], "properties": {"magmom": 5.608}, "label": "Pu", "xyz": [2.0297106254910005, 3.6339546339510007, 4.39219566348]}, {"species": [{"element": "Sn", "occu": 1}], "abc": [0.801061999999999, 0.080562, 0.602124], "properties": {"magmom": -0.021}, "label": "Sn", "xyz": [3.633950999999994, -1.6025723909999992, 6.480150010848]}, {"species": [{"element": "Sn", "occu": 1}], "abc": [0.801061999999999, 0.521562, 0.602124], "properties": {"magmom": -0.021}, "label": "Sn", "xyz": [3.633950999999994, 1.6025723910000007, 6.480150010848]}, {"species": [{"element": "Sn", "occu": 1}], "abc": [0.771562, 0.551061999999999, 0.10212399999999901], "properties": {"magmom": -0.02}, "label": "Sn", "xyz": [5.236523391000004, 3.633950999999997, 1.0990740108479893]}, {"species": [{"element": "Sn", "occu": 1}], "abc": [0.448938, 0.228438, 0.897876], "properties": {"magmom": -0.02}, "label": "Sn", "xyz": [8.881784197001252e-16, -1.602572390999999, 9.663077989152]}, {"species": [{"element": "Sn", "occu": 1}], "abc": [0.448938, 0.669438, 0.897876], "properties": {"magmom": -0.02}, "label": "Sn", "xyz": [8.881784197001252e-16, 1.6025723910000007, 9.663077989152]}, {"species": [{"element": "Sn", "occu": 1}], "abc": [0.330561999999999, 0.551061999999999, 0.10212399999999901], "properties": {"magmom": -0.02}, "label": "Sn", "xyz": [2.031378608999997, 3.633950999999997, 1.0990740108479893]}, {"species": [{"element": "Sn", "occu": 1}], "abc": [0.478438, 0.198938, 0.397876], "properties": {"magmom": -0.021}, "label": "Sn", "xyz": [2.031378609000001, 6.661338147750939e-16, 4.2820019891520005]}, {"species": [{"element": "Sn", "occu": 1}], "abc": [0.919438, 0.198938, 0.397876], "properties": {"magmom": -0.02}, "label": "Sn", "xyz": [5.236523391000001, 6.661338147750939e-16, 4.2820019891520005]}, {"species": [{"element": "Sn", "occu": 1}], "abc": [0.125, 0.375, 0.25], "properties": {"magmom": -0.035}, "label": "Sn", "xyz": [3.3306690738754696e-16, 1.8169755000000005, 2.690538]}, {"species": [{"element": "Sn", "occu": 1}], "abc": [0.125, 0.875, 0.25], "properties": {"magmom": -0.035}, "label": "Sn", "xyz": [3.3306690738754696e-16, 5.4509265000000005, 2.690538]}, {"species": [{"element": "Sn", "occu": 1}], "abc": [0.125, 0.875, 0.75], "properties": {"magmom": -0.035}, "label": "Sn", "xyz": [-1.816975499999999, 3.6339510000000015, 8.071614]}, {"species": [{"element": "Sn", "occu": 1}], "abc": [0.625, 0.875, 0.75], "properties": {"magmom": -0.035}, "label": "Sn", "xyz": [1.8169755000000016, 3.6339510000000015, 8.071614]}]}, "task_ids": null, "uncorrected_energy_per_atom": null, "energy_per_atom": -49.67545070780001, "formation_energy_per_atom": -0.28520117930000805, "energy_above_hull": 0.23966615519999102, "is_stable": false, "equilibrium_reaction_energy_per_atom": null, "decomposes_to": null, "xas": null, "grain_boundaries": null, "band_gap": 0.0, "cbm": null, "vbm": null, "efermi": 8.95759129, "is_gap_direct": null, "is_metal": null, "es_source_calc_id": null, "bandstructure": null, "dos": null, "dos_energy_up": null, "dos_energy_down": null, "is_magnetic": null, "ordering": null, "total_magnetization": 47.9880964, "total_magnetization_normalized_vol": null, "total_magnetization_normalized_formula_units": null, "num_magnetic_sites": null, "num_unique_magnetic_sites": null, "types_of_magnetic_species": null, "bulk_modulus": null, "shear_modulus": null, "universal_anisotropy": null, "homogeneous_poisson": null, "e_total": null, "e_ionic": null, "e_electronic": null, "n": null, "e_ij_max": null, "weighted_surface_energy_EV_PER_ANG2": null, "weighted_surface_energy": null, "weighted_work_function": null, "surface_anisotropy": null, "shape_factor": null, "has_reconstructed": null, "possible_species": null, "has_props": null, "theoretical": null, "database_IDs": null, "fields_not_requested": ["builder_meta", "nsites", "elements", "nelements", "composition", "composition_reduced", "chemsys", "symmetry", "property_name", "deprecated", "deprecation_reasons", "last_updated", "origins", "warnings", "task_ids", "uncorrected_energy_per_atom", "equilibrium_reaction_energy_per_atom", "decomposes_to", "xas", "grain_boundaries", "cbm", "vbm", "is_gap_direct", "is_metal", "es_source_calc_id", "bandstructure", "dos", "dos_energy_up", "dos_energy_down", "is_magnetic", "ordering", "total_magnetization_normalized_vol", "total_magnetization_normalized_formula_units", "num_magnetic_sites", "num_unique_magnetic_sites", "types_of_magnetic_species", "bulk_modulus", "shear_modulus", "universal_anisotropy", "homogeneous_poisson", "e_total", "e_ionic", "e_electronic", "n", "e_ij_max", "weighted_surface_energy_EV_PER_ANG2", "weighted_surface_energy", "weighted_work_function", "surface_anisotropy", "shape_factor", "has_reconstructed", "possible_species", "has_props", "theoretical", "database_IDs"]}