{
  "builder_meta": null,
  "nsites": null,
  "elements": null,
  "nelements": null,
  "composition": null,
  "composition_reduced": null,
  "formula_pretty": "Pu2Se3",
  "formula_anonymous": "A2B3",
  "chemsys": null,
  "volume": 519.4326192963571,
  "density": 9.269279701591122,
  "density_atomic": 25.971630964817855,
  "symmetry": null,
  "property_name": null,
  "material_id": "mp-1205450",
  "deprecated": null,
  "deprecation_reasons": null,
  "last_updated": null,
  "origins": null,
  "warnings": null,
  "structure": {
    "@module": "pymatgen.core.structure",
    "@class": "Structure",
    "charge": 0,
    "lattice": {
      "matrix": [
        [11.30759145, 0.0, 0.0],
        [0.0, 4.10033936, 0.0],
        [0.0, 0.0, 11.20312826]
      ],
      "pbc": [true, true, true],
      "a": 11.30759145,
      "b": 4.10033936,
      "c": 11.20312826,
      "alpha": 90.0,
      "beta": 90.0,
      "gamma": 90.0,
      "volume": 519.4326192963571
    },
    "properties": {},
    "sites": [
      {
        "species": [{ "element": "Pu", "occu": 1 }],
        "abc": [0.49344595, 0.25, 0.1864584],
        "properties": { "magmom": 5.027 },
        "label": "Pu",
        "xyz": [5.579685205257128, 1.02508484, 2.088917370354384]
      },
      {
        "species": [{ "element": "Pu", "occu": 1 }],
        "abc": [0.99344595, 0.25, 0.3135416],
        "properties": { "magmom": 5.027 },
        "label": "Pu",
        "xyz": [11.233480930257128, 1.02508484, 3.5126467596456155]
      },
      {
        "species": [{ "element": "Pu", "occu": 1 }],
        "abc": [0.50655405, 0.75, 0.8135416],
        "properties": { "magmom": 5.027 },
        "label": "Pu",
        "xyz": [5.727906244742872, 3.0752545200000005, 9.114210889645616]
      },
      {
        "species": [{ "element": "Pu", "occu": 1 }],
        "abc": [0.0065540500000000005, 0.75, 0.6864584],
        "properties": { "magmom": 5.027 },
        "label": "Pu",
        "xyz": [0.07411051974287251, 3.0752545200000005, 7.690481500354384]
      },
      {
        "species": [{ "element": "Pu", "occu": 1 }],
        "abc": [0.68889084, 0.75, 0.49158463],
        "properties": { "magmom": 5.067 },
        "label": "Pu",
        "xyz": [7.789696172367318, 3.0752545200000005, 5.507285660534644]
      },
      {
        "species": [{ "element": "Pu", "occu": 1 }],
        "abc": [0.18889084, 0.75, 0.00841537],
        "properties": { "magmom": 5.067 },
        "label": "Pu",
        "xyz": [2.135900447367318, 3.0752545200000005, 0.0942784694653562]
      },
      {
        "species": [{ "element": "Pu", "occu": 1 }],
        "abc": [0.31110916, 0.25, 0.50841537],
        "properties": { "magmom": 5.067 },
        "label": "Pu",
        "xyz": [3.517895277632682, 1.02508484, 5.695842599465356]
      },
      {
        "species": [{ "element": "Pu", "occu": 1 }],
        "abc": [0.81110916, 0.25, 0.99158463],
        "properties": { "magmom": 5.067 },
        "label": "Pu",
        "xyz": [9.171691002632683, 1.02508484, 11.108849790534643]
      },
      {
        "species": [{ "element": "Se", "occu": 1 }],
        "abc": [0.55067182, 0.25, 0.62850913],
        "properties": { "magmom": -0.092 },
        "label": "Se",
        "xyz": [6.2267719635879395, 1.02508484, 7.041268395971013]
      },
      {
        "species": [{ "element": "Se", "occu": 1 }],
        "abc": [0.05067182, 0.25, 0.87149087],
        "properties": { "magmom": -0.092 },
        "label": "Se",
        "xyz": [0.572976238587939, 1.02508484, 9.763423994028987]
      },
      {
        "species": [{ "element": "Se", "occu": 1 }],
        "abc": [0.44932818, 0.75, 0.37149087000000003],
        "properties": { "magmom": -0.092 },
        "label": "Se",
        "xyz": [5.080819486412062, 3.0752545200000005, 4.161859864028987]
      },
      {
        "species": [{ "element": "Se", "occu": 1 }],
        "abc": [0.94932818, 0.75, 0.12850913],
        "properties": { "magmom": -0.092 },
        "label": "Se",
        "xyz": [10.734615211412061, 3.0752545200000005, 1.4397042659710138]
      },
      {
        "species": [{ "element": "Se", "occu": 1 }],
        "abc": [0.62101021, 0.75, 0.05255985],
        "properties": { "magmom": -0.092 },
        "label": "Se",
        "xyz": [7.022129740958705, 3.0752545200000005, 0.588834740876361]
      },
      {
        "species": [{ "element": "Se", "occu": 1 }],
        "abc": [0.12101021, 0.75, 0.44744015000000004],
        "properties": { "magmom": -0.092 },
        "label": "Se",
        "xyz": [1.3683340159587045, 3.0752545200000005, 5.012729389123639]
      },
      {
        "species": [{ "element": "Se", "occu": 1 }],
        "abc": [0.37898979, 0.25, 0.94744015],
        "properties": { "magmom": -0.092 },
        "label": "Se",
        "xyz": [4.285461709041296, 1.02508484, 10.614293519123638]
      },
      {
        "species": [{ "element": "Se", "occu": 1 }],
        "abc": [0.87898979, 0.25, 0.55255985],
        "properties": { "magmom": -0.092 },
        "label": "Se",
        "xyz": [9.939257434041295, 1.02508484, 6.19039887087636]
      },
      {
        "species": [{ "element": "Se", "occu": 1 }],
        "abc": [0.72906132, 0.25, 0.30170514],
        "properties": { "magmom": -0.10400000000000001 },
        "label": "Se",
        "xyz": [8.243927548557714, 1.02508484, 3.380041380121256]
      },
      {
        "species": [{ "element": "Se", "occu": 1 }],
        "abc": [0.22906132, 0.25, 0.19829486000000002],
        "properties": { "magmom": -0.10400000000000001 },
        "label": "Se",
        "xyz": [2.5901318235577144, 1.02508484, 2.2215227498787438]
      },
      {
        "species": [{ "element": "Se", "occu": 1 }],
        "abc": [0.27093868, 0.75, 0.69829486],
        "properties": { "magmom": -0.10400000000000001 },
        "label": "Se",
        "xyz": [3.0636639014422857, 3.0752545200000005, 7.823086879878743]
      },
      {
        "species": [{ "element": "Se", "occu": 1 }],
        "abc": [0.77093868, 0.75, 0.80170514],
        "properties": { "magmom": -0.10400000000000001 },
        "label": "Se",
        "xyz": [8.717459626442286, 3.0752545200000005, 8.981605510121257]
      }
    ]
  },
  "task_ids": null,
  "uncorrected_energy_per_atom": null,
  "energy_per_atom": -45.120208625,
  "formation_energy_per_atom": -1.9907332259374981,
  "energy_above_hull": 0.0,
  "is_stable": true,
  "equilibrium_reaction_energy_per_atom": null,
  "decomposes_to": null,
  "xas": null,
  "grain_boundaries": null,
  "band_gap": 0.0,
  "cbm": null,
  "vbm": null,
  "efermi": 7.3324341,
  "is_gap_direct": null,
  "is_metal": null,
  "es_source_calc_id": null,
  "bandstructure": null,
  "dos": null,
  "dos_energy_up": null,
  "dos_energy_down": null,
  "is_magnetic": null,
  "ordering": null,
  "total_magnetization": 39.9999995,
  "total_magnetization_normalized_vol": null,
  "total_magnetization_normalized_formula_units": null,
  "num_magnetic_sites": null,
  "num_unique_magnetic_sites": null,
  "types_of_magnetic_species": null,
  "bulk_modulus": null,
  "shear_modulus": null,
  "universal_anisotropy": null,
  "homogeneous_poisson": null,
  "e_total": null,
  "e_ionic": null,
  "e_electronic": null,
  "n": null,
  "e_ij_max": null,
  "weighted_surface_energy_EV_PER_ANG2": null,
  "weighted_surface_energy": null,
  "weighted_work_function": null,
  "surface_anisotropy": null,
  "shape_factor": null,
  "has_reconstructed": null,
  "possible_species": null,
  "has_props": null,
  "theoretical": null,
  "database_IDs": null,
  "fields_not_requested": [
    "builder_meta",
    "nsites",
    "elements",
    "nelements",
    "composition",
    "composition_reduced",
    "chemsys",
    "symmetry",
    "property_name",
    "deprecated",
    "deprecation_reasons",
    "last_updated",
    "origins",
    "warnings",
    "task_ids",
    "uncorrected_energy_per_atom",
    "equilibrium_reaction_energy_per_atom",
    "decomposes_to",
    "xas",
    "grain_boundaries",
    "cbm",
    "vbm",
    "is_gap_direct",
    "is_metal",
    "es_source_calc_id",
    "bandstructure",
    "dos",
    "dos_energy_up",
    "dos_energy_down",
    "is_magnetic",
    "ordering",
    "total_magnetization_normalized_vol",
    "total_magnetization_normalized_formula_units",
    "num_magnetic_sites",
    "num_unique_magnetic_sites",
    "types_of_magnetic_species",
    "bulk_modulus",
    "shear_modulus",
    "universal_anisotropy",
    "homogeneous_poisson",
    "e_total",
    "e_ionic",
    "e_electronic",
    "n",
    "e_ij_max",
    "weighted_surface_energy_EV_PER_ANG2",
    "weighted_surface_energy",
    "weighted_work_function",
    "surface_anisotropy",
    "shape_factor",
    "has_reconstructed",
    "possible_species",
    "has_props",
    "theoretical",
    "database_IDs"
  ]
}
