{"builder_meta": null, "nsites": null, "elements": null, "nelements": null, "composition": null, "composition_reduced": null, "formula_pretty": "Pu2Te3", "formula_anonymous": "A2B3", "chemsys": null, "volume": 1207.4376628276468, "density": 9.580601723547101, "density_atomic": 30.18594157069117, "symmetry": null, "property_name": null, "material_id": "mp-684844", "deprecated": null, "deprecation_reasons": null, "last_updated": null, "origins": null, "warnings": null, "structure": {"@module": "pymatgen.core.structure", "@class": "Structure", "charge": 0, "lattice": {"matrix": [[19.74377224, -0.0316635, 13.93856563], [6.57070291, 6.57070291, 0.0], [0.0, 0.0, 9.29237709]], "pbc": [true, true, true], "a": 24.16818480283623, "b": 9.292377169646361, "c": 9.29237709, "alpha": 90.0, "beta": 54.7789841285365, "gamma": 54.77898374681045, "volume": 1207.4376628276468}, "properties": {}, "sites": [{"species": [{"element": "Pu", "occu": 1}], "abc": [0.999148399999999, 0.38183505, 0.24753058], "properties": {"magmom": 5.17}, "label": "Pu", "xyz": [22.23588311773539, 2.4772881388115953, 16.22684303817589]}, {"species": [{"element": "Pu", "occu": 1}], "abc": [0.08166385, 0.62750373, 0.37750373], "properties": {"magmom": 5.19}, "label": "Pu", "xyz": [5.735493039388379, 4.12055482143238, 4.6461839448650215]}, {"species": [{"element": "Pu", "occu": 1}], "abc": [0.166666999999999, 0.25, 0.6298669100000001], "properties": {"magmom": 5.203}, "label": "Pu", "xyz": [4.93331101542406, 1.6373984669455, 8.17605976208829]}, {"species": [{"element": "Pu", "occu": 1}], "abc": [0.25166915, 0.8724962700000001, 0.12249627], "properties": {"magmom": 5.19}, "label": "Pu", "xyz": [10.701812157687542, 5.724945054122121, 4.646188497279769]}, {"species": [{"element": "Pu", "occu": 1}], "abc": [0.3341846, 0.37928025, 0.25246942], "properties": {"magmom": 5.164}, "label": "Pu", "xyz": [9.090202470896031, 2.481556388298427, 7.004095033968886]}, {"species": [{"element": "Pu", "occu": 1}], "abc": [0.3341846, 0.11816495, 0.74497578], "properties": {"magmom": 5.172}, "label": "Pu", "xyz": [7.374491409340508, 0.7658453267429045, 11.580649850312177]}, {"species": [{"element": "Pu", "occu": 1}], "abc": [0.166666999999999, 0.75, 0.87013309], "properties": {"magmom": 5.213}, "label": "Pu", "xyz": [8.218662470424059, 4.922749921945499, 10.408703708622106]}, {"species": [{"element": "Pu", "occu": 1}], "abc": [0.4991484, 0.25502422, 0.62071975], "properties": {"magmom": 5.176}, "label": "Pu", "xyz": [11.530760708034896, 1.6598835991110803, 12.725374716720019]}, {"species": [{"element": "Pu", "occu": 1}], "abc": [0.58166385, 0.87750373, 0.12750373], "properties": {"magmom": 5.221}, "label": "Pu", "xyz": [17.25005488688838, 5.747398798932379, 9.29237248736502]}, {"species": [{"element": "Pu", "occu": 1}], "abc": [0.666667, 0.37013309, 0.25], "properties": {"magmom": 5.181}, "label": "Pu", "xyz": [15.59455597947437, 2.410925560995792, 11.61547600535521]}, {"species": [{"element": "Pu", "occu": 1}], "abc": [0.666667, 0.12986691, 0.75], "properties": {"magmom": 5.193}, "label": "Pu", "xyz": [14.015838291373786, 0.832207872895208, 16.26166455035521]}, {"species": [{"element": "Pu", "occu": 1}], "abc": [0.4991484, 0.7475305800000001, 0.8818350500000001], "properties": {"magmom": 5.175}, "label": "Pu", "xyz": [14.766873680880403, 4.895996571956587, 15.151756548288496]}, {"species": [{"element": "Pu", "occu": 1}], "abc": [0.75166915, 0.62249627, 0.37249627], "properties": {"magmom": 5.225}, "label": "Pu", "xyz": [18.931022550187542, 4.06643757662212, 13.938565584779768]}, {"species": [{"element": "Pu", "occu": 1}], "abc": [0.834184599999999, 0.24497578, 0.61816495], "properties": {"magmom": 5.175}, "label": "Pu", "xyz": [18.079613819041004, 1.5832498664434198, 17.37155861385628]}, {"species": [{"element": "Pu", "occu": 1}], "abc": [0.999148399999999, 0.12071975, 0.75502422], "properties": {"magmom": 5.174}, "label": "Pu", "xyz": [20.520172056179867, 0.7615770772560725, 20.9426653118326]}, {"species": [{"element": "Pu", "occu": 1}], "abc": [0.834184599999999, 0.75246942, 0.87928025], "properties": {"magmom": 5.176}, "label": "Pu", "xyz": [21.414203756195494, 4.917839803597912, 19.797940445424757]}, {"species": [{"element": "Te", "occu": 1}], "abc": [0.049346, 0.00092802, 0.35179821], "properties": {"magmom": -0.159}, "label": "Te", "xyz": [0.9803739286695782, 0.0045352766435382, 3.956854086484989]}, {"species": [{"element": "Te", "occu": 1}], "abc": [0.12023442000000001, 0.49583234000000004, 0.99772423], "properties": {"magmom": -0.168}, "label": "Te", "xyz": [5.631848003198611, 3.2541599567524395, 10.947125131144876]}, {"species": [{"element": "Te", "occu": 1}], "abc": [0.049346, 0.35103299, 0.50016279], "properties": {"magmom": -0.16}, "label": "Te", "xyz": [3.2808096738540407, 2.304971021828001, 5.335513710644461]}, {"species": [{"element": "Te", "occu": 1}], "abc": [0.283987, 0.14896701, 0.14820179], "properties": {"magmom": -0.16}, "label": "Te", "xyz": [6.585792613221879, 0.9698259437264991, 5.335518355659801]}, {"species": [{"element": "Te", "occu": 1}], "abc": [0.283987, 0.49907198, -0.00016279], "properties": {"magmom": -0.159}, "label": "Te", "xyz": [8.886228358406342, 3.2702616889109617, 3.9568587315003283]}, {"species": [{"element": "Te", "occu": 1}], "abc": [0.12023442000000001, 0.6434634, 0.64157151], "properties": {"magmom": -0.168}, "label": "Te", "xyz": [6.601887838746995, 4.224199792300824, 7.637619755275692]}, {"species": [{"element": "Te", "occu": 1}], "abc": [0.38339983, 0.0016689300000000001, 0.34809875], "properties": {"magmom": -0.187}, "label": "Te", "xyz": [7.5807249635823055, -0.001173737309618698, 8.578708542543481]}, {"species": [{"element": "Te", "occu": 1}], "abc": [0.21309858, 0.8565366, 0.50227577], "properties": {"magmom": -0.168}, "label": "Te", "xyz": [9.835417358328925, 5.621300083253676, 7.637624400999915]}, {"species": [{"element": "Te", "occu": 1}], "abc": [0.44993417, 0.49829725, 0.99833107], "properties": {"magmom": -0.18}, "label": "Te", "xyz": [12.157560966093438, 3.259916700028202, 15.548305720827763]}, {"species": [{"element": "Te", "occu": 1}], "abc": [0.38339983, 0.34813257000000003, 0.50170275], "properties": {"magmom": -0.187}, "label": "Te", "xyz": [9.857234611139498, 2.275335910247574, 10.00605483307584]}, {"species": [{"element": "Te", "occu": 1}], "abc": [0.21309858, 0.00416766, 0.85842849], "properties": {"magmom": -0.168}, "label": "Te", "xyz": [4.23475428387731, 0.020637008802060597, 10.9471297768691]}, {"species": [{"element": "Te", "occu": 1}], "abc": [0.6202344200000001, 0.14157151, 0.1434634], "properties": {"magmom": -0.171}, "label": "Te", "xyz": [13.175991456618597, 0.9105855401724241, 9.97829418056849]}, {"species": [{"element": "Te", "occu": 1}], "abc": [0.6202344200000001, 0.49772423, 0.99583234], "properties": {"magmom": -0.17}, "label": "Te", "xyz": [15.51616517032701, 3.250759253880839, 17.898827790852074]}, {"species": [{"element": "Te", "occu": 1}], "abc": [0.44993417, 0.65190125, 0.65186743], "properties": {"magmom": -0.18}, "label": "Te", "xyz": [13.166847215881077, 4.269202949815843, 12.328834929973755]}, {"species": [{"element": "Te", "occu": 1}], "abc": [0.71309858, 0.00227577, 0.3565366], "properties": {"magmom": -0.17}, "label": "Te", "xyz": [14.094209356748909, -0.007625788326339301, 13.2526438915763]}, {"species": [{"element": "Te", "occu": 1}], "abc": [0.549346, 0.85179821, 0.50092802], "properties": {"magmom": -0.157}, "label": "Te", "xyz": [16.443075282134828, 5.579518760108791, 12.311907331365042]}, {"species": [{"element": "Te", "occu": 1}], "abc": [0.783987, 0.49983721000000003, 0.99907198], "properties": {"magmom": -0.157}, "label": "Te", "xyz": [18.76314257739416, 3.259458037898781, 20.21140783077975]}, {"species": [{"element": "Te", "occu": 1}], "abc": [0.71309858, 0.35842849, 0.50416766], "properties": {"magmom": -0.171}, "label": "Te", "xyz": [16.434383070457322, 2.332547925382076, 14.624487371292716]}, {"species": [{"element": "Te", "occu": 1}], "abc": [0.549346, 0.00016279, 0.85103299], "properties": {"magmom": -0.157}, "label": "Te", "xyz": [10.847231949681758, -0.0163245723442811, 15.56521473368818]}, {"species": [{"element": "Te", "occu": 1}], "abc": [0.94993417, 0.15186743, 0.15190125000000002], "properties": {"magmom": -0.187}, "label": "Te", "xyz": [19.75315965970866, 0.9677975236434262, 14.652243468166938]}, {"species": [{"element": "Te", "occu": 1}], "abc": [0.94993417, 0.49833107, 0.99829725], "properties": {"magmom": -0.187}, "label": "Te", "xyz": [22.029669307265852, 3.2443071712006186, 22.51727426763458]}, {"species": [{"element": "Te", "occu": 1}], "abc": [0.783987, 0.64820179, 0.64896701], "properties": {"magmom": -0.157}, "label": "Te", "xyz": [19.738002154941086, 4.2343176154457085, 16.95810042845661]}, {"species": [{"element": "Te", "occu": 1}], "abc": [0.88339983, 0.84809875, 0.50166893], "properties": {"magmom": -0.181}, "label": "Te", "xyz": [23.014249964967078, 5.544633394075157, 16.975023379882657]}, {"species": [{"element": "Te", "occu": 1}], "abc": [0.88339983, 0.00170275, 0.84813257], "properties": {"magmom": -0.18}, "label": "Te", "xyz": [17.45283330475472, -0.016783266137202497, 20.194494170736665]}]}, "task_ids": null, "uncorrected_energy_per_atom": null, "energy_per_atom": -8.907540034499998, "formation_energy_per_atom": -1.126383505999993, "energy_above_hull": 0.0, "is_stable": true, "equilibrium_reaction_energy_per_atom": null, "decomposes_to": null, "xas": null, "grain_boundaries": null, "band_gap": 0.0, "cbm": null, "vbm": null, "efermi": 8.15383947, "is_gap_direct": null, "is_metal": null, "es_source_calc_id": null, "bandstructure": null, "dos": null, "dos_energy_up": null, "dos_energy_down": null, "is_magnetic": null, "ordering": null, "total_magnetization": 79.9998873, "total_magnetization_normalized_vol": null, "total_magnetization_normalized_formula_units": null, "num_magnetic_sites": null, "num_unique_magnetic_sites": null, "types_of_magnetic_species": null, "bulk_modulus": null, "shear_modulus": null, "universal_anisotropy": null, "homogeneous_poisson": null, "e_total": null, "e_ionic": null, "e_electronic": null, "n": null, "e_ij_max": null, "weighted_surface_energy_EV_PER_ANG2": null, "weighted_surface_energy": null, "weighted_work_function": null, "surface_anisotropy": null, "shape_factor": null, "has_reconstructed": null, "possible_species": null, "has_props": null, "theoretical": null, "database_IDs": null, "fields_not_requested": ["builder_meta", "nsites", "elements", "nelements", "composition", "composition_reduced", "chemsys", "symmetry", "property_name", "deprecated", "deprecation_reasons", "last_updated", "origins", "warnings", "task_ids", "uncorrected_energy_per_atom", "equilibrium_reaction_energy_per_atom", "decomposes_to", "xas", "grain_boundaries", "cbm", "vbm", "is_gap_direct", "is_metal", "es_source_calc_id", "bandstructure", "dos", "dos_energy_up", "dos_energy_down", "is_magnetic", "ordering", "total_magnetization_normalized_vol", "total_magnetization_normalized_formula_units", "num_magnetic_sites", "num_unique_magnetic_sites", "types_of_magnetic_species", "bulk_modulus", "shear_modulus", "universal_anisotropy", "homogeneous_poisson", "e_total", "e_ionic", "e_electronic", "n", "e_ij_max", "weighted_surface_energy_EV_PER_ANG2", "weighted_surface_energy", "weighted_work_function", "surface_anisotropy", "shape_factor", "has_reconstructed", "possible_species", "has_props", "theoretical", "database_IDs"]}