{"builder_meta": null, "nsites": null, "elements": null, "nelements": null, "composition": null, "composition_reduced": null, "formula_pretty": "Pu3Au", "formula_anonymous": "AB3", "chemsys": null, "volume": 200.36864193179855, "density": 15.397472024738574, "density_atomic": 25.04608024147482, "symmetry": null, "property_name": null, "material_id": "mp-1186840", "deprecated": null, "deprecation_reasons": null, "last_updated": null, "origins": null, "warnings": null, "structure": {"@module": "pymatgen.core.structure", "@class": "Structure", "charge": 0, "lattice": {"matrix": [[6.59494, -0.002828, -0.000234], [-3.29992, 5.705507, -0.000352999999999], [-0.00019, -0.00044, 5.326383]], "pbc": [true, true, true], "a": 6.594940610493775, "b": 6.5910759560225065, "c": 5.326383021562475, "alpha": 90.00614247395147, "beta": 90.00407475005564, "gamma": 120.06856438927362, "volume": 200.36864193179855}, "properties": {}, "sites": [{"species": [{"element": "Pu", "occu": 1}], "abc": [0.172373, 0.344592, 0.250013], "properties": {"magmom": 5.625}, "label": "Pu", "xyz": [-0.0003839424900001061, 1.96547459158, 1.3315030167210002]}, {"species": [{"element": "Pu", "occu": 1}], "abc": [0.655374, 0.8276249999999991, 0.250003], "properties": {"magmom": 5.626}, "label": "Pu", "xyz": [1.5910084169900034, 4.720056831882994, 1.3311662200080008]}, {"species": [{"element": "Pu", "occu": 1}], "abc": [0.172301999999999, 0.827718, 0.249994], "properties": {"magmom": 5.62}, "label": "Pu", "xyz": [-1.5951293295400064, 4.721953575609999, 1.3312312885800008]}, {"species": [{"element": "Pu", "occu": 1}], "abc": [0.8276, 0.6552, 0.749984], "properties": {"magmom": 5.625}, "label": "Pu", "xyz": [3.2957222630399996, 3.73557774064, 3.9942770838720008]}, {"species": [{"element": "Pu", "occu": 1}], "abc": [0.344746, 0.172436, 0.749996], "properties": {"magmom": 5.628}, "label": "Pu", "xyz": [1.7044116808799998, 0.982529865124, 3.994624403996]}, {"species": [{"element": "Pu", "occu": 1}], "abc": [0.827705999999999, 0.172453, 0.750007], "properties": {"magmom": 5.62}, "label": "Pu", "xyz": [4.889447802549993, 0.981261043023, 3.994569975568]}, {"species": [{"element": "Au", "occu": 1}], "abc": [0.333291, 0.666677, 0.750035999999999], "properties": {"magmom": 0.1}, "label": "Au", "xyz": [-0.002089125139999869, 3.802457727451, 3.9946656727129954]}, {"species": [{"element": "Au", "occu": 1}], "abc": [0.666604, 0.333296, 0.249963], "properties": {"magmom": 0.1}, "label": "Au", "xyz": [3.2963157544700006, 1.89962752124, 1.3311250350050003]}]}, "task_ids": null, "uncorrected_energy_per_atom": null, "energy_per_atom": -77.56796655291667, "formation_energy_per_atom": -0.15446540197918002, "energy_above_hull": 0.033153197499999, "is_stable": false, "equilibrium_reaction_energy_per_atom": null, "decomposes_to": null, "xas": null, "grain_boundaries": null, "band_gap": 0.0, "cbm": null, "vbm": null, "efermi": 10.41440658, "is_gap_direct": null, "is_metal": null, "es_source_calc_id": null, "bandstructure": null, "dos": null, "dos_energy_up": null, "dos_energy_down": null, "is_magnetic": null, "ordering": null, "total_magnetization": 36.1499137, "total_magnetization_normalized_vol": null, "total_magnetization_normalized_formula_units": null, "num_magnetic_sites": null, "num_unique_magnetic_sites": null, "types_of_magnetic_species": null, "bulk_modulus": null, "shear_modulus": null, "universal_anisotropy": null, "homogeneous_poisson": null, "e_total": null, "e_ionic": null, "e_electronic": null, "n": null, "e_ij_max": null, "weighted_surface_energy_EV_PER_ANG2": null, "weighted_surface_energy": null, "weighted_work_function": null, "surface_anisotropy": null, "shape_factor": null, "has_reconstructed": null, "possible_species": null, "has_props": null, "theoretical": null, "database_IDs": null, "fields_not_requested": ["builder_meta", "nsites", "elements", "nelements", "composition", "composition_reduced", "chemsys", "symmetry", "property_name", "deprecated", "deprecation_reasons", "last_updated", "origins", "warnings", "task_ids", "uncorrected_energy_per_atom", "equilibrium_reaction_energy_per_atom", "decomposes_to", "xas", "grain_boundaries", "cbm", "vbm", "is_gap_direct", "is_metal", "es_source_calc_id", "bandstructure", "dos", "dos_energy_up", "dos_energy_down", "is_magnetic", "ordering", "total_magnetization_normalized_vol", "total_magnetization_normalized_formula_units", "num_magnetic_sites", "num_unique_magnetic_sites", "types_of_magnetic_species", "bulk_modulus", "shear_modulus", "universal_anisotropy", "homogeneous_poisson", "e_total", "e_ionic", "e_electronic", "n", "e_ij_max", "weighted_surface_energy_EV_PER_ANG2", "weighted_surface_energy", "weighted_work_function", "surface_anisotropy", "shape_factor", "has_reconstructed", "possible_species", "has_props", "theoretical", "database_IDs"]}