{
  "builder_meta": null,
  "nsites": null,
  "elements": null,
  "nelements": null,
  "composition": null,
  "composition_reduced": null,
  "formula_pretty": "Pu3Co",
  "formula_anonymous": "AB3",
  "chemsys": null,
  "volume": 170.91249573065852,
  "density": 15.368981229295342,
  "density_atomic": 21.364061966332315,
  "symmetry": null,
  "property_name": null,
  "material_id": "mp-510140",
  "deprecated": null,
  "deprecation_reasons": null,
  "last_updated": null,
  "origins": null,
  "warnings": null,
  "structure": {
    "@module": "pymatgen.core.structure",
    "@class": "Structure",
    "charge": 0,
    "lattice": {
      "matrix": [
        [1.701668999999999, -5.563619, 0.0],
        [1.701668999999999, 5.563619, 0.0],
        [0.0, 0.0, 9.026333]
      ],
      "pbc": [true, true, true],
      "a": 5.818035214977819,
      "b": 5.818035214977819,
      "c": 9.026333,
      "alpha": 90.0,
      "beta": 90.0,
      "gamma": 145.9868158202904,
      "volume": 170.91249573065843
    },
    "properties": {},
    "sites": [
      {
        "species": [{ "element": "Pu", "occu": 1 }],
        "abc": [0.922562, 0.07743799999999901, 0.25],
        "properties": { "magmom": 5.106 },
        "label": "Pu",
        "xyz": [1.7016689999999972, -4.701947943756005, 2.25658325]
      },
      {
        "species": [{ "element": "Pu", "occu": 1 }],
        "abc": [0.07743799999999901, 0.922562, 0.75],
        "properties": { "magmom": 5.106 },
        "label": "Pu",
        "xyz": [1.7016689999999972, 4.701947943756005, 6.769749749999999]
      },
      {
        "species": [{ "element": "Pu", "occu": 1 }],
        "abc": [0.632904999999999, 0.367095, 0.054414],
        "properties": { "magmom": -0.41200000000000003 },
        "label": "Pu",
        "xyz": [1.7016689999999974, -1.4788655663899948, 0.49115888386199996]
      },
      {
        "species": [{ "element": "Pu", "occu": 1 }],
        "abc": [0.367095, 0.632904999999999, 0.945585999999999],
        "properties": { "magmom": -0.41200000000000003 },
        "label": "Pu",
        "xyz": [1.7016689999999974, 1.4788655663899948, 8.535174116137991]
      },
      {
        "species": [{ "element": "Pu", "occu": 1 }],
        "abc": [0.367095, 0.632904999999999, 0.554414],
        "properties": { "magmom": -0.41200000000000003 },
        "label": "Pu",
        "xyz": [1.7016689999999974, 1.4788655663899948, 5.004325383862]
      },
      {
        "species": [{ "element": "Pu", "occu": 1 }],
        "abc": [0.632904999999999, 0.367095, 0.445586],
        "properties": { "magmom": -0.41200000000000003 },
        "label": "Pu",
        "xyz": [1.7016689999999974, -1.4788655663899948, 4.022007616138]
      },
      {
        "species": [{ "element": "Co", "occu": 1 }],
        "abc": [0.220964, 0.779036, 0.25],
        "properties": { "magmom": -0.068 },
        "label": "Co",
        "xyz": [1.7016689999999988, 3.1048999825679995, 2.25658325]
      },
      {
        "species": [{ "element": "Co", "occu": 1 }],
        "abc": [0.779036, 0.220964, 0.75],
        "properties": { "magmom": -0.068 },
        "label": "Co",
        "xyz": [1.7016689999999988, -3.1048999825679995, 6.769749749999999]
      }
    ]
  },
  "task_ids": null,
  "uncorrected_energy_per_atom": null,
  "energy_per_atom": -67.31031917640625,
  "formation_energy_per_atom": 0.7654997195312491,
  "energy_above_hull": 0.8028899343750021,
  "is_stable": false,
  "equilibrium_reaction_energy_per_atom": null,
  "decomposes_to": null,
  "xas": null,
  "grain_boundaries": null,
  "band_gap": 0.0,
  "cbm": null,
  "vbm": null,
  "efermi": 11.64413436,
  "is_gap_direct": null,
  "is_metal": null,
  "es_source_calc_id": null,
  "bandstructure": null,
  "dos": null,
  "dos_energy_up": null,
  "dos_energy_down": null,
  "is_magnetic": null,
  "ordering": null,
  "total_magnetization": 9.0059225,
  "total_magnetization_normalized_vol": null,
  "total_magnetization_normalized_formula_units": null,
  "num_magnetic_sites": null,
  "num_unique_magnetic_sites": null,
  "types_of_magnetic_species": null,
  "bulk_modulus": null,
  "shear_modulus": null,
  "universal_anisotropy": null,
  "homogeneous_poisson": null,
  "e_total": null,
  "e_ionic": null,
  "e_electronic": null,
  "n": null,
  "e_ij_max": null,
  "weighted_surface_energy_EV_PER_ANG2": null,
  "weighted_surface_energy": null,
  "weighted_work_function": null,
  "surface_anisotropy": null,
  "shape_factor": null,
  "has_reconstructed": null,
  "possible_species": null,
  "has_props": null,
  "theoretical": null,
  "database_IDs": null,
  "fields_not_requested": [
    "builder_meta",
    "nsites",
    "elements",
    "nelements",
    "composition",
    "composition_reduced",
    "chemsys",
    "symmetry",
    "property_name",
    "deprecated",
    "deprecation_reasons",
    "last_updated",
    "origins",
    "warnings",
    "task_ids",
    "uncorrected_energy_per_atom",
    "equilibrium_reaction_energy_per_atom",
    "decomposes_to",
    "xas",
    "grain_boundaries",
    "cbm",
    "vbm",
    "is_gap_direct",
    "is_metal",
    "es_source_calc_id",
    "bandstructure",
    "dos",
    "dos_energy_up",
    "dos_energy_down",
    "is_magnetic",
    "ordering",
    "total_magnetization_normalized_vol",
    "total_magnetization_normalized_formula_units",
    "num_magnetic_sites",
    "num_unique_magnetic_sites",
    "types_of_magnetic_species",
    "bulk_modulus",
    "shear_modulus",
    "universal_anisotropy",
    "homogeneous_poisson",
    "e_total",
    "e_ionic",
    "e_electronic",
    "n",
    "e_ij_max",
    "weighted_surface_energy_EV_PER_ANG2",
    "weighted_surface_energy",
    "weighted_work_function",
    "surface_anisotropy",
    "shape_factor",
    "has_reconstructed",
    "possible_species",
    "has_props",
    "theoretical",
    "database_IDs"
  ]
}
