{"builder_meta": null, "nsites": null, "elements": null, "nelements": null, "composition": null, "composition_reduced": null, "formula_pretty": "Pu3H", "formula_anonymous": "AB3", "chemsys": null, "volume": 106.22252682753265, "density": 22.917706005511747, "density_atomic": 13.27781585344158, "symmetry": null, "property_name": null, "material_id": "mp-1186810", "deprecated": null, "deprecation_reasons": null, "last_updated": null, "origins": null, "warnings": null, "structure": {"@module": "pymatgen.core.structure", "@class": "Structure", "charge": 0, "lattice": {"matrix": [[6.04569, 0.0, 0.0], [-3.022845, 5.235721, 0.0], [0.0, 0.0, 3.355786]], "pbc": [true, true, true], "a": 6.04569, "b": 6.045689893127665, "c": 3.355786, "alpha": 90.0, "beta": 90.0, "gamma": 120.00000058476509, "volume": 106.22252682753265}, "properties": {}, "sites": [{"species": [{"element": "Pu", "occu": 1}], "abc": [0.183372999999999, 0.366747, 0.249998], "properties": {"magmom": 0.046}, "label": "Pu", "xyz": [-3.0228450058622514e-06, 1.920184969587, 0.838939788428]}, {"species": [{"element": "Pu", "occu": 1}], "abc": [0.633251, 0.816626, 0.249998], "properties": {"magmom": 0.053}, "label": "Pu", "xyz": [1.3599054172199998, 4.275625897346, 0.838939788428]}, {"species": [{"element": "Pu", "occu": 1}], "abc": [0.183372999999999, 0.816626, 0.249998], "properties": {"magmom": 0.075}, "label": "Pu", "xyz": [-1.359917508600006, 4.275625897346, 0.838939788428]}, {"species": [{"element": "Pu", "occu": 1}], "abc": [0.816627, 0.633254, 0.750002], "properties": {"magmom": 0.052000000000000005}, "label": "Pu", "xyz": [3.0228450000000002, 3.315541266134, 2.516846211572]}, {"species": [{"element": "Pu", "occu": 1}], "abc": [0.366745999999999, 0.183371999999999, 0.750002], "properties": {"magmom": 0.058}, "label": "Pu", "xyz": [1.662927491399997, 0.9600846312119948, 2.516846211572]}, {"species": [{"element": "Pu", "occu": 1}], "abc": [0.816624999999999, 0.183371999999999, 0.750002], "properties": {"magmom": 0.078}, "label": "Pu", "xyz": [4.382756462909997, 0.9600846312119948, 2.516846211572]}, {"species": [{"element": "H", "occu": 1}], "abc": [0.333333999999999, 0.666667, 0.750002], "properties": {"magmom": -0.001}, "label": "H", "xyz": [3.022844994315932e-06, 3.490482411907, 2.516846211572]}, {"species": [{"element": "H", "occu": 1}], "abc": [0.666667, 0.333333, 0.249998], "properties": {"magmom": -0.001}, "label": "H", "xyz": [3.0228480228449994, 1.745238588093, 0.838939788428]}]}, "task_ids": null, "uncorrected_energy_per_atom": null, "energy_per_atom": -65.36122849578125, "formation_energy_per_atom": 0.269810717968752, "energy_above_hull": 0.496995291250001, "is_stable": false, "equilibrium_reaction_energy_per_atom": null, "decomposes_to": null, "xas": null, "grain_boundaries": null, "band_gap": 0.0, "cbm": null, "vbm": null, "efermi": 18.01995579, "is_gap_direct": null, "is_metal": null, "es_source_calc_id": null, "bandstructure": null, "dos": null, "dos_energy_up": null, "dos_energy_down": null, "is_magnetic": null, "ordering": null, "total_magnetization": 0.3631859, "total_magnetization_normalized_vol": null, "total_magnetization_normalized_formula_units": null, "num_magnetic_sites": null, "num_unique_magnetic_sites": null, "types_of_magnetic_species": null, "bulk_modulus": null, "shear_modulus": null, "universal_anisotropy": null, "homogeneous_poisson": null, "e_total": null, "e_ionic": null, "e_electronic": null, "n": null, "e_ij_max": null, "weighted_surface_energy_EV_PER_ANG2": null, "weighted_surface_energy": null, "weighted_work_function": null, "surface_anisotropy": null, "shape_factor": null, "has_reconstructed": null, "possible_species": null, "has_props": null, "theoretical": null, "database_IDs": null, "fields_not_requested": ["builder_meta", "nsites", "elements", "nelements", "composition", "composition_reduced", "chemsys", "symmetry", "property_name", "deprecated", "deprecation_reasons", "last_updated", "origins", "warnings", "task_ids", "uncorrected_energy_per_atom", "equilibrium_reaction_energy_per_atom", "decomposes_to", "xas", "grain_boundaries", "cbm", "vbm", "is_gap_direct", "is_metal", "es_source_calc_id", "bandstructure", "dos", "dos_energy_up", "dos_energy_down", "is_magnetic", "ordering", "total_magnetization_normalized_vol", "total_magnetization_normalized_formula_units", "num_magnetic_sites", "num_unique_magnetic_sites", "types_of_magnetic_species", "bulk_modulus", "shear_modulus", "universal_anisotropy", "homogeneous_poisson", "e_total", "e_ionic", "e_electronic", "n", "e_ij_max", "weighted_surface_energy_EV_PER_ANG2", "weighted_surface_energy", "weighted_work_function", "surface_anisotropy", "shape_factor", "has_reconstructed", "possible_species", "has_props", "theoretical", "database_IDs"]}