{
  "builder_meta": null,
  "nsites": null,
  "elements": null,
  "nelements": null,
  "composition": null,
  "composition_reduced": null,
  "formula_pretty": "Pu3I",
  "formula_anonymous": "AB3",
  "chemsys": null,
  "volume": 223.44823765516486,
  "density": 12.765770201449612,
  "density_atomic": 27.931029706895607,
  "symmetry": null,
  "property_name": null,
  "material_id": "mp-1186821",
  "deprecated": null,
  "deprecation_reasons": null,
  "last_updated": null,
  "origins": null,
  "warnings": null,
  "structure": {
    "@module": "pymatgen.core.structure",
    "@class": "Structure",
    "charge": 0.0,
    "lattice": {
      "matrix": [
        [3.35085646, -5.80427773, 0.0],
        [3.35078033, 5.8042336500000005, 0.0],
        [0.0, 0.0, 5.74446399]
      ],
      "pbc": [true, true, true],
      "a": 6.702080198154725,
      "b": 6.702003960287343,
      "c": 5.74446399,
      "alpha": 90.0,
      "beta": 90.0,
      "gamma": 120.00400078966965,
      "volume": 223.44823765516486
    },
    "properties": {},
    "sites": [
      {
        "species": [{ "element": "Pu", "occu": 1 }],
        "abc": [0.16356508, 0.32715183000000003, 0.25],
        "properties": { "magmom": 5.822 },
        "label": "Pu",
        "xyz": [1.644297021835921, 0.9494885090954114, 1.4361159975]
      },
      {
        "species": [{ "element": "Pu", "occu": 1 }],
        "abc": [0.6728737300000001, 0.83640943, 0.25],
        "properties": { "magmom": 5.822 },
        "label": "Pu",
        "xyz": [5.057327550805308, 0.9491697526422871, 1.4361159975]
      },
      {
        "species": [{ "element": "Pu", "occu": 1 }],
        "abc": [0.16353932000000002, 0.83637253, 0.25],
        "properties": { "magmom": 5.822 },
        "label": "Pu",
        "xyz": [3.3504974089623425, 3.9052739495062916, 1.4361159975]
      },
      {
        "species": [{ "element": "Pu", "occu": 1 }],
        "abc": [0.83641199, 0.67286314, 0.75],
        "properties": { "magmom": 5.822 },
        "label": "Pu",
        "xyz": [5.057313094206991, -0.949312607629321, 4.3083479925]
      },
      {
        "species": [{ "element": "Pu", "occu": 1 }],
        "abc": [0.32716023, 0.16358561, 0.75],
        "properties": { "magmom": 5.822 },
        "label": "Pu",
        "xyz": [1.644406414409637, -0.9494397349129013, 4.3083479925]
      },
      {
        "species": [{ "element": "Pu", "occu": 1 }],
        "abc": [0.83638763, 0.16356484000000002, 0.75],
        "properties": { "magmom": 5.822 },
        "label": "Pu",
        "xyz": [3.3506847416011873, -3.9052575461716144, 4.3083479925]
      },
      {
        "species": [{ "element": "I", "occu": 1 }],
        "abc": [0.33342057, 0.6667268, 0.75],
        "properties": { "magmom": -0.002 },
        "label": "I",
        "xyz": [3.3512995178052263, 1.9345725387419137, 4.3083479925]
      },
      {
        "species": [{ "element": "I", "occu": 1 }],
        "abc": [0.66664146, 0.33332582, 0.25],
        "properties": { "magmom": -0.002 },
        "label": "I",
        "xyz": [3.3507214438819526, -1.9346712393148429, 1.4361159975]
      }
    ]
  },
  "task_ids": null,
  "uncorrected_energy_per_atom": null,
  "energy_per_atom": -11.116175618749999,
  "formation_energy_per_atom": 0.318276895937509,
  "energy_above_hull": 0.7436647766666761,
  "is_stable": false,
  "equilibrium_reaction_energy_per_atom": null,
  "decomposes_to": null,
  "xas": null,
  "grain_boundaries": null,
  "band_gap": 0.0,
  "cbm": null,
  "vbm": null,
  "efermi": 11.58601129,
  "is_gap_direct": null,
  "is_metal": null,
  "es_source_calc_id": null,
  "bandstructure": null,
  "dos": null,
  "dos_energy_up": null,
  "dos_energy_down": null,
  "is_magnetic": null,
  "ordering": null,
  "total_magnetization": 38.1204555,
  "total_magnetization_normalized_vol": null,
  "total_magnetization_normalized_formula_units": null,
  "num_magnetic_sites": null,
  "num_unique_magnetic_sites": null,
  "types_of_magnetic_species": null,
  "bulk_modulus": null,
  "shear_modulus": null,
  "universal_anisotropy": null,
  "homogeneous_poisson": null,
  "e_total": null,
  "e_ionic": null,
  "e_electronic": null,
  "n": null,
  "e_ij_max": null,
  "weighted_surface_energy_EV_PER_ANG2": null,
  "weighted_surface_energy": null,
  "weighted_work_function": null,
  "surface_anisotropy": null,
  "shape_factor": null,
  "has_reconstructed": null,
  "possible_species": null,
  "has_props": null,
  "theoretical": null,
  "database_IDs": null,
  "fields_not_requested": [
    "builder_meta",
    "nsites",
    "elements",
    "nelements",
    "composition",
    "composition_reduced",
    "chemsys",
    "symmetry",
    "property_name",
    "deprecated",
    "deprecation_reasons",
    "last_updated",
    "origins",
    "warnings",
    "task_ids",
    "uncorrected_energy_per_atom",
    "equilibrium_reaction_energy_per_atom",
    "decomposes_to",
    "xas",
    "grain_boundaries",
    "cbm",
    "vbm",
    "is_gap_direct",
    "is_metal",
    "es_source_calc_id",
    "bandstructure",
    "dos",
    "dos_energy_up",
    "dos_energy_down",
    "is_magnetic",
    "ordering",
    "total_magnetization_normalized_vol",
    "total_magnetization_normalized_formula_units",
    "num_magnetic_sites",
    "num_unique_magnetic_sites",
    "types_of_magnetic_species",
    "bulk_modulus",
    "shear_modulus",
    "universal_anisotropy",
    "homogeneous_poisson",
    "e_total",
    "e_ionic",
    "e_electronic",
    "n",
    "e_ij_max",
    "weighted_surface_energy_EV_PER_ANG2",
    "weighted_surface_energy",
    "weighted_work_function",
    "surface_anisotropy",
    "shape_factor",
    "has_reconstructed",
    "possible_species",
    "has_props",
    "theoretical",
    "database_IDs"
  ]
}
