{
  "builder_meta": null,
  "nsites": null,
  "elements": null,
  "nelements": null,
  "composition": null,
  "composition_reduced": null,
  "formula_pretty": "Pu3Mg",
  "formula_anonymous": "AB3",
  "chemsys": null,
  "volume": 209.89882803588662,
  "density": 11.966469851372343,
  "density_atomic": 26.237353504485828,
  "symmetry": null,
  "property_name": null,
  "material_id": "mp-1186811",
  "deprecated": null,
  "deprecation_reasons": null,
  "last_updated": null,
  "origins": null,
  "warnings": null,
  "structure": {
    "@module": "pymatgen.core.structure",
    "@class": "Structure",
    "charge": 0,
    "lattice": {
      "matrix": [
        [3.355174, -5.811332, 0.0],
        [3.355174, 5.811332, 0.0],
        [0.0, 0.0, 5.382565]
      ],
      "pbc": [true, true, true],
      "a": 6.71034814182543,
      "b": 6.71034814182543,
      "c": 5.382565,
      "alpha": 90.0,
      "beta": 90.0,
      "gamma": 120.00000139830226,
      "volume": 209.89882803588662
    },
    "properties": {},
    "sites": [
      {
        "species": [{ "element": "Pu", "occu": 1 }],
        "abc": [0.168046, 0.336093, 0.25],
        "properties": { "magmom": 5.57 },
        "label": "Pu",
        "xyz": [1.6914740651859999, 0.9765769086039999, 1.34564125]
      },
      {
        "species": [{ "element": "Pu", "occu": 1 }],
        "abc": [0.663907, 0.831954, 0.25],
        "properties": { "magmom": 5.569 },
        "label": "Pu",
        "xyz": [5.018873934814, 0.9765769086039997, 1.34564125]
      },
      {
        "species": [{ "element": "Pu", "occu": 1 }],
        "abc": [0.168046, 0.831954, 0.25],
        "properties": { "magmom": 5.569 },
        "label": "Pu",
        "xyz": [3.355174, 3.858189805456, 1.34564125]
      },
      {
        "species": [{ "element": "Pu", "occu": 1 }],
        "abc": [0.831954, 0.168046, 0.75],
        "properties": { "magmom": 5.569 },
        "label": "Pu",
        "xyz": [3.355174, -3.858189805456, 4.03692375]
      },
      {
        "species": [{ "element": "Pu", "occu": 1 }],
        "abc": [0.336093, 0.168046, 0.75],
        "properties": { "magmom": 5.569 },
        "label": "Pu",
        "xyz": [1.6914740651859999, -0.9765769086039999, 4.03692375]
      },
      {
        "species": [{ "element": "Pu", "occu": 1 }],
        "abc": [0.831954, 0.663907, 0.75],
        "properties": { "magmom": 5.57 },
        "label": "Pu",
        "xyz": [5.018873934814, -0.9765769086039997, 4.03692375]
      },
      {
        "species": [{ "element": "Mg", "occu": 1 }],
        "abc": [0.666667, 0.333333, 0.25],
        "properties": { "magmom": -0.003 },
        "label": "Mg",
        "xyz": [3.355174, -1.9371145408880002, 1.34564125]
      },
      {
        "species": [{ "element": "Mg", "occu": 1 }],
        "abc": [0.333333, 0.666667, 0.75],
        "properties": { "magmom": -0.003 },
        "label": "Mg",
        "xyz": [3.355174, 1.9371145408880002, 4.03692375]
      }
    ]
  },
  "task_ids": null,
  "uncorrected_energy_per_atom": null,
  "energy_per_atom": -65.5966986934375,
  "formation_energy_per_atom": 0.21288831625000101,
  "energy_above_hull": 0.21288831625000101,
  "is_stable": false,
  "equilibrium_reaction_energy_per_atom": null,
  "decomposes_to": null,
  "xas": null,
  "grain_boundaries": null,
  "band_gap": 0.0,
  "cbm": null,
  "vbm": null,
  "efermi": 9.59365102,
  "is_gap_direct": null,
  "is_metal": null,
  "es_source_calc_id": null,
  "bandstructure": null,
  "dos": null,
  "dos_energy_up": null,
  "dos_energy_down": null,
  "is_magnetic": null,
  "ordering": null,
  "total_magnetization": 35.9689641,
  "total_magnetization_normalized_vol": null,
  "total_magnetization_normalized_formula_units": null,
  "num_magnetic_sites": null,
  "num_unique_magnetic_sites": null,
  "types_of_magnetic_species": null,
  "bulk_modulus": null,
  "shear_modulus": null,
  "universal_anisotropy": null,
  "homogeneous_poisson": null,
  "e_total": null,
  "e_ionic": null,
  "e_electronic": null,
  "n": null,
  "e_ij_max": null,
  "weighted_surface_energy_EV_PER_ANG2": null,
  "weighted_surface_energy": null,
  "weighted_work_function": null,
  "surface_anisotropy": null,
  "shape_factor": null,
  "has_reconstructed": null,
  "possible_species": null,
  "has_props": null,
  "theoretical": null,
  "database_IDs": null,
  "fields_not_requested": [
    "builder_meta",
    "nsites",
    "elements",
    "nelements",
    "composition",
    "composition_reduced",
    "chemsys",
    "symmetry",
    "property_name",
    "deprecated",
    "deprecation_reasons",
    "last_updated",
    "origins",
    "warnings",
    "task_ids",
    "uncorrected_energy_per_atom",
    "equilibrium_reaction_energy_per_atom",
    "decomposes_to",
    "xas",
    "grain_boundaries",
    "cbm",
    "vbm",
    "is_gap_direct",
    "is_metal",
    "es_source_calc_id",
    "bandstructure",
    "dos",
    "dos_energy_up",
    "dos_energy_down",
    "is_magnetic",
    "ordering",
    "total_magnetization_normalized_vol",
    "total_magnetization_normalized_formula_units",
    "num_magnetic_sites",
    "num_unique_magnetic_sites",
    "types_of_magnetic_species",
    "bulk_modulus",
    "shear_modulus",
    "universal_anisotropy",
    "homogeneous_poisson",
    "e_total",
    "e_ionic",
    "e_electronic",
    "n",
    "e_ij_max",
    "weighted_surface_energy_EV_PER_ANG2",
    "weighted_surface_energy",
    "weighted_work_function",
    "surface_anisotropy",
    "shape_factor",
    "has_reconstructed",
    "possible_species",
    "has_props",
    "theoretical",
    "database_IDs"
  ]
}
