{
  "builder_meta": null,
  "nsites": null,
  "elements": null,
  "nelements": null,
  "composition": null,
  "composition_reduced": null,
  "formula_pretty": "Pu3O2",
  "formula_anonymous": "A2B3",
  "chemsys": null,
  "volume": 186.32960212577595,
  "density": 13.617265745881404,
  "density_atomic": 18.632960212577593,
  "symmetry": null,
  "property_name": null,
  "material_id": "mp-867185",
  "deprecated": null,
  "deprecation_reasons": null,
  "last_updated": null,
  "origins": null,
  "warnings": null,
  "structure": {
    "@module": "pymatgen.core.structure",
    "@class": "Structure",
    "charge": 0,
    "lattice": {
      "matrix": [
        [5.913928, -3.088564, 0.0],
        [5.913928, 3.088564, 0.0],
        [4.300918, 0.0, 5.100576]
      ],
      "pbc": [true, true, true],
      "a": 6.671864205098902,
      "b": 6.671864205098902,
      "c": 6.671864145386955,
      "alpha": 55.151854433500716,
      "beta": 55.151854433500716,
      "gamma": 55.15185883518067,
      "volume": 186.32960212577595
    },
    "properties": {},
    "sites": [
      {
        "species": [{ "element": "Pu", "occu": 1 }],
        "abc": [0.918064999999999, 0.25, 0.581935],
        "properties": { "magmom": 5.62 },
        "label": "Pu",
        "xyz": [9.410707025649995, -2.063361508659997, 2.96820369456]
      },
      {
        "species": [{ "element": "Pu", "occu": 1 }],
        "abc": [0.25, 0.581935, 0.918064999999999],
        "properties": { "magmom": 5.62 },
        "label": "Pu",
        "xyz": [8.868525974349996, 1.02520249134, 4.682660305439995]
      },
      {
        "species": [{ "element": "Pu", "occu": 1 }],
        "abc": [0.581935, 0.918064999999999, 0.25],
        "properties": { "magmom": 5.62 },
        "label": "Pu",
        "xyz": [9.946121499999995, 1.0381590173199968, 1.275144]
      },
      {
        "species": [{ "element": "Pu", "occu": 1 }],
        "abc": [0.418064999999999, 0.081935, 0.75],
        "properties": { "magmom": 5.62 },
        "label": "Pu",
        "xyz": [6.182652499999994, -1.0381590173199968, 3.825432]
      },
      {
        "species": [{ "element": "Pu", "occu": 1 }],
        "abc": [0.75, 0.418064999999999, 0.081935],
        "properties": { "magmom": 5.62 },
        "label": "Pu",
        "xyz": [7.260248025649996, -1.025202491340003, 0.41791569456]
      },
      {
        "species": [{ "element": "Pu", "occu": 1 }],
        "abc": [0.081935, 0.75, 0.418064999999999],
        "properties": { "magmom": 5.62 },
        "label": "Pu",
        "xyz": [6.718066974349997, 2.06336150866, 2.1323723054399952]
      },
      {
        "species": [{ "element": "O", "occu": 1 }],
        "abc": [0.837675, 0.837675, 0.837675],
        "properties": { "magmom": -0.09 },
        "label": "O",
        "xyz": [13.510670760450001, 0.0, 4.2726250008]
      },
      {
        "species": [{ "element": "O", "occu": 1 }],
        "abc": [0.662324999999999, 0.662324999999999, 0.662324999999999],
        "properties": { "magmom": -0.09 },
        "label": "O",
        "xyz": [10.682490239549985, 0.0, 3.3782389991999953]
      },
      {
        "species": [{ "element": "O", "occu": 1 }],
        "abc": [0.337675, 0.337675, 0.337675],
        "properties": { "magmom": -0.09 },
        "label": "O",
        "xyz": [5.44628376045, 0.0, 1.7223370008]
      },
      {
        "species": [{ "element": "O", "occu": 1 }],
        "abc": [0.162325, 0.162325, 0.162325],
        "properties": { "magmom": -0.09 },
        "label": "O",
        "xyz": [2.61810323955, 0.0, 0.8279509992]
      }
    ]
  },
  "task_ids": null,
  "uncorrected_energy_per_atom": null,
  "energy_per_atom": -12.681026483,
  "formation_energy_per_atom": -1.859082592249993,
  "energy_above_hull": 0.34428608941667305,
  "is_stable": false,
  "equilibrium_reaction_energy_per_atom": null,
  "decomposes_to": null,
  "xas": null,
  "grain_boundaries": null,
  "band_gap": 0.0,
  "cbm": null,
  "vbm": null,
  "efermi": 11.42290418,
  "is_gap_direct": null,
  "is_metal": null,
  "es_source_calc_id": null,
  "bandstructure": null,
  "dos": null,
  "dos_energy_up": null,
  "dos_energy_down": null,
  "is_magnetic": null,
  "ordering": null,
  "total_magnetization": 36.2463849,
  "total_magnetization_normalized_vol": null,
  "total_magnetization_normalized_formula_units": null,
  "num_magnetic_sites": null,
  "num_unique_magnetic_sites": null,
  "types_of_magnetic_species": null,
  "bulk_modulus": null,
  "shear_modulus": null,
  "universal_anisotropy": null,
  "homogeneous_poisson": null,
  "e_total": null,
  "e_ionic": null,
  "e_electronic": null,
  "n": null,
  "e_ij_max": null,
  "weighted_surface_energy_EV_PER_ANG2": null,
  "weighted_surface_energy": null,
  "weighted_work_function": null,
  "surface_anisotropy": null,
  "shape_factor": null,
  "has_reconstructed": null,
  "possible_species": null,
  "has_props": null,
  "theoretical": null,
  "database_IDs": null,
  "fields_not_requested": [
    "builder_meta",
    "nsites",
    "elements",
    "nelements",
    "composition",
    "composition_reduced",
    "chemsys",
    "symmetry",
    "property_name",
    "deprecated",
    "deprecation_reasons",
    "last_updated",
    "origins",
    "warnings",
    "task_ids",
    "uncorrected_energy_per_atom",
    "equilibrium_reaction_energy_per_atom",
    "decomposes_to",
    "xas",
    "grain_boundaries",
    "cbm",
    "vbm",
    "is_gap_direct",
    "is_metal",
    "es_source_calc_id",
    "bandstructure",
    "dos",
    "dos_energy_up",
    "dos_energy_down",
    "is_magnetic",
    "ordering",
    "total_magnetization_normalized_vol",
    "total_magnetization_normalized_formula_units",
    "num_magnetic_sites",
    "num_unique_magnetic_sites",
    "types_of_magnetic_species",
    "bulk_modulus",
    "shear_modulus",
    "universal_anisotropy",
    "homogeneous_poisson",
    "e_total",
    "e_ionic",
    "e_electronic",
    "n",
    "e_ij_max",
    "weighted_surface_energy_EV_PER_ANG2",
    "weighted_surface_energy",
    "weighted_work_function",
    "surface_anisotropy",
    "shape_factor",
    "has_reconstructed",
    "possible_species",
    "has_props",
    "theoretical",
    "database_IDs"
  ]
}
