{"builder_meta": null, "nsites": null, "elements": null, "nelements": null, "composition": null, "composition_reduced": null, "formula_pretty": "Pu3Pd4", "formula_anonymous": "A3B4", "chemsys": null, "volume": 299.5622917012259, "density": 12.834545067099452, "density_atomic": 21.397306550087563, "symmetry": null, "property_name": null, "material_id": "mp-17717", "deprecated": null, "deprecation_reasons": null, "last_updated": null, "origins": null, "warnings": null, "structure": {"@module": "pymatgen.core.structure", "@class": "Structure", "charge": 0, "lattice": {"matrix": [[4.322651, -6.704853, 0.0], [4.322651, 6.704853, 0.0], [-6.077231, 0.0, 5.167943]], "pbc": [true, true, true], "a": 7.977491173258043, "b": 7.977491173258043, "c": 7.977491553026553, "alpha": 114.37986427059683, "beta": 114.37986427059683, "gamma": 114.37985900711716, "volume": 299.5622917012259}, "properties": {}, "sites": [{"species": [{"element": "Pu", "occu": 1}], "abc": [0.404879, 0.287742, 0.027645], "properties": {"magmom": -5.19}, "label": "Pu", "xyz": [2.8259538072759995, -0.7853863658609996, 0.142867784235]}, {"species": [{"element": "Pu", "occu": 1}], "abc": [0.287742, 0.027645, 0.404879], "properties": {"magmom": -5.221}, "label": "Pu", "xyz": [-1.097235279112, -1.743912150741, 2.092391593897]}, {"species": [{"element": "Pu", "occu": 1}], "abc": [0.027645, 0.404879, 0.287742], "properties": {"magmom": -5.209}, "label": "Pu", "xyz": [0.12097569872199965, 2.5292985166019997, 1.487034254706]}, {"species": [{"element": "Pu", "occu": 1}], "abc": [0.595121, 0.712258, 0.972355], "properties": {"magmom": -5.19}, "label": "Pu", "xyz": [-0.2578828072760011, 0.7853863658609992, 5.025075215765]}, {"species": [{"element": "Pu", "occu": 1}], "abc": [0.712258, 0.972355, 0.595121], "properties": {"magmom": -5.221}, "label": "Pu", "xyz": [3.6653062791119995, 1.743912150741, 3.075551406103]}, {"species": [{"element": "Pu", "occu": 1}], "abc": [0.972355, 0.595121, 0.712258], "properties": {"magmom": -5.209}, "label": "Pu", "xyz": [2.447095301278, -2.5292985166019992, 3.680908745294]}, {"species": [{"element": "Pd", "occu": 1}], "abc": [0.0, 0.0, 0.0], "properties": {"magmom": 0.054}, "label": "Pd", "xyz": [0.0, 0.0, 0.0]}, {"species": [{"element": "Pd", "occu": 1}], "abc": [0.5, 0.5, 0.5], "properties": {"magmom": 0.047}, "label": "Pd", "xyz": [1.2840354999999994, 0.0, 2.5839715]}, {"species": [{"element": "Pd", "occu": 1}], "abc": [0.219861, 0.548599, 0.05765000000000001], "properties": {"magmom": 0.065}, "label": "Pd", "xyz": [2.9714320203099995, 2.204139965514, 0.29793191395000007]}, {"species": [{"element": "Pd", "occu": 1}], "abc": [0.548599, 0.05765000000000001, 0.219861], "properties": {"magmom": 0.06}, "label": "Pd", "xyz": [1.2844567612079996, -3.2917408754969997, 1.136229115923]}, {"species": [{"element": "Pd", "occu": 1}], "abc": [0.05765000000000001, 0.219861, 0.548599], "properties": {"magmom": 0.062}, "label": "Pd", "xyz": [-2.1343796477079997, 1.0876009099829997, 2.835128361857]}, {"species": [{"element": "Pd", "occu": 1}], "abc": [0.780138999999999, 0.451401, 0.9423500000000001], "properties": {"magmom": 0.065}, "label": "Pd", "xyz": [-0.40336102031000554, -2.2041399655139933, 4.870011086050001]}, {"species": [{"element": "Pd", "occu": 1}], "abc": [0.451401, 0.9423500000000001, 0.780138999999999], "properties": {"magmom": 0.06}, "label": "Pd", "xyz": [1.2836142387920058, 3.2917408754970006, 4.0317138840769955]}, {"species": [{"element": "Pd", "occu": 1}], "abc": [0.9423500000000001, 0.780138999999999, 0.451401], "properties": {"magmom": 0.062}, "label": "Pd", "xyz": [4.702450647707996, -1.0876009099830073, 2.332814638143]}]}, "task_ids": null, "uncorrected_energy_per_atom": null, "energy_per_atom": -9.566406014285715, "formation_energy_per_atom": -0.290216773749993, "energy_above_hull": 0.077981330773813, "is_stable": false, "equilibrium_reaction_energy_per_atom": null, "decomposes_to": null, "xas": null, "grain_boundaries": null, "band_gap": 0.0, "cbm": null, "vbm": null, "efermi": 8.28547628, "is_gap_direct": null, "is_metal": null, "es_source_calc_id": null, "bandstructure": null, "dos": null, "dos_energy_up": null, "dos_energy_down": null, "is_magnetic": null, "ordering": null, "total_magnetization": 32.3473703, "total_magnetization_normalized_vol": null, "total_magnetization_normalized_formula_units": null, "num_magnetic_sites": null, "num_unique_magnetic_sites": null, "types_of_magnetic_species": null, "bulk_modulus": null, "shear_modulus": null, "universal_anisotropy": null, "homogeneous_poisson": null, "e_total": null, "e_ionic": null, "e_electronic": null, "n": null, "e_ij_max": null, "weighted_surface_energy_EV_PER_ANG2": null, "weighted_surface_energy": null, "weighted_work_function": null, "surface_anisotropy": null, "shape_factor": null, "has_reconstructed": null, "possible_species": null, "has_props": null, "theoretical": null, "database_IDs": null, "fields_not_requested": ["builder_meta", "nsites", "elements", "nelements", "composition", "composition_reduced", "chemsys", "symmetry", "property_name", "deprecated", "deprecation_reasons", "last_updated", "origins", "warnings", "task_ids", "uncorrected_energy_per_atom", "equilibrium_reaction_energy_per_atom", "decomposes_to", "xas", "grain_boundaries", "cbm", "vbm", "is_gap_direct", "is_metal", "es_source_calc_id", "bandstructure", "dos", "dos_energy_up", "dos_energy_down", "is_magnetic", "ordering", "total_magnetization_normalized_vol", "total_magnetization_normalized_formula_units", "num_magnetic_sites", "num_unique_magnetic_sites", "types_of_magnetic_species", "bulk_modulus", "shear_modulus", "universal_anisotropy", "homogeneous_poisson", "e_total", "e_ionic", "e_electronic", "n", "e_ij_max", "weighted_surface_energy_EV_PER_ANG2", "weighted_surface_energy", "weighted_work_function", "surface_anisotropy", "shape_factor", "has_reconstructed", "possible_species", "has_props", "theoretical", "database_IDs"]}