{"builder_meta": null, "nsites": null, "elements": null, "nelements": null, "composition": null, "composition_reduced": null, "formula_pretty": "Pu3Pd5", "formula_anonymous": "A3B5", "chemsys": null, "volume": 327.79120350574584, "density": 12.8074665313724, "density_atomic": 20.486950219109115, "symmetry": null, "property_name": null, "material_id": "mp-582399", "deprecated": null, "deprecation_reasons": null, "last_updated": null, "origins": null, "warnings": null, "structure": {"@module": "pymatgen.core.structure", "@class": "Structure", "charge": 0, "lattice": {"matrix": [[3.619783, -4.615486, 0.0], [3.619783, 4.615486, 0.0], [0.0, 0.0, 9.809962]], "pbc": [true, true, true], "a": 5.865623580088053, "b": 5.865623580088053, "c": 9.809962, "alpha": 90.0, "beta": 90.0, "gamma": 103.78801319222615, "volume": 327.79120350574584}, "properties": {}, "sites": [{"species": [{"element": "Pu", "occu": 1}], "abc": [0.797126, 0.202874, 0.0], "properties": {"magmom": -0.10300000000000001}, "label": "Pu", "xyz": [3.619783, -2.742761786472, 0.0]}, {"species": [{"element": "Pu", "occu": 1}], "abc": [0.202874, 0.797126, 0.5], "properties": {"magmom": -0.131}, "label": "Pu", "xyz": [3.619783, 2.742761786472, 4.904981]}, {"species": [{"element": "Pu", "occu": 1}], "abc": [0.202874, 0.797126, 0.0], "properties": {"magmom": -0.10300000000000001}, "label": "Pu", "xyz": [3.619783, 2.742761786472, 0.0]}, {"species": [{"element": "Pu", "occu": 1}], "abc": [0.627402999999999, 0.627402999999999, 0.25], "properties": {"magmom": 0.9500000000000001}, "label": "Pu", "xyz": [4.542125427097993, 0.0, 2.4524905]}, {"species": [{"element": "Pu", "occu": 1}], "abc": [0.372596999999999, 0.372596999999999, 0.75], "properties": {"magmom": 0.9500000000000001}, "label": "Pu", "xyz": [2.697440572901993, 0.0, 7.357471500000001]}, {"species": [{"element": "Pu", "occu": 1}], "abc": [0.797126, 0.202874, 0.5], "properties": {"magmom": -0.131}, "label": "Pu", "xyz": [3.619783, -2.742761786472, 4.904981]}, {"species": [{"element": "Pd", "occu": 1}], "abc": [0.933191999999999, 0.488492, 0.75], "properties": {"magmom": -0.027}, "label": "Pd", "xyz": [5.1461875745719965, -2.0525066241999954, 7.357471500000001]}, {"species": [{"element": "Pd", "occu": 1}], "abc": [0.06680799999999901, 0.511508, 0.25], "properties": {"magmom": -0.027}, "label": "Pd", "xyz": [2.0933784254279963, 2.0525066242000047, 2.4524905]}, {"species": [{"element": "Pd", "occu": 1}], "abc": [0.685161999999999, 0.685161999999999, 0.548848999999999], "properties": {"magmom": -0.0}, "label": "Pd", "xyz": [4.960275519691993, 0.0, 5.3841878337379905]}, {"species": [{"element": "Pd", "occu": 1}], "abc": [0.974835999999999, 0.974835999999999, 0.75], "properties": {"magmom": -0.001}, "label": "Pd", "xyz": [7.057389561175993, 0.0, 7.357471500000001]}, {"species": [{"element": "Pd", "occu": 1}], "abc": [0.314838, 0.314838, 0.048849], "properties": {"magmom": -0.002}, "label": "Pd", "xyz": [2.279290480308, 0.0, 0.479206833738]}, {"species": [{"element": "Pd", "occu": 1}], "abc": [0.488492, 0.933191999999999, 0.75], "properties": {"magmom": -0.013000000000000001}, "label": "Pd", "xyz": [5.1461875745719965, 2.0525066241999954, 7.357471500000001]}, {"species": [{"element": "Pd", "occu": 1}], "abc": [0.511508, 0.06680799999999901, 0.25], "properties": {"magmom": -0.013000000000000001}, "label": "Pd", "xyz": [2.0933784254279963, -2.0525066242000047, 2.4524905]}, {"species": [{"element": "Pd", "occu": 1}], "abc": [0.025164, 0.025164, 0.25], "properties": {"magmom": -0.001}, "label": "Pd", "xyz": [0.182176438824, 0.0, 2.4524905]}, {"species": [{"element": "Pd", "occu": 1}], "abc": [0.685161999999999, 0.685161999999999, 0.951151], "properties": {"magmom": -0.002}, "label": "Pd", "xyz": [4.960275519691993, 0.0, 9.330755166262]}, {"species": [{"element": "Pd", "occu": 1}], "abc": [0.314838, 0.314838, 0.451150999999999], "properties": {"magmom": -0.0}, "label": "Pd", "xyz": [2.279290480308, 0.0, 4.4257741662619905]}]}, "task_ids": null, "uncorrected_energy_per_atom": null, "energy_per_atom": -8.40800771, "formation_energy_per_atom": 0.356143101718755, "energy_above_hull": 0.7588597785416711, "is_stable": false, "equilibrium_reaction_energy_per_atom": null, "decomposes_to": null, "xas": null, "grain_boundaries": null, "band_gap": 0.0, "cbm": null, "vbm": null, "efermi": 8.4382029, "is_gap_direct": null, "is_metal": null, "es_source_calc_id": null, "bandstructure": null, "dos": null, "dos_energy_up": null, "dos_energy_down": null, "is_magnetic": null, "ordering": null, "total_magnetization": 0.5248959, "total_magnetization_normalized_vol": null, "total_magnetization_normalized_formula_units": null, "num_magnetic_sites": null, "num_unique_magnetic_sites": null, "types_of_magnetic_species": null, "bulk_modulus": null, "shear_modulus": null, "universal_anisotropy": null, "homogeneous_poisson": null, "e_total": null, "e_ionic": null, "e_electronic": null, "n": null, "e_ij_max": null, "weighted_surface_energy_EV_PER_ANG2": null, "weighted_surface_energy": null, "weighted_work_function": null, "surface_anisotropy": null, "shape_factor": null, "has_reconstructed": null, "possible_species": null, "has_props": null, "theoretical": null, "database_IDs": null, "fields_not_requested": ["builder_meta", "nsites", "elements", "nelements", "composition", "composition_reduced", "chemsys", "symmetry", "property_name", "deprecated", "deprecation_reasons", "last_updated", "origins", "warnings", "task_ids", "uncorrected_energy_per_atom", "equilibrium_reaction_energy_per_atom", "decomposes_to", "xas", "grain_boundaries", "cbm", "vbm", "is_gap_direct", "is_metal", "es_source_calc_id", "bandstructure", "dos", "dos_energy_up", "dos_energy_down", "is_magnetic", "ordering", "total_magnetization_normalized_vol", "total_magnetization_normalized_formula_units", "num_magnetic_sites", "num_unique_magnetic_sites", "types_of_magnetic_species", "bulk_modulus", "shear_modulus", "universal_anisotropy", "homogeneous_poisson", "e_total", "e_ionic", "e_electronic", "n", "e_ij_max", "weighted_surface_energy_EV_PER_ANG2", "weighted_surface_energy", "weighted_work_function", "surface_anisotropy", "shape_factor", "has_reconstructed", "possible_species", "has_props", "theoretical", "database_IDs"]}