{
  "builder_meta": null,
  "nsites": null,
  "elements": null,
  "nelements": null,
  "composition": null,
  "composition_reduced": null,
  "formula_pretty": "Pu3Se4",
  "formula_anonymous": "A3B4",
  "chemsys": null,
  "volume": 346.86630306263305,
  "density": 10.032564363751176,
  "density_atomic": 24.77616450447379,
  "symmetry": null,
  "property_name": null,
  "material_id": "mp-1209671",
  "deprecated": null,
  "deprecation_reasons": null,
  "last_updated": null,
  "origins": null,
  "warnings": null,
  "structure": {
    "@module": "pymatgen.core.structure",
    "@class": "Structure",
    "charge": 0,
    "lattice": {
      "matrix": [
        [-4.42465932, 4.42182208, 4.43238879],
        [4.42454768, -4.42180151, 4.43224472],
        [4.42461932, 4.42177466, -4.43235916]
      ],
      "pbc": [true, true, true],
      "a": 7.666563179871151,
      "b": 7.666403591280564,
      "c": 7.666495613640647,
      "alpha": 109.50129975016569,
      "beta": 109.55311019869568,
      "gamma": 109.36005355901584,
      "volume": 346.8663030626331
    },
    "properties": {},
    "sites": [
      {
        "species": [{ "element": "Pu", "occu": 1 }],
        "abc": [0.12435202000000001, 0.87436189, 0.25000466],
        "properties": { "magmom": 5.285 },
        "label": "Pu",
        "xyz": [4.424615996352119, -2.210927947289937, 3.3184519249898914]
      },
      {
        "species": [{ "element": "Pu", "occu": 1 }],
        "abc": [0.37562846, 0.62563086, 0.74999509],
        "properties": { "magmom": 5.285 },
        "label": "Pu",
        "xyz": [4.424548368872296, 2.2108560209402173, 1.113632844096498]
      },
      {
        "species": [{ "element": "Pu", "occu": 1 }],
        "abc": [0.87516662, 0.24999127000000002, 0.12518393],
        "properties": { "magmom": 5.305 },
        "label": "Pu",
        "xyz": [-2.2123246128056175, 3.3179544383353656, 4.4322410635534855]
      },
      {
        "species": [{ "element": "Pu", "occu": 1 }],
        "abc": [0.62481952, 0.75000071, 0.37482963],
        "properties": { "magmom": 5.305 },
        "label": "Pu",
        "xyz": [2.2122788115493783, 1.103898637323105, 4.43225017914502]
      },
      {
        "species": [{ "element": "Pu", "occu": 1 }],
        "abc": [0.24999662, 0.12520935, 0.87521258],
        "properties": { "magmom": 5.302 },
        "label": "Pu",
        "xyz": [3.3203273549803547, 4.421782489702474, -2.2162157994522107]
      },
      {
        "species": [{ "element": "Pu", "occu": 1 }],
        "abc": [0.75000844, 0.3748087, 0.62480407],
        "properties": { "magmom": 5.302 },
        "label": "Pu",
        "xyz": [1.1043472892407877, 4.421817008748085, 2.2162168405766702]
      },
      {
        "species": [{ "element": "Se", "occu": 1 }],
        "abc": [0.35219159, 0.35169203, 0.35206984],
        "properties": { "magmom": -0.094 },
        "label": "Se",
        "xyz": [1.5555253703451803, 1.5589896968055965, 1.5593352181981233]
      },
      {
        "species": [{ "element": "Se", "occu": 1 }],
        "abc": [0.14780077, 0.49986088, 0.99952093],
        "properties": { "magmom": -0.094 },
        "label": "Se",
        "xyz": [5.980189860065448, 2.862919434666706, -1.559619527481297]
      },
      {
        "species": [{ "element": "Se", "occu": 1 }],
        "abc": [0.00040989, 0.1483263, 0.50051356],
        "properties": { "magmom": -0.094 },
        "label": "Se",
        "xyz": [2.8690451304372884, 1.559101179934048, -1.5592206105169404]
      },
      {
        "species": [{ "element": "Se", "occu": 1 }],
        "abc": [0.85194806, 0.85215414, 0.85225662],
        "properties": { "magmom": -0.097 },
        "label": "Se",
        "xyz": [3.771727805754374, 3.7675930058496623, 3.7756132821197492]
      },
      {
        "species": [{ "element": "Se", "occu": 1 }],
        "abc": [0.49963444, 0.0001277, 0.14791907],
        "properties": { "magmom": -0.094 },
        "label": "Se",
        "xyz": [-1.5556615918818124, 2.8627947301243744, 1.5595096437514906]
      },
      {
        "species": [{ "element": "Se", "occu": 1 }],
        "abc": [0.64800998, 0.50030155, 0.00018199],
        "properties": { "magmom": -0.097 },
        "label": "Se",
        "xyz": [-0.6528100986370626, 0.6539554071493913, 5.0888844295119116]
      },
      {
        "species": [{ "element": "Se", "occu": 1 }],
        "abc": [0.49988713, -0.00030846, 0.64771088],
        "properties": { "magmom": -0.097 },
        "label": "Se",
        "xyz": [0.652679028742277, 5.075807454025906, -0.656560310928719]
      },
      {
        "species": [{ "element": "Se", "occu": 1 }],
        "abc": [0.00014846, 0.64784308, 0.49979714000000003],
        "properties": { "magmom": -0.097 },
        "label": "Se",
        "xyz": [5.077167793420152, -0.6539867168885816, 0.6567766715374983]
      }
    ]
  },
  "task_ids": null,
  "uncorrected_energy_per_atom": null,
  "energy_per_atom": -47.21354694785714,
  "formation_energy_per_atom": -2.02564903678571,
  "energy_above_hull": 0.0,
  "is_stable": true,
  "equilibrium_reaction_energy_per_atom": null,
  "decomposes_to": null,
  "xas": null,
  "grain_boundaries": null,
  "band_gap": 0.0,
  "cbm": null,
  "vbm": null,
  "efermi": 8.38090598,
  "is_gap_direct": null,
  "is_metal": null,
  "es_source_calc_id": null,
  "bandstructure": null,
  "dos": null,
  "dos_energy_up": null,
  "dos_energy_down": null,
  "is_magnetic": null,
  "ordering": null,
  "total_magnetization": 31.9999997,
  "total_magnetization_normalized_vol": null,
  "total_magnetization_normalized_formula_units": null,
  "num_magnetic_sites": null,
  "num_unique_magnetic_sites": null,
  "types_of_magnetic_species": null,
  "bulk_modulus": null,
  "shear_modulus": null,
  "universal_anisotropy": null,
  "homogeneous_poisson": null,
  "e_total": null,
  "e_ionic": null,
  "e_electronic": null,
  "n": null,
  "e_ij_max": null,
  "weighted_surface_energy_EV_PER_ANG2": null,
  "weighted_surface_energy": null,
  "weighted_work_function": null,
  "surface_anisotropy": null,
  "shape_factor": null,
  "has_reconstructed": null,
  "possible_species": null,
  "has_props": null,
  "theoretical": null,
  "database_IDs": null,
  "fields_not_requested": [
    "builder_meta",
    "nsites",
    "elements",
    "nelements",
    "composition",
    "composition_reduced",
    "chemsys",
    "symmetry",
    "property_name",
    "deprecated",
    "deprecation_reasons",
    "last_updated",
    "origins",
    "warnings",
    "task_ids",
    "uncorrected_energy_per_atom",
    "equilibrium_reaction_energy_per_atom",
    "decomposes_to",
    "xas",
    "grain_boundaries",
    "cbm",
    "vbm",
    "is_gap_direct",
    "is_metal",
    "es_source_calc_id",
    "bandstructure",
    "dos",
    "dos_energy_up",
    "dos_energy_down",
    "is_magnetic",
    "ordering",
    "total_magnetization_normalized_vol",
    "total_magnetization_normalized_formula_units",
    "num_magnetic_sites",
    "num_unique_magnetic_sites",
    "types_of_magnetic_species",
    "bulk_modulus",
    "shear_modulus",
    "universal_anisotropy",
    "homogeneous_poisson",
    "e_total",
    "e_ionic",
    "e_electronic",
    "n",
    "e_ij_max",
    "weighted_surface_energy_EV_PER_ANG2",
    "weighted_surface_energy",
    "weighted_work_function",
    "surface_anisotropy",
    "shape_factor",
    "has_reconstructed",
    "possible_species",
    "has_props",
    "theoretical",
    "database_IDs"
  ]
}
