{"builder_meta": null, "nsites": null, "elements": null, "nelements": null, "composition": null, "composition_reduced": null, "formula_pretty": "Pu3S2", "formula_anonymous": "A2B3", "chemsys": null, "volume": 465.5835232788769, "density": 11.357832921423196, "density_atomic": 23.279176163943845, "symmetry": null, "property_name": null, "material_id": "mp-1209790", "deprecated": null, "deprecation_reasons": null, "last_updated": null, "origins": null, "warnings": null, "structure": {"@module": "pymatgen.core.structure", "@class": "Structure", "charge": 0, "lattice": {"matrix": [[3.9579, 0.0, 0.0], [0.0, 7.723146, 0.0], [0.0, 0.0, 15.231355]], "pbc": [true, true, true], "a": 3.9579, "b": 7.723146, "c": 15.231355, "alpha": 90.0, "beta": 90.0, "gamma": 90.0, "volume": 465.5835232788769}, "properties": {}, "sites": [{"species": [{"element": "Pu", "occu": 1}], "abc": [0.25, 0.670416, 0.724715999999999], "properties": {"magmom": 5.675}, "label": "Pu", "xyz": [0.989475, 5.177720648736, 11.038406670179986]}, {"species": [{"element": "Pu", "occu": 1}], "abc": [0.75, 0.329584, 0.275284], "properties": {"magmom": 5.675}, "label": "Pu", "xyz": [2.968425, 2.545425351264, 4.19294832982]}, {"species": [{"element": "Pu", "occu": 1}], "abc": [0.75, 0.829584, 0.224716], "properties": {"magmom": 5.675}, "label": "Pu", "xyz": [2.968425, 6.406998351264, 3.4227291701800002]}, {"species": [{"element": "Pu", "occu": 1}], "abc": [0.25, 0.170415999999999, 0.775284], "properties": {"magmom": 5.675}, "label": "Pu", "xyz": [0.989475, 1.3161476487359924, 11.80862582982]}, {"species": [{"element": "Pu", "occu": 1}], "abc": [0.25, 0.876832, 0.930767], "properties": {"magmom": 5.763}, "label": "Pu", "xyz": [0.989475, 6.7719015534719995, 14.176842599285001]}, {"species": [{"element": "Pu", "occu": 1}], "abc": [0.75, 0.123168, 0.069233], "properties": {"magmom": 5.763}, "label": "Pu", "xyz": [2.968425, 0.951244446528, 1.0545124007150002]}, {"species": [{"element": "Pu", "occu": 1}], "abc": [0.75, 0.6231679999999991, 0.430766999999999], "properties": {"magmom": 5.763}, "label": "Pu", "xyz": [2.968425, 4.812817446527992, 6.5611650992849855]}, {"species": [{"element": "Pu", "occu": 1}], "abc": [0.25, 0.376832, 0.569233], "properties": {"magmom": 5.763}, "label": "Pu", "xyz": [0.989475, 2.910328553472, 8.670189900715]}, {"species": [{"element": "Pu", "occu": 1}], "abc": [0.25, 0.5039100000000001, 0.102164999999999], "properties": {"magmom": 5.734}, "label": "Pu", "xyz": [0.989475, 3.8917705008600008, 1.556111383574985]}, {"species": [{"element": "Pu", "occu": 1}], "abc": [0.75, 0.49609000000000003, 0.897834999999999], "properties": {"magmom": 5.734}, "label": "Pu", "xyz": [2.968425, 3.83137549914, 13.675243616424986]}, {"species": [{"element": "Pu", "occu": 1}], "abc": [0.75, 0.99609, 0.602165], "properties": {"magmom": 5.734}, "label": "Pu", "xyz": [2.968425, 7.69294849914, 9.171788883575]}, {"species": [{"element": "Pu", "occu": 1}], "abc": [0.25, 0.00391, 0.397835], "properties": {"magmom": 5.734}, "label": "Pu", "xyz": [0.989475, 0.03019750086, 6.0595661164250005]}, {"species": [{"element": "S", "occu": 1}], "abc": [0.25, 0.761662, 0.543469], "properties": {"magmom": -0.09}, "label": "S", "xyz": [0.989475, 5.882426828651999, 8.277769270495]}, {"species": [{"element": "S", "occu": 1}], "abc": [0.75, 0.238338, 0.456530999999999], "properties": {"magmom": -0.09}, "label": "S", "xyz": [2.968425, 1.840719171348, 6.953585729504986]}, {"species": [{"element": "S", "occu": 1}], "abc": [0.75, 0.738337999999999, 0.043469], "properties": {"magmom": -0.09}, "label": "S", "xyz": [2.968425, 5.702292171347993, 0.662091770495]}, {"species": [{"element": "S", "occu": 1}], "abc": [0.25, 0.261662, 0.956530999999999], "properties": {"magmom": -0.09}, "label": "S", "xyz": [0.989475, 2.020853828652, 14.569263229504985]}, {"species": [{"element": "S", "occu": 1}], "abc": [0.25, 0.600837, 0.28904799999999903], "properties": {"magmom": -0.115}, "label": "S", "xyz": [0.989475, 4.6403518732019995, 4.402592700039985]}, {"species": [{"element": "S", "occu": 1}], "abc": [0.75, 0.399163, 0.710951999999999], "properties": {"magmom": -0.115}, "label": "S", "xyz": [2.968425, 3.082794126798, 10.828762299959985]}, {"species": [{"element": "S", "occu": 1}], "abc": [0.75, 0.899162999999999, 0.789048], "properties": {"magmom": -0.115}, "label": "S", "xyz": [2.968425, 6.944367126797992, 12.01827020004]}, {"species": [{"element": "S", "occu": 1}], "abc": [0.25, 0.100837, 0.210952], "properties": {"magmom": -0.115}, "label": "S", "xyz": [0.989475, 0.7787788732019999, 3.2130847999600003]}]}, "task_ids": null, "uncorrected_energy_per_atom": null, "energy_per_atom": -11.575899012499999, "formation_energy_per_atom": -1.077795696749991, "energy_above_hull": 0.35424535575000404, "is_stable": false, "equilibrium_reaction_energy_per_atom": null, "decomposes_to": null, "xas": null, "grain_boundaries": null, "band_gap": 0.0, "cbm": null, "vbm": null, "efermi": 10.69011078, "is_gap_direct": null, "is_metal": null, "es_source_calc_id": null, "bandstructure": null, "dos": null, "dos_energy_up": null, "dos_energy_down": null, "is_magnetic": null, "ordering": null, "total_magnetization": 75.0605685, "total_magnetization_normalized_vol": null, "total_magnetization_normalized_formula_units": null, "num_magnetic_sites": null, "num_unique_magnetic_sites": null, "types_of_magnetic_species": null, "bulk_modulus": null, "shear_modulus": null, "universal_anisotropy": null, "homogeneous_poisson": null, "e_total": null, "e_ionic": null, "e_electronic": null, "n": null, "e_ij_max": null, "weighted_surface_energy_EV_PER_ANG2": null, "weighted_surface_energy": null, "weighted_work_function": null, "surface_anisotropy": null, "shape_factor": null, "has_reconstructed": null, "possible_species": null, "has_props": null, "theoretical": null, "database_IDs": null, "fields_not_requested": ["builder_meta", "nsites", "elements", "nelements", "composition", "composition_reduced", "chemsys", "symmetry", "property_name", "deprecated", "deprecation_reasons", "last_updated", "origins", "warnings", "task_ids", "uncorrected_energy_per_atom", "equilibrium_reaction_energy_per_atom", "decomposes_to", "xas", "grain_boundaries", "cbm", "vbm", "is_gap_direct", "is_metal", "es_source_calc_id", "bandstructure", "dos", "dos_energy_up", "dos_energy_down", "is_magnetic", "ordering", "total_magnetization_normalized_vol", "total_magnetization_normalized_formula_units", "num_magnetic_sites", "num_unique_magnetic_sites", "types_of_magnetic_species", "bulk_modulus", "shear_modulus", "universal_anisotropy", "homogeneous_poisson", "e_total", "e_ionic", "e_electronic", "n", "e_ij_max", "weighted_surface_energy_EV_PER_ANG2", "weighted_surface_energy", "weighted_work_function", "surface_anisotropy", "shape_factor", "has_reconstructed", "possible_species", "has_props", "theoretical", "database_IDs"]}