{
  "builder_meta": null,
  "nsites": null,
  "elements": null,
  "nelements": null,
  "composition": null,
  "composition_reduced": null,
  "formula_pretty": "Pu3Th",
  "formula_anonymous": "AB3",
  "chemsys": null,
  "volume": 224.01007085949726,
  "density": 14.292418677223996,
  "density_atomic": 28.001258857437158,
  "symmetry": null,
  "property_name": null,
  "material_id": "mp-1186818",
  "deprecated": null,
  "deprecation_reasons": null,
  "last_updated": null,
  "origins": null,
  "warnings": null,
  "structure": {
    "@module": "pymatgen.core.structure",
    "@class": "Structure",
    "charge": 0,
    "lattice": {
      "matrix": [
        [3.4479800000000003, -5.9720759999999995, 0.0],
        [3.4479800000000003, 5.9720759999999995, 0.0],
        [0.0, 0.0, 5.439356]
      ],
      "pbc": [true, true, true],
      "a": 6.8959595293313605,
      "b": 6.8959595293313605,
      "c": 5.439356,
      "alpha": 90.0,
      "beta": 90.0,
      "gamma": 119.99999548443014,
      "volume": 224.01007085949726
    },
    "properties": {},
    "sites": [
      {
        "species": [{ "element": "Pu", "occu": 1 }],
        "abc": [0.163522, 0.327044, 0.25],
        "properties": { "magmom": 5.354 },
        "label": "Pu",
        "xyz": [1.69146175668, 0.976565811672, 1.359839]
      },
      {
        "species": [{ "element": "Pu", "occu": 1 }],
        "abc": [0.672956, 0.8364779999999991, 0.25],
        "properties": { "magmom": 5.354 },
        "label": "Pu",
        "xyz": [5.204498243319997, 0.9765658116719935, 1.359839]
      },
      {
        "species": [{ "element": "Pu", "occu": 1 }],
        "abc": [0.163522, 0.8364779999999991, 0.25],
        "properties": { "magmom": 5.355 },
        "label": "Pu",
        "xyz": [3.4479799999999967, 4.018944376655994, 1.359839]
      },
      {
        "species": [{ "element": "Pu", "occu": 1 }],
        "abc": [0.8364779999999991, 0.672956, 0.75],
        "properties": { "magmom": 5.356 },
        "label": "Pu",
        "xyz": [5.204498243319997, -0.9765658116719935, 4.079517]
      },
      {
        "species": [{ "element": "Pu", "occu": 1 }],
        "abc": [0.327044, 0.163522, 0.75],
        "properties": { "magmom": 5.354 },
        "label": "Pu",
        "xyz": [1.69146175668, -0.976565811672, 4.079517]
      },
      {
        "species": [{ "element": "Pu", "occu": 1 }],
        "abc": [0.8364779999999991, 0.163522, 0.75],
        "properties": { "magmom": 5.355 },
        "label": "Pu",
        "xyz": [3.4479799999999967, -4.018944376655994, 4.079517]
      },
      {
        "species": [{ "element": "Th", "occu": 1 }],
        "abc": [0.333333, 0.666667, 0.75],
        "properties": { "magmom": 0.192 },
        "label": "Th",
        "xyz": [3.4479800000000003, 1.9906959813840002, 4.079517]
      },
      {
        "species": [{ "element": "Th", "occu": 1 }],
        "abc": [0.666667, 0.333333, 0.25],
        "properties": { "magmom": 0.192 },
        "label": "Th",
        "xyz": [3.4479800000000003, -1.9906959813840002, 1.359839]
      }
    ]
  },
  "task_ids": null,
  "uncorrected_energy_per_atom": null,
  "energy_per_atom": -82.9266937996875,
  "formation_energy_per_atom": 0.209382851249998,
  "energy_above_hull": 0.209382851249998,
  "is_stable": false,
  "equilibrium_reaction_energy_per_atom": null,
  "decomposes_to": null,
  "xas": null,
  "grain_boundaries": null,
  "band_gap": 0.0,
  "cbm": null,
  "vbm": null,
  "efermi": 10.57758003,
  "is_gap_direct": null,
  "is_metal": null,
  "es_source_calc_id": null,
  "bandstructure": null,
  "dos": null,
  "dos_energy_up": null,
  "dos_energy_down": null,
  "is_magnetic": null,
  "ordering": null,
  "total_magnetization": 34.5604525,
  "total_magnetization_normalized_vol": null,
  "total_magnetization_normalized_formula_units": null,
  "num_magnetic_sites": null,
  "num_unique_magnetic_sites": null,
  "types_of_magnetic_species": null,
  "bulk_modulus": null,
  "shear_modulus": null,
  "universal_anisotropy": null,
  "homogeneous_poisson": null,
  "e_total": null,
  "e_ionic": null,
  "e_electronic": null,
  "n": null,
  "e_ij_max": null,
  "weighted_surface_energy_EV_PER_ANG2": null,
  "weighted_surface_energy": null,
  "weighted_work_function": null,
  "surface_anisotropy": null,
  "shape_factor": null,
  "has_reconstructed": null,
  "possible_species": null,
  "has_props": null,
  "theoretical": null,
  "database_IDs": null,
  "fields_not_requested": [
    "builder_meta",
    "nsites",
    "elements",
    "nelements",
    "composition",
    "composition_reduced",
    "chemsys",
    "symmetry",
    "property_name",
    "deprecated",
    "deprecation_reasons",
    "last_updated",
    "origins",
    "warnings",
    "task_ids",
    "uncorrected_energy_per_atom",
    "equilibrium_reaction_energy_per_atom",
    "decomposes_to",
    "xas",
    "grain_boundaries",
    "cbm",
    "vbm",
    "is_gap_direct",
    "is_metal",
    "es_source_calc_id",
    "bandstructure",
    "dos",
    "dos_energy_up",
    "dos_energy_down",
    "is_magnetic",
    "ordering",
    "total_magnetization_normalized_vol",
    "total_magnetization_normalized_formula_units",
    "num_magnetic_sites",
    "num_unique_magnetic_sites",
    "types_of_magnetic_species",
    "bulk_modulus",
    "shear_modulus",
    "universal_anisotropy",
    "homogeneous_poisson",
    "e_total",
    "e_ionic",
    "e_electronic",
    "n",
    "e_ij_max",
    "weighted_surface_energy_EV_PER_ANG2",
    "weighted_surface_energy",
    "weighted_work_function",
    "surface_anisotropy",
    "shape_factor",
    "has_reconstructed",
    "possible_species",
    "has_props",
    "theoretical",
    "database_IDs"
  ]
}
