{"builder_meta": null, "nsites": null, "elements": null, "nelements": null, "composition": null, "composition_reduced": null, "formula_pretty": "Pu3Zn", "formula_anonymous": "AB3", "chemsys": null, "volume": 190.26166966416218, "density": 13.919028450614434, "density_atomic": 23.782708708020273, "symmetry": null, "property_name": null, "material_id": "mp-1186836", "deprecated": null, "deprecation_reasons": null, "last_updated": null, "origins": null, "warnings": null, "structure": {"@module": "pymatgen.core.structure", "@class": "Structure", "charge": 0, "lattice": {"matrix": [[6.481375, 0.0, 0.0], [-3.240688, 5.613036, 0.0], [0.0, 0.0, 5.229815]], "pbc": [true, true, true], "a": 6.481375, "b": 6.481375768356592, "c": 5.229815, "alpha": 90.0, "beta": 90.0, "gamma": 120.0000011822648, "volume": 190.26166966416218}, "properties": {}, "sites": [{"species": [{"element": "Pu", "occu": 1}], "abc": [0.172503, 0.345006, 0.25], "properties": {"magmom": 5.472}, "label": "Pu", "xyz": [-1.7250299988447182e-07, 1.936531098216, 1.30745375]}, {"species": [{"element": "Pu", "occu": 1}], "abc": [0.654996, 0.827498, 0.25], "properties": {"magmom": 5.472}, "label": "Pu", "xyz": [1.5636118608760006, 4.644776063928, 1.30745375]}, {"species": [{"element": "Pu", "occu": 1}], "abc": [0.172503, 0.827498, 0.25], "properties": {"magmom": 5.473}, "label": "Pu", "xyz": [-1.5636062069989998, 4.644776063928, 1.30745375]}, {"species": [{"element": "Pu", "occu": 1}], "abc": [0.827496999999999, 0.654995, 0.750000999999999], "properties": {"magmom": 5.472}, "label": "Pu", "xyz": [3.2406839318149943, 3.67651051482, 3.922366479814995]}, {"species": [{"element": "Pu", "occu": 1}], "abc": [0.345005, 0.172503, 0.750000999999999], "properties": {"magmom": 5.472}, "label": "Pu", "xyz": [1.6770783798109998, 0.968265549108, 3.922366479814995]}, {"species": [{"element": "Pu", "occu": 1}], "abc": [0.827499, 0.172503, 0.750000999999999], "properties": {"magmom": 5.473}, "label": "Pu", "xyz": [4.804302929061, 0.968265549108, 3.922366479814995]}, {"species": [{"element": "Zn", "occu": 1}], "abc": [0.333333999999999, 0.666667999999999, 0.750000999999999], "properties": {"magmom": -0.007}, "label": "Zn", "xyz": [-3.3333400306645444e-07, 3.742031484047995, 3.922366479814995]}, {"species": [{"element": "Zn", "occu": 1}], "abc": [0.666667, 0.333333999999999, 0.25], "properties": {"magmom": -0.007}, "label": "Zn", "xyz": [3.2406873333330033, 1.8710157420239946, 1.30745375]}]}, "task_ids": null, "uncorrected_energy_per_atom": null, "energy_per_atom": -10.938382565, "formation_energy_per_atom": 0.43000269843751004, "energy_above_hull": 0.46084606737216605, "is_stable": false, "equilibrium_reaction_energy_per_atom": null, "decomposes_to": null, "xas": null, "grain_boundaries": null, "band_gap": 0.0, "cbm": null, "vbm": null, "efermi": 10.2322447, "is_gap_direct": null, "is_metal": null, "es_source_calc_id": null, "bandstructure": null, "dos": null, "dos_energy_up": null, "dos_energy_down": null, "is_magnetic": null, "ordering": null, "total_magnetization": 34.57206, "total_magnetization_normalized_vol": null, "total_magnetization_normalized_formula_units": null, "num_magnetic_sites": null, "num_unique_magnetic_sites": null, "types_of_magnetic_species": null, "bulk_modulus": null, "shear_modulus": null, "universal_anisotropy": null, "homogeneous_poisson": null, "e_total": null, "e_ionic": null, "e_electronic": null, "n": null, "e_ij_max": null, "weighted_surface_energy_EV_PER_ANG2": null, "weighted_surface_energy": null, "weighted_work_function": null, "surface_anisotropy": null, "shape_factor": null, "has_reconstructed": null, "possible_species": null, "has_props": null, "theoretical": null, "database_IDs": null, "fields_not_requested": ["builder_meta", "nsites", "elements", "nelements", "composition", "composition_reduced", "chemsys", "symmetry", "property_name", "deprecated", "deprecation_reasons", "last_updated", "origins", "warnings", "task_ids", "uncorrected_energy_per_atom", "equilibrium_reaction_energy_per_atom", "decomposes_to", "xas", "grain_boundaries", "cbm", "vbm", "is_gap_direct", "is_metal", "es_source_calc_id", "bandstructure", "dos", "dos_energy_up", "dos_energy_down", "is_magnetic", "ordering", "total_magnetization_normalized_vol", "total_magnetization_normalized_formula_units", "num_magnetic_sites", "num_unique_magnetic_sites", "types_of_magnetic_species", "bulk_modulus", "shear_modulus", "universal_anisotropy", "homogeneous_poisson", "e_total", "e_ionic", "e_electronic", "n", "e_ij_max", "weighted_surface_energy_EV_PER_ANG2", "weighted_surface_energy", "weighted_work_function", "surface_anisotropy", "shape_factor", "has_reconstructed", "possible_species", "has_props", "theoretical", "database_IDs"]}