{"builder_meta": null, "nsites": null, "elements": null, "nelements": null, "composition": null, "composition_reduced": null, "formula_pretty": "Pu4Bi3", "formula_anonymous": "A3B4", "chemsys": null, "volume": 435.5187509089677, "density": 12.223338161708876, "density_atomic": 31.108482207783407, "symmetry": null, "property_name": null, "material_id": "mp-1209700", "deprecated": null, "deprecation_reasons": null, "last_updated": null, "origins": null, "warnings": null, "structure": {"@module": "pymatgen.core.structure", "@class": "Structure", "charge": 0, "lattice": {"matrix": [[-4.77790542, 4.77762234, 4.76951951], [4.77782026, -4.7779652200000005, 4.76979219], [4.77787729, 4.77796572, -4.76984353]], "pbc": [true, true, true], "a": 8.270572639328131, "b": 8.270878769283293, "c": 8.270941610268792, "alpha": 109.42647599477313, "beta": 109.42590438716556, "gamma": 109.56367260697267, "volume": 435.51875090896766}, "properties": {}, "sites": [{"species": [{"element": "Pu", "occu": 1}], "abc": [0.34503886, 0.34348735, 0.34663644], "properties": {"magmom": 5.497}, "label": "Pu", "xyz": [1.6487441551415378, 1.6635117815170017, 1.630631273275722]}, {"species": [{"element": "Pu", "occu": 1}], "abc": [0.15497443, 0.50162447, 0.99845783], "properties": {"magmom": 5.497}, "label": "Pu", "xyz": [6.426727377599033, 3.11426231234142, -1.6306895736483211]}, {"species": [{"element": "Pu", "occu": 1}], "abc": [0.00322419, 0.15656406, 0.50155908], "properties": {"magmom": 5.497}, "label": "Pu", "xyz": [3.1290178009050393, 1.663778419585149, -1.630202464919114]}, {"species": [{"element": "Pu", "occu": 1}], "abc": [0.84355099, 0.84504998, 0.8467319600000001], "properties": {"magmom": 5.497}, "label": "Pu", "xyz": [4.052671470390418, 4.038204920059831, 4.015266738198251]}, {"species": [{"element": "Pu", "occu": 1}], "abc": [0.49676433000000003, -0.0016617700000000001, 0.15332665], "properties": {"magmom": 5.497}, "label": "Pu", "xyz": [-1.6488567041563504, 3.11388171764921, 1.630056736760428]}, {"species": [{"element": "Pu", "occu": 1}], "abc": [0.65647275, 0.5032032200000001, 0.00154554], "properties": {"magmom": 5.497}, "label": "Pu", "xyz": [-0.7249657704272806, 0.7394759293881152, 5.52386239367785]}, {"species": [{"element": "Pu", "occu": 1}], "abc": [0.49839376, -0.00318033, 0.65331253], "properties": {"magmom": 5.497}, "label": "Pu", "xyz": [0.7249738080537789, 5.517837540807193, -0.7542692955017958]}, {"species": [{"element": "Pu", "occu": 1}], "abc": [0.00158225, 0.65491137, 0.49842298], "properties": {"magmom": 5.497}, "label": "Pu", "xyz": [5.502892808195686, -0.7401364425948409, 0.7539380836565783]}, {"species": [{"element": "Bi", "occu": 1}], "abc": [0.12500989, 0.8750061100000001, 0.24998788], "properties": {"magmom": -0.246}, "label": "Bi", "xyz": [4.77774790362443, -2.3890651966270786, 3.577431346981819]}, {"species": [{"element": "Bi", "occu": 1}], "abc": [0.3749886, 0.62497043, 0.75000307], "properties": {"magmom": -0.246}, "label": "Bi", "xyz": [4.77775895355998, 2.38895589289164, 1.1920972288028908]}, {"species": [{"element": "Bi", "occu": 1}], "abc": [0.8746133500000001, 0.24997992, 0.12459083], "properties": {"magmom": -0.231}, "label": "Bi", "xyz": [-2.389181041800927, 3.5794676311302043, 4.769558942231454]}, {"species": [{"element": "Bi", "occu": 1}], "abc": [0.62538145, 0.74999153, 0.37537054000000003], "properties": {"magmom": -0.231}, "label": "Bi", "xyz": [2.3887856857409755, 1.1979105133248948, 4.769614027755633]}, {"species": [{"element": "Bi", "occu": 1}], "abc": [0.25000151, 0.12545984, 0.87545366], "properties": {"magmom": -0.231}, "label": "Bi", "xyz": [3.587751156292556, 4.777857624111504, -2.3849725315007104]}, {"species": [{"element": "Bi", "occu": 1}], "abc": [0.75000363, 0.3745948, 0.6246010200000001], "properties": {"magmom": -0.231}, "label": "Bi", "xyz": [1.1905672447028097, 4.777755434013272, 2.3846471632320325]}]}, "task_ids": null, "uncorrected_energy_per_atom": null, "energy_per_atom": -75.21506652571429, "formation_energy_per_atom": -0.796178834285716, "energy_above_hull": 0.0, "is_stable": true, "equilibrium_reaction_energy_per_atom": null, "decomposes_to": null, "xas": null, "grain_boundaries": null, "band_gap": 0.0, "cbm": null, "vbm": null, "efermi": 8.38001605, "is_gap_direct": null, "is_metal": null, "es_source_calc_id": null, "bandstructure": null, "dos": null, "dos_energy_up": null, "dos_energy_down": null, "is_magnetic": null, "ordering": null, "total_magnetization": 46.0000003, "total_magnetization_normalized_vol": null, "total_magnetization_normalized_formula_units": null, "num_magnetic_sites": null, "num_unique_magnetic_sites": null, "types_of_magnetic_species": null, "bulk_modulus": null, "shear_modulus": null, "universal_anisotropy": null, "homogeneous_poisson": null, "e_total": null, "e_ionic": null, "e_electronic": null, "n": null, "e_ij_max": null, "weighted_surface_energy_EV_PER_ANG2": null, "weighted_surface_energy": null, "weighted_work_function": null, "surface_anisotropy": null, "shape_factor": null, "has_reconstructed": null, "possible_species": null, "has_props": null, "theoretical": null, "database_IDs": null, "fields_not_requested": ["builder_meta", "nsites", "elements", "nelements", "composition", "composition_reduced", "chemsys", "symmetry", "property_name", "deprecated", "deprecation_reasons", "last_updated", "origins", "warnings", "task_ids", "uncorrected_energy_per_atom", "equilibrium_reaction_energy_per_atom", "decomposes_to", "xas", "grain_boundaries", "cbm", "vbm", "is_gap_direct", "is_metal", "es_source_calc_id", "bandstructure", "dos", "dos_energy_up", "dos_energy_down", "is_magnetic", "ordering", "total_magnetization_normalized_vol", "total_magnetization_normalized_formula_units", "num_magnetic_sites", "num_unique_magnetic_sites", "types_of_magnetic_species", "bulk_modulus", "shear_modulus", "universal_anisotropy", "homogeneous_poisson", "e_total", "e_ionic", "e_electronic", "n", "e_ij_max", "weighted_surface_energy_EV_PER_ANG2", "weighted_surface_energy", "weighted_work_function", "surface_anisotropy", "shape_factor", "has_reconstructed", "possible_species", "has_props", "theoretical", "database_IDs"]}