{"builder_meta": null, "nsites": null, "elements": null, "nelements": null, "composition": null, "composition_reduced": null, "formula_pretty": "Pu4Sb3", "formula_anonymous": "A3B4", "chemsys": null, "volume": 406.0923887511849, "density": 10.969168105309627, "density_atomic": 29.006599196513207, "symmetry": null, "property_name": null, "material_id": "mp-1209614", "deprecated": null, "deprecation_reasons": null, "last_updated": null, "origins": null, "warnings": null, "structure": {"@module": "pymatgen.core.structure", "@class": "Structure", "charge": 0, "lattice": {"matrix": [[-4.6639084, -4.66377456, 4.66814603], [-4.66290382, 4.66307767, -4.66784952], [4.66321909, -4.66336729, -4.66841255]], "pbc": [true, true, true], "a": 8.080496399819662, "b": 8.079343075546888, "c": 8.080017481403111, "alpha": 109.41344673403083, "beta": 109.49844561026046, "gamma": 109.49792834388985, "volume": 406.0923887511849}, "properties": {}, "sites": [{"species": [{"element": "Pu", "occu": 1}], "abc": [0.84690084, 0.84609307, 0.84470351], "properties": {"magmom": 5.469}, "label": "Pu", "xyz": [-3.956081016599578, -3.9435196092580718, -3.939402803738212]}, {"species": [{"element": "Pu", "occu": 1}], "abc": [0.65316138, 0.99779348, 0.49919533], "properties": {"magmom": 5.469}, "label": "Pu", "xyz": [-5.371042683705836, -0.7213401050016568, -3.9389468571542]}, {"species": [{"element": "Pu", "occu": 1}], "abc": [0.4985463, 0.65389295, 0.0007475100000000001], "properties": {"magmom": 5.469}, "label": "Pu", "xyz": [-5.370728407883024, 0.7205601491103506, -0.7284766467379457]}, {"species": [{"element": "Pu", "occu": 1}], "abc": [0.34681368, 0.34459814, 0.34600084000000003], "properties": {"magmom": 5.469}, "label": "Pu", "xyz": [-1.6108574965137716, -1.624101925654971, -1.6048300227167445]}, {"species": [{"element": "Pu", "occu": 1}], "abc": [0.0015001300000000001, 0.50227844, 0.65537279], "properties": {"magmom": 5.469}, "label": "Pu", "xyz": [0.7070743799068286, -0.7210769220862971, -5.39710790692088]}, {"species": [{"element": "Pu", "occu": 1}], "abc": [0.15314142, 0.99919148, 0.49781229], "properties": {"magmom": 5.469}, "label": "Pu", "xyz": [-3.0519635501647664, 1.623608870017982, -6.273182100684767]}, {"species": [{"element": "Pu", "occu": 1}], "abc": [0.99849905, 0.5007814700000001, 0.15390492], "properties": {"magmom": 5.468}, "label": "Pu", "xyz": [-6.274311575146314, -3.03930674696546, 1.605075171817131]}, {"species": [{"element": "Pu", "occu": 1}], "abc": [0.50145863, 0.15537264, 0.00219625], "properties": {"magmom": 5.469}, "label": "Pu", "xyz": [-3.053003198362565, -1.6244172337841665, 1.6053730087356686]}, {"species": [{"element": "Sb", "occu": 1}], "abc": [0.62495431, 0.37476939000000004, 0.7500800000000001], "properties": {"magmom": -0.164}, "label": "Sb", "xyz": [-1.1644559012480742, -4.664965775115033, -2.3336720215683044]}, {"species": [{"element": "Sb", "occu": 1}], "abc": [0.87514718, 0.12521952, 0.24997049000000002], "properties": {"magmom": -0.164}, "label": "Sb", "xyz": [-3.4998257012802254, -4.663285013310895, 2.3338435850104156]}, {"species": [{"element": "Sb", "occu": 1}], "abc": [0.37502442, 0.74980747, 0.62509773], "properties": {"magmom": -0.164}, "label": "Sb", "xyz": [-2.3303919911189976, -1.1676791863538125, -4.667533769264374]}, {"species": [{"element": "Sb", "occu": 1}], "abc": [0.12484975000000001, 0.2500333, 0.8748744900000001], "properties": {"magmom": -0.164}, "label": "Sb", "xyz": [2.3315623956619085, -3.4962074694073815, -4.668576003370874]}, {"species": [{"element": "Sb", "occu": 1}], "abc": [0.7500596900000001, 0.62510272, 0.37503575], "properties": {"magmom": -0.17200000000000001}, "label": "Sb", "xyz": [-4.664129680840319, -2.332136214745842, -1.1673188693648262]}, {"species": [{"element": "Sb", "occu": 1}], "abc": [0.24994322, 0.87506892, 0.1250051], "properties": {"magmom": -0.17200000000000001}, "label": "Sb", "xyz": [-4.663148324444964, 2.331890815259354, -3.5014939656745074]}]}, "task_ids": null, "uncorrected_energy_per_atom": null, "energy_per_atom": -10.706714247142852, "formation_energy_per_atom": -0.5154665835714161, "energy_above_hull": 0.0, "is_stable": true, "equilibrium_reaction_energy_per_atom": null, "decomposes_to": null, "xas": null, "grain_boundaries": null, "band_gap": 0.0, "cbm": null, "vbm": null, "efermi": 9.390637569999999, "is_gap_direct": null, "is_metal": null, "es_source_calc_id": null, "bandstructure": null, "dos": null, "dos_energy_up": null, "dos_energy_down": null, "is_magnetic": null, "ordering": null, "total_magnetization": 46.0000002, "total_magnetization_normalized_vol": null, "total_magnetization_normalized_formula_units": null, "num_magnetic_sites": null, "num_unique_magnetic_sites": null, "types_of_magnetic_species": null, "bulk_modulus": null, "shear_modulus": null, "universal_anisotropy": null, "homogeneous_poisson": null, "e_total": null, "e_ionic": null, "e_electronic": null, "n": null, "e_ij_max": null, "weighted_surface_energy_EV_PER_ANG2": null, "weighted_surface_energy": null, "weighted_work_function": null, "surface_anisotropy": null, "shape_factor": null, "has_reconstructed": null, "possible_species": null, "has_props": null, "theoretical": null, "database_IDs": null, "fields_not_requested": ["builder_meta", "nsites", "elements", "nelements", "composition", "composition_reduced", "chemsys", "symmetry", "property_name", "deprecated", "deprecation_reasons", "last_updated", "origins", "warnings", "task_ids", "uncorrected_energy_per_atom", "equilibrium_reaction_energy_per_atom", "decomposes_to", "xas", "grain_boundaries", "cbm", "vbm", "is_gap_direct", "is_metal", "es_source_calc_id", "bandstructure", "dos", "dos_energy_up", "dos_energy_down", "is_magnetic", "ordering", "total_magnetization_normalized_vol", "total_magnetization_normalized_formula_units", "num_magnetic_sites", "num_unique_magnetic_sites", "types_of_magnetic_species", "bulk_modulus", "shear_modulus", "universal_anisotropy", "homogeneous_poisson", "e_total", "e_ionic", "e_electronic", "n", "e_ij_max", "weighted_surface_energy_EV_PER_ANG2", "weighted_surface_energy", "weighted_work_function", "surface_anisotropy", "shape_factor", "has_reconstructed", "possible_species", "has_props", "theoretical", "database_IDs"]}