{
  "builder_meta": null,
  "nsites": null,
  "elements": null,
  "nelements": null,
  "composition": null,
  "composition_reduced": null,
  "formula_pretty": "Pu4Zr",
  "formula_anonymous": "AB4",
  "chemsys": null,
  "volume": 92.75027607969567,
  "density": 19.10686652070322,
  "density_atomic": 18.550055215939132,
  "symmetry": null,
  "property_name": null,
  "material_id": "mp-1219810",
  "deprecated": null,
  "deprecation_reasons": null,
  "last_updated": null,
  "origins": null,
  "warnings": null,
  "structure": {
    "@module": "pymatgen.core.structure",
    "@class": "Structure",
    "charge": 0,
    "lattice": {
      "matrix": [
        [-1.617975, -1.715631999999999, 1.715631999999999],
        [-1.617975, 1.715631999999999, -1.715631999999999],
        [-1.617975, -8.353323, -8.353323]
      ],
      "pbc": [true, true, true],
      "a": 2.916269778239488,
      "b": 2.916269778239488,
      "c": 11.923667782410034,
      "alpha": 85.68242606027236,
      "beta": 85.68242606027236,
      "gamma": 112.60477191885214,
      "volume": 92.75027607969561
    },
    "properties": {},
    "sites": [
      {
        "species": [{ "element": "Pu", "occu": 1 }],
        "abc": [0.383343, 0.383343, 0.233314],
        "properties": { "magmom": 0.28800000000000003 },
        "label": "Pu",
        "xyz": [-1.617975, -1.9489472024219998, -1.9489472024219998]
      },
      {
        "species": [{ "element": "Pu", "occu": 1 }],
        "abc": [0.799538, 0.799538, 0.400924],
        "properties": { "magmom": 0.593 },
        "label": "Pu",
        "xyz": [-3.23595, -3.349047670452, -3.349047670452]
      },
      {
        "species": [{ "element": "Pu", "occu": 1 }],
        "abc": [0.200462, 0.200462, 0.599075999999999],
        "properties": { "magmom": 0.593 },
        "label": "Pu",
        "xyz": [-1.6179749999999986, -5.004275329547992, -5.004275329547992]
      },
      {
        "species": [{ "element": "Pu", "occu": 1 }],
        "abc": [0.616657, 0.616657, 0.766686],
        "properties": { "magmom": 0.28800000000000003 },
        "label": "Pu",
        "xyz": [-3.23595, -6.404375797577999, -6.404375797577999]
      },
      {
        "species": [{ "element": "Zr", "occu": 1 }],
        "abc": [0.0, 0.0, 0.0],
        "properties": { "magmom": -0.009000000000000001 },
        "label": "Zr",
        "xyz": [0.0, 0.0, 0.0]
      }
    ]
  },
  "task_ids": null,
  "uncorrected_energy_per_atom": null,
  "energy_per_atom": -73.090713112,
  "formation_energy_per_atom": 0.5443237899999981,
  "energy_above_hull": 0.5443237899999921,
  "is_stable": false,
  "equilibrium_reaction_energy_per_atom": null,
  "decomposes_to": null,
  "xas": null,
  "grain_boundaries": null,
  "band_gap": 0.0,
  "cbm": null,
  "vbm": null,
  "efermi": 14.67961454,
  "is_gap_direct": null,
  "is_metal": null,
  "es_source_calc_id": null,
  "bandstructure": null,
  "dos": null,
  "dos_energy_up": null,
  "dos_energy_down": null,
  "is_magnetic": null,
  "ordering": null,
  "total_magnetization": 1.7356666,
  "total_magnetization_normalized_vol": null,
  "total_magnetization_normalized_formula_units": null,
  "num_magnetic_sites": null,
  "num_unique_magnetic_sites": null,
  "types_of_magnetic_species": null,
  "bulk_modulus": null,
  "shear_modulus": null,
  "universal_anisotropy": null,
  "homogeneous_poisson": null,
  "e_total": null,
  "e_ionic": null,
  "e_electronic": null,
  "n": null,
  "e_ij_max": null,
  "weighted_surface_energy_EV_PER_ANG2": null,
  "weighted_surface_energy": null,
  "weighted_work_function": null,
  "surface_anisotropy": null,
  "shape_factor": null,
  "has_reconstructed": null,
  "possible_species": null,
  "has_props": null,
  "theoretical": null,
  "database_IDs": null,
  "fields_not_requested": [
    "builder_meta",
    "nsites",
    "elements",
    "nelements",
    "composition",
    "composition_reduced",
    "chemsys",
    "symmetry",
    "property_name",
    "deprecated",
    "deprecation_reasons",
    "last_updated",
    "origins",
    "warnings",
    "task_ids",
    "uncorrected_energy_per_atom",
    "equilibrium_reaction_energy_per_atom",
    "decomposes_to",
    "xas",
    "grain_boundaries",
    "cbm",
    "vbm",
    "is_gap_direct",
    "is_metal",
    "es_source_calc_id",
    "bandstructure",
    "dos",
    "dos_energy_up",
    "dos_energy_down",
    "is_magnetic",
    "ordering",
    "total_magnetization_normalized_vol",
    "total_magnetization_normalized_formula_units",
    "num_magnetic_sites",
    "num_unique_magnetic_sites",
    "types_of_magnetic_species",
    "bulk_modulus",
    "shear_modulus",
    "universal_anisotropy",
    "homogeneous_poisson",
    "e_total",
    "e_ionic",
    "e_electronic",
    "n",
    "e_ij_max",
    "weighted_surface_energy_EV_PER_ANG2",
    "weighted_surface_energy",
    "weighted_work_function",
    "surface_anisotropy",
    "shape_factor",
    "has_reconstructed",
    "possible_species",
    "has_props",
    "theoretical",
    "database_IDs"
  ]
}
