{
  "builder_meta": null,
  "nsites": null,
  "elements": null,
  "nelements": null,
  "composition": null,
  "composition_reduced": null,
  "formula_pretty": "Pu5Ir4",
  "formula_anonymous": "A4B5",
  "chemsys": null,
  "volume": 727.2021942244288,
  "density": 18.16602336208773,
  "density_atomic": 20.200060950678576,
  "symmetry": null,
  "property_name": null,
  "material_id": "mp-21674",
  "deprecated": null,
  "deprecation_reasons": null,
  "last_updated": null,
  "origins": null,
  "warnings": null,
  "structure": {
    "@module": "pymatgen.core.structure",
    "@class": "Structure",
    "charge": 0,
    "lattice": {
      "matrix": [
        [6.835498, 0.0, 0.0],
        [0.0, 7.525338, 0.0],
        [0.0, 0.0, 14.137057]
      ],
      "pbc": [true, true, true],
      "a": 6.835498,
      "b": 7.525338,
      "c": 14.137057,
      "alpha": 90.0,
      "beta": 90.0,
      "gamma": 90.0,
      "volume": 727.2021942244288
    },
    "properties": {},
    "sites": [
      {
        "species": [{ "element": "Pu", "occu": 1 }],
        "abc": [0.699403, 0.02925, 0.25],
        "properties": { "magmom": 0.109 },
        "label": "Pu",
        "xyz": [4.780767807694001, 0.2201161365, 3.53426425]
      },
      {
        "species": [{ "element": "Pu", "occu": 1 }],
        "abc": [0.199403, 0.47075000000000006, 0.25],
        "properties": { "magmom": 0.153 },
        "label": "Pu",
        "xyz": [1.363018807694, 3.5425528635, 3.53426425]
      },
      {
        "species": [{ "element": "Pu", "occu": 1 }],
        "abc": [0.800597, 0.52925, 0.75],
        "properties": { "magmom": 0.152 },
        "label": "Pu",
        "xyz": [5.472479192306, 3.9827851365, 10.60279275]
      },
      {
        "species": [{ "element": "Pu", "occu": 1 }],
        "abc": [0.300597, 0.9707500000000001, 0.75],
        "properties": { "magmom": 0.11 },
        "label": "Pu",
        "xyz": [2.054730192306, 7.305221863500001, 10.60279275]
      },
      {
        "species": [{ "element": "Pu", "occu": 1 }],
        "abc": [0.855235, 0.665025, 0.117674999999999],
        "properties": { "magmom": 0.151 },
        "label": "Pu",
        "xyz": [5.84595713203, 5.004537903449999, 1.663578182474986]
      },
      {
        "species": [{ "element": "Pu", "occu": 1 }],
        "abc": [0.355234999999999, 0.834974999999999, 0.382324999999999],
        "properties": { "magmom": 0.14300000000000002 },
        "label": "Pu",
        "xyz": [2.4282081320299933, 6.283469096549992, 5.404950317524986]
      },
      {
        "species": [{ "element": "Pu", "occu": 1 }],
        "abc": [0.644764999999999, 0.165025, 0.882324999999999],
        "properties": { "magmom": 0.14300000000000002 },
        "label": "Pu",
        "xyz": [4.407289867969993, 1.24186890345, 12.473478817524986]
      },
      {
        "species": [{ "element": "Pu", "occu": 1 }],
        "abc": [0.144765, 0.334974999999999, 0.617675],
        "properties": { "magmom": 0.151 },
        "label": "Pu",
        "xyz": [0.9895408679700001, 2.5208000965499924, 8.732106682474999]
      },
      {
        "species": [{ "element": "Pu", "occu": 1 }],
        "abc": [0.144765, 0.334974999999999, 0.882324999999999],
        "properties": { "magmom": 0.15 },
        "label": "Pu",
        "xyz": [0.9895408679700001, 2.5208000965499924, 12.473478817524986]
      },
      {
        "species": [{ "element": "Pu", "occu": 1 }],
        "abc": [0.644764999999999, 0.165025, 0.617675],
        "properties": { "magmom": 0.14300000000000002 },
        "label": "Pu",
        "xyz": [4.407289867969993, 1.24186890345, 8.732106682474999]
      },
      {
        "species": [{ "element": "Pu", "occu": 1 }],
        "abc": [0.355234999999999, 0.834974999999999, 0.117674999999999],
        "properties": { "magmom": 0.14300000000000002 },
        "label": "Pu",
        "xyz": [2.4282081320299933, 6.283469096549992, 1.663578182474986]
      },
      {
        "species": [{ "element": "Pu", "occu": 1 }],
        "abc": [0.855235, 0.665025, 0.382324999999999],
        "properties": { "magmom": 0.151 },
        "label": "Pu",
        "xyz": [5.84595713203, 5.004537903449999, 5.404950317524986]
      },
      {
        "species": [{ "element": "Pu", "occu": 1 }],
        "abc": [0.0006749999999990001, 0.169789, 0.095281999999999],
        "properties": { "magmom": 0.043000000000000003 },
        "label": "Pu",
        "xyz": [0.004613961149993165, 1.277719613682, 1.347007065073986]
      },
      {
        "species": [{ "element": "Pu", "occu": 1 }],
        "abc": [0.500675, 0.330211, 0.404717999999999],
        "properties": { "magmom": 0.033 },
        "label": "Pu",
        "xyz": [3.42236296115, 2.4849493863179997, 5.721521434925986]
      },
      {
        "species": [{ "element": "Pu", "occu": 1 }],
        "abc": [0.499324999999999, 0.669789, 0.904717999999999],
        "properties": { "magmom": 0.032 },
        "label": "Pu",
        "xyz": [3.4131350388499935, 5.0403886136819995, 12.790049934925987]
      },
      {
        "species": [{ "element": "Pu", "occu": 1 }],
        "abc": [0.9993249999999991, 0.830210999999999, 0.595282],
        "properties": { "magmom": 0.042 },
        "label": "Pu",
        "xyz": [6.8308840388499945, 6.247618386317993, 8.415535565074]
      },
      {
        "species": [{ "element": "Pu", "occu": 1 }],
        "abc": [0.9993249999999991, 0.830210999999999, 0.904717999999999],
        "properties": { "magmom": 0.042 },
        "label": "Pu",
        "xyz": [6.8308840388499945, 6.247618386317993, 12.790049934925987]
      },
      {
        "species": [{ "element": "Pu", "occu": 1 }],
        "abc": [0.499324999999999, 0.669789, 0.595282],
        "properties": { "magmom": 0.032 },
        "label": "Pu",
        "xyz": [3.4131350388499935, 5.0403886136819995, 8.415535565074]
      },
      {
        "species": [{ "element": "Pu", "occu": 1 }],
        "abc": [0.500675, 0.330211, 0.095281999999999],
        "properties": { "magmom": 0.033 },
        "label": "Pu",
        "xyz": [3.42236296115, 2.4849493863179997, 1.347007065073986]
      },
      {
        "species": [{ "element": "Pu", "occu": 1 }],
        "abc": [0.0006749999999990001, 0.169789, 0.404717999999999],
        "properties": { "magmom": 0.043000000000000003 },
        "label": "Pu",
        "xyz": [0.004613961149993165, 1.277719613682, 5.721521434925986]
      },
      {
        "species": [{ "element": "Ir", "occu": 1 }],
        "abc": [0.042005999999999, 0.870729, 0.25],
        "properties": { "magmom": -0.014 },
        "label": "Ir",
        "xyz": [0.28713192898799317, 6.552530031401999, 3.53426425]
      },
      {
        "species": [{ "element": "Ir", "occu": 1 }],
        "abc": [0.542006, 0.629271, 0.25],
        "properties": { "magmom": -0.014 },
        "label": "Ir",
        "xyz": [3.704880928988, 4.735476968598, 3.53426425]
      },
      {
        "species": [{ "element": "Ir", "occu": 1 }],
        "abc": [0.457993999999999, 0.370729, 0.75],
        "properties": { "magmom": -0.014 },
        "label": "Ir",
        "xyz": [3.1306170710119936, 2.789861031402, 10.60279275]
      },
      {
        "species": [{ "element": "Ir", "occu": 1 }],
        "abc": [0.9579939999999991, 0.129271, 0.75],
        "properties": { "magmom": -0.014 },
        "label": "Ir",
        "xyz": [6.548366071011994, 0.9728079685979999, 10.60279275]
      },
      {
        "species": [{ "element": "Ir", "occu": 1 }],
        "abc": [0.830299, 0.369278, 0.25],
        "properties": { "magmom": -0.034 },
        "label": "Ir",
        "xyz": [5.675507153902, 2.778941765964, 3.53426425]
      },
      {
        "species": [{ "element": "Ir", "occu": 1 }],
        "abc": [0.330299, 0.130722, 0.25],
        "properties": { "magmom": -0.033 },
        "label": "Ir",
        "xyz": [2.257758153902, 0.983727234036, 3.53426425]
      },
      {
        "species": [{ "element": "Ir", "occu": 1 }],
        "abc": [0.669701, 0.869278, 0.75],
        "properties": { "magmom": -0.033 },
        "label": "Ir",
        "xyz": [4.577739846098, 6.541610765963999, 10.60279275]
      },
      {
        "species": [{ "element": "Ir", "occu": 1 }],
        "abc": [0.169701, 0.630722, 0.75],
        "properties": { "magmom": -0.034 },
        "label": "Ir",
        "xyz": [1.159990846098, 4.746396234036, 10.60279275]
      },
      {
        "species": [{ "element": "Ir", "occu": 1 }],
        "abc": [0.803832999999999, 0.457640999999999, 0.966868],
        "properties": { "magmom": 0.019 },
        "label": "Ir",
        "xyz": [5.4945988638339935, 3.4439032076579923, 13.668668027476]
      },
      {
        "species": [{ "element": "Ir", "occu": 1 }],
        "abc": [0.303832999999999, 0.042359, 0.533131999999999],
        "properties": { "magmom": 0.018000000000000002 },
        "label": "Ir",
        "xyz": [2.0768498638339934, 0.318765792342, 7.536917472523987]
      },
      {
        "species": [{ "element": "Ir", "occu": 1 }],
        "abc": [0.696167, 0.957641, 0.033132],
        "properties": { "magmom": 0.018000000000000002 },
        "label": "Ir",
        "xyz": [4.758648136166, 7.206572207658, 0.468388972524]
      },
      {
        "species": [{ "element": "Ir", "occu": 1 }],
        "abc": [0.196166999999999, 0.542358999999999, 0.466868],
        "properties": { "magmom": 0.018000000000000002 },
        "label": "Ir",
        "xyz": [1.3408991361659932, 4.081434792341993, 6.600139527476]
      },
      {
        "species": [{ "element": "Ir", "occu": 1 }],
        "abc": [0.196166999999999, 0.542358999999999, 0.033132],
        "properties": { "magmom": 0.019 },
        "label": "Ir",
        "xyz": [1.3408991361659932, 4.081434792341993, 0.468388972524]
      },
      {
        "species": [{ "element": "Ir", "occu": 1 }],
        "abc": [0.696167, 0.957641, 0.466868],
        "properties": { "magmom": 0.018000000000000002 },
        "label": "Ir",
        "xyz": [4.758648136166, 7.206572207658, 6.600139527476]
      },
      {
        "species": [{ "element": "Ir", "occu": 1 }],
        "abc": [0.303832999999999, 0.042359, 0.966868],
        "properties": { "magmom": 0.018000000000000002 },
        "label": "Ir",
        "xyz": [2.0768498638339934, 0.318765792342, 13.668668027476]
      },
      {
        "species": [{ "element": "Ir", "occu": 1 }],
        "abc": [0.803832999999999, 0.457640999999999, 0.533131999999999],
        "properties": { "magmom": 0.018000000000000002 },
        "label": "Ir",
        "xyz": [5.4945988638339935, 3.4439032076579923, 7.536917472523987]
      }
    ]
  },
  "task_ids": null,
  "uncorrected_energy_per_atom": null,
  "energy_per_atom": -11.473871511111112,
  "formation_energy_per_atom": 0.642061725138895,
  "energy_above_hull": 0.7626319127777771,
  "is_stable": false,
  "equilibrium_reaction_energy_per_atom": null,
  "decomposes_to": null,
  "xas": null,
  "grain_boundaries": null,
  "band_gap": 0.0,
  "cbm": null,
  "vbm": null,
  "efermi": 11.69446923,
  "is_gap_direct": null,
  "is_metal": null,
  "es_source_calc_id": null,
  "bandstructure": null,
  "dos": null,
  "dos_energy_up": null,
  "dos_energy_down": null,
  "is_magnetic": null,
  "ordering": null,
  "total_magnetization": 1.798319499999999,
  "total_magnetization_normalized_vol": null,
  "total_magnetization_normalized_formula_units": null,
  "num_magnetic_sites": null,
  "num_unique_magnetic_sites": null,
  "types_of_magnetic_species": null,
  "bulk_modulus": null,
  "shear_modulus": null,
  "universal_anisotropy": null,
  "homogeneous_poisson": null,
  "e_total": null,
  "e_ionic": null,
  "e_electronic": null,
  "n": null,
  "e_ij_max": null,
  "weighted_surface_energy_EV_PER_ANG2": null,
  "weighted_surface_energy": null,
  "weighted_work_function": null,
  "surface_anisotropy": null,
  "shape_factor": null,
  "has_reconstructed": null,
  "possible_species": null,
  "has_props": null,
  "theoretical": null,
  "database_IDs": null,
  "fields_not_requested": [
    "builder_meta",
    "nsites",
    "elements",
    "nelements",
    "composition",
    "composition_reduced",
    "chemsys",
    "symmetry",
    "property_name",
    "deprecated",
    "deprecation_reasons",
    "last_updated",
    "origins",
    "warnings",
    "task_ids",
    "uncorrected_energy_per_atom",
    "equilibrium_reaction_energy_per_atom",
    "decomposes_to",
    "xas",
    "grain_boundaries",
    "cbm",
    "vbm",
    "is_gap_direct",
    "is_metal",
    "es_source_calc_id",
    "bandstructure",
    "dos",
    "dos_energy_up",
    "dos_energy_down",
    "is_magnetic",
    "ordering",
    "total_magnetization_normalized_vol",
    "total_magnetization_normalized_formula_units",
    "num_magnetic_sites",
    "num_unique_magnetic_sites",
    "types_of_magnetic_species",
    "bulk_modulus",
    "shear_modulus",
    "universal_anisotropy",
    "homogeneous_poisson",
    "e_total",
    "e_ionic",
    "e_electronic",
    "n",
    "e_ij_max",
    "weighted_surface_energy_EV_PER_ANG2",
    "weighted_surface_energy",
    "weighted_work_function",
    "surface_anisotropy",
    "shape_factor",
    "has_reconstructed",
    "possible_species",
    "has_props",
    "theoretical",
    "database_IDs"
  ]
}
