{"builder_meta": null, "nsites": null, "elements": null, "nelements": null, "composition": null, "composition_reduced": null, "formula_pretty": "Pu5Ir3", "formula_anonymous": "A3B5", "chemsys": null, "volume": 346.7476895021715, "density": 17.207954168803614, "density_atomic": 21.67173059388572, "symmetry": null, "property_name": null, "material_id": "mp-2848", "deprecated": null, "deprecation_reasons": null, "last_updated": null, "origins": null, "warnings": null, "structure": {"@module": "pymatgen.core.structure", "@class": "Structure", "charge": 0, "lattice": {"matrix": [[-5.572797, 5.572797, 2.7913040000000002], [5.572797, -5.572797, 2.7913040000000002], [5.572797, 5.572797, -2.7913040000000002]], "pbc": [true, true, true], "a": 8.360831945855269, "b": 8.360831945855269, "c": 8.360831945855269, "alpha": 96.39942950840471, "beta": 96.39942950840471, "gamma": 140.99417027480638, "volume": 346.74768950217157}, "properties": {}, "sites": [{"species": [{"element": "Pu", "occu": 1}], "abc": [0.75, 0.25, 0.5], "properties": {"magmom": -4.839}, "label": "Pu", "xyz": [4.440892098500626e-16, 5.572797, 1.3956520000000001]}, {"species": [{"element": "Pu", "occu": 1}], "abc": [0.25, 0.75, 0.5], "properties": {"magmom": -4.852}, "label": "Pu", "xyz": [5.572797, 4.440892098500626e-16, 1.3956520000000001]}, {"species": [{"element": "Pu", "occu": 1}], "abc": [0.08247499999999901, 0.779038, 0.861513], "properties": {"magmom": 5.168}, "label": "Pu", "xyz": [8.682841258572005, 0.9192328651499948, -2.6645352591003757e-15]}, {"species": [{"element": "Pu", "occu": 1}], "abc": [0.779038, 0.917524999999999, 0.696562999999999], "properties": {"magmom": 5.229}, "label": "Pu", "xyz": [4.653564134849988, 3.110044258572, 2.7913040000000007]}, {"species": [{"element": "Pu", "occu": 1}], "abc": [0.220962, 0.08247499999999901, 0.303437], "properties": {"magmom": 5.227}, "label": "Pu", "xyz": [0.9192328651499947, 2.4627527414280053, -2.7755575615628914e-15]}, {"species": [{"element": "Pu", "occu": 1}], "abc": [0.917524999999999, 0.220962, 0.138487], "properties": {"magmom": 5.169}, "label": "Pu", "xyz": [-3.1100442585719943, 4.653564134849994, 2.7913039999999976]}, {"species": [{"element": "Pu", "occu": 1}], "abc": [0.279038, 0.582475, 0.861513], "properties": {"magmom": 5.189}, "label": "Pu", "xyz": [6.492029865149999, 3.1100442585720005, -4.440892098500626e-16]}, {"species": [{"element": "Pu", "occu": 1}], "abc": [0.720962, 0.417525, 0.138487], "properties": {"magmom": 5.189}, "label": "Pu", "xyz": [-0.9192328651500004, 2.462752741428, 2.7913040000000002]}, {"species": [{"element": "Pu", "occu": 1}], "abc": [0.417525, 0.279038, 0.696562999999999], "properties": {"magmom": 5.208}, "label": "Pu", "xyz": [3.110044258571995, 4.653564134849994, 2.6645352591003757e-15]}, {"species": [{"element": "Pu", "occu": 1}], "abc": [0.582475, 0.720962, 0.303437], "properties": {"magmom": 5.209}, "label": "Pu", "xyz": [2.462752741428, 0.9192328651499999, 2.791304]}, {"species": [{"element": "Ir", "occu": 1}], "abc": [0.75, 0.75, 0.0], "properties": {"magmom": -0.28500000000000003}, "label": "Ir", "xyz": [0.0, 0.0, 4.186956]}, {"species": [{"element": "Ir", "occu": 1}], "abc": [0.25, 0.25, 0.0], "properties": {"magmom": -0.28500000000000003}, "label": "Ir", "xyz": [0.0, 0.0, 1.3956520000000001]}, {"species": [{"element": "Ir", "occu": 1}], "abc": [0.164222999999999, 0.335777, 0.5], "properties": {"magmom": -0.134}, "label": "Ir", "xyz": [3.7424341165380053, 1.8303628834619943, -2.886579864025407e-15]}, {"species": [{"element": "Ir", "occu": 1}], "abc": [0.335777, 0.835777, 0.171552999999999], "properties": {"magmom": -0.14100000000000001}, "label": "Ir", "xyz": [3.7424285437409943, -1.8303684562590052, 2.7913067913040024]}, {"species": [{"element": "Ir", "occu": 1}], "abc": [0.664223, 0.164222999999999, 0.828446999999999], "properties": {"magmom": -0.14100000000000001}, "label": "Ir", "xyz": [1.8303684562589888, 7.403165456258999, -2.7913039999383216e-06]}, {"species": [{"element": "Ir", "occu": 1}], "abc": [0.835777, 0.664223, 0.5], "properties": {"magmom": -0.134}, "label": "Ir", "xyz": [1.8303628834619996, 3.742434116538, 2.7913040000000002]}]}, "task_ids": null, "uncorrected_energy_per_atom": null, "energy_per_atom": -12.661262079375, "formation_energy_per_atom": -0.13564146109374, "energy_above_hull": 0.0, "is_stable": true, "equilibrium_reaction_energy_per_atom": null, "decomposes_to": null, "xas": null, "grain_boundaries": null, "band_gap": 0.0, "cbm": null, "vbm": null, "efermi": 11.29239074, "is_gap_direct": null, "is_metal": null, "es_source_calc_id": null, "bandstructure": null, "dos": null, "dos_energy_up": null, "dos_energy_down": null, "is_magnetic": null, "ordering": null, "total_magnetization": 27.9668906, "total_magnetization_normalized_vol": null, "total_magnetization_normalized_formula_units": null, "num_magnetic_sites": null, "num_unique_magnetic_sites": null, "types_of_magnetic_species": null, "bulk_modulus": null, "shear_modulus": null, "universal_anisotropy": null, "homogeneous_poisson": null, "e_total": null, "e_ionic": null, "e_electronic": null, "n": null, "e_ij_max": null, "weighted_surface_energy_EV_PER_ANG2": null, "weighted_surface_energy": null, "weighted_work_function": null, "surface_anisotropy": null, "shape_factor": null, "has_reconstructed": null, "possible_species": null, "has_props": null, "theoretical": null, "database_IDs": null, "fields_not_requested": ["builder_meta", "nsites", "elements", "nelements", "composition", "composition_reduced", "chemsys", "symmetry", "property_name", "deprecated", "deprecation_reasons", "last_updated", "origins", "warnings", "task_ids", "uncorrected_energy_per_atom", "equilibrium_reaction_energy_per_atom", "decomposes_to", "xas", "grain_boundaries", "cbm", "vbm", "is_gap_direct", "is_metal", "es_source_calc_id", "bandstructure", "dos", "dos_energy_up", "dos_energy_down", "is_magnetic", "ordering", "total_magnetization_normalized_vol", "total_magnetization_normalized_formula_units", "num_magnetic_sites", "num_unique_magnetic_sites", "types_of_magnetic_species", "bulk_modulus", "shear_modulus", "universal_anisotropy", "homogeneous_poisson", "e_total", "e_ionic", "e_electronic", "n", "e_ij_max", "weighted_surface_energy_EV_PER_ANG2", "weighted_surface_energy", "weighted_work_function", "surface_anisotropy", "shape_factor", "has_reconstructed", "possible_species", "has_props", "theoretical", "database_IDs"]}