{"builder_meta": null, "nsites": null, "elements": null, "nelements": null, "composition": null, "composition_reduced": null, "formula_pretty": "Pu5Os3", "formula_anonymous": "A3B5", "chemsys": null, "volume": 333.0620150578555, "density": 17.855597857074347, "density_atomic": 20.816375941115968, "symmetry": null, "property_name": null, "material_id": "mp-30823", "deprecated": null, "deprecation_reasons": null, "last_updated": null, "origins": null, "warnings": null, "structure": {"@module": "pymatgen.core.structure", "@class": "Structure", "charge": 0, "lattice": {"matrix": [[-5.48194, 5.48194, 2.770745], [5.48194, -5.48194, 2.770745], [5.48194, 5.48194, -2.770745]], "pbc": [true, true, true], "a": 8.232882859741476, "b": 8.232882859741476, "c": 8.232882859741476, "alpha": 96.50346547093383, "beta": 96.50346547093383, "gamma": 140.6668284745761, "volume": 333.0620150578555}, "properties": {}, "sites": [{"species": [{"element": "Pu", "occu": 1}], "abc": [0.75, 0.25, 0.5], "properties": {"magmom": -0.155}, "label": "Pu", "xyz": [4.440892098500626e-16, 5.48194, 1.3853725]}, {"species": [{"element": "Pu", "occu": 1}], "abc": [0.25, 0.75, 0.5], "properties": {"magmom": -0.155}, "label": "Pu", "xyz": [5.48194, 4.440892098500626e-16, 1.3853725]}, {"species": [{"element": "Pu", "occu": 1}], "abc": [0.219436, 0.9129659999999991, 0.132402], "properties": {"magmom": 5.004}, "label": "Pu", "xyz": [4.527709668079995, -3.076070028319995, 2.770744999999997]}, {"species": [{"element": "Pu", "occu": 1}], "abc": [0.087034, 0.219436, 0.306469], "properties": {"magmom": 5.01}, "label": "Pu", "xyz": [2.40586448974, 0.9542248499799999, 2.7707449999914147e-06]}, {"species": [{"element": "Pu", "occu": 1}], "abc": [0.9129659999999991, 0.780563999999999, 0.693531], "properties": {"magmom": 5.012}, "label": "Pu", "xyz": [3.07607551026, 4.52771515002, 2.770742229254995]}, {"species": [{"element": "Pu", "occu": 1}], "abc": [0.780563999999999, 0.087034, 0.867598], "properties": {"magmom": 5.004}, "label": "Pu", "xyz": [0.9542303319200052, 8.558010028319995, -2.6645352591003757e-15]}, {"species": [{"element": "Pu", "occu": 1}], "abc": [0.412966, 0.719436, 0.132402], "properties": {"magmom": 5.005}, "label": "Pu", "xyz": [2.4058699716799996, -0.9542303319199998, 2.770745]}, {"species": [{"element": "Pu", "occu": 1}], "abc": [0.587034, 0.280564, 0.867598], "properties": {"magmom": 5.003}, "label": "Pu", "xyz": [3.07607002832, 6.43617033192, -4.440892098500626e-16]}, {"species": [{"element": "Pu", "occu": 1}], "abc": [0.719436, 0.587034, 0.306469], "properties": {"magmom": 5.011}, "label": "Pu", "xyz": [0.9542248499799997, 2.4058644897400003, 2.7707477707449994]}, {"species": [{"element": "Pu", "occu": 1}], "abc": [0.280564, 0.412966, 0.693531], "properties": {"magmom": 5.01}, "label": "Pu", "xyz": [4.52771515002, 3.07607551026, -2.7707449998803924e-06]}, {"species": [{"element": "Os", "occu": 1}], "abc": [0.25, 0.25, 0.0], "properties": {"magmom": -0.63}, "label": "Os", "xyz": [0.0, 0.0, 1.3853725]}, {"species": [{"element": "Os", "occu": 1}], "abc": [0.75, 0.75, 0.0], "properties": {"magmom": -0.629}, "label": "Os", "xyz": [0.0, 0.0, 4.1561175]}, {"species": [{"element": "Os", "occu": 1}], "abc": [0.650463999999999, 0.849536, 0.5], "properties": {"magmom": -0.291}, "label": "Os", "xyz": [3.8322707596800054, 1.6496692403199944, 2.770744999999997]}, {"species": [{"element": "Os", "occu": 1}], "abc": [0.150464, 0.650463999999999, 0.800929], "properties": {"magmom": -0.28700000000000003}, "label": "Os", "xyz": [7.131614722259995, 1.6496747222600057, -2.770745002322883e-06]}, {"species": [{"element": "Os", "occu": 1}], "abc": [0.849536, 0.349535999999999, 0.199071], "properties": {"magmom": -0.28700000000000003}, "label": "Os", "xyz": [-1.6496747222600052, 3.8322652777400052, 2.770747770744997]}, {"species": [{"element": "Os", "occu": 1}], "abc": [0.349535999999999, 0.150464, 0.5], "properties": {"magmom": -0.291}, "label": "Os", "xyz": [1.6496692403200053, 3.8322707596799948, -2.886579864025407e-15]}]}, "task_ids": null, "uncorrected_energy_per_atom": null, "energy_per_atom": -13.04014608125, "formation_energy_per_atom": 0.38132450578125804, "energy_above_hull": 0.38132450578125804, "is_stable": false, "equilibrium_reaction_energy_per_atom": null, "decomposes_to": null, "xas": null, "grain_boundaries": null, "band_gap": 0.0, "cbm": null, "vbm": null, "efermi": 11.43511409, "is_gap_direct": null, "is_metal": null, "es_source_calc_id": null, "bandstructure": null, "dos": null, "dos_energy_up": null, "dos_energy_down": null, "is_magnetic": null, "ordering": null, "total_magnetization": 39.015293, "total_magnetization_normalized_vol": null, "total_magnetization_normalized_formula_units": null, "num_magnetic_sites": null, "num_unique_magnetic_sites": null, "types_of_magnetic_species": null, "bulk_modulus": null, "shear_modulus": null, "universal_anisotropy": null, "homogeneous_poisson": null, "e_total": null, "e_ionic": null, "e_electronic": null, "n": null, "e_ij_max": null, "weighted_surface_energy_EV_PER_ANG2": null, "weighted_surface_energy": null, "weighted_work_function": null, "surface_anisotropy": null, "shape_factor": null, "has_reconstructed": null, "possible_species": null, "has_props": null, "theoretical": null, "database_IDs": null, "fields_not_requested": ["builder_meta", "nsites", "elements", "nelements", "composition", "composition_reduced", "chemsys", "symmetry", "property_name", "deprecated", "deprecation_reasons", "last_updated", "origins", "warnings", "task_ids", "uncorrected_energy_per_atom", "equilibrium_reaction_energy_per_atom", "decomposes_to", "xas", "grain_boundaries", "cbm", "vbm", "is_gap_direct", "is_metal", "es_source_calc_id", "bandstructure", "dos", "dos_energy_up", "dos_energy_down", "is_magnetic", "ordering", "total_magnetization_normalized_vol", "total_magnetization_normalized_formula_units", "num_magnetic_sites", "num_unique_magnetic_sites", "types_of_magnetic_species", "bulk_modulus", "shear_modulus", "universal_anisotropy", "homogeneous_poisson", "e_total", "e_ionic", "e_electronic", "n", "e_ij_max", "weighted_surface_energy_EV_PER_ANG2", "weighted_surface_energy", "weighted_work_function", "surface_anisotropy", "shape_factor", "has_reconstructed", "possible_species", "has_props", "theoretical", "database_IDs"]}