{
  "builder_meta": null,
  "nsites": null,
  "elements": null,
  "nelements": null,
  "composition": null,
  "composition_reduced": null,
  "formula_pretty": "Pu5Pb3",
  "formula_anonymous": "A3B5",
  "chemsys": null,
  "volume": 458.62944211222094,
  "density": 13.335597169543655,
  "density_atomic": 28.66434013201381,
  "symmetry": null,
  "property_name": null,
  "material_id": "mp-1188287",
  "deprecated": null,
  "deprecation_reasons": null,
  "last_updated": null,
  "origins": null,
  "warnings": null,
  "structure": {
    "@module": "pymatgen.core.structure",
    "@class": "Structure",
    "charge": 0,
    "lattice": {
      "matrix": [
        [0.0, 0.0, -5.955418],
        [-6.205258, -6.205258, -2.977709],
        [-6.205258, 6.205258, -2.977709]
      ],
      "pbc": [true, true, true],
      "a": 5.955418,
      "b": 9.266995445224358,
      "c": 9.266995445224358,
      "alpha": 84.07369635782469,
      "beta": 71.25698006081602,
      "gamma": 71.25698006081602,
      "volume": 458.62944211222094
    },
    "properties": {},
    "sites": [
      {
        "species": [{ "element": "Pu", "occu": 1 }],
        "abc": [0.227157, 0.694395, 0.851290999999999],
        "properties": { "magmom": 5.52 },
        "label": "Pu",
        "xyz": [-9.591380416987993, 0.9735801591679945, -5.955417999999996]
      },
      {
        "species": [{ "element": "Pu", "occu": 1 }],
        "abc": [0.772843, 0.305604999999999, 0.148708999999999],
        "properties": { "magmom": 5.52 },
        "label": "Pu",
        "xyz": [-2.8191355830119873, -0.973580159168, -5.955417999999994]
      },
      {
        "species": [{ "element": "Pu", "occu": 1 }],
        "abc": [0.272843, 0.148708999999999, 0.305604999999999],
        "properties": { "magmom": 5.52 },
        "label": "Pu",
        "xyz": [-2.8191355830119873, 0.973580159168, -2.977708999999994]
      },
      {
        "species": [{ "element": "Pu", "occu": 1 }],
        "abc": [0.727156999999999, 0.851290999999999, 0.694395],
        "properties": { "magmom": 5.52 },
        "label": "Pu",
        "xyz": [-9.591380416987993, -0.9735801591679945, -8.93312699999999]
      },
      {
        "species": [{ "element": "Pu", "occu": 1 }],
        "abc": [0.078447999999999, 0.148708999999999, 0.694395],
        "properties": { "magmom": 5.52 },
        "label": "Pu",
        "xyz": [-5.231677840831994, 3.3861224169880058, -2.977708999999991]
      },
      {
        "species": [{ "element": "Pu", "occu": 1 }],
        "abc": [0.921551999999999, 0.851290999999999, 0.305604999999999],
        "properties": { "magmom": 5.52 },
        "label": "Pu",
        "xyz": [-7.178838159167988, -3.386122416988, -8.933126999999988]
      },
      {
        "species": [{ "element": "Pu", "occu": 1 }],
        "abc": [0.578448, 0.694395, 0.148708999999999],
        "properties": { "magmom": 5.52 },
        "label": "Pu",
        "xyz": [-5.231677840831994, -3.3861224169880058, -5.955417999999997]
      },
      {
        "species": [{ "element": "Pu", "occu": 1 }],
        "abc": [0.421552, 0.305604999999999, 0.851290999999999],
        "properties": { "magmom": 5.52 },
        "label": "Pu",
        "xyz": [-7.178838159167988, 3.386122416988, -5.955417999999994]
      },
      {
        "species": [{ "element": "Pu", "occu": 1 }],
        "abc": [0.75, 0.5, 0.5],
        "properties": { "magmom": 1.221 },
        "label": "Pu",
        "xyz": [-6.205258, 0.0, -7.4442725]
      },
      {
        "species": [{ "element": "Pu", "occu": 1 }],
        "abc": [0.25, 0.5, 0.5],
        "properties": { "magmom": 1.221 },
        "label": "Pu",
        "xyz": [-6.205258, 0.0, -4.4665634999999995]
      },
      {
        "species": [{ "element": "Pb", "occu": 1 }],
        "abc": [0.664690999999999, 0.170618, 0.5],
        "properties": { "magmom": -0.105 },
        "label": "Pb",
        "xyz": [-4.161357709443999, 2.043900290556, -5.9554179999999945]
      },
      {
        "species": [{ "element": "Pb", "occu": 1 }],
        "abc": [0.335308999999999, 0.829382, 0.5],
        "properties": { "magmom": -0.105 },
        "label": "Pb",
        "xyz": [-8.249158290556, -2.043900290556, -5.9554179999999945]
      },
      {
        "species": [{ "element": "Pb", "occu": 1 }],
        "abc": [0.835309, 0.5, 0.829382],
        "properties": { "magmom": -0.105 },
        "label": "Pb",
        "xyz": [-8.249158290556, 2.043900290556, -8.933126999999999]
      },
      {
        "species": [{ "element": "Pb", "occu": 1 }],
        "abc": [0.164691, 0.5, 0.170618],
        "properties": { "magmom": -0.105 },
        "label": "Pb",
        "xyz": [-4.161357709443999, -2.043900290556, -2.977709]
      },
      {
        "species": [{ "element": "Pb", "occu": 1 }],
        "abc": [0.25, 0.0, 0.0],
        "properties": { "magmom": -0.115 },
        "label": "Pb",
        "xyz": [0.0, 0.0, -1.4888545]
      },
      {
        "species": [{ "element": "Pb", "occu": 1 }],
        "abc": [0.75, 0.0, 0.0],
        "properties": { "magmom": -0.115 },
        "label": "Pb",
        "xyz": [0.0, 0.0, -4.4665634999999995]
      }
    ]
  },
  "task_ids": null,
  "uncorrected_energy_per_atom": null,
  "energy_per_atom": -10.16160249125,
  "formation_energy_per_atom": 0.44184796078126,
  "energy_above_hull": 0.46825561687500705,
  "is_stable": false,
  "equilibrium_reaction_energy_per_atom": null,
  "decomposes_to": null,
  "xas": null,
  "grain_boundaries": null,
  "band_gap": 0.0,
  "cbm": null,
  "vbm": null,
  "efermi": 9.60793477,
  "is_gap_direct": null,
  "is_metal": null,
  "es_source_calc_id": null,
  "bandstructure": null,
  "dos": null,
  "dos_energy_up": null,
  "dos_energy_down": null,
  "is_magnetic": null,
  "ordering": null,
  "total_magnetization": 47.6218869,
  "total_magnetization_normalized_vol": null,
  "total_magnetization_normalized_formula_units": null,
  "num_magnetic_sites": null,
  "num_unique_magnetic_sites": null,
  "types_of_magnetic_species": null,
  "bulk_modulus": null,
  "shear_modulus": null,
  "universal_anisotropy": null,
  "homogeneous_poisson": null,
  "e_total": null,
  "e_ionic": null,
  "e_electronic": null,
  "n": null,
  "e_ij_max": null,
  "weighted_surface_energy_EV_PER_ANG2": null,
  "weighted_surface_energy": null,
  "weighted_work_function": null,
  "surface_anisotropy": null,
  "shape_factor": null,
  "has_reconstructed": null,
  "possible_species": null,
  "has_props": null,
  "theoretical": null,
  "database_IDs": null,
  "fields_not_requested": [
    "builder_meta",
    "nsites",
    "elements",
    "nelements",
    "composition",
    "composition_reduced",
    "chemsys",
    "symmetry",
    "property_name",
    "deprecated",
    "deprecation_reasons",
    "last_updated",
    "origins",
    "warnings",
    "task_ids",
    "uncorrected_energy_per_atom",
    "equilibrium_reaction_energy_per_atom",
    "decomposes_to",
    "xas",
    "grain_boundaries",
    "cbm",
    "vbm",
    "is_gap_direct",
    "is_metal",
    "es_source_calc_id",
    "bandstructure",
    "dos",
    "dos_energy_up",
    "dos_energy_down",
    "is_magnetic",
    "ordering",
    "total_magnetization_normalized_vol",
    "total_magnetization_normalized_formula_units",
    "num_magnetic_sites",
    "num_unique_magnetic_sites",
    "types_of_magnetic_species",
    "bulk_modulus",
    "shear_modulus",
    "universal_anisotropy",
    "homogeneous_poisson",
    "e_total",
    "e_ionic",
    "e_electronic",
    "n",
    "e_ij_max",
    "weighted_surface_energy_EV_PER_ANG2",
    "weighted_surface_energy",
    "weighted_work_function",
    "surface_anisotropy",
    "shape_factor",
    "has_reconstructed",
    "possible_species",
    "has_props",
    "theoretical",
    "database_IDs"
  ]
}
