{
  "builder_meta": null,
  "nsites": null,
  "elements": null,
  "nelements": null,
  "composition": null,
  "composition_reduced": null,
  "formula_pretty": "Pu5Rh3",
  "formula_anonymous": "A3B5",
  "chemsys": null,
  "volume": 709.568391081807,
  "density": 14.31007075236728,
  "density_atomic": 22.17401222130647,
  "symmetry": null,
  "property_name": null,
  "material_id": "mp-2752790",
  "deprecated": null,
  "deprecation_reasons": null,
  "last_updated": null,
  "origins": null,
  "warnings": null,
  "structure": {
    "@module": "pymatgen.core.structure",
    "@class": "Structure",
    "charge": 0,
    "lattice": {
      "matrix": [
        [10.88900264, 0.0, 0.0],
        [-0.0, 10.88900264, 0.0],
        [-0.0, 0.0, 5.98436473]
      ],
      "pbc": [true, true, true],
      "a": 10.88900264,
      "b": 10.88900264,
      "c": 5.98436473,
      "alpha": 90.0,
      "beta": 90.0,
      "gamma": 90.0,
      "volume": 709.568391081807
    },
    "properties": {},
    "sites": [
      {
        "species": [{ "element": "Pu", "occu": 1 }],
        "abc": [0.5, 0.5, 0.5],
        "properties": { "magmom": -5.054 },
        "label": "Pu",
        "xyz": [5.44450132, 5.44450132, 2.992182365]
      },
      {
        "species": [{ "element": "Pu", "occu": 1 }],
        "abc": [0.5, 0.5, -0.0],
        "properties": { "magmom": -5.054 },
        "label": "Pu",
        "xyz": [5.44450132, 5.44450132, 0.0]
      },
      {
        "species": [{ "element": "Pu", "occu": 1 }],
        "abc": [0.0, -0.0, 0.5],
        "properties": { "magmom": -5.054 },
        "label": "Pu",
        "xyz": [0.0, 0.0, 2.992182365]
      },
      {
        "species": [{ "element": "Pu", "occu": 1 }],
        "abc": [0.0, -0.0, -0.0],
        "properties": { "magmom": -5.054 },
        "label": "Pu",
        "xyz": [0.0, 0.0, 0.0]
      },
      {
        "species": [{ "element": "Pu", "occu": 1 }],
        "abc": [0.782948499999999, 0.58410133, 0.25563736],
        "properties": { "magmom": 5.163 },
        "label": "Pu",
        "xyz": [8.525528283484029, 6.360280924397511, 1.5298272008543128]
      },
      {
        "species": [{ "element": "Pu", "occu": 1 }],
        "abc": [0.217051499999999, 0.58410133, 0.75563736],
        "properties": { "magmom": 5.163 },
        "label": "Pu",
        "xyz": [2.363474356515949, 6.360280924397511, 4.522009565854313]
      },
      {
        "species": [{ "element": "Pu", "occu": 1 }],
        "abc": [0.7170515, 0.91589867, 0.74436264],
        "properties": { "magmom": 5.163 },
        "label": "Pu",
        "xyz": [7.807975676515959, 9.973223035602489, 4.4545375291456875]
      },
      {
        "species": [{ "element": "Pu", "occu": 1 }],
        "abc": [0.7170515, 0.08410133, 0.24436264],
        "properties": { "magmom": 5.163 },
        "label": "Pu",
        "xyz": [7.807975676515959, 0.9157796043975112, 1.4623551641456871]
      },
      {
        "species": [{ "element": "Pu", "occu": 1 }],
        "abc": [0.217051499999999, 0.41589867, 0.25563736],
        "properties": { "magmom": 5.163 },
        "label": "Pu",
        "xyz": [2.363474356515949, 4.528721715602488, 1.5298272008543128]
      },
      {
        "species": [{ "element": "Pu", "occu": 1 }],
        "abc": [0.782948499999999, 0.41589867, 0.75563736],
        "properties": { "magmom": 5.163 },
        "label": "Pu",
        "xyz": [8.525528283484029, 4.528721715602488, 4.522009565854313]
      },
      {
        "species": [{ "element": "Pu", "occu": 1 }],
        "abc": [0.2829485, 0.08410133, 0.74436264],
        "properties": { "magmom": 5.163 },
        "label": "Pu",
        "xyz": [3.0810269634840397, 0.9157796043975112, 4.4545375291456875]
      },
      {
        "species": [{ "element": "Pu", "occu": 1 }],
        "abc": [0.2829485, 0.91589867, 0.24436264],
        "properties": { "magmom": 5.163 },
        "label": "Pu",
        "xyz": [3.0810269634840397, 9.973223035602489, 1.4623551641456871]
      },
      {
        "species": [{ "element": "Pu", "occu": 1 }],
        "abc": [0.41589867, 0.782948499999999, 0.74436264],
        "properties": { "magmom": 5.163 },
        "label": "Pu",
        "xyz": [4.528721715602488, 8.525528283484029, 4.4545375291456875]
      },
      {
        "species": [{ "element": "Pu", "occu": 1 }],
        "abc": [0.41589867, 0.217051499999999, 0.24436264],
        "properties": { "magmom": 5.163 },
        "label": "Pu",
        "xyz": [4.528721715602488, 2.363474356515949, 1.4623551641456871]
      },
      {
        "species": [{ "element": "Pu", "occu": 1 }],
        "abc": [0.91589867, 0.2829485, 0.25563736],
        "properties": { "magmom": 5.163 },
        "label": "Pu",
        "xyz": [9.973223035602489, 3.0810269634840397, 1.5298272008543128]
      },
      {
        "species": [{ "element": "Pu", "occu": 1 }],
        "abc": [0.91589867, 0.7170515, 0.75563736],
        "properties": { "magmom": 5.163 },
        "label": "Pu",
        "xyz": [9.973223035602489, 7.807975676515959, 4.522009565854313]
      },
      {
        "species": [{ "element": "Pu", "occu": 1 }],
        "abc": [0.58410133, 0.217051499999999, 0.74436264],
        "properties": { "magmom": 5.163 },
        "label": "Pu",
        "xyz": [6.360280924397511, 2.363474356515949, 4.4545375291456875]
      },
      {
        "species": [{ "element": "Pu", "occu": 1 }],
        "abc": [0.58410133, 0.782948499999999, 0.24436264],
        "properties": { "magmom": 5.163 },
        "label": "Pu",
        "xyz": [6.360280924397511, 8.525528283484029, 1.4623551641456871]
      },
      {
        "species": [{ "element": "Pu", "occu": 1 }],
        "abc": [0.08410133, 0.7170515, 0.25563736],
        "properties": { "magmom": 5.163 },
        "label": "Pu",
        "xyz": [0.9157796043975112, 7.807975676515959, 1.5298272008543128]
      },
      {
        "species": [{ "element": "Pu", "occu": 1 }],
        "abc": [0.08410133, 0.2829485, 0.75563736],
        "properties": { "magmom": 5.163 },
        "label": "Pu",
        "xyz": [0.9157796043975112, 3.0810269634840397, 4.522009565854313]
      },
      {
        "species": [{ "element": "Rh", "occu": 1 }],
        "abc": [0.5, -0.0, 0.4932756],
        "properties": { "magmom": -0.271 },
        "label": "Rh",
        "xyz": [5.44450132, 0.0, 2.951941102809588]
      },
      {
        "species": [{ "element": "Rh", "occu": 1 }],
        "abc": [0.5, -0.0, 0.993275599999999],
        "properties": { "magmom": -0.271 },
        "label": "Rh",
        "xyz": [5.44450132, 0.0, 5.9441234678095825]
      },
      {
        "species": [{ "element": "Rh", "occu": 1 }],
        "abc": [0.0, 0.5, 0.5067244],
        "properties": { "magmom": -0.271 },
        "label": "Rh",
        "xyz": [0.0, 5.44450132, 3.0324236271904117]
      },
      {
        "species": [{ "element": "Rh", "occu": 1 }],
        "abc": [0.0, 0.5, 0.006724399999999],
        "properties": { "magmom": -0.271 },
        "label": "Rh",
        "xyz": [0.0, 5.44450132, 0.04024126219040602]
      },
      {
        "species": [{ "element": "Rh", "occu": 1 }],
        "abc": [0.6606023400000001, 0.6606023400000001, 0.75],
        "properties": { "magmom": -0.121 },
        "label": "Rh",
        "xyz": [7.193300624250178, 7.193300624250178, 4.4882735475]
      },
      {
        "species": [{ "element": "Rh", "occu": 1 }],
        "abc": [0.33939766, 0.6606023400000001, 0.25],
        "properties": { "magmom": -0.121 },
        "label": "Rh",
        "xyz": [3.695702015749822, 7.193300624250178, 1.4960911825]
      },
      {
        "species": [{ "element": "Rh", "occu": 1 }],
        "abc": [0.83939766, 0.83939766, 0.25],
        "properties": { "magmom": -0.121 },
        "label": "Rh",
        "xyz": [9.140203335749822, 9.140203335749822, 1.4960911825]
      },
      {
        "species": [{ "element": "Rh", "occu": 1 }],
        "abc": [0.83939766, 0.16060234, 0.75],
        "properties": { "magmom": -0.121 },
        "label": "Rh",
        "xyz": [9.140203335749822, 1.7487993042501775, 4.4882735475]
      },
      {
        "species": [{ "element": "Rh", "occu": 1 }],
        "abc": [0.33939766, 0.33939766, 0.75],
        "properties": { "magmom": -0.121 },
        "label": "Rh",
        "xyz": [3.695702015749822, 3.695702015749822, 4.4882735475]
      },
      {
        "species": [{ "element": "Rh", "occu": 1 }],
        "abc": [0.6606023400000001, 0.33939766, 0.25],
        "properties": { "magmom": -0.121 },
        "label": "Rh",
        "xyz": [7.193300624250178, 3.695702015749822, 1.4960911825]
      },
      {
        "species": [{ "element": "Rh", "occu": 1 }],
        "abc": [0.16060234, 0.16060234, 0.25],
        "properties": { "magmom": -0.121 },
        "label": "Rh",
        "xyz": [1.7487993042501775, 1.7487993042501775, 1.4960911825]
      },
      {
        "species": [{ "element": "Rh", "occu": 1 }],
        "abc": [0.16060234, 0.83939766, 0.75],
        "properties": { "magmom": -0.121 },
        "label": "Rh",
        "xyz": [1.7487993042501775, 9.140203335749822, 4.4882735475]
      }
    ]
  },
  "task_ids": null,
  "uncorrected_energy_per_atom": null,
  "energy_per_atom": -63.6504864103125,
  "formation_energy_per_atom": -0.626683079531247,
  "energy_above_hull": 0.0,
  "is_stable": true,
  "equilibrium_reaction_energy_per_atom": null,
  "decomposes_to": null,
  "xas": null,
  "grain_boundaries": null,
  "band_gap": 0.0,
  "cbm": null,
  "vbm": null,
  "efermi": 11.62916031,
  "is_gap_direct": null,
  "is_metal": null,
  "es_source_calc_id": null,
  "bandstructure": null,
  "dos": null,
  "dos_energy_up": null,
  "dos_energy_down": null,
  "is_magnetic": null,
  "ordering": null,
  "total_magnetization": 63.9000032,
  "total_magnetization_normalized_vol": null,
  "total_magnetization_normalized_formula_units": null,
  "num_magnetic_sites": null,
  "num_unique_magnetic_sites": null,
  "types_of_magnetic_species": null,
  "bulk_modulus": null,
  "shear_modulus": null,
  "universal_anisotropy": null,
  "homogeneous_poisson": null,
  "e_total": null,
  "e_ionic": null,
  "e_electronic": null,
  "n": null,
  "e_ij_max": null,
  "weighted_surface_energy_EV_PER_ANG2": null,
  "weighted_surface_energy": null,
  "weighted_work_function": null,
  "surface_anisotropy": null,
  "shape_factor": null,
  "has_reconstructed": null,
  "possible_species": null,
  "has_props": null,
  "theoretical": null,
  "database_IDs": null,
  "fields_not_requested": [
    "builder_meta",
    "nsites",
    "elements",
    "nelements",
    "composition",
    "composition_reduced",
    "chemsys",
    "symmetry",
    "property_name",
    "deprecated",
    "deprecation_reasons",
    "last_updated",
    "origins",
    "warnings",
    "task_ids",
    "uncorrected_energy_per_atom",
    "equilibrium_reaction_energy_per_atom",
    "decomposes_to",
    "xas",
    "grain_boundaries",
    "cbm",
    "vbm",
    "is_gap_direct",
    "is_metal",
    "es_source_calc_id",
    "bandstructure",
    "dos",
    "dos_energy_up",
    "dos_energy_down",
    "is_magnetic",
    "ordering",
    "total_magnetization_normalized_vol",
    "total_magnetization_normalized_formula_units",
    "num_magnetic_sites",
    "num_unique_magnetic_sites",
    "types_of_magnetic_species",
    "bulk_modulus",
    "shear_modulus",
    "universal_anisotropy",
    "homogeneous_poisson",
    "e_total",
    "e_ionic",
    "e_electronic",
    "n",
    "e_ij_max",
    "weighted_surface_energy_EV_PER_ANG2",
    "weighted_surface_energy",
    "weighted_work_function",
    "surface_anisotropy",
    "shape_factor",
    "has_reconstructed",
    "possible_species",
    "has_props",
    "theoretical",
    "database_IDs"
  ]
}
