{"builder_meta": null, "nsites": null, "elements": null, "nelements": null, "composition": null, "composition_reduced": null, "formula_pretty": "Pu5Ru3", "formula_anonymous": "A3B5", "chemsys": null, "volume": 332.0236507524163, "density": 15.235961088337492, "density_atomic": 20.75147817202602, "symmetry": null, "property_name": null, "material_id": "mp-1992", "deprecated": null, "deprecation_reasons": null, "last_updated": null, "origins": null, "warnings": null, "structure": {"@module": "pymatgen.core.structure", "@class": "Structure", "charge": 0, "lattice": {"matrix": [[-5.411437, 5.411437, 2.834548], [5.411437, -5.411437, 2.834548], [5.411437, 5.411437, -2.834548]], "pbc": [true, true, true], "a": 8.161002583888942, "b": 8.161002583888942, "c": 8.161002583888942, "alpha": 96.92886822808735, "beta": 96.92886822808735, "gamma": 139.35200970628625, "volume": 332.0236507524163}, "properties": {}, "sites": [{"species": [{"element": "Pu", "occu": 1}], "abc": [0.718086, 0.587955999999999, 0.306041], "properties": {"magmom": 5.08}, "label": "Pu", "xyz": [0.9519312941069946, 2.360311887727006, 2.834550834547997]}, {"species": [{"element": "Pu", "occu": 1}], "abc": [0.281914, 0.412043999999999, 0.693959], "properties": {"magmom": 5.08}, "label": "Pu", "xyz": [4.459505705892995, 3.051125112273006, -2.8345480027613945e-06]}, {"species": [{"element": "Pu", "occu": 1}], "abc": [0.587955999999999, 0.281914, 0.86987], "properties": {"magmom": 5.079}, "label": "Pu", "xyz": [3.051119700836005, 6.363373705543995, -3.1086244689504383e-15]}, {"species": [{"element": "Pu", "occu": 1}], "abc": [0.412043999999999, 0.718086, 0.13013000000000002], "properties": {"magmom": 5.079}, "label": "Pu", "xyz": [2.360317299164006, -0.9519367055440054, 2.8345479999999967]}, {"species": [{"element": "Pu", "occu": 1}], "abc": [0.08795599999999901, 0.218086, 0.306041], "properties": {"magmom": 5.079}, "label": "Pu", "xyz": [2.3603118877270055, 0.9519312941069948, 2.8345479972102794e-06]}, {"species": [{"element": "Pu", "occu": 1}], "abc": [0.781914, 0.08795599999999901, 0.86987], "properties": {"magmom": 5.08}, "label": "Pu", "xyz": [0.9519367055439947, 8.462556700836005, -3.1086244689504383e-15]}, {"species": [{"element": "Pu", "occu": 1}], "abc": [0.218086, 0.912044, 0.13013000000000002], "properties": {"magmom": 5.08}, "label": "Pu", "xyz": [4.459500294456, -3.051119700836, 2.834548]}, {"species": [{"element": "Pu", "occu": 1}], "abc": [0.912044, 0.781914, 0.693959], "properties": {"magmom": 5.079}, "label": "Pu", "xyz": [3.051125112273, 4.459505705893001, 2.834545165451999]}, {"species": [{"element": "Pu", "occu": 1}], "abc": [0.75, 0.25, 0.5], "properties": {"magmom": -0.012}, "label": "Pu", "xyz": [-4.440892098500626e-16, 5.411437000000001, 1.417274]}, {"species": [{"element": "Pu", "occu": 1}], "abc": [0.25, 0.75, 0.5], "properties": {"magmom": -0.013000000000000001}, "label": "Pu", "xyz": [5.411437000000001, -4.440892098500626e-16, 1.417274]}, {"species": [{"element": "Ru", "occu": 1}], "abc": [0.147222, 0.647222, 0.794443], "properties": {"magmom": -0.275}, "label": "Ru", "xyz": [7.004796744591001, 1.5933597445910004, 2.8345479998748146e-06]}, {"species": [{"element": "Ru", "occu": 1}], "abc": [0.352779, 0.147222, 0.5], "properties": {"magmom": -0.274}, "label": "Ru", "xyz": [1.593359744591, 3.8180772554090003, 2.8345480000968593e-06]}, {"species": [{"element": "Ru", "occu": 1}], "abc": [0.647222, 0.852779, 0.5], "properties": {"magmom": -0.274}, "label": "Ru", "xyz": [3.8180772554090003, 1.593359744591, 2.8345508345479997]}, {"species": [{"element": "Ru", "occu": 1}], "abc": [0.852779, 0.352779, 0.205557], "properties": {"magmom": -0.275}, "label": "Ru", "xyz": [-1.5933597445910002, 3.8180772554090003, 2.8345508345479997]}, {"species": [{"element": "Ru", "occu": 1}], "abc": [0.75, 0.75, 0.0], "properties": {"magmom": -0.625}, "label": "Ru", "xyz": [0.0, 0.0, 4.251822]}, {"species": [{"element": "Ru", "occu": 1}], "abc": [0.25, 0.25, 0.0], "properties": {"magmom": -0.624}, "label": "Ru", "xyz": [0.0, 0.0, 1.417274]}]}, "task_ids": null, "uncorrected_energy_per_atom": null, "energy_per_atom": -12.39044689125, "formation_energy_per_atom": 0.298661862031258, "energy_above_hull": 0.298661862031258, "is_stable": false, "equilibrium_reaction_energy_per_atom": null, "decomposes_to": null, "xas": null, "grain_boundaries": null, "band_gap": 0.0, "cbm": null, "vbm": null, "efermi": 11.4651169, "is_gap_direct": null, "is_metal": null, "es_source_calc_id": null, "bandstructure": null, "dos": null, "dos_energy_up": null, "dos_energy_down": null, "is_magnetic": null, "ordering": null, "total_magnetization": 40.0315739, "total_magnetization_normalized_vol": null, "total_magnetization_normalized_formula_units": null, "num_magnetic_sites": null, "num_unique_magnetic_sites": null, "types_of_magnetic_species": null, "bulk_modulus": null, "shear_modulus": null, "universal_anisotropy": null, "homogeneous_poisson": null, "e_total": null, "e_ionic": null, "e_electronic": null, "n": null, "e_ij_max": null, "weighted_surface_energy_EV_PER_ANG2": null, "weighted_surface_energy": null, "weighted_work_function": null, "surface_anisotropy": null, "shape_factor": null, "has_reconstructed": null, "possible_species": null, "has_props": null, "theoretical": null, "database_IDs": null, "fields_not_requested": ["builder_meta", "nsites", "elements", "nelements", "composition", "composition_reduced", "chemsys", "symmetry", "property_name", "deprecated", "deprecation_reasons", "last_updated", "origins", "warnings", "task_ids", "uncorrected_energy_per_atom", "equilibrium_reaction_energy_per_atom", "decomposes_to", "xas", "grain_boundaries", "cbm", "vbm", "is_gap_direct", "is_metal", "es_source_calc_id", "bandstructure", "dos", "dos_energy_up", "dos_energy_down", "is_magnetic", "ordering", "total_magnetization_normalized_vol", "total_magnetization_normalized_formula_units", "num_magnetic_sites", "num_unique_magnetic_sites", "types_of_magnetic_species", "bulk_modulus", "shear_modulus", "universal_anisotropy", "homogeneous_poisson", "e_total", "e_ionic", "e_electronic", "n", "e_ij_max", "weighted_surface_energy_EV_PER_ANG2", "weighted_surface_energy", "weighted_work_function", "surface_anisotropy", "shape_factor", "has_reconstructed", "possible_species", "has_props", "theoretical", "database_IDs"]}