{"builder_meta": null, "nsites": null, "elements": null, "nelements": null, "composition": null, "composition_reduced": null, "formula_pretty": "Pu6Co", "formula_anonymous": "AB6", "chemsys": null, "volume": 289.10647491190014, "density": 17.494523890480753, "density_atomic": 20.650462493707153, "symmetry": null, "property_name": null, "material_id": "mp-1105020", "deprecated": null, "deprecation_reasons": null, "last_updated": null, "origins": null, "warnings": null, "structure": {"@module": "pymatgen.core.structure", "@class": "Structure", "charge": 0, "lattice": {"matrix": [[0.0, 0.0, 5.188097], [-5.278492, 5.278492, 2.594049], [-5.278492, -5.278492, 2.594049]], "pbc": [true, true, true], "a": 5.188097, "b": 7.9027872173385125, "c": 7.9027872173385125, "alpha": 83.81467838014434, "beta": 70.83772196464577, "gamma": 70.83772196464577, "volume": 289.10647491190014}, "properties": {}, "sites": [{"species": [{"element": "Pu", "occu": 1}], "abc": [0.097213, 0.5, 0.305573], "properties": {"magmom": 4.644}, "label": "Pu", "xyz": [-4.252210635916, 1.026281364084, 2.5940463087379997]}, {"species": [{"element": "Pu", "occu": 1}], "abc": [0.902787, 0.5, 0.694427], "properties": {"magmom": 4.518}, "label": "Pu", "xyz": [-6.304773364084, -1.0262813640840003, 7.782148691262]}, {"species": [{"element": "Pu", "occu": 1}], "abc": [0.402787, 0.694427, 0.5], "properties": {"magmom": 4.624}, "label": "Pu", "xyz": [-6.304773364084, 1.0262813640840003, 5.188100191262]}, {"species": [{"element": "Pu", "occu": 1}], "abc": [0.597213, 0.305573, 0.5], "properties": {"magmom": 4.621}, "label": "Pu", "xyz": [-4.252210635916, -1.026281364084, 5.188094808738]}, {"species": [{"element": "Pu", "occu": 1}], "abc": [0.09762799999999901, 0.116571, 0.688174], "properties": {"magmom": 0.659}, "label": "Pu", "xyz": [-4.247840044539999, -3.0172018626759995, 2.594051496420995]}, {"species": [{"element": "Pu", "occu": 1}], "abc": [0.902372, 0.883428999999999, 0.311826], "properties": {"magmom": 0.23900000000000002}, "label": "Pu", "xyz": [-6.309143955459994, 3.0172018626759947, 7.782143503578997]}, {"species": [{"element": "Pu", "occu": 1}], "abc": [0.785802, 0.311826, 0.116571], "properties": {"magmom": 4.582}, "label": "Pu", "xyz": [-2.261290137324, 1.0306519554599998, 5.188099808247]}, {"species": [{"element": "Pu", "occu": 1}], "abc": [0.402372, 0.311826, 0.883428999999999], "properties": {"magmom": 0.763}, "label": "Pu", "xyz": [-6.309143955459994, -3.0172018626759947, 5.188095003578997]}, {"species": [{"element": "Pu", "occu": 1}], "abc": [0.214198, 0.688174, 0.883428999999999], "properties": {"magmom": 4.593}, "label": "Pu", "xyz": [-8.295693862675995, -1.0306519554599949, 5.188095191752998]}, {"species": [{"element": "Pu", "occu": 1}], "abc": [0.597627999999999, 0.688174, 0.116571], "properties": {"magmom": 0.779}, "label": "Pu", "xyz": [-4.247840044539999, 3.0172018626759995, 5.188099996420995]}, {"species": [{"element": "Pu", "occu": 1}], "abc": [0.714198, 0.883428999999999, 0.688174], "properties": {"magmom": 0.176}, "label": "Pu", "xyz": [-8.295693862675995, 1.0306519554599949, 7.782143691752998]}, {"species": [{"element": "Pu", "occu": 1}], "abc": [0.285802, 0.116571, 0.311826], "properties": {"magmom": 4.645}, "label": "Pu", "xyz": [-2.261290137324, -1.0306519554599998, 2.594051308247]}, {"species": [{"element": "Co", "occu": 1}], "abc": [0.25, 0.0, 0.0], "properties": {"magmom": 0.004}, "label": "Co", "xyz": [0.0, 0.0, 1.29702425]}, {"species": [{"element": "Co", "occu": 1}], "abc": [0.75, 0.0, 0.0], "properties": {"magmom": 0.004}, "label": "Co", "xyz": [0.0, 0.0, 3.89107275]}]}, "task_ids": null, "uncorrected_energy_per_atom": null, "energy_per_atom": -75.3669027663393, "formation_energy_per_atom": 0.54342866758928, "energy_above_hull": 0.5647945046428471, "is_stable": false, "equilibrium_reaction_energy_per_atom": null, "decomposes_to": null, "xas": null, "grain_boundaries": null, "band_gap": 0.0, "cbm": null, "vbm": null, "efermi": 13.46550765, "is_gap_direct": null, "is_metal": null, "es_source_calc_id": null, "bandstructure": null, "dos": null, "dos_energy_up": null, "dos_energy_down": null, "is_magnetic": null, "ordering": null, "total_magnetization": 35.3474108, "total_magnetization_normalized_vol": null, "total_magnetization_normalized_formula_units": null, "num_magnetic_sites": null, "num_unique_magnetic_sites": null, "types_of_magnetic_species": null, "bulk_modulus": null, "shear_modulus": null, "universal_anisotropy": null, "homogeneous_poisson": null, "e_total": null, "e_ionic": null, "e_electronic": null, "n": null, "e_ij_max": null, "weighted_surface_energy_EV_PER_ANG2": null, "weighted_surface_energy": null, "weighted_work_function": null, "surface_anisotropy": null, "shape_factor": null, "has_reconstructed": null, "possible_species": null, "has_props": null, "theoretical": null, "database_IDs": null, "fields_not_requested": ["builder_meta", "nsites", "elements", "nelements", "composition", "composition_reduced", "chemsys", "symmetry", "property_name", "deprecated", "deprecation_reasons", "last_updated", "origins", "warnings", "task_ids", "uncorrected_energy_per_atom", "equilibrium_reaction_energy_per_atom", "decomposes_to", "xas", "grain_boundaries", "cbm", "vbm", "is_gap_direct", "is_metal", "es_source_calc_id", "bandstructure", "dos", "dos_energy_up", "dos_energy_down", "is_magnetic", "ordering", "total_magnetization_normalized_vol", "total_magnetization_normalized_formula_units", "num_magnetic_sites", "num_unique_magnetic_sites", "types_of_magnetic_species", "bulk_modulus", "shear_modulus", "universal_anisotropy", "homogeneous_poisson", "e_total", "e_ionic", "e_electronic", "n", "e_ij_max", "weighted_surface_energy_EV_PER_ANG2", "weighted_surface_energy", "weighted_work_function", "surface_anisotropy", "shape_factor", "has_reconstructed", "possible_species", "has_props", "theoretical", "database_IDs"]}