{"builder_meta": null, "nsites": null, "elements": null, "nelements": null, "composition": null, "composition_reduced": null, "formula_pretty": "Pu6Fe", "formula_anonymous": "AB6", "chemsys": null, "volume": 294.8114664057947, "density": 17.12119293353965, "density_atomic": 21.057961886128194, "symmetry": null, "property_name": null, "material_id": "mp-1105464", "deprecated": null, "deprecation_reasons": null, "last_updated": null, "origins": null, "warnings": null, "structure": {"@module": "pymatgen.core.structure", "@class": "Structure", "charge": 0, "lattice": {"matrix": [[0.0, 0.0, -5.68625], [-5.091482, -5.091482, -2.843125], [-5.091482, 5.091482, -2.843125]], "pbc": [true, true, true], "a": 5.68625, "b": 7.74142995048544, "c": 7.74142995048544, "alpha": 82.24828361376254, "beta": 68.45320751286441, "gamma": 68.45320751286441, "volume": 294.8114664057947}, "properties": {}, "sites": [{"species": [{"element": "Pu", "occu": 1}], "abc": [0.901677, 0.696647, 0.5], "properties": {"magmom": -4.726}, "label": "Pu", "xyz": [-6.092706660854001, -1.001224660854, -8.529377843125001]}, {"species": [{"element": "Pu", "occu": 1}], "abc": [0.098323, 0.303353, 0.5], "properties": {"magmom": -4.726}, "label": "Pu", "xyz": [-4.0902573391459995, 1.001224660854, -2.8431221568750003]}, {"species": [{"element": "Pu", "occu": 1}], "abc": [0.598322999999999, 0.5, 0.303353], "properties": {"magmom": -4.726}, "label": "Pu", "xyz": [-4.0902573391459995, -1.001224660854, -5.686247156874995]}, {"species": [{"element": "Pu", "occu": 1}], "abc": [0.401677, 0.5, 0.696647], "properties": {"magmom": -4.726}, "label": "Pu", "xyz": [-6.092706660854001, 1.001224660854, -5.686252843125001]}, {"species": [{"element": "Pu", "occu": 1}], "abc": [0.09041199999999901, 0.689071, 0.130105], "properties": {"magmom": 4.665}, "label": "Pu", "xyz": [-4.170819858832, -2.8459653276120003, -2.8431249999999944]}, {"species": [{"element": "Pu", "occu": 1}], "abc": [0.909588, 0.310929, 0.869895], "properties": {"magmom": 4.665}, "label": "Pu", "xyz": [-6.012144141168, 2.8459653276120003, -8.529375]}, {"species": [{"element": "Pu", "occu": 1}], "abc": [0.409588, 0.869895, 0.310929], "properties": {"magmom": 4.665}, "label": "Pu", "xyz": [-6.012144141168, -2.8459653276120003, -5.686249999999999]}, {"species": [{"element": "Pu", "occu": 1}], "abc": [0.590411999999999, 0.130105, 0.689071], "properties": {"magmom": 4.665}, "label": "Pu", "xyz": [-4.170819858832, 2.8459653276120003, -5.686249999999995]}, {"species": [{"element": "Pu", "occu": 1}], "abc": [0.220517, 0.869895, 0.689071], "properties": {"magmom": 4.665}, "label": "Pu", "xyz": [-7.937447327612, -0.920662141168, -5.68625]}, {"species": [{"element": "Pu", "occu": 1}], "abc": [0.779482999999999, 0.130105, 0.310929], "properties": {"magmom": 4.665}, "label": "Pu", "xyz": [-2.2455166723880002, 0.9206621411680002, -5.686249999999994]}, {"species": [{"element": "Pu", "occu": 1}], "abc": [0.720517, 0.689071, 0.869895], "properties": {"magmom": 4.665}, "label": "Pu", "xyz": [-7.937447327612, 0.920662141168, -8.529375]}, {"species": [{"element": "Pu", "occu": 1}], "abc": [0.279483, 0.310929, 0.130105], "properties": {"magmom": 4.665}, "label": "Pu", "xyz": [-2.2455166723880002, -0.9206621411680002, -2.843125]}, {"species": [{"element": "Fe", "occu": 1}], "abc": [0.25, 0.0, 0.0], "properties": {"magmom": -1.792}, "label": "Fe", "xyz": [0.0, 0.0, -1.4215625]}, {"species": [{"element": "Fe", "occu": 1}], "abc": [0.75, 0.0, 0.0], "properties": {"magmom": -1.792}, "label": "Fe", "xyz": [0.0, 0.0, -4.2646875]}]}, "task_ids": null, "uncorrected_energy_per_atom": null, "energy_per_atom": -13.355078083571428, "formation_energy_per_atom": 0.48743850178572606, "energy_above_hull": 0.48743850178572606, "is_stable": false, "equilibrium_reaction_energy_per_atom": null, "decomposes_to": null, "xas": null, "grain_boundaries": null, "band_gap": 0.0, "cbm": null, "vbm": null, "efermi": 13.1508815, "is_gap_direct": null, "is_metal": null, "es_source_calc_id": null, "bandstructure": null, "dos": null, "dos_energy_up": null, "dos_energy_down": null, "is_magnetic": null, "ordering": null, "total_magnetization": 15.0958222, "total_magnetization_normalized_vol": null, "total_magnetization_normalized_formula_units": null, "num_magnetic_sites": null, "num_unique_magnetic_sites": null, "types_of_magnetic_species": null, "bulk_modulus": null, "shear_modulus": null, "universal_anisotropy": null, "homogeneous_poisson": null, "e_total": null, "e_ionic": null, "e_electronic": null, "n": null, "e_ij_max": null, "weighted_surface_energy_EV_PER_ANG2": null, "weighted_surface_energy": null, "weighted_work_function": null, "surface_anisotropy": null, "shape_factor": null, "has_reconstructed": null, "possible_species": null, "has_props": null, "theoretical": null, "database_IDs": null, "fields_not_requested": ["builder_meta", "nsites", "elements", "nelements", "composition", "composition_reduced", "chemsys", "symmetry", "property_name", "deprecated", "deprecation_reasons", "last_updated", "origins", "warnings", "task_ids", "uncorrected_energy_per_atom", "equilibrium_reaction_energy_per_atom", "decomposes_to", "xas", "grain_boundaries", "cbm", "vbm", "is_gap_direct", "is_metal", "es_source_calc_id", "bandstructure", "dos", "dos_energy_up", "dos_energy_down", "is_magnetic", "ordering", "total_magnetization_normalized_vol", "total_magnetization_normalized_formula_units", "num_magnetic_sites", "num_unique_magnetic_sites", "types_of_magnetic_species", "bulk_modulus", "shear_modulus", "universal_anisotropy", "homogeneous_poisson", "e_total", "e_ionic", "e_electronic", "n", "e_ij_max", "weighted_surface_energy_EV_PER_ANG2", "weighted_surface_energy", "weighted_work_function", "surface_anisotropy", "shape_factor", "has_reconstructed", "possible_species", "has_props", "theoretical", "database_IDs"]}