{"builder_meta": null, "nsites": null, "elements": null, "nelements": null, "composition": null, "composition_reduced": null, "formula_pretty": "PuAl4", "formula_anonymous": "AB4", "chemsys": null, "volume": 187.26300169117664, "density": 6.241351710288623, "density_atomic": 18.726300169117664, "symmetry": null, "property_name": null, "material_id": "mp-542776", "deprecated": null, "deprecation_reasons": null, "last_updated": null, "origins": null, "warnings": null, "structure": {"@module": "pymatgen.core.structure", "@class": "Structure", "charge": 0, "lattice": {"matrix": [[-2.19236089, 3.12383607, 6.86006058], [2.19236089, -3.10612872, 6.85049972], [2.19236089, 3.10612872, -6.85049972]], "pbc": [true, true, true], "a": 7.850173834094667, "b": 7.83478323318077, "c": 7.83478323318077, "alpha": 147.50059075711007, "beta": 133.1943598876819, "gamma": 58.11747637307345, "volume": 187.2630016911766}, "properties": {}, "sites": [{"species": [{"element": "Pu", "occu": 1}], "abc": [0.86254147, 0.11225049000000001, 0.75029198], "properties": {"magmom": 5.093}, "label": "Pu", "xyz": [2.192360889941014e-06, 4.676277152497416, 1.5461836883688695]}, {"species": [{"element": "Pu", "occu": 1}], "abc": [0.13745853, 0.88774951, 0.24970802], "properties": {"magmom": 5.093}, "label": "Pu", "xyz": [2.1923586976391096, -1.552441082497416, 5.31387689163113]}, {"species": [{"element": "Al", "occu": 1}], "abc": [0.63493004, 0.8857197, 0.7492093400000001], "properties": {"magmom": -0.012}, "label": "Al", "xyz": [2.19235869763911, 1.5593986111050036, 5.290822721418921]}, {"species": [{"element": "Al", "occu": 1}], "abc": [0.36506996, 0.1142803, 0.25079066], "properties": {"magmom": -0.012}, "label": "Al", "xyz": [2.192360889941014e-06, 1.5644374588949965, 1.5692378585810778]}, {"species": [{"element": "Al", "occu": 1}], "abc": [0.5, 0.5, 0.0], "properties": {"magmom": -0.004}, "label": "Al", "xyz": [0.0, 0.008853674999999894, 6.8552801500000005]}, {"species": [{"element": "Al", "occu": 1}], "abc": [0.0, 0.5, 0.5], "properties": {"magmom": -0.005}, "label": "Al", "xyz": [2.19236089, 0.0, 0.0]}, {"species": [{"element": "Al", "occu": 1}], "abc": [0.33106629, 0.30170412, 0.02936317], "properties": {"magmom": -0.001}, "label": "Al", "xyz": [2.192360890065914e-06, 0.18827077183599622, 4.136806407115382]}, {"species": [{"element": "Al", "occu": 1}], "abc": [0.66893371, 0.69829588, 0.97063683], "properties": {"magmom": -0.001}, "label": "Al", "xyz": [2.1923586976391096, 2.9355652981640037, 2.7232541728846185]}, {"species": [{"element": "Al", "occu": 1}], "abc": [0.22677221, 0.69753595, 0.52923726], "properties": {"magmom": 0.001}, "label": "Al", "xyz": [2.19236308236089, 0.18564181472423802, 2.7086012271818487]}, {"species": [{"element": "Al", "occu": 1}], "abc": [0.77322779, 0.30246405, 0.47076274], "properties": {"magmom": 0.001}, "label": "Al", "xyz": [-2.192360889941014e-06, 2.9381942552757616, 4.151459352818151]}]}, "task_ids": null, "uncorrected_energy_per_atom": null, "energy_per_atom": -22.994425507, "formation_energy_per_atom": -0.33747721274999903, "energy_above_hull": 0.0, "is_stable": true, "equilibrium_reaction_energy_per_atom": null, "decomposes_to": null, "xas": null, "grain_boundaries": null, "band_gap": 0.0, "cbm": null, "vbm": null, "efermi": 8.97386118, "is_gap_direct": null, "is_metal": null, "es_source_calc_id": null, "bandstructure": null, "dos": null, "dos_energy_up": null, "dos_energy_down": null, "is_magnetic": null, "ordering": null, "total_magnetization": 10.8860061, "total_magnetization_normalized_vol": null, "total_magnetization_normalized_formula_units": null, "num_magnetic_sites": null, "num_unique_magnetic_sites": null, "types_of_magnetic_species": null, "bulk_modulus": null, "shear_modulus": null, "universal_anisotropy": null, "homogeneous_poisson": null, "e_total": null, "e_ionic": null, "e_electronic": null, "n": null, "e_ij_max": null, "weighted_surface_energy_EV_PER_ANG2": null, "weighted_surface_energy": null, "weighted_work_function": null, "surface_anisotropy": null, "shape_factor": null, "has_reconstructed": null, "possible_species": null, "has_props": null, "theoretical": null, "database_IDs": null, "fields_not_requested": ["builder_meta", "nsites", "elements", "nelements", "composition", "composition_reduced", "chemsys", "symmetry", "property_name", "deprecated", "deprecation_reasons", "last_updated", "origins", "warnings", "task_ids", "uncorrected_energy_per_atom", "equilibrium_reaction_energy_per_atom", "decomposes_to", "xas", "grain_boundaries", "cbm", "vbm", "is_gap_direct", "is_metal", "es_source_calc_id", "bandstructure", "dos", "dos_energy_up", "dos_energy_down", "is_magnetic", "ordering", "total_magnetization_normalized_vol", "total_magnetization_normalized_formula_units", "num_magnetic_sites", "num_unique_magnetic_sites", "types_of_magnetic_species", "bulk_modulus", "shear_modulus", "universal_anisotropy", "homogeneous_poisson", "e_total", "e_ionic", "e_electronic", "n", "e_ij_max", "weighted_surface_energy_EV_PER_ANG2", "weighted_surface_energy", "weighted_work_function", "surface_anisotropy", "shape_factor", "has_reconstructed", "possible_species", "has_props", "theoretical", "database_IDs"]}