{"builder_meta": null, "nsites": null, "elements": null, "nelements": null, "composition": null, "composition_reduced": null, "formula_pretty": "PuAl2", "formula_anonymous": "AB2", "chemsys": null, "volume": 118.95533344427044, "density": 8.318741426196777, "density_atomic": 19.825888907378406, "symmetry": null, "property_name": null, "material_id": "mp-21416", "deprecated": null, "deprecation_reasons": null, "last_updated": null, "origins": null, "warnings": null, "structure": {"@module": "pymatgen.core.structure", "@class": "Structure", "charge": 0, "lattice": {"matrix": [[0.0, 3.90347415, 3.90347415], [3.90347415, 0.0, 3.90347415], [3.90347415, 3.90347415, 0.0]], "pbc": [true, true, true], "a": 5.5203460833027895, "b": 5.5203460833027895, "c": 5.5203460833027895, "alpha": 59.99999999999999, "beta": 59.99999999999999, "gamma": 59.99999999999999, "volume": 118.95533344427044}, "properties": {}, "sites": [{"species": [{"element": "Pu", "occu": 1}], "abc": [0.25, 0.25, 0.25], "properties": {"magmom": 5.374}, "label": "Pu", "xyz": [1.951737075, 1.951737075, 1.951737075]}, {"species": [{"element": "Pu", "occu": 1}], "abc": [-0.0, -0.0, -0.0], "properties": {"magmom": 5.374}, "label": "Pu", "xyz": [0.0, 0.0, 0.0]}, {"species": [{"element": "Al", "occu": 1}], "abc": [0.625, 0.125, 0.625], "properties": {"magmom": -0.024}, "label": "Al", "xyz": [2.9276056125000003, 4.8793426875, 2.9276056125000003]}, {"species": [{"element": "Al", "occu": 1}], "abc": [0.625, 0.625, 0.125], "properties": {"magmom": -0.024}, "label": "Al", "xyz": [2.9276056125000003, 2.9276056125000003, 4.8793426875]}, {"species": [{"element": "Al", "occu": 1}], "abc": [0.125, 0.625, 0.625], "properties": {"magmom": -0.024}, "label": "Al", "xyz": [4.8793426875, 2.9276056125000003, 2.9276056125000003]}, {"species": [{"element": "Al", "occu": 1}], "abc": [0.625, 0.625, 0.625], "properties": {"magmom": -0.024}, "label": "Al", "xyz": [4.8793426875, 4.8793426875, 4.8793426875]}]}, "task_ids": null, "uncorrected_energy_per_atom": null, "energy_per_atom": -33.79642613, "formation_energy_per_atom": -0.522911192916666, "energy_above_hull": 0.0, "is_stable": true, "equilibrium_reaction_energy_per_atom": null, "decomposes_to": null, "xas": null, "grain_boundaries": null, "band_gap": 0.0, "cbm": null, "vbm": null, "efermi": 10.69173329, "is_gap_direct": null, "is_metal": null, "es_source_calc_id": null, "bandstructure": null, "dos": null, "dos_energy_up": null, "dos_energy_down": null, "is_magnetic": null, "ordering": null, "total_magnetization": 11.4922035, "total_magnetization_normalized_vol": null, "total_magnetization_normalized_formula_units": null, "num_magnetic_sites": null, "num_unique_magnetic_sites": null, "types_of_magnetic_species": null, "bulk_modulus": null, "shear_modulus": null, "universal_anisotropy": null, "homogeneous_poisson": null, "e_total": null, "e_ionic": null, "e_electronic": null, "n": null, "e_ij_max": null, "weighted_surface_energy_EV_PER_ANG2": null, "weighted_surface_energy": null, "weighted_work_function": null, "surface_anisotropy": null, "shape_factor": null, "has_reconstructed": null, "possible_species": null, "has_props": null, "theoretical": null, "database_IDs": null, "fields_not_requested": ["builder_meta", "nsites", "elements", "nelements", "composition", "composition_reduced", "chemsys", "symmetry", "property_name", "deprecated", "deprecation_reasons", "last_updated", "origins", "warnings", "task_ids", "uncorrected_energy_per_atom", "equilibrium_reaction_energy_per_atom", "decomposes_to", "xas", "grain_boundaries", "cbm", "vbm", "is_gap_direct", "is_metal", "es_source_calc_id", "bandstructure", "dos", "dos_energy_up", "dos_energy_down", "is_magnetic", "ordering", "total_magnetization_normalized_vol", "total_magnetization_normalized_formula_units", "num_magnetic_sites", "num_unique_magnetic_sites", "types_of_magnetic_species", "bulk_modulus", "shear_modulus", "universal_anisotropy", "homogeneous_poisson", "e_total", "e_ionic", "e_electronic", "n", "e_ij_max", "weighted_surface_energy_EV_PER_ANG2", "weighted_surface_energy", "weighted_work_function", "surface_anisotropy", "shape_factor", "has_reconstructed", "possible_species", "has_props", "theoretical", "database_IDs"]}