{"builder_meta": null, "nsites": null, "elements": null, "nelements": null, "composition": null, "composition_reduced": null, "formula_pretty": "PuAl3", "formula_anonymous": "AB3", "chemsys": null, "volume": 155.1255170458096, "density": 6.956730772512237, "density_atomic": 19.3906896307262, "symmetry": null, "property_name": null, "material_id": "mp-1186809", "deprecated": null, "deprecation_reasons": null, "last_updated": null, "origins": null, "warnings": null, "structure": {"@module": "pymatgen.core.structure", "@class": "Structure", "charge": 0, "lattice": {"matrix": [[3.10760202, -5.38252078, -0.0], [3.10759776, 5.38251863, 0.0], [-0.0, -0.0, 4.63705792]], "pbc": [true, true, true], "a": 6.215200741877923, "b": 6.215196749923054, "c": 4.63705792, "alpha": 90.0, "beta": 90.0, "gamma": 119.99998899223685, "volume": 155.1255170458096}, "properties": {}, "sites": [{"species": [{"element": "Pu", "occu": 1}], "abc": [0.333333, 0.666667, 0.75], "properties": {"magmom": 5.021}, "label": "Pu", "xyz": [3.10759917999858, 1.79417574834647, 3.47779344]}, {"species": [{"element": "Pu", "occu": 1}], "abc": [0.666667, 0.333333, 0.25], "properties": {"magmom": 5.021}, "label": "Pu", "xyz": [3.10760060000142, -1.79417789834647, 1.15926448]}, {"species": [{"element": "Al", "occu": 1}], "abc": [0.15022681000000002, 0.30045362000000003, 0.25], "properties": {"magmom": -0.016}, "label": "Al", "xyz": [1.4005341347100475, 0.8085982805628289, 1.15926448]}, {"species": [{"element": "Al", "occu": 1}], "abc": [0.69954638, 0.8497731900000001, 0.25], "properties": {"magmom": -0.016}, "label": "Al", "xyz": [4.814665005323742, 0.8085970995257532, 1.15926448]}, {"species": [{"element": "Al", "occu": 1}], "abc": [0.15022681000000002, 0.8497731900000001, 0.25], "properties": {"magmom": -0.016}, "label": "Al", "xyz": [3.1075983999662107, 3.765321099911418, 1.15926448]}, {"species": [{"element": "Al", "occu": 1}], "abc": [0.84977419, 0.69954938, 0.75], "properties": {"magmom": -0.016}, "label": "Al", "xyz": [4.8146780756852525, -0.8085896655277192, 3.47779344]}, {"species": [{"element": "Al", "occu": 1}], "abc": [0.30045062, 0.15022581000000002, 0.75], "properties": {"magmom": -0.016}, "label": "Al", "xyz": [1.400522344272438, -0.8085884844820433, 3.47779344]}, {"species": [{"element": "Al", "occu": 1}], "abc": [0.84977419, 0.15022581000000002, 0.75], "properties": {"magmom": -0.016}, "label": "Al", "xyz": [3.1076013800380493, -3.765334014950828, 3.47779344]}]}, "task_ids": null, "uncorrected_energy_per_atom": null, "energy_per_atom": -27.04200890375, "formation_energy_per_atom": -0.403848118437498, "energy_above_hull": 0.003166836874999, "is_stable": false, "equilibrium_reaction_energy_per_atom": null, "decomposes_to": null, "xas": null, "grain_boundaries": null, "band_gap": 0.0, "cbm": null, "vbm": null, "efermi": 8.51642584, "is_gap_direct": null, "is_metal": null, "es_source_calc_id": null, "bandstructure": null, "dos": null, "dos_energy_up": null, "dos_energy_down": null, "is_magnetic": null, "ordering": null, "total_magnetization": 10.422974, "total_magnetization_normalized_vol": null, "total_magnetization_normalized_formula_units": null, "num_magnetic_sites": null, "num_unique_magnetic_sites": null, "types_of_magnetic_species": null, "bulk_modulus": null, "shear_modulus": null, "universal_anisotropy": null, "homogeneous_poisson": null, "e_total": null, "e_ionic": null, "e_electronic": null, "n": null, "e_ij_max": null, "weighted_surface_energy_EV_PER_ANG2": null, "weighted_surface_energy": null, "weighted_work_function": null, "surface_anisotropy": null, "shape_factor": null, "has_reconstructed": null, "possible_species": null, "has_props": null, "theoretical": null, "database_IDs": null, "fields_not_requested": ["builder_meta", "nsites", "elements", "nelements", "composition", "composition_reduced", "chemsys", "symmetry", "property_name", "deprecated", "deprecation_reasons", "last_updated", "origins", "warnings", "task_ids", "uncorrected_energy_per_atom", "equilibrium_reaction_energy_per_atom", "decomposes_to", "xas", "grain_boundaries", "cbm", "vbm", "is_gap_direct", "is_metal", "es_source_calc_id", "bandstructure", "dos", "dos_energy_up", "dos_energy_down", "is_magnetic", "ordering", "total_magnetization_normalized_vol", "total_magnetization_normalized_formula_units", "num_magnetic_sites", "num_unique_magnetic_sites", "types_of_magnetic_species", "bulk_modulus", "shear_modulus", "universal_anisotropy", "homogeneous_poisson", "e_total", "e_ionic", "e_electronic", "n", "e_ij_max", "weighted_surface_energy_EV_PER_ANG2", "weighted_surface_energy", "weighted_work_function", "surface_anisotropy", "shape_factor", "has_reconstructed", "possible_species", "has_props", "theoretical", "database_IDs"]}