{
  "builder_meta": null,
  "nsites": null,
  "elements": null,
  "nelements": null,
  "composition": null,
  "composition_reduced": null,
  "formula_pretty": "PuAu3",
  "formula_anonymous": "AB3",
  "chemsys": null,
  "volume": 171.16307136940762,
  "density": 16.199564182559826,
  "density_atomic": 21.395383921175952,
  "symmetry": null,
  "property_name": null,
  "material_id": "mp-861592",
  "deprecated": null,
  "deprecation_reasons": null,
  "last_updated": null,
  "origins": null,
  "warnings": null,
  "structure": {
    "@module": "pymatgen.core.structure",
    "@class": "Structure",
    "charge": 0,
    "lattice": {
      "matrix": [
        [6.49283197, 0.02900356, 0.0],
        [-3.21852804, 5.5856723299999995, 0.0],
        [0.0, 0.0, 4.70743182]
      ],
      "pbc": [true, true, true],
      "a": 6.492896749305872,
      "b": 6.446600508980983,
      "c": 4.70743182,
      "alpha": 90.0,
      "beta": 90.0,
      "gamma": 119.69509706453515,
      "volume": 171.1630713694076
    },
    "properties": {},
    "sites": [
      {
        "species": [{ "element": "Pu", "occu": 1 }],
        "abc": [0.33417586, 0.66758123, 0.75],
        "properties": { "magmom": 5.063 },
        "label": "Pu",
        "xyz": [0.021118799677555256, 3.7385822940444275, 3.530573865]
      },
      {
        "species": [{ "element": "Pu", "occu": 1 }],
        "abc": [0.6658048, 0.33379164, 0.25],
        "properties": { "magmom": 5.065 },
        "label": "Pu",
        "xyz": [3.24864093836187, 1.883761436998409, 1.176857955]
      },
      {
        "species": [{ "element": "Au", "occu": 1 }],
        "abc": [0.15458569, 0.309765299999999, 0.25],
        "properties": { "magmom": -0.008 },
        "label": "Au",
        "xyz": [0.0067106062675004186, 1.7347310003391996, 1.176857955]
      },
      {
        "species": [{ "element": "Au", "occu": 1 }],
        "abc": [0.68908479, 0.84475767, 0.25],
        "properties": { "magmom": -0.009000000000000001 },
        "label": "Au",
        "xyz": [1.75523550665267, 4.738525454926123, 1.176857955]
      },
      {
        "species": [{ "element": "Au", "occu": 1 }],
        "abc": [0.15462931, 0.84410198, 0.25],
        "properties": { "magmom": -0.008 },
        "label": "Au",
        "xyz": [-1.7127837637824785, 4.719361873854557, 1.176857955]
      },
      {
        "species": [{ "element": "Au", "occu": 1 }],
        "abc": [0.84568502, 0.68944956, 0.75],
        "properties": { "magmom": -0.008 },
        "label": "Au",
        "xyz": [3.2718779933804276, 3.875567206441346, 3.530573865]
      },
      {
        "species": [{ "element": "Au", "occu": 1 }],
        "abc": [0.310908199999999, 0.15540288, 0.75],
        "properties": { "magmom": -0.009000000000000001 },
        "label": "Au",
        "xyz": [1.5185061739183925, 0.8770470114515023, 3.530573865]
      },
      {
        "species": [{ "element": "Au", "occu": 1 }],
        "abc": [0.84512732, 0.15514775, 0.75],
        "properties": { "magmom": -0.008 },
        "label": "Au",
        "xyz": [4.9879222982985105, 0.8911161951700166, 3.530573865]
      }
    ]
  },
  "task_ids": null,
  "uncorrected_energy_per_atom": null,
  "energy_per_atom": -60.09066294875,
  "formation_energy_per_atom": -0.562855798437503,
  "energy_above_hull": 0.0,
  "is_stable": true,
  "equilibrium_reaction_energy_per_atom": null,
  "decomposes_to": null,
  "xas": null,
  "grain_boundaries": null,
  "band_gap": 0.0,
  "cbm": null,
  "vbm": null,
  "efermi": 6.76661444,
  "is_gap_direct": null,
  "is_metal": null,
  "es_source_calc_id": null,
  "bandstructure": null,
  "dos": null,
  "dos_energy_up": null,
  "dos_energy_down": null,
  "is_magnetic": null,
  "ordering": null,
  "total_magnetization": 10.3588831,
  "total_magnetization_normalized_vol": null,
  "total_magnetization_normalized_formula_units": null,
  "num_magnetic_sites": null,
  "num_unique_magnetic_sites": null,
  "types_of_magnetic_species": null,
  "bulk_modulus": null,
  "shear_modulus": null,
  "universal_anisotropy": null,
  "homogeneous_poisson": null,
  "e_total": null,
  "e_ionic": null,
  "e_electronic": null,
  "n": null,
  "e_ij_max": null,
  "weighted_surface_energy_EV_PER_ANG2": null,
  "weighted_surface_energy": null,
  "weighted_work_function": null,
  "surface_anisotropy": null,
  "shape_factor": null,
  "has_reconstructed": null,
  "possible_species": null,
  "has_props": null,
  "theoretical": null,
  "database_IDs": null,
  "fields_not_requested": [
    "builder_meta",
    "nsites",
    "elements",
    "nelements",
    "composition",
    "composition_reduced",
    "chemsys",
    "symmetry",
    "property_name",
    "deprecated",
    "deprecation_reasons",
    "last_updated",
    "origins",
    "warnings",
    "task_ids",
    "uncorrected_energy_per_atom",
    "equilibrium_reaction_energy_per_atom",
    "decomposes_to",
    "xas",
    "grain_boundaries",
    "cbm",
    "vbm",
    "is_gap_direct",
    "is_metal",
    "es_source_calc_id",
    "bandstructure",
    "dos",
    "dos_energy_up",
    "dos_energy_down",
    "is_magnetic",
    "ordering",
    "total_magnetization_normalized_vol",
    "total_magnetization_normalized_formula_units",
    "num_magnetic_sites",
    "num_unique_magnetic_sites",
    "types_of_magnetic_species",
    "bulk_modulus",
    "shear_modulus",
    "universal_anisotropy",
    "homogeneous_poisson",
    "e_total",
    "e_ionic",
    "e_electronic",
    "n",
    "e_ij_max",
    "weighted_surface_energy_EV_PER_ANG2",
    "weighted_surface_energy",
    "weighted_work_function",
    "surface_anisotropy",
    "shape_factor",
    "has_reconstructed",
    "possible_species",
    "has_props",
    "theoretical",
    "database_IDs"
  ]
}
