{
  "builder_meta": null,
  "nsites": null,
  "elements": null,
  "nelements": null,
  "composition": null,
  "composition_reduced": null,
  "formula_pretty": "PuB4",
  "formula_anonymous": "AB4",
  "chemsys": null,
  "volume": 205.70575723679875,
  "density": 9.274993370212265,
  "density_atomic": 10.285287861839937,
  "symmetry": null,
  "property_name": null,
  "material_id": "mp-20467",
  "deprecated": null,
  "deprecation_reasons": null,
  "last_updated": null,
  "origins": null,
  "warnings": null,
  "structure": {
    "@module": "pymatgen.core.structure",
    "@class": "Structure",
    "charge": 0,
    "lattice": {
      "matrix": [
        [4.04892477, 0.0, 0.0],
        [0.0, 7.12777182, -0.00951507],
        [0.0, -0.00951507, 7.12777078]
      ],
      "pbc": [true, true, true],
      "a": 4.04892477,
      "b": 7.127778170969073,
      "c": 7.127777130969998,
      "alpha": 90.15297152671899,
      "beta": 90.0,
      "gamma": 90.0,
      "volume": 205.70575723679875
    },
    "properties": {},
    "sites": [
      {
        "species": [{ "element": "Pu", "occu": 1 }],
        "abc": [0.0, 0.68706226, 0.18706226],
        "properties": { "magmom": 4.809 },
        "label": "Pu",
        "xyz": [0.0, 4.895443104915255, 1.3267994653705044]
      },
      {
        "species": [{ "element": "Pu", "occu": 1 }],
        "abc": [0.0, 0.81423203, 0.68576797],
        "properties": { "magmom": 4.877 },
        "label": "Pu",
        "xyz": [0.0, 5.797134988137087, 4.880249423664224]
      },
      {
        "species": [{ "element": "Pu", "occu": 1 }],
        "abc": [0.0, 0.18576797, 0.31423203],
        "properties": { "magmom": 4.877 },
        "label": "Pu",
        "xyz": [0.0, 1.3211217618629134, 2.238006286335775]
      },
      {
        "species": [{ "element": "Pu", "occu": 1 }],
        "abc": [0.0, 0.31293774, 0.81293774],
        "properties": { "magmom": 4.809 },
        "label": "Pu",
        "xyz": [0.0, 2.222813645084745, 5.7914562446294955]
      },
      {
        "species": [{ "element": "B", "occu": 1 }],
        "abc": [0.5, 0.46185858, 0.32351041],
        "properties": { "magmom": -0.012 },
        "label": "B",
        "xyz": [2.024462385, 3.288944347152337, 2.3015134307050196]
      },
      {
        "species": [{ "element": "B", "occu": 1 }],
        "abc": [0.5, 0.53814142, 0.67648959],
        "properties": { "magmom": -0.012 },
        "label": "B",
        "xyz": [2.024462385, 3.8293124028476635, 4.8167422792949806]
      },
      {
        "species": [{ "element": "B", "occu": 1 }],
        "abc": [0.5, 0.32374212, 0.53831336],
        "properties": { "magmom": -0.02 },
        "label": "B",
        "xyz": [2.024462385, 2.3024378705807234, 3.833893808957872]
      },
      {
        "species": [{ "element": "B", "occu": 1 }],
        "abc": [0.5, 0.67625788, 0.46168664000000004],
        "properties": { "magmom": -0.02 },
        "label": "B",
        "xyz": [2.024462385, 4.815818879419277, 3.2843619010421277]
      },
      {
        "species": [{ "element": "B", "occu": 1 }],
        "abc": [0.20187167, -0.0, 0.0],
        "properties": { "magmom": -0.024 },
        "label": "B",
        "xyz": [0.817363205024266, 0.0, 0.0]
      },
      {
        "species": [{ "element": "B", "occu": 1 }],
        "abc": [0.79812833, 0.5, 0.5],
        "properties": { "magmom": -0.024 },
        "label": "B",
        "xyz": [3.2315615649757343, 3.5591283750000002, 3.559127855]
      },
      {
        "species": [{ "element": "B", "occu": 1 }],
        "abc": [0.79812833, -0.0, 0.0],
        "properties": { "magmom": -0.024 },
        "label": "B",
        "xyz": [3.2315615649757343, 0.0, 0.0]
      },
      {
        "species": [{ "element": "B", "occu": 1 }],
        "abc": [0.20187167, 0.5, 0.5],
        "properties": { "magmom": -0.024 },
        "label": "B",
        "xyz": [0.817363205024266, 3.5591283750000002, 3.559127855]
      },
      {
        "species": [{ "element": "B", "occu": 1 }],
        "abc": [0.5, 0.08822272, 0.58822272],
        "properties": { "magmom": -0.046 },
        "label": "B",
        "xyz": [2.024462385, 0.62323443714336, 4.191877270391731]
      },
      {
        "species": [{ "element": "B", "occu": 1 }],
        "abc": [0.5, 0.41253258, 0.08746742],
        "properties": { "magmom": -0.054 },
        "label": "B",
        "xyz": [2.024462385, 2.9396058399318763, 0.619522444102007]
      },
      {
        "species": [{ "element": "B", "occu": 1 }],
        "abc": [0.5, 0.58746742, 0.91253258],
        "properties": { "magmom": -0.054 },
        "label": "B",
        "xyz": [2.024462385, 4.178650910068123, 6.498733265897993]
      },
      {
        "species": [{ "element": "B", "occu": 1 }],
        "abc": [0.5, 0.91177728, 0.41177728],
        "properties": { "magmom": -0.046 },
        "label": "B",
        "xyz": [2.024462385, 6.495022312856641, 2.926378439608269]
      },
      {
        "species": [{ "element": "B", "occu": 1 }],
        "abc": [0.5, 0.17648959, 0.03814142],
        "properties": { "magmom": -0.012 },
        "label": "B",
        "xyz": [2.024462385, 1.2576146078441544, 0.2701839881805863]
      },
      {
        "species": [{ "element": "B", "occu": 1 }],
        "abc": [0.5, 0.96168664, 0.17625788],
        "properties": { "magmom": -0.02 },
        "label": "B",
        "xyz": [2.024462385, 6.853005826196234, 1.2471752511110816]
      },
      {
        "species": [{ "element": "B", "occu": 1 }],
        "abc": [0.5, 0.03831336, 0.82374212],
        "properties": { "magmom": -0.02 },
        "label": "B",
        "xyz": [2.024462385, 0.2652509238037668, 5.871080458888919]
      },
      {
        "species": [{ "element": "B", "occu": 1 }],
        "abc": [0.5, 0.82351041, 0.96185858],
        "properties": { "magmom": -0.012 },
        "label": "B",
        "xyz": [2.024462385, 5.860642142155847, 6.848071721819413]
      }
    ]
  },
  "task_ids": null,
  "uncorrected_energy_per_atom": null,
  "energy_per_atom": -23.745676144500003,
  "formation_energy_per_atom": -0.5973231562500011,
  "energy_above_hull": 0.0,
  "is_stable": true,
  "equilibrium_reaction_energy_per_atom": null,
  "decomposes_to": null,
  "xas": null,
  "grain_boundaries": null,
  "band_gap": 0.0,
  "cbm": null,
  "vbm": null,
  "efermi": 9.96884724,
  "is_gap_direct": null,
  "is_metal": null,
  "es_source_calc_id": null,
  "bandstructure": null,
  "dos": null,
  "dos_energy_up": null,
  "dos_energy_down": null,
  "is_magnetic": null,
  "ordering": null,
  "total_magnetization": 19.5425668,
  "total_magnetization_normalized_vol": null,
  "total_magnetization_normalized_formula_units": null,
  "num_magnetic_sites": null,
  "num_unique_magnetic_sites": null,
  "types_of_magnetic_species": null,
  "bulk_modulus": null,
  "shear_modulus": null,
  "universal_anisotropy": null,
  "homogeneous_poisson": null,
  "e_total": null,
  "e_ionic": null,
  "e_electronic": null,
  "n": null,
  "e_ij_max": null,
  "weighted_surface_energy_EV_PER_ANG2": null,
  "weighted_surface_energy": null,
  "weighted_work_function": null,
  "surface_anisotropy": null,
  "shape_factor": null,
  "has_reconstructed": null,
  "possible_species": null,
  "has_props": null,
  "theoretical": null,
  "database_IDs": null,
  "fields_not_requested": [
    "builder_meta",
    "nsites",
    "elements",
    "nelements",
    "composition",
    "composition_reduced",
    "chemsys",
    "symmetry",
    "property_name",
    "deprecated",
    "deprecation_reasons",
    "last_updated",
    "origins",
    "warnings",
    "task_ids",
    "uncorrected_energy_per_atom",
    "equilibrium_reaction_energy_per_atom",
    "decomposes_to",
    "xas",
    "grain_boundaries",
    "cbm",
    "vbm",
    "is_gap_direct",
    "is_metal",
    "es_source_calc_id",
    "bandstructure",
    "dos",
    "dos_energy_up",
    "dos_energy_down",
    "is_magnetic",
    "ordering",
    "total_magnetization_normalized_vol",
    "total_magnetization_normalized_formula_units",
    "num_magnetic_sites",
    "num_unique_magnetic_sites",
    "types_of_magnetic_species",
    "bulk_modulus",
    "shear_modulus",
    "universal_anisotropy",
    "homogeneous_poisson",
    "e_total",
    "e_ionic",
    "e_electronic",
    "n",
    "e_ij_max",
    "weighted_surface_energy_EV_PER_ANG2",
    "weighted_surface_energy",
    "weighted_work_function",
    "surface_anisotropy",
    "shape_factor",
    "has_reconstructed",
    "possible_species",
    "has_props",
    "theoretical",
    "database_IDs"
  ]
}
