{"builder_meta": null, "nsites": null, "elements": null, "nelements": null, "composition": null, "composition_reduced": null, "formula_pretty": "PuB6", "formula_anonymous": "AB6", "chemsys": null, "volume": 69.51717964843564, "density": 7.377803040029071, "density_atomic": 9.931025664062235, "symmetry": null, "property_name": null, "material_id": "mp-505534", "deprecated": null, "deprecation_reasons": null, "last_updated": null, "origins": null, "warnings": null, "structure": {"@module": "pymatgen.core.structure", "@class": "Structure", "charge": 0, "lattice": {"matrix": [[4.111788, 0.0, 0.0], [0.0, 4.111788, 0.0], [0.0, 0.0, 4.111788]], "pbc": [true, true, true], "a": 4.111788, "b": 4.111788, "c": 4.111788, "alpha": 90.0, "beta": 90.0, "gamma": 90.0, "volume": 69.51717964843564}, "properties": {}, "sites": [{"species": [{"element": "Pu", "occu": 1}], "abc": [0.0, 0.0, 0.0], "properties": {"magmom": 5.268}, "label": "Pu", "xyz": [0.0, 0.0, 0.0]}, {"species": [{"element": "B", "occu": 1}], "abc": [0.198706, 0.5, 0.5], "properties": {"magmom": -0.003}, "label": "B", "xyz": [0.817036946328, 2.055894, 2.055894]}, {"species": [{"element": "B", "occu": 1}], "abc": [0.5, 0.5, 0.801294], "properties": {"magmom": -0.01}, "label": "B", "xyz": [2.055894, 2.055894, 3.2947510536719995]}, {"species": [{"element": "B", "occu": 1}], "abc": [0.5, 0.5, 0.198706], "properties": {"magmom": -0.01}, "label": "B", "xyz": [2.055894, 2.055894, 0.817036946328]}, {"species": [{"element": "B", "occu": 1}], "abc": [0.5, 0.198706, 0.5], "properties": {"magmom": -0.005}, "label": "B", "xyz": [2.055894, 0.817036946328, 2.055894]}, {"species": [{"element": "B", "occu": 1}], "abc": [0.5, 0.801294, 0.5], "properties": {"magmom": -0.005}, "label": "B", "xyz": [2.055894, 3.2947510536719995, 2.055894]}, {"species": [{"element": "B", "occu": 1}], "abc": [0.801294, 0.5, 0.5], "properties": {"magmom": -0.003}, "label": "B", "xyz": [3.2947510536719995, 2.055894, 2.055894]}]}, "task_ids": null, "uncorrected_energy_per_atom": null, "energy_per_atom": -19.08396180625001, "formation_energy_per_atom": -0.450465615357152, "energy_above_hull": 0.00487478830357, "is_stable": false, "equilibrium_reaction_energy_per_atom": null, "decomposes_to": null, "xas": null, "grain_boundaries": null, "band_gap": 0.0, "cbm": null, "vbm": null, "efermi": 9.14793032, "is_gap_direct": null, "is_metal": null, "es_source_calc_id": null, "bandstructure": null, "dos": null, "dos_energy_up": null, "dos_energy_down": null, "is_magnetic": null, "ordering": null, "total_magnetization": 5.4662987, "total_magnetization_normalized_vol": null, "total_magnetization_normalized_formula_units": null, "num_magnetic_sites": null, "num_unique_magnetic_sites": null, "types_of_magnetic_species": null, "bulk_modulus": null, "shear_modulus": null, "universal_anisotropy": null, "homogeneous_poisson": null, "e_total": null, "e_ionic": null, "e_electronic": null, "n": null, "e_ij_max": null, "weighted_surface_energy_EV_PER_ANG2": null, "weighted_surface_energy": null, "weighted_work_function": null, "surface_anisotropy": null, "shape_factor": null, "has_reconstructed": null, "possible_species": null, "has_props": null, "theoretical": null, "database_IDs": null, "fields_not_requested": ["builder_meta", "nsites", "elements", "nelements", "composition", "composition_reduced", "chemsys", "symmetry", "property_name", "deprecated", "deprecation_reasons", "last_updated", "origins", "warnings", "task_ids", "uncorrected_energy_per_atom", "equilibrium_reaction_energy_per_atom", "decomposes_to", "xas", "grain_boundaries", "cbm", "vbm", "is_gap_direct", "is_metal", "es_source_calc_id", "bandstructure", "dos", "dos_energy_up", "dos_energy_down", "is_magnetic", "ordering", "total_magnetization_normalized_vol", "total_magnetization_normalized_formula_units", "num_magnetic_sites", "num_unique_magnetic_sites", "types_of_magnetic_species", "bulk_modulus", "shear_modulus", "universal_anisotropy", "homogeneous_poisson", "e_total", "e_ionic", "e_electronic", "n", "e_ij_max", "weighted_surface_energy_EV_PER_ANG2", "weighted_surface_energy", "weighted_work_function", "surface_anisotropy", "shape_factor", "has_reconstructed", "possible_species", "has_props", "theoretical", "database_IDs"]}