{"builder_meta": null, "nsites": null, "elements": null, "nelements": null, "composition": null, "composition_reduced": null, "formula_pretty": "PuBi3", "formula_anonymous": "AB3", "chemsys": null, "volume": 116.87403426122629, "density": 12.374278824661744, "density_atomic": 29.21850856530657, "symmetry": null, "property_name": null, "material_id": "mp-861952", "deprecated": null, "deprecation_reasons": null, "last_updated": null, "origins": null, "warnings": null, "structure": {"@module": "pymatgen.core.structure", "@class": "Structure", "charge": 0, "lattice": {"matrix": [[-2.307278, 2.307278, 5.488556], [2.307278, -2.307278, 5.488556], [2.307279, 2.307278, -5.488556]], "pbc": [true, true, true], "a": 6.385241616705197, "b": 6.385241616705197, "c": 6.385241978050715, "alpha": 137.63429628661996, "beta": 137.6343059100095, "gamma": 61.46354200921243, "volume": 116.87403426122629}, "properties": {}, "sites": [{"species": [{"element": "Pu", "occu": 1}], "abc": [0.0, 0.0, 0.0], "properties": {"magmom": -1.289}, "label": "Pu", "xyz": [0.0, 0.0, 0.0]}, {"species": [{"element": "Bi", "occu": 1}], "abc": [0.75, 0.25, 0.5], "properties": {"magmom": 0.017}, "label": "Bi", "xyz": [4.999999998478444e-07, 2.307278, 2.744278]}, {"species": [{"element": "Bi", "occu": 1}], "abc": [0.25, 0.75, 0.5], "properties": {"magmom": 0.017}, "label": "Bi", "xyz": [2.3072785, 0.0, 2.744278]}, {"species": [{"element": "Bi", "occu": 1}], "abc": [0.5, 0.5, 0.0], "properties": {"magmom": 0.025}, "label": "Bi", "xyz": [0.0, 0.0, 5.488556]}]}, "task_ids": null, "uncorrected_energy_per_atom": null, "energy_per_atom": -65.33946198468749, "formation_energy_per_atom": 0.12633036187500502, "energy_above_hull": 0.49584450031250005, "is_stable": false, "equilibrium_reaction_energy_per_atom": null, "decomposes_to": null, "xas": null, "grain_boundaries": null, "band_gap": 0.0, "cbm": null, "vbm": null, "efermi": 8.38375209, "is_gap_direct": null, "is_metal": null, "es_source_calc_id": null, "bandstructure": null, "dos": null, "dos_energy_up": null, "dos_energy_down": null, "is_magnetic": null, "ordering": null, "total_magnetization": 0.461982599999999, "total_magnetization_normalized_vol": null, "total_magnetization_normalized_formula_units": null, "num_magnetic_sites": null, "num_unique_magnetic_sites": null, "types_of_magnetic_species": null, "bulk_modulus": null, "shear_modulus": null, "universal_anisotropy": null, "homogeneous_poisson": null, "e_total": null, "e_ionic": null, "e_electronic": null, "n": null, "e_ij_max": null, "weighted_surface_energy_EV_PER_ANG2": null, "weighted_surface_energy": null, "weighted_work_function": null, "surface_anisotropy": null, "shape_factor": null, "has_reconstructed": null, "possible_species": null, "has_props": null, "theoretical": null, "database_IDs": null, "fields_not_requested": ["builder_meta", "nsites", "elements", "nelements", "composition", "composition_reduced", "chemsys", "symmetry", "property_name", "deprecated", "deprecation_reasons", "last_updated", "origins", "warnings", "task_ids", "uncorrected_energy_per_atom", "equilibrium_reaction_energy_per_atom", "decomposes_to", "xas", "grain_boundaries", "cbm", "vbm", "is_gap_direct", "is_metal", "es_source_calc_id", "bandstructure", "dos", "dos_energy_up", "dos_energy_down", "is_magnetic", "ordering", "total_magnetization_normalized_vol", "total_magnetization_normalized_formula_units", "num_magnetic_sites", "num_unique_magnetic_sites", "types_of_magnetic_species", "bulk_modulus", "shear_modulus", "universal_anisotropy", "homogeneous_poisson", "e_total", "e_ionic", "e_electronic", "n", "e_ij_max", "weighted_surface_energy_EV_PER_ANG2", "weighted_surface_energy", "weighted_work_function", "surface_anisotropy", "shape_factor", "has_reconstructed", "possible_species", "has_props", "theoretical", "database_IDs"]}