{
  "builder_meta": null,
  "nsites": null,
  "elements": null,
  "nelements": null,
  "composition": null,
  "composition_reduced": null,
  "formula_pretty": "PuBr3",
  "formula_anonymous": "AB3",
  "chemsys": null,
  "volume": 248.6800677786538,
  "density": 6.459887840292492,
  "density_atomic": 31.085008472331726,
  "symmetry": null,
  "property_name": null,
  "material_id": "mp-27974",
  "deprecated": null,
  "deprecation_reasons": null,
  "last_updated": null,
  "origins": null,
  "warnings": null,
  "structure": {
    "@module": "pymatgen.core.structure",
    "@class": "Structure",
    "charge": 0,
    "lattice": {
      "matrix": [
        [4.09795068, -0.0, -0.0],
        [-2.04897534, 6.59625846, -0.0240684],
        [-0.0, -0.03997999, 9.19990774]
      ],
      "pbc": [true, true, true],
      "a": 4.09795068,
      "b": 6.907206736657607,
      "c": 9.199994610004525,
      "alpha": 90.43743018412775,
      "beta": 90.0,
      "gamma": 107.25609207971995,
      "volume": 248.6800677786538
    },
    "properties": {},
    "sites": [
      {
        "species": [{ "element": "Pu", "occu": 1 }],
        "abc": [0.74009448, 0.48018996, 0.24813307],
        "properties": { "magmom": 5.024 },
        "label": "Pu",
        "xyz": [2.04897329102466, 3.1575367283997924, 2.271243947209698]
      },
      {
        "species": [{ "element": "Pu", "occu": 1 }],
        "abc": [0.25990552, 0.51981004, 0.75186693],
        "properties": { "magmom": 5.024 },
        "label": "Pu",
        "xyz": [2.0489753400632083e-6, 3.3987417416002073, 6.904595392790302]
      },
      {
        "species": [{ "element": "Br", "occu": 1 }],
        "abc": [0.35085112, 0.7017032400000001, 0.43273824],
        "properties": { "magmom": -0.03 },
        "label": "Br",
        "xyz": [-2.0489753400632083e-6, 4.611315062751593, 3.964263009308362]
      },
      {
        "species": [{ "element": "Br", "occu": 1 }],
        "abc": [0.64914888, 0.29829676, 0.5672617600000001],
        "properties": { "magmom": -0.03 },
        "label": "Br",
        "xyz": [2.0489773889753407, 1.944963407248407, 5.211576330691639]
      },
      {
        "species": [{ "element": "Br", "occu": 1 }],
        "abc": [0.9149156900000001, 0.8298293800000001, 0.74929948],
        "properties": { "magmom": -0.039 },
        "label": "Br",
        "xyz": [2.0489794379506803, 5.44381208246415, 6.873513420180383]
      },
      {
        "species": [{ "element": "Br", "occu": 1 }],
        "abc": [0.08508431, 0.17017062, 0.25070052],
        "properties": { "magmom": -0.039 },
        "label": "Br",
        "xyz": [-4.097950679959883e-6, 1.1124663875358503, 2.3023259198196167]
      },
      {
        "species": [{ "element": "Br", "occu": 1 }],
        "abc": [0.35017903, 0.70035506, 0.06736727],
        "properties": { "magmom": -0.041 },
        "label": "Br",
        "xyz": [6.14692601996758e-6, 4.617029646747881, 0.6029162429695659]
      },
      {
        "species": [{ "element": "Br", "occu": 1 }],
        "abc": [0.64982097, 0.29964494, 0.93263273],
        "properties": { "magmom": -0.041 },
        "label": "Br",
        "xyz": [2.0489691930739804, 1.9392488232521197, 8.572923097030436]
      }
    ]
  },
  "task_ids": null,
  "uncorrected_energy_per_atom": null,
  "energy_per_atom": -6.764133812499999,
  "formation_energy_per_atom": -1.851940790937495,
  "energy_above_hull": 0.0,
  "is_stable": true,
  "equilibrium_reaction_energy_per_atom": null,
  "decomposes_to": null,
  "xas": null,
  "grain_boundaries": null,
  "band_gap": 0.0,
  "cbm": null,
  "vbm": null,
  "efermi": 2.59516562,
  "is_gap_direct": null,
  "is_metal": null,
  "es_source_calc_id": null,
  "bandstructure": null,
  "dos": null,
  "dos_energy_up": null,
  "dos_energy_down": null,
  "is_magnetic": null,
  "ordering": null,
  "total_magnetization": 10.0000001,
  "total_magnetization_normalized_vol": null,
  "total_magnetization_normalized_formula_units": null,
  "num_magnetic_sites": null,
  "num_unique_magnetic_sites": null,
  "types_of_magnetic_species": null,
  "bulk_modulus": null,
  "shear_modulus": null,
  "universal_anisotropy": null,
  "homogeneous_poisson": null,
  "e_total": null,
  "e_ionic": null,
  "e_electronic": null,
  "n": null,
  "e_ij_max": null,
  "weighted_surface_energy_EV_PER_ANG2": null,
  "weighted_surface_energy": null,
  "weighted_work_function": null,
  "surface_anisotropy": null,
  "shape_factor": null,
  "has_reconstructed": null,
  "possible_species": null,
  "has_props": null,
  "theoretical": null,
  "database_IDs": null,
  "fields_not_requested": [
    "builder_meta",
    "nsites",
    "elements",
    "nelements",
    "composition",
    "composition_reduced",
    "chemsys",
    "symmetry",
    "property_name",
    "deprecated",
    "deprecation_reasons",
    "last_updated",
    "origins",
    "warnings",
    "task_ids",
    "uncorrected_energy_per_atom",
    "equilibrium_reaction_energy_per_atom",
    "decomposes_to",
    "xas",
    "grain_boundaries",
    "cbm",
    "vbm",
    "is_gap_direct",
    "is_metal",
    "es_source_calc_id",
    "bandstructure",
    "dos",
    "dos_energy_up",
    "dos_energy_down",
    "is_magnetic",
    "ordering",
    "total_magnetization_normalized_vol",
    "total_magnetization_normalized_formula_units",
    "num_magnetic_sites",
    "num_unique_magnetic_sites",
    "types_of_magnetic_species",
    "bulk_modulus",
    "shear_modulus",
    "universal_anisotropy",
    "homogeneous_poisson",
    "e_total",
    "e_ionic",
    "e_electronic",
    "n",
    "e_ij_max",
    "weighted_surface_energy_EV_PER_ANG2",
    "weighted_surface_energy",
    "weighted_work_function",
    "surface_anisotropy",
    "shape_factor",
    "has_reconstructed",
    "possible_species",
    "has_props",
    "theoretical",
    "database_IDs"
  ]
}
