{
  "builder_meta": null,
  "nsites": null,
  "elements": null,
  "nelements": null,
  "composition": null,
  "composition_reduced": null,
  "formula_pretty": "PuCl3",
  "formula_anonymous": "AB3",
  "chemsys": null,
  "volume": 201.21626936591215,
  "density": 5.78268157608004,
  "density_atomic": 25.15203367073902,
  "symmetry": null,
  "property_name": null,
  "material_id": "mp-22918",
  "deprecated": null,
  "deprecation_reasons": null,
  "last_updated": null,
  "origins": null,
  "warnings": null,
  "structure": {
    "@module": "pymatgen.core.structure",
    "@class": "Structure",
    "charge": 0,
    "lattice": {
      "matrix": [
        [7.38436741, -0.31665983000000003, -0.0],
        [-3.41794535, 6.5533815, 0.0],
        [0.0, 0.0, 4.25312202]
      ],
      "pbc": [true, true, true],
      "a": 7.391153867550434,
      "b": 7.391154138571924,
      "c": 4.25312202,
      "alpha": 90.0,
      "beta": 90.0,
      "gamma": 119.99997356842547,
      "volume": 201.21626936591215
    },
    "properties": {},
    "sites": [
      {
        "species": [{ "element": "Pu", "occu": 1 }],
        "abc": [0.666667, 0.333333, 0.75],
        "properties": { "magmom": 5.017 },
        "label": "Pu",
        "xyz": [3.78360009077092, 1.9733516566528901, 3.1898415150000003]
      },
      {
        "species": [{ "element": "Pu", "occu": 1 }],
        "abc": [0.333333, 0.666667, 0.25],
        "properties": { "magmom": 5.017 },
        "label": "Pu",
        "xyz": [0.18282196922907978, 4.263370013347111, 1.063280505]
      },
      {
        "species": [{ "element": "Cl", "occu": 1 }],
        "abc": [0.61153912, 0.69667227, 0.75],
        "properties": { "magmom": -0.036000000000000004 },
        "label": "Cl",
        "xyz": [2.1346418019476343, 4.371909292003456, 3.1898415150000003]
      },
      {
        "species": [{ "element": "Cl", "occu": 1 }],
        "abc": [0.91477326, 0.61146557, 0.25],
        "properties": { "magmom": -0.036000000000000004 },
        "label": "Cl",
        "xyz": [4.665065947016858, 3.7174952093248095, 1.063280505]
      },
      {
        "species": [{ "element": "Cl", "occu": 1 }],
        "abc": [0.38853443, 0.30330569, 0.25],
        "properties": { "magmom": -0.036000000000000004 },
        "label": "Cl",
        "xyz": [1.8323987097908845, 1.8646446511377883, 1.063280505]
      },
      {
        "species": [{ "element": "Cl", "occu": 1 }],
        "abc": [0.08513316, 0.38846088, 0.75],
        "properties": { "magmom": -0.036000000000000004 },
        "label": "Cl",
        "xyz": [-0.6990835262385925, 2.518774092492757, 3.1898415150000003]
      },
      {
        "species": [{ "element": "Cl", "occu": 1 }],
        "abc": [0.30332773, 0.9148668400000001, 0.75],
        "properties": { "magmom": -0.036000000000000004 },
        "label": "Cl",
        "xyz": [-0.8870814576859147, 5.899419716803375, 3.1898415150000003]
      },
      {
        "species": [{ "element": "Cl", "occu": 1 }],
        "abc": [0.69669431, 0.08522674, 0.25],
        "properties": { "magmom": -0.036000000000000004 },
        "label": "Cl",
        "xyz": [4.853346417817779, 0.33790823945474263, 1.063280505]
      }
    ]
  },
  "task_ids": null,
  "uncorrected_energy_per_atom": null,
  "energy_per_atom": -28.54778624125,
  "formation_energy_per_atom": -2.3443700303125,
  "energy_above_hull": 0.0,
  "is_stable": true,
  "equilibrium_reaction_energy_per_atom": null,
  "decomposes_to": null,
  "xas": null,
  "grain_boundaries": null,
  "band_gap": 0.0,
  "cbm": null,
  "vbm": null,
  "efermi": 4.41625932,
  "is_gap_direct": null,
  "is_metal": null,
  "es_source_calc_id": null,
  "bandstructure": null,
  "dos": null,
  "dos_energy_up": null,
  "dos_energy_down": null,
  "is_magnetic": null,
  "ordering": null,
  "total_magnetization": 10.0,
  "total_magnetization_normalized_vol": null,
  "total_magnetization_normalized_formula_units": null,
  "num_magnetic_sites": null,
  "num_unique_magnetic_sites": null,
  "types_of_magnetic_species": null,
  "bulk_modulus": null,
  "shear_modulus": null,
  "universal_anisotropy": null,
  "homogeneous_poisson": null,
  "e_total": null,
  "e_ionic": null,
  "e_electronic": null,
  "n": null,
  "e_ij_max": null,
  "weighted_surface_energy_EV_PER_ANG2": null,
  "weighted_surface_energy": null,
  "weighted_work_function": null,
  "surface_anisotropy": null,
  "shape_factor": null,
  "has_reconstructed": null,
  "possible_species": null,
  "has_props": null,
  "theoretical": null,
  "database_IDs": null,
  "fields_not_requested": [
    "builder_meta",
    "nsites",
    "elements",
    "nelements",
    "composition",
    "composition_reduced",
    "chemsys",
    "symmetry",
    "property_name",
    "deprecated",
    "deprecation_reasons",
    "last_updated",
    "origins",
    "warnings",
    "task_ids",
    "uncorrected_energy_per_atom",
    "equilibrium_reaction_energy_per_atom",
    "decomposes_to",
    "xas",
    "grain_boundaries",
    "cbm",
    "vbm",
    "is_gap_direct",
    "is_metal",
    "es_source_calc_id",
    "bandstructure",
    "dos",
    "dos_energy_up",
    "dos_energy_down",
    "is_magnetic",
    "ordering",
    "total_magnetization_normalized_vol",
    "total_magnetization_normalized_formula_units",
    "num_magnetic_sites",
    "num_unique_magnetic_sites",
    "types_of_magnetic_species",
    "bulk_modulus",
    "shear_modulus",
    "universal_anisotropy",
    "homogeneous_poisson",
    "e_total",
    "e_ionic",
    "e_electronic",
    "n",
    "e_ij_max",
    "weighted_surface_energy_EV_PER_ANG2",
    "weighted_surface_energy",
    "weighted_work_function",
    "surface_anisotropy",
    "shape_factor",
    "has_reconstructed",
    "possible_species",
    "has_props",
    "theoretical",
    "database_IDs"
  ]
}
