{"builder_meta": null, "nsites": null, "elements": null, "nelements": null, "composition": null, "composition_reduced": null, "formula_pretty": "PuCl2", "formula_anonymous": "AB2", "chemsys": null, "volume": 184.20874562698916, "density": 5.677403790215326, "density_atomic": 30.70145760449819, "symmetry": null, "property_name": null, "material_id": "mp-867358", "deprecated": null, "deprecation_reasons": null, "last_updated": null, "origins": null, "warnings": null, "structure": {"@module": "pymatgen.core.structure", "@class": "Structure", "charge": 0, "lattice": {"matrix": [[7.06082976, -0.00022501000000000002, -0.0001043], [0.00016492, 7.06127618, -0.00071262], [7.741e-05, -0.00038549, 3.69463305]], "pbc": [true, true, true], "a": 7.060829764355578, "b": 7.061276217884503, "c": 3.6946330709215434, "alpha": 90.01176034697058, "beta": 89.99964569991538, "gamma": 90.0004876052512, "volume": 184.20874562698913}, "properties": {}, "sites": [{"species": [{"element": "Pu", "occu": 1}], "abc": [1.08e-06, -7.9e-07, -1.089e-05], "properties": {"magmom": 5.694}, "label": "Pu", "xyz": [7.6247228591e-06, -5.5744532069e-06, -4.0234103588700004e-05]}, {"species": [{"element": "Pu", "occu": 1}], "abc": [0.5000009, 0.49999883, 0.50000678], "properties": {"magmom": 5.694}, "label": "Pu", "xyz": [3.530542400078667, 3.5303245754907384, 1.8469331153519744]}, {"species": [{"element": "Cl", "occu": 1}], "abc": [0.28155879, 0.28155911, 0.99991635], "properties": {"magmom": -0.035}, "label": "Cl", "xyz": [1.9881625218746652, 1.9877178254079007, 3.6940939827106023]}, {"species": [{"element": "Cl", "occu": 1}], "abc": [0.71843794, 0.71844396, 8.555e-05], "properties": {"magmom": -0.035}, "label": "Cl", "xyz": [5.072886479865403, 5.072969532713324, -0.00027083475448969995]}, {"species": [{"element": "Cl", "occu": 1}], "abc": [0.78160642, 0.21837147, 0.50008579], "properties": {"magmom": -0.035}, "label": "Cl", "xyz": [5.518864596406895, 1.5416126121708336, 1.847396350142802]}, {"species": [{"element": "Cl", "occu": 1}], "abc": [0.21839887, 0.78162942, 0.49991843], "properties": {"magmom": -0.035}, "label": "Cl", "xyz": [1.5422448458559839, 5.519059349547896, 1.8464353700226903]}]}, "task_ids": null, "uncorrected_energy_per_atom": null, "energy_per_atom": -35.039374683333335, "formation_energy_per_atom": -2.152299367916669, "energy_above_hull": 0.0, "is_stable": true, "equilibrium_reaction_energy_per_atom": null, "decomposes_to": null, "xas": null, "grain_boundaries": null, "band_gap": 0.0, "cbm": null, "vbm": null, "efermi": 5.42819077, "is_gap_direct": null, "is_metal": null, "es_source_calc_id": null, "bandstructure": null, "dos": null, "dos_energy_up": null, "dos_energy_down": null, "is_magnetic": null, "ordering": null, "total_magnetization": 12.0000002, "total_magnetization_normalized_vol": null, "total_magnetization_normalized_formula_units": null, "num_magnetic_sites": null, "num_unique_magnetic_sites": null, "types_of_magnetic_species": null, "bulk_modulus": null, "shear_modulus": null, "universal_anisotropy": null, "homogeneous_poisson": null, "e_total": null, "e_ionic": null, "e_electronic": null, "n": null, "e_ij_max": null, "weighted_surface_energy_EV_PER_ANG2": null, "weighted_surface_energy": null, "weighted_work_function": null, "surface_anisotropy": null, "shape_factor": null, "has_reconstructed": null, "possible_species": null, "has_props": null, "theoretical": null, "database_IDs": null, "fields_not_requested": ["builder_meta", "nsites", "elements", "nelements", "composition", "composition_reduced", "chemsys", "symmetry", "property_name", "deprecated", "deprecation_reasons", "last_updated", "origins", "warnings", "task_ids", "uncorrected_energy_per_atom", "equilibrium_reaction_energy_per_atom", "decomposes_to", "xas", "grain_boundaries", "cbm", "vbm", "is_gap_direct", "is_metal", "es_source_calc_id", "bandstructure", "dos", "dos_energy_up", "dos_energy_down", "is_magnetic", "ordering", "total_magnetization_normalized_vol", "total_magnetization_normalized_formula_units", "num_magnetic_sites", "num_unique_magnetic_sites", "types_of_magnetic_species", "bulk_modulus", "shear_modulus", "universal_anisotropy", "homogeneous_poisson", "e_total", "e_ionic", "e_electronic", "n", "e_ij_max", "weighted_surface_energy_EV_PER_ANG2", "weighted_surface_energy", "weighted_work_function", "surface_anisotropy", "shape_factor", "has_reconstructed", "possible_species", "has_props", "theoretical", "database_IDs"]}