{
  "builder_meta": null,
  "nsites": null,
  "elements": null,
  "nelements": null,
  "composition": null,
  "composition_reduced": null,
  "formula_pretty": "PuCo3",
  "formula_anonymous": "AB3",
  "chemsys": null,
  "volume": 158.75497203377057,
  "density": 13.204389276442832,
  "density_atomic": 13.229581002814214,
  "symmetry": null,
  "property_name": null,
  "material_id": "mp-22452",
  "deprecated": null,
  "deprecation_reasons": null,
  "last_updated": null,
  "origins": null,
  "warnings": null,
  "structure": {
    "@module": "pymatgen.core.structure",
    "@class": "Structure",
    "charge": 0,
    "lattice": {
      "matrix": [
        [8.225353, -2.377151, 0.0],
        [8.225353, 2.377151, 0.0],
        [7.53835, 0.0, 4.059626]
      ],
      "pbc": [true, true, true],
      "a": 8.561966996631673,
      "b": 8.561966996631673,
      "c": 8.561967296268774,
      "alpha": 32.23889243151807,
      "beta": 32.23889243151807,
      "gamma": 32.23889612336199,
      "volume": 158.75497203377057
    },
    "properties": {},
    "sites": [
      {
        "species": [{ "element": "Pu", "occu": 1 }],
        "abc": [0.0, 0.0, 0.0],
        "properties": { "magmom": 0.016 },
        "label": "Pu",
        "xyz": [0.0, 0.0, 0.0]
      },
      {
        "species": [{ "element": "Pu", "occu": 1 }],
        "abc": [0.146398, 0.146398, 0.146398],
        "properties": { "magmom": 0.02 },
        "label": "Pu",
        "xyz": [3.5119498202879997, 0.0, 0.594321127148]
      },
      {
        "species": [{ "element": "Pu", "occu": 1 }],
        "abc": [0.853602, 0.853602, 0.853602],
        "properties": { "magmom": 0.02 },
        "label": "Pu",
        "xyz": [20.477106179712003, 0.0, 3.4653048728519997]
      },
      {
        "species": [{ "element": "Co", "occu": 1 }],
        "abc": [0.5, 0.5, 0.5],
        "properties": { "magmom": -0.188 },
        "label": "Co",
        "xyz": [11.994528, 0.0, 2.029813]
      },
      {
        "species": [{ "element": "Co", "occu": 1 }],
        "abc": [0.333196, 0.333196, 0.333196],
        "properties": { "magmom": 0.794 },
        "label": "Co",
        "xyz": [7.993057502976, 0.0, 1.352651144696]
      },
      {
        "species": [{ "element": "Co", "occu": 1 }],
        "abc": [0.666804, 0.666804, 0.666804],
        "properties": { "magmom": 0.794 },
        "label": "Co",
        "xyz": [15.995998497023999, 0.0, 2.706974855304]
      },
      {
        "species": [{ "element": "Co", "occu": 1 }],
        "abc": [0.084895, 0.581577, 0.581577],
        "properties": { "magmom": 0.269 },
        "label": "Co",
        "xyz": [9.866098442565999, 1.180688112982, 2.360985110202]
      },
      {
        "species": [{ "element": "Co", "occu": 1 }],
        "abc": [0.581577, 0.581577, 0.084895],
        "properties": { "magmom": 0.28800000000000003 },
        "label": "Co",
        "xyz": [10.207320466612, 0.0, 0.34464194926999997]
      },
      {
        "species": [{ "element": "Co", "occu": 1 }],
        "abc": [0.581577, 0.084895, 0.581577],
        "properties": { "magmom": 0.315 },
        "label": "Co",
        "xyz": [9.866098442565999, -1.180688112982, 2.360985110202]
      },
      {
        "species": [{ "element": "Co", "occu": 1 }],
        "abc": [0.418423, 0.915105, 0.418423],
        "properties": { "magmom": 0.315 },
        "label": "Co",
        "xyz": [14.122957557433999, 1.180688112982, 1.6986408897979999]
      },
      {
        "species": [{ "element": "Co", "occu": 1 }],
        "abc": [0.915105, 0.418423, 0.418423],
        "properties": { "magmom": 0.269 },
        "label": "Co",
        "xyz": [14.122957557433999, -1.180688112982, 1.6986408897979999]
      },
      {
        "species": [{ "element": "Co", "occu": 1 }],
        "abc": [0.418423, 0.418423, 0.915105],
        "properties": { "magmom": 0.28800000000000003 },
        "label": "Co",
        "xyz": [13.781735533388, 0.0, 3.7149840507299996]
      }
    ]
  },
  "task_ids": null,
  "uncorrected_energy_per_atom": null,
  "energy_per_atom": -31.252712876666667,
  "formation_energy_per_atom": 0.26204750864583004,
  "energy_above_hull": 0.336827938333335,
  "is_stable": false,
  "equilibrium_reaction_energy_per_atom": null,
  "decomposes_to": null,
  "xas": null,
  "grain_boundaries": null,
  "band_gap": 0.0,
  "cbm": null,
  "vbm": null,
  "efermi": 9.29621169,
  "is_gap_direct": null,
  "is_metal": null,
  "es_source_calc_id": null,
  "bandstructure": null,
  "dos": null,
  "dos_energy_up": null,
  "dos_energy_down": null,
  "is_magnetic": null,
  "ordering": null,
  "total_magnetization": 2.7758764,
  "total_magnetization_normalized_vol": null,
  "total_magnetization_normalized_formula_units": null,
  "num_magnetic_sites": null,
  "num_unique_magnetic_sites": null,
  "types_of_magnetic_species": null,
  "bulk_modulus": null,
  "shear_modulus": null,
  "universal_anisotropy": null,
  "homogeneous_poisson": null,
  "e_total": null,
  "e_ionic": null,
  "e_electronic": null,
  "n": null,
  "e_ij_max": null,
  "weighted_surface_energy_EV_PER_ANG2": null,
  "weighted_surface_energy": null,
  "weighted_work_function": null,
  "surface_anisotropy": null,
  "shape_factor": null,
  "has_reconstructed": null,
  "possible_species": null,
  "has_props": null,
  "theoretical": null,
  "database_IDs": null,
  "fields_not_requested": [
    "builder_meta",
    "nsites",
    "elements",
    "nelements",
    "composition",
    "composition_reduced",
    "chemsys",
    "symmetry",
    "property_name",
    "deprecated",
    "deprecation_reasons",
    "last_updated",
    "origins",
    "warnings",
    "task_ids",
    "uncorrected_energy_per_atom",
    "equilibrium_reaction_energy_per_atom",
    "decomposes_to",
    "xas",
    "grain_boundaries",
    "cbm",
    "vbm",
    "is_gap_direct",
    "is_metal",
    "es_source_calc_id",
    "bandstructure",
    "dos",
    "dos_energy_up",
    "dos_energy_down",
    "is_magnetic",
    "ordering",
    "total_magnetization_normalized_vol",
    "total_magnetization_normalized_formula_units",
    "num_magnetic_sites",
    "num_unique_magnetic_sites",
    "types_of_magnetic_species",
    "bulk_modulus",
    "shear_modulus",
    "universal_anisotropy",
    "homogeneous_poisson",
    "e_total",
    "e_ionic",
    "e_electronic",
    "n",
    "e_ij_max",
    "weighted_surface_energy_EV_PER_ANG2",
    "weighted_surface_energy",
    "weighted_work_function",
    "surface_anisotropy",
    "shape_factor",
    "has_reconstructed",
    "possible_species",
    "has_props",
    "theoretical",
    "database_IDs"
  ]
}
