{"builder_meta": null, "nsites": null, "elements": null, "nelements": null, "composition": null, "composition_reduced": null, "formula_pretty": "PuCu2", "formula_anonymous": "AB2", "chemsys": null, "volume": 102.94100044774687, "density": 11.972154158643878, "density_atomic": 17.156833407957812, "symmetry": null, "property_name": null, "material_id": "mp-2016621", "deprecated": null, "deprecation_reasons": null, "last_updated": null, "origins": null, "warnings": null, "structure": {"@module": "pymatgen.core.structure", "@class": "Structure", "charge": 0, "lattice": {"matrix": [[-2.24648391, 2.93602603, 3.8950695], [2.24648391, -2.94260927, 3.89980001], [2.24648391, 2.94260927, -3.89980001]], "pbc": [true, true, true], "a": 5.370149459424448, "b": 5.377181361250039, "c": 5.377181361250039, "alpha": 130.61086333637587, "beta": 113.67909738830306, "gamma": 87.01498587681674, "volume": 102.94100044774689}, "properties": {}, "sites": [{"species": [{"element": "Pu", "occu": 1}], "abc": [0.7507503600000001, 0.50064208, 0.25010828], "properties": {"magmom": 5.3870000000000005}, "label": "Pu", "xyz": [1.1102230246251565e-16, 1.4669995166635448, 3.9012565450953582]}, {"species": [{"element": "Pu", "occu": 1}], "abc": [0.24919816, 0.49931291, 0.7498852500000001], "properties": {"magmom": 5.3870000000000005}, "label": "Pu", "xyz": [2.2464839100000003, 1.4689887748776966, -0.006537861565603542]}, {"species": [{"element": "Cu", "occu": 1}], "abc": [0.16812336, 0.16673713, 0.00138623], "properties": {"magmom": 0.034}, "label": "Cu", "xyz": [3.469446951953614e-17, 0.00705147006821774, 1.299687613247029]}, {"species": [{"element": "Cu", "occu": 1}], "abc": [0.83228008, 0.83328539, 0.99899569], "properties": {"magmom": 0.034}, "label": "Cu", "xyz": [2.2464861564839103, 2.931216644044963, 2.5955517254684572]}, {"species": [{"element": "Cu", "occu": 1}], "abc": [0.66540454, 0.16678692, 0.49861662], "properties": {"magmom": 0.034}, "label": "Cu", "xyz": [-2.246483910228747e-06, 2.9300902012014953, 1.2977274615372332]}, {"species": [{"element": "Cu", "occu": 1}], "abc": [0.3342425, 0.83323556, 0.50100794], "properties": {"magmom": 0.034}, "label": "Cu", "xyz": [2.2464861564839103, 0.0037286059702377194, 2.597519043152025]}]}, "task_ids": null, "uncorrected_energy_per_atom": null, "energy_per_atom": -36.09832594833333, "formation_energy_per_atom": -0.08167923125000201, "energy_above_hull": 0.0, "is_stable": true, "equilibrium_reaction_energy_per_atom": null, "decomposes_to": null, "xas": null, "grain_boundaries": null, "band_gap": 0.0, "cbm": null, "vbm": null, "efermi": 9.13323203, "is_gap_direct": null, "is_metal": null, "es_source_calc_id": null, "bandstructure": null, "dos": null, "dos_energy_up": null, "dos_energy_down": null, "is_magnetic": null, "ordering": null, "total_magnetization": 11.4441955, "total_magnetization_normalized_vol": null, "total_magnetization_normalized_formula_units": null, "num_magnetic_sites": null, "num_unique_magnetic_sites": null, "types_of_magnetic_species": null, "bulk_modulus": null, "shear_modulus": null, "universal_anisotropy": null, "homogeneous_poisson": null, "e_total": null, "e_ionic": null, "e_electronic": null, "n": null, "e_ij_max": null, "weighted_surface_energy_EV_PER_ANG2": null, "weighted_surface_energy": null, "weighted_work_function": null, "surface_anisotropy": null, "shape_factor": null, "has_reconstructed": null, "possible_species": null, "has_props": null, "theoretical": null, "database_IDs": null, "fields_not_requested": ["builder_meta", "nsites", "elements", "nelements", "composition", "composition_reduced", "chemsys", "symmetry", "property_name", "deprecated", "deprecation_reasons", "last_updated", "origins", "warnings", "task_ids", "uncorrected_energy_per_atom", "equilibrium_reaction_energy_per_atom", "decomposes_to", "xas", "grain_boundaries", "cbm", "vbm", "is_gap_direct", "is_metal", "es_source_calc_id", "bandstructure", "dos", "dos_energy_up", "dos_energy_down", "is_magnetic", "ordering", "total_magnetization_normalized_vol", "total_magnetization_normalized_formula_units", "num_magnetic_sites", "num_unique_magnetic_sites", "types_of_magnetic_species", "bulk_modulus", "shear_modulus", "universal_anisotropy", "homogeneous_poisson", "e_total", "e_ionic", "e_electronic", "n", "e_ij_max", "weighted_surface_energy_EV_PER_ANG2", "weighted_surface_energy", "weighted_work_function", "surface_anisotropy", "shape_factor", "has_reconstructed", "possible_species", "has_props", "theoretical", "database_IDs"]}