{"builder_meta": null, "nsites": null, "elements": null, "nelements": null, "composition": null, "composition_reduced": null, "formula_pretty": "PuCu6", "formula_anonymous": "AB6", "chemsys": null, "volume": 406.0561084910487, "density": 10.228096104903397, "density_atomic": 14.50200387468031, "symmetry": null, "property_name": null, "material_id": "mp-1192935", "deprecated": null, "deprecation_reasons": null, "last_updated": null, "origins": null, "warnings": null, "structure": {"@module": "pymatgen.core.structure", "@class": "Structure", "charge": 0, "lattice": {"matrix": [[5.026686, 0.0, 0.0], [0.0, 8.023287, 0.0], [0.0, 0.0, 10.068203]], "pbc": [true, true, true], "a": 5.026686, "b": 8.023287, "c": 10.068203, "alpha": 90.0, "beta": 90.0, "gamma": 90.0, "volume": 406.0561084910487}, "properties": {}, "sites": [{"species": [{"element": "Pu", "occu": 1}], "abc": [0.25, 0.258416, 0.565546], "properties": {"magmom": 5.125}, "label": "Pu", "xyz": [1.2566715, 2.073345733392, 5.6940319338380005]}, {"species": [{"element": "Pu", "occu": 1}], "abc": [0.25, 0.758416, 0.934454], "properties": {"magmom": 5.125}, "label": "Pu", "xyz": [1.2566715, 6.084989233391999, 9.408272566162001]}, {"species": [{"element": "Pu", "occu": 1}], "abc": [0.75, 0.741584, 0.434454], "properties": {"magmom": 5.125}, "label": "Pu", "xyz": [3.7700145, 5.9499412666080005, 4.374171066162]}, {"species": [{"element": "Pu", "occu": 1}], "abc": [0.75, 0.241584, 0.065546], "properties": {"magmom": 5.125}, "label": "Pu", "xyz": [3.7700145, 1.938297766608, 0.659930433838]}, {"species": [{"element": "Cu", "occu": 1}], "abc": [0.25, 0.138080999999999, 0.857484999999999], "properties": {"magmom": 0.002}, "label": "Cu", "xyz": [1.2566715, 1.107863492246992, 8.633333049454992]}, {"species": [{"element": "Cu", "occu": 1}], "abc": [0.25, 0.638081, 0.642515], "properties": {"magmom": 0.002}, "label": "Cu", "xyz": [1.2566715, 5.119506992247, 6.468971450544999]}, {"species": [{"element": "Cu", "occu": 1}], "abc": [0.75, 0.861919, 0.142515], "properties": {"magmom": 0.002}, "label": "Cu", "xyz": [3.7700145, 6.915423507753, 1.434869950545]}, {"species": [{"element": "Cu", "occu": 1}], "abc": [0.75, 0.361919, 0.357485], "properties": {"magmom": 0.002}, "label": "Cu", "xyz": [3.7700145, 2.903780007753, 3.5992315494550002]}, {"species": [{"element": "Cu", "occu": 1}], "abc": [0.25, 0.816896, 0.244701], "properties": {"magmom": 0.003}, "label": "Cu", "xyz": [1.2566715, 6.554191057152, 2.4636993423030003]}, {"species": [{"element": "Cu", "occu": 1}], "abc": [0.25, 0.316896, 0.255299], "properties": {"magmom": 0.003}, "label": "Cu", "xyz": [1.2566715, 2.542547557152, 2.570402157697]}, {"species": [{"element": "Cu", "occu": 1}], "abc": [0.75, 0.183104, 0.755298999999999], "properties": {"magmom": 0.003}, "label": "Cu", "xyz": [3.7700145, 1.469095942848, 7.60450365769699]}, {"species": [{"element": "Cu", "occu": 1}], "abc": [0.75, 0.683103999999999, 0.744701], "properties": {"magmom": 0.003}, "label": "Cu", "xyz": [3.7700145, 5.480739442847992, 7.497800842303]}, {"species": [{"element": "Cu", "occu": 1}], "abc": [0.25, 0.562821999999999, 0.40414000000000005], "properties": {"magmom": 0.005}, "label": "Cu", "xyz": [1.2566715, 4.515682435913992, 4.068963560420001]}, {"species": [{"element": "Cu", "occu": 1}], "abc": [0.25, 0.062822, 0.09586000000000001], "properties": {"magmom": 0.005}, "label": "Cu", "xyz": [1.2566715, 0.5040389359140001, 0.9651379395800002]}, {"species": [{"element": "Cu", "occu": 1}], "abc": [0.75, 0.437177999999999, 0.5958600000000001], "properties": {"magmom": 0.005}, "label": "Cu", "xyz": [3.7700145, 3.507604564085992, 5.999239439580001]}, {"species": [{"element": "Cu", "occu": 1}], "abc": [0.75, 0.937178, 0.90414], "properties": {"magmom": 0.005}, "label": "Cu", "xyz": [3.7700145, 7.519248064086, 9.10306506042]}, {"species": [{"element": "Cu", "occu": 1}], "abc": [0.25, 0.899567, 0.483923999999999], "properties": {"magmom": 0.009000000000000001}, "label": "Cu", "xyz": [1.2566715, 7.217484216729, 4.87224506857199]}, {"species": [{"element": "Cu", "occu": 1}], "abc": [0.25, 0.399567, 0.016076], "properties": {"magmom": 0.009000000000000001}, "label": "Cu", "xyz": [1.2566715, 3.205840716729, 0.16185643142800002]}, {"species": [{"element": "Cu", "occu": 1}], "abc": [0.75, 0.100433, 0.516076], "properties": {"magmom": 0.009000000000000001}, "label": "Cu", "xyz": [3.7700145, 0.805802783271, 5.195957931428]}, {"species": [{"element": "Cu", "occu": 1}], "abc": [0.75, 0.600433, 0.983923999999999], "properties": {"magmom": 0.009000000000000001}, "label": "Cu", "xyz": [3.7700145, 4.817446283271, 9.90634656857199]}, {"species": [{"element": "Cu", "occu": 1}], "abc": [0.005834, 0.433996, 0.808937], "properties": {"magmom": 0.017}, "label": "Cu", "xyz": [0.029325686123999998, 3.482074464852, 8.144541930211]}, {"species": [{"element": "Cu", "occu": 1}], "abc": [0.494166, 0.933995999999999, 0.691063], "properties": {"magmom": 0.017}, "label": "Cu", "xyz": [2.484017313876, 7.493717964851992, 6.957762569789]}, {"species": [{"element": "Cu", "occu": 1}], "abc": [0.505834, 0.566004, 0.191062999999999], "properties": {"magmom": 0.017}, "label": "Cu", "xyz": [2.5426686861239998, 4.5412125351479995, 1.9236610697889902]}, {"species": [{"element": "Cu", "occu": 1}], "abc": [0.994166, 0.066004, 0.308936999999999], "properties": {"magmom": 0.017}, "label": "Cu", "xyz": [4.997360313875999, 0.5295690351479999, 3.11044043021099]}, {"species": [{"element": "Cu", "occu": 1}], "abc": [0.994166, 0.566004, 0.191062999999999], "properties": {"magmom": 0.017}, "label": "Cu", "xyz": [4.997360313875999, 4.5412125351479995, 1.9236610697889902]}, {"species": [{"element": "Cu", "occu": 1}], "abc": [0.505834, 0.066004, 0.308936999999999], "properties": {"magmom": 0.017}, "label": "Cu", "xyz": [2.5426686861239998, 0.5295690351479999, 3.11044043021099]}, {"species": [{"element": "Cu", "occu": 1}], "abc": [0.494166, 0.433996, 0.808937], "properties": {"magmom": 0.017}, "label": "Cu", "xyz": [2.484017313876, 3.482074464852, 8.144541930211]}, {"species": [{"element": "Cu", "occu": 1}], "abc": [0.005834, 0.933995999999999, 0.691063], "properties": {"magmom": 0.017}, "label": "Cu", "xyz": [0.029325686123999998, 7.493717964851992, 6.957762569789]}]}, "task_ids": null, "uncorrected_energy_per_atom": null, "energy_per_atom": -5.569645402142856, "formation_energy_per_atom": 0.04937924089285901, "energy_above_hull": 0.049379240892860006, "is_stable": false, "equilibrium_reaction_energy_per_atom": null, "decomposes_to": null, "xas": null, "grain_boundaries": null, "band_gap": 0.0, "cbm": null, "vbm": null, "efermi": 7.71061381, "is_gap_direct": null, "is_metal": null, "es_source_calc_id": null, "bandstructure": null, "dos": null, "dos_energy_up": null, "dos_energy_down": null, "is_magnetic": null, "ordering": null, "total_magnetization": 21.8048756, "total_magnetization_normalized_vol": null, "total_magnetization_normalized_formula_units": null, "num_magnetic_sites": null, "num_unique_magnetic_sites": null, "types_of_magnetic_species": null, "bulk_modulus": null, "shear_modulus": null, "universal_anisotropy": null, "homogeneous_poisson": null, "e_total": null, "e_ionic": null, "e_electronic": null, "n": null, "e_ij_max": null, "weighted_surface_energy_EV_PER_ANG2": null, "weighted_surface_energy": null, "weighted_work_function": null, "surface_anisotropy": null, "shape_factor": null, "has_reconstructed": null, "possible_species": null, "has_props": null, "theoretical": null, "database_IDs": null, "fields_not_requested": ["builder_meta", "nsites", "elements", "nelements", "composition", "composition_reduced", "chemsys", "symmetry", "property_name", "deprecated", "deprecation_reasons", "last_updated", "origins", "warnings", "task_ids", "uncorrected_energy_per_atom", "equilibrium_reaction_energy_per_atom", "decomposes_to", "xas", "grain_boundaries", "cbm", "vbm", "is_gap_direct", "is_metal", "es_source_calc_id", "bandstructure", "dos", "dos_energy_up", "dos_energy_down", "is_magnetic", "ordering", "total_magnetization_normalized_vol", "total_magnetization_normalized_formula_units", "num_magnetic_sites", "num_unique_magnetic_sites", "types_of_magnetic_species", "bulk_modulus", "shear_modulus", "universal_anisotropy", "homogeneous_poisson", "e_total", "e_ionic", "e_electronic", "n", "e_ij_max", "weighted_surface_energy_EV_PER_ANG2", "weighted_surface_energy", "weighted_work_function", "surface_anisotropy", "shape_factor", "has_reconstructed", "possible_species", "has_props", "theoretical", "database_IDs"]}