{"builder_meta": null, "nsites": null, "elements": null, "nelements": null, "composition": null, "composition_reduced": null, "formula_pretty": "PuF4", "formula_anonymous": "AB4", "chemsys": null, "volume": 448.1413437561489, "density": 7.114209423257432, "density_atomic": 14.93804479187163, "symmetry": null, "property_name": null, "material_id": "mp-1209625", "deprecated": null, "deprecation_reasons": null, "last_updated": null, "origins": null, "warnings": null, "structure": {"@module": "pymatgen.core.structure", "@class": "Structure", "charge": 0, "lattice": {"matrix": [[5.37599773, 6.2493484200000005, 0.71382025], [-5.34443841, 6.27909673, 0.70701171], [0.00604596, 4.13824259, 7.14248001]], "pbc": [true, true, true], "a": 8.274372883598595, "b": 8.275865104087737, "c": 8.25470223451893, "alpha": 63.01161587431244, "beta": 63.015447730627066, "gamma": 80.74492236283768, "volume": 448.14134375614896}, "properties": {}, "sites": [{"species": [{"element": "Pu", "occu": 1}], "abc": [0.6333099600000001, 0.77839452, 0.66988994], "properties": {"magmom": 3.965}, "label": "Pu", "xyz": [-0.7513585356934801, 11.617556163398728, 5.787079019964619]}, {"species": [{"element": "Pu", "occu": 1}], "abc": [0.3671249, 0.22366265000000002, 0.33130194], "properties": {"magmom": 3.964}, "label": "Pu", "xyz": [0.7803144097612525, 5.069698626253418, 2.7865107842630756]}, {"species": [{"element": "Pu", "occu": 1}], "abc": [0.22358663, 0.36706124, 0.83135935], "properties": {"magmom": 3.964}, "label": "Pu", "xyz": [-0.7547086091641527, 7.142450454482087, 6.3570847975919715]}, {"species": [{"element": "Pu", "occu": 1}], "abc": [0.77846284, 0.63335391, 0.16984186], "properties": {"magmom": 3.965}, "label": "Pu", "xyz": [0.8011203540935555, 9.544622803013246, 2.216563259920015]}, {"species": [{"element": "Pu", "occu": 1}], "abc": [0.78751403, 0.21345487, 0.75073243], "properties": {"magmom": 3.969999999999999}, "label": "Pu", "xyz": [3.0974161298360783, 9.368466250848101, 6.075149928553359]}, {"species": [{"element": "Pu", "occu": 1}], "abc": [0.21341805, 0.78749453, 0.2508701], "properties": {"magmom": 3.969}, "label": "Pu", "xyz": [-3.0598643108660752, 7.316639414160427, 2.5009446544331597]}, {"species": [{"element": "F", "occu": 1}], "abc": [0.31124229999999903, 0.25083949, 0.61017687], "properties": {"magmom": 0.005}, "label": "F", "xyz": [0.3363307981281081, 6.045166908022921, 4.757693609696371]}, {"species": [{"element": "F", "occu": 1}], "abc": [0.68818209, 0.74942175, 0.39039975], "properties": {"magmom": 0.006}, "label": "F", "xyz": [-0.3032126910502521, 10.621950189205027, 3.809510674792012]}, {"species": [{"element": "F", "occu": 1}], "abc": [0.74986444, 0.6886126300000001, 0.88998675], "properties": {"magmom": 0.006}, "label": "F", "xyz": [0.3564025621556321, 12.693010539983568, 7.378838186130675]}, {"species": [{"element": "F", "occu": 1}], "abc": [0.25052763, 0.3109142, 0.11045992], "properties": {"magmom": 0.005}, "label": "F", "xyz": [-0.31415798625421887, 3.975004730669403, 1.1876094461899886]}, {"species": [{"element": "F", "occu": 1}], "abc": [0.82236492, 0.93726208, 0.96098827], "properties": {"magmom": -0.002}, "label": "F", "xyz": [-0.5822974207959721, 15.001206762550845, 8.113515507004069]}, {"species": [{"element": "F", "occu": 1}], "abc": [0.17919586, 0.06224243, 0.03751429], "properties": {"magmom": -0.0}, "label": "F", "xyz": [0.63093251285843, 1.6659268358534063, 0.4398648268673632]}, {"species": [{"element": "F", "occu": 1}], "abc": [0.06236245, 0.17849346, 0.53799386], "properties": {"magmom": -0.0}, "label": "F", "xyz": [-0.6154342245627545, 3.7368514839977123, 4.013322936580768]}, {"species": [{"element": "F", "occu": 1}], "abc": [0.93706648, 0.82282759, 0.46072147], "properties": {"magmom": -0.002}, "label": "F", "xyz": [0.6429013961141194, 12.92924616522715, 4.541339660114113]}, {"species": [{"element": "F", "occu": 1}], "abc": [0.40213781, 0.59794087, 0.7505042], "properties": {"magmom": -0.001}, "label": "F", "xyz": [-1.0292286804566135, 9.373396293509993, 6.070266554967282]}, {"species": [{"element": "F", "occu": 1}], "abc": [0.59810209, 0.40231794, 0.24999876000000001], "properties": {"magmom": -0.001}, "label": "F", "xyz": [1.0667435090831898, 7.298497128693723, 2.4969920239571874]}, {"species": [{"element": "F", "occu": 1}], "abc": [0.49867591, -0.00165086, 0.49985189], "properties": {"magmom": 0.001}, "label": "F", "xyz": [2.6927255642920813, 5.17454198051287, 3.924979917679326]}, {"species": [{"element": "F", "occu": 1}], "abc": [-0.0014037, 0.49879494, -0.00011052], "properties": {"magmom": 0.001}, "label": "F", "xyz": [-2.673325792262746, 3.1227521077463454, 0.3508624870931172]}, {"species": [{"element": "F", "occu": 1}], "abc": [0.50241481, 0.25925428, 0.77970355], "properties": {"magmom": 0.006}, "label": "F", "xyz": [1.3201264025646442, 7.994250339028799, 6.1109466967065575]}, {"species": [{"element": "F", "occu": 1}], "abc": [0.49833226, 0.73879698, 0.21930374], "properties": {"magmom": 0.004}, "label": "F", "xyz": [-1.268095956918342, 8.660761699932191, 2.4444303536571383]}, {"species": [{"element": "F", "occu": 1}], "abc": [0.73922478, 0.49847636, 0.71913465], "properties": {"magmom": 0.005}, "label": "F", "xyz": [1.3143423937072758, 10.725608129550894, 6.016507103067317]}, {"species": [{"element": "F", "occu": 1}], "abc": [0.25881521, 0.50228807, 0.28006013], "properties": {"magmom": 0.006}, "label": "F", "xyz": [-1.2913644403997206, 5.930298559267417, 2.5401949653123035]}, {"species": [{"element": "F", "occu": 1}], "abc": [0.40580485, 0.81158778, 0.93122267], "properties": {"magmom": -0.002}, "label": "F", "xyz": [-2.150244817081726, 11.485679387449313, 7.514713088964943]}, {"species": [{"element": "F", "occu": 1}], "abc": [0.592637699999999, 0.18830125, 0.06871813], "properties": {"magmom": -0.002}, "label": "F", "xyz": [2.1800699638266576, 5.170333529528498, 1.046985849780643]}, {"species": [{"element": "F", "occu": 1}], "abc": [0.18792723, 0.5927836400000001, 0.5689716], "properties": {"magmom": -0.002}, "label": "F", "xyz": [-2.154359313015689, 7.2511110610174185, 4.617119516534547]}, {"species": [{"element": "F", "occu": 1}], "abc": [0.81226124, 0.40587147, 0.43080153], "properties": {"magmom": -0.002}, "label": "F", "xyz": [2.2001641174341406, 9.407370956181696, 3.9437557197494386]}, {"species": [{"element": "F", "occu": 1}], "abc": [0.72663707, 0.033555180000000004, 0.64346508], "properties": {"magmom": 0.002}, "label": "F", "xyz": [3.730956010142464, 7.414519045564248, 5.138348631190876]}, {"species": [{"element": "F", "occu": 1}], "abc": [0.2726211, 0.9680821900000001, 0.35631648], "properties": {"magmom": 0.002}, "label": "F", "xyz": [-3.706090950337395, 9.256909987198785, 3.424031241963285]}, {"species": [{"element": "F", "occu": 1}], "abc": [0.96812502, 0.27231153, 0.85658526], "properties": {"magmom": 0.002}, "label": "F", "xyz": [3.7544645896768865, 11.304778606561989, 7.001737780696324]}, {"species": [{"element": "F", "occu": 1}], "abc": [0.03346403, 0.72725303, 0.14323604], "properties": {"magmom": 0.002}, "label": "F", "xyz": [-3.705990478635832, 5.368365986713868, 1.5611242630151492]}]}, "task_ids": null, "uncorrected_energy_per_atom": null, "energy_per_atom": -23.708312446666664, "formation_energy_per_atom": -3.936220456416667, "energy_above_hull": 0.0, "is_stable": true, "equilibrium_reaction_energy_per_atom": null, "decomposes_to": null, "xas": null, "grain_boundaries": null, "band_gap": 0.0, "cbm": null, "vbm": null, "efermi": 2.12364349, "is_gap_direct": null, "is_metal": null, "es_source_calc_id": null, "bandstructure": null, "dos": null, "dos_energy_up": null, "dos_energy_down": null, "is_magnetic": null, "ordering": null, "total_magnetization": 24.0, "total_magnetization_normalized_vol": null, "total_magnetization_normalized_formula_units": null, "num_magnetic_sites": null, "num_unique_magnetic_sites": null, "types_of_magnetic_species": null, "bulk_modulus": null, "shear_modulus": null, "universal_anisotropy": null, "homogeneous_poisson": null, "e_total": null, "e_ionic": null, "e_electronic": null, "n": null, "e_ij_max": null, "weighted_surface_energy_EV_PER_ANG2": null, "weighted_surface_energy": null, "weighted_work_function": null, "surface_anisotropy": null, "shape_factor": null, "has_reconstructed": null, "possible_species": null, "has_props": null, "theoretical": null, "database_IDs": null, "fields_not_requested": ["builder_meta", "nsites", "elements", "nelements", "composition", "composition_reduced", "chemsys", "symmetry", "property_name", "deprecated", "deprecation_reasons", "last_updated", "origins", "warnings", "task_ids", "uncorrected_energy_per_atom", "equilibrium_reaction_energy_per_atom", "decomposes_to", "xas", "grain_boundaries", "cbm", "vbm", "is_gap_direct", "is_metal", "es_source_calc_id", "bandstructure", "dos", "dos_energy_up", "dos_energy_down", "is_magnetic", "ordering", "total_magnetization_normalized_vol", "total_magnetization_normalized_formula_units", "num_magnetic_sites", "num_unique_magnetic_sites", "types_of_magnetic_species", "bulk_modulus", "shear_modulus", "universal_anisotropy", "homogeneous_poisson", "e_total", "e_ionic", "e_electronic", "n", "e_ij_max", "weighted_surface_energy_EV_PER_ANG2", "weighted_surface_energy", "weighted_work_function", "surface_anisotropy", "shape_factor", "has_reconstructed", "possible_species", "has_props", "theoretical", "database_IDs"]}