{"builder_meta": null, "nsites": null, "elements": null, "nelements": null, "composition": null, "composition_reduced": null, "formula_pretty": "PuGa", "formula_anonymous": "AB", "chemsys": null, "volume": 175.32744364648192, "density": 11.885174089262552, "density_atomic": 21.91593045581024, "symmetry": null, "property_name": null, "material_id": "mp-29635", "deprecated": null, "deprecation_reasons": null, "last_updated": null, "origins": null, "warnings": null, "structure": {"@module": "pymatgen.core.structure", "@class": "Structure", "charge": 0, "lattice": {"matrix": [[-3.20189314, 3.20189314, 4.27539497], [3.20189314, -3.20189314, 4.27539497], [3.20189314, 3.20189314, -4.27539497]], "pbc": [true, true, true], "a": 6.227619248915223, "b": 6.227619248915223, "c": 6.227619248915223, "alpha": 118.1194867142312, "beta": 118.1194867142312, "gamma": 93.28922373100666, "volume": 175.32744364648192}, "properties": {}, "sites": [{"species": [{"element": "Pu", "occu": 1}], "abc": [0.25, 0.75, 0.5], "properties": {"magmom": 5.348}, "label": "Pu", "xyz": [3.20189314, -2.220446049250313e-16, 2.137697485]}, {"species": [{"element": "Pu", "occu": 1}], "abc": [0.75, 0.25, 0.5], "properties": {"magmom": 5.348}, "label": "Pu", "xyz": [-2.220446049250313e-16, 3.20189314, 2.137697485]}, {"species": [{"element": "Pu", "occu": 1}], "abc": [0.701410299999999, 0.701410299999999, 0.0], "properties": {"magmom": 5.354}, "label": "Pu", "xyz": [0.0, 0.0, 5.997612137052373]}, {"species": [{"element": "Pu", "occu": 1}], "abc": [0.2985897, 0.2985897, 0.0], "properties": {"magmom": 5.354}, "label": "Pu", "xyz": [0.0, 0.0, 2.553177802947618]}, {"species": [{"element": "Ga", "occu": 1}], "abc": [0.20707663, 0.20707663, 0.41415326], "properties": {"magmom": -0.101}, "label": "Ga", "xyz": [1.3260744821026365, 1.3260744821026365, 0.0]}, {"species": [{"element": "Ga", "occu": 1}], "abc": [0.20707663, 0.79292337, -0.0], "properties": {"magmom": -0.101}, "label": "Ga", "xyz": [1.875818657897364, -1.875818657897364, 4.27539497]}, {"species": [{"element": "Ga", "occu": 1}], "abc": [0.79292337, 0.20707663, -0.0], "properties": {"magmom": -0.101}, "label": "Ga", "xyz": [-1.875818657897364, 1.875818657897364, 4.27539497]}, {"species": [{"element": "Ga", "occu": 1}], "abc": [0.79292337, 0.79292337, 0.58584674], "properties": {"magmom": -0.101}, "label": "Ga", "xyz": [1.8758186578973637, 1.8758186578973637, 4.275394969999999]}]}, "task_ids": null, "uncorrected_energy_per_atom": null, "energy_per_atom": -49.46143480125, "formation_energy_per_atom": -0.5618727506249991, "energy_above_hull": 0.0, "is_stable": true, "equilibrium_reaction_energy_per_atom": null, "decomposes_to": null, "xas": null, "grain_boundaries": null, "band_gap": 0.0, "cbm": null, "vbm": null, "efermi": 8.65797632, "is_gap_direct": null, "is_metal": null, "es_source_calc_id": null, "bandstructure": null, "dos": null, "dos_energy_up": null, "dos_energy_down": null, "is_magnetic": null, "ordering": null, "total_magnetization": 21.8930012, "total_magnetization_normalized_vol": null, "total_magnetization_normalized_formula_units": null, "num_magnetic_sites": null, "num_unique_magnetic_sites": null, "types_of_magnetic_species": null, "bulk_modulus": null, "shear_modulus": null, "universal_anisotropy": null, "homogeneous_poisson": null, "e_total": null, "e_ionic": null, "e_electronic": null, "n": null, "e_ij_max": null, "weighted_surface_energy_EV_PER_ANG2": null, "weighted_surface_energy": null, "weighted_work_function": null, "surface_anisotropy": null, "shape_factor": null, "has_reconstructed": null, "possible_species": null, "has_props": null, "theoretical": null, "database_IDs": null, "fields_not_requested": ["builder_meta", "nsites", "elements", "nelements", "composition", "composition_reduced", "chemsys", "symmetry", "property_name", "deprecated", "deprecation_reasons", "last_updated", "origins", "warnings", "task_ids", "uncorrected_energy_per_atom", "equilibrium_reaction_energy_per_atom", "decomposes_to", "xas", "grain_boundaries", "cbm", "vbm", "is_gap_direct", "is_metal", "es_source_calc_id", "bandstructure", "dos", "dos_energy_up", "dos_energy_down", "is_magnetic", "ordering", "total_magnetization_normalized_vol", "total_magnetization_normalized_formula_units", "num_magnetic_sites", "num_unique_magnetic_sites", "types_of_magnetic_species", "bulk_modulus", "shear_modulus", "universal_anisotropy", "homogeneous_poisson", "e_total", "e_ionic", "e_electronic", "n", "e_ij_max", "weighted_surface_energy_EV_PER_ANG2", "weighted_surface_energy", "weighted_work_function", "surface_anisotropy", "shape_factor", "has_reconstructed", "possible_species", "has_props", "theoretical", "database_IDs"]}