{"builder_meta": null, "nsites": null, "elements": null, "nelements": null, "composition": null, "composition_reduced": null, "formula_pretty": "PuGa3", "formula_anonymous": "AB3", "chemsys": null, "volume": 155.31933837181577, "density": 9.689776381491525, "density_atomic": 19.414917296476972, "symmetry": null, "property_name": null, "material_id": "mp-21349", "deprecated": null, "deprecation_reasons": null, "last_updated": null, "origins": null, "warnings": null, "structure": {"@module": "pymatgen.core.structure", "@class": "Structure", "charge": 0, "lattice": {"matrix": [[3.14551644, -5.44820286, 0.0], [3.14553064, 5.44821157, -0.0], [-0.0, -0.0, 4.53157299]], "pbc": [true, true, true], "a": 6.291040301732493, "b": 6.2910549448133635, "c": 4.53157299, "alpha": 90.0, "beta": 90.0, "gamma": 120.00000571337176, "volume": 155.31933837181577}, "properties": {}, "sites": [{"species": [{"element": "Pu", "occu": 1}], "abc": [0.666666, 0.333333, 0.75], "properties": {"magmom": -5.033}, "label": "Pu", "xyz": [3.1455180278121597, -1.8160629006019502, 3.3986797424999997]}, {"species": [{"element": "Pu", "occu": 1}], "abc": [0.333333999999999, 0.666667, 0.25], "properties": {"magmom": -5.033}, "label": "Pu", "xyz": [3.145529052187837, 1.8160716106019554, 1.1328932475]}, {"species": [{"element": "Ga", "occu": 1}], "abc": [0.14658766, 0.85341234, 0.75], "properties": {"magmom": 0.037}, "label": "Ga", "xyz": [3.145528558455228, 3.8509316763160664, 3.3986797424999997]}, {"species": [{"element": "Ga", "occu": 1}], "abc": [0.2928152, 0.1464076, 0.25], "properties": {"magmom": 0.037}, "label": "Ga", "xyz": [1.381584617210752, -0.7976570298355402, 1.1328932475]}, {"species": [{"element": "Ga", "occu": 1}], "abc": [0.853592399999999, 0.1464066, 0.25], "properties": {"magmom": 0.037}, "label": "Ga", "xyz": [3.145515373457277, -3.852890422909897, 1.1328932475]}, {"species": [{"element": "Ga", "occu": 1}], "abc": [0.70682369, 0.85341134, 0.75], "properties": {"magmom": 0.037}, "label": "Ga", "xyz": [4.907757055569921, 0.7986466871834494, 3.3986797424999997]}, {"species": [{"element": "Ga", "occu": 1}], "abc": [0.14658866, 0.29317531, 0.75], "properties": {"magmom": 0.037}, "label": "Ga", "xyz": [1.383288960444069, 0.7986363593247692, 3.3986797424999997]}, {"species": [{"element": "Ga", "occu": 1}], "abc": [0.853592399999999, 0.7071858, 0.25], "properties": {"magmom": 0.037}, "label": "Ga", "xyz": [4.9094635293319655, -0.7976466972545531, 1.1328932475]}]}, "task_ids": null, "uncorrected_energy_per_atom": null, "energy_per_atom": -30.66997781125, "formation_energy_per_atom": -0.498808810937497, "energy_above_hull": 0.0, "is_stable": true, "equilibrium_reaction_energy_per_atom": null, "decomposes_to": null, "xas": null, "grain_boundaries": null, "band_gap": 0.0, "cbm": null, "vbm": null, "efermi": 6.8512649, "is_gap_direct": null, "is_metal": null, "es_source_calc_id": null, "bandstructure": null, "dos": null, "dos_energy_up": null, "dos_energy_down": null, "is_magnetic": null, "ordering": null, "total_magnetization": 10.1598209, "total_magnetization_normalized_vol": null, "total_magnetization_normalized_formula_units": null, "num_magnetic_sites": null, "num_unique_magnetic_sites": null, "types_of_magnetic_species": null, "bulk_modulus": null, "shear_modulus": null, "universal_anisotropy": null, "homogeneous_poisson": null, "e_total": null, "e_ionic": null, "e_electronic": null, "n": null, "e_ij_max": null, "weighted_surface_energy_EV_PER_ANG2": null, "weighted_surface_energy": null, "weighted_work_function": null, "surface_anisotropy": null, "shape_factor": null, "has_reconstructed": null, "possible_species": null, "has_props": null, "theoretical": null, "database_IDs": null, "fields_not_requested": ["builder_meta", "nsites", "elements", "nelements", "composition", "composition_reduced", "chemsys", "symmetry", "property_name", "deprecated", "deprecation_reasons", "last_updated", "origins", "warnings", "task_ids", "uncorrected_energy_per_atom", "equilibrium_reaction_energy_per_atom", "decomposes_to", "xas", "grain_boundaries", "cbm", "vbm", "is_gap_direct", "is_metal", "es_source_calc_id", "bandstructure", "dos", "dos_energy_up", "dos_energy_down", "is_magnetic", "ordering", "total_magnetization_normalized_vol", "total_magnetization_normalized_formula_units", "num_magnetic_sites", "num_unique_magnetic_sites", "types_of_magnetic_species", "bulk_modulus", "shear_modulus", "universal_anisotropy", "homogeneous_poisson", "e_total", "e_ionic", "e_electronic", "n", "e_ij_max", "weighted_surface_energy_EV_PER_ANG2", "weighted_surface_energy", "weighted_work_function", "surface_anisotropy", "shape_factor", "has_reconstructed", "possible_species", "has_props", "theoretical", "database_IDs"]}