{
  "builder_meta": null,
  "nsites": null,
  "elements": null,
  "nelements": null,
  "composition": null,
  "composition_reduced": null,
  "formula_pretty": "PuGa4",
  "formula_anonymous": "AB4",
  "chemsys": null,
  "volume": 187.96639362169245,
  "density": 9.23870035364026,
  "density_atomic": 18.796639362169245,
  "symmetry": null,
  "property_name": null,
  "material_id": "mp-510173",
  "deprecated": null,
  "deprecation_reasons": null,
  "last_updated": null,
  "origins": null,
  "warnings": null,
  "structure": {
    "@module": "pymatgen.core.structure",
    "@class": "Structure",
    "charge": 0,
    "lattice": {
      "matrix": [
        [-2.18580342, 3.15164949, 6.8258099],
        [2.18890837, -3.14625859, 6.82444127],
        [2.18142108, 3.15001409, -6.82341195]
      ],
      "pbc": [true, true, true],
      "a": 7.829579291995131,
      "b": 7.8270851289023335,
      "c": 7.825607793319934,
      "alpha": 147.57431648290537,
      "beta": 132.52727036991539,
      "gamma": 58.65147790492608,
      "volume": 187.96639362169245
    },
    "properties": {},
    "sites": [
      {
        "species": [{ "element": "Pu", "occu": 1 }],
        "abc": [0.63676228, 0.38701922, 0.24983992],
        "properties": { "magmom": 5.146 },
        "label": "Pu",
        "xyz": [0.0003185087713872825, 1.5761882378376102, 5.282847516306737]
      },
      {
        "species": [{ "element": "Pu", "occu": 1 }],
        "abc": [0.36295238, 0.61288285, 0.75015867],
        "properties": { "magmom": 5.146 },
        "label": "Pu",
        "xyz": [2.1846137827760783, 1.5786211320807653, 1.541385330573676]
      },
      {
        "species": [{ "element": "Ga", "occu": 1 }],
        "abc": [0.5007283100000001, -0.00055493, 0.49981515],
        "properties": { "magmom": -0.006 },
        "label": "Ga",
        "xyz": [
          -0.005401039097222782, 3.1542908410148742, 0.0036445011132664185
        ]
      },
      {
        "species": [{ "element": "Ga", "occu": 1 }],
        "abc": [-3.251e-5, -0.00058748, -0.00077974],
        "properties": { "magmom": -0.002 },
        "label": "Ga",
        "xyz": [
          -0.0029158206929426004, -0.0007102881150033, 0.0010893573967443995
        ]
      },
      {
        "species": [{ "element": "Ga", "occu": 1 }],
        "abc": [0.85865484, 0.60915082, 0.24976387],
        "properties": { "magmom": -0.023 },
        "label": "Ga",
        "xyz": [0.001364813659189834, 1.5763927982144161, 8.313886927981011]
      },
      {
        "species": [{ "element": "Ga", "occu": 1 }],
        "abc": [0.14073341, 0.39078849, 0.74987961],
        "properties": { "magmom": -0.023 },
        "label": "Ga",
        "xyz": [2.1835878164905775, 1.576152073620537, -1.489204889699598]
      },
      {
        "species": [{ "element": "Ga", "occu": 1 }],
        "abc": [0.7356165, 0.19965247, 0.53777079],
        "properties": { "magmom": 0.002 },
        "label": "Ga",
        "xyz": [0.0022124386799970974, 3.384232633998799, 2.7142633093818462]
      },
      {
        "species": [{ "element": "Ga", "occu": 1 }],
        "abc": [0.26470031, 0.8010339200000001, 0.46300353],
        "properties": { "magmom": 0.003 },
        "label": "Ga",
        "xyz": [2.184812669725263, -0.22754961144729324, 4.114139119354764]
      },
      {
        "species": [{ "element": "Ga", "occu": 1 }],
        "abc": [0.83808081, 0.8021082700000001, 0.03773423],
        "properties": { "magmom": 0.002 },
        "label": "Ga",
        "xyz": [0.0061758498744182155, 0.23656027899304827, 10.937044874788274]
      },
      {
        "species": [{ "element": "Ga", "occu": 1 }],
        "abc": [0.16180367, 0.19850637000000002, 0.96281295],
        "properties": { "magmom": 0.003 },
        "label": "Ga",
        "xyz": [2.181141704763751, 2.9182704407878752, -4.110533232316529]
      }
    ]
  },
  "task_ids": null,
  "uncorrected_energy_per_atom": null,
  "energy_per_atom": -26.821688626999997,
  "formation_energy_per_atom": -0.39619823674999505,
  "energy_above_hull": 0.0028488119999990004,
  "is_stable": false,
  "equilibrium_reaction_energy_per_atom": null,
  "decomposes_to": null,
  "xas": null,
  "grain_boundaries": null,
  "band_gap": 0.0,
  "cbm": null,
  "vbm": null,
  "efermi": 6.52356233,
  "is_gap_direct": null,
  "is_metal": null,
  "es_source_calc_id": null,
  "bandstructure": null,
  "dos": null,
  "dos_energy_up": null,
  "dos_energy_down": null,
  "is_magnetic": null,
  "ordering": null,
  "total_magnetization": 10.737306,
  "total_magnetization_normalized_vol": null,
  "total_magnetization_normalized_formula_units": null,
  "num_magnetic_sites": null,
  "num_unique_magnetic_sites": null,
  "types_of_magnetic_species": null,
  "bulk_modulus": null,
  "shear_modulus": null,
  "universal_anisotropy": null,
  "homogeneous_poisson": null,
  "e_total": null,
  "e_ionic": null,
  "e_electronic": null,
  "n": null,
  "e_ij_max": null,
  "weighted_surface_energy_EV_PER_ANG2": null,
  "weighted_surface_energy": null,
  "weighted_work_function": null,
  "surface_anisotropy": null,
  "shape_factor": null,
  "has_reconstructed": null,
  "possible_species": null,
  "has_props": null,
  "theoretical": null,
  "database_IDs": null,
  "fields_not_requested": [
    "builder_meta",
    "nsites",
    "elements",
    "nelements",
    "composition",
    "composition_reduced",
    "chemsys",
    "symmetry",
    "property_name",
    "deprecated",
    "deprecation_reasons",
    "last_updated",
    "origins",
    "warnings",
    "task_ids",
    "uncorrected_energy_per_atom",
    "equilibrium_reaction_energy_per_atom",
    "decomposes_to",
    "xas",
    "grain_boundaries",
    "cbm",
    "vbm",
    "is_gap_direct",
    "is_metal",
    "es_source_calc_id",
    "bandstructure",
    "dos",
    "dos_energy_up",
    "dos_energy_down",
    "is_magnetic",
    "ordering",
    "total_magnetization_normalized_vol",
    "total_magnetization_normalized_formula_units",
    "num_magnetic_sites",
    "num_unique_magnetic_sites",
    "types_of_magnetic_species",
    "bulk_modulus",
    "shear_modulus",
    "universal_anisotropy",
    "homogeneous_poisson",
    "e_total",
    "e_ionic",
    "e_electronic",
    "n",
    "e_ij_max",
    "weighted_surface_energy_EV_PER_ANG2",
    "weighted_surface_energy",
    "weighted_work_function",
    "surface_anisotropy",
    "shape_factor",
    "has_reconstructed",
    "possible_species",
    "has_props",
    "theoretical",
    "database_IDs"
  ]
}
