{
  "builder_meta": null,
  "nsites": null,
  "elements": null,
  "nelements": null,
  "composition": null,
  "composition_reduced": null,
  "formula_pretty": "PuGe2",
  "formula_anonymous": "AB2",
  "chemsys": null,
  "volume": 130.85685621031288,
  "density": 9.879721499760494,
  "density_atomic": 21.809476035052146,
  "symmetry": null,
  "property_name": null,
  "material_id": "mp-1016",
  "deprecated": null,
  "deprecation_reasons": null,
  "last_updated": null,
  "origins": null,
  "warnings": null,
  "structure": {
    "@module": "pymatgen.core.structure",
    "@class": "Structure",
    "charge": 0,
    "lattice": {
      "matrix": [
        [-2.020037, 2.020037, 8.01711],
        [2.020037, -2.020037, 8.01711],
        [2.020037, 2.020037, -8.01711]
      ],
      "pbc": [true, true, true],
      "a": 8.510884308627277,
      "b": 8.510884308627277,
      "c": 8.510884308627277,
      "alpha": 152.53992082789907,
      "beta": 152.53992082789907,
      "gamma": 39.22535860066411,
      "volume": 130.85685621031288
    },
    "properties": {},
    "sites": [
      {
        "species": [{ "element": "Pu", "occu": 1 }],
        "abc": [0.25, 0.75, 0.5],
        "properties": { "magmom": 5.25 },
        "label": "Pu",
        "xyz": [2.0200369999999994, 2.220446049250313e-16, 4.008555]
      },
      {
        "species": [{ "element": "Pu", "occu": 1 }],
        "abc": [0.5, 0.5, 0.0],
        "properties": { "magmom": 5.25 },
        "label": "Pu",
        "xyz": [0.0, 0.0, 8.01711]
      },
      {
        "species": [{ "element": "Ge", "occu": 1 }],
        "abc": [0.829683, 0.329683, 0.5],
        "properties": { "magmom": -0.04 },
        "label": "Ge",
        "xyz": [0.0, 2.020037, 5.2862097522600004]
      },
      {
        "species": [{ "element": "Ge", "occu": 1 }],
        "abc": [0.079682999999999, 0.079682999999999, 0.0],
        "properties": { "magmom": -0.04 },
        "label": "Ge",
        "xyz": [0.0, 0.0, 1.2776547522599841]
      },
      {
        "species": [{ "element": "Ge", "occu": 1 }],
        "abc": [0.670316999999999, 0.170317, 0.5],
        "properties": { "magmom": -0.04 },
        "label": "Ge",
        "xyz": [1.9984014443252818e-15, 2.0200369999999976, 2.730900247739993]
      },
      {
        "species": [{ "element": "Ge", "occu": 1 }],
        "abc": [0.920316999999999, 0.920316999999999, 0.0],
        "properties": { "magmom": -0.04 },
        "label": "Ge",
        "xyz": [0.0, 0.0, 14.756565247739985]
      }
    ]
  },
  "task_ids": null,
  "uncorrected_energy_per_atom": null,
  "energy_per_atom": -38.43871719083334,
  "formation_energy_per_atom": -0.40528275375000505,
  "energy_above_hull": 0.030350407083339002,
  "is_stable": false,
  "equilibrium_reaction_energy_per_atom": null,
  "decomposes_to": null,
  "xas": null,
  "grain_boundaries": null,
  "band_gap": 0.0,
  "cbm": null,
  "vbm": null,
  "efermi": 8.69418346,
  "is_gap_direct": null,
  "is_metal": null,
  "es_source_calc_id": null,
  "bandstructure": null,
  "dos": null,
  "dos_energy_up": null,
  "dos_energy_down": null,
  "is_magnetic": null,
  "ordering": null,
  "total_magnetization": 10.8826912,
  "total_magnetization_normalized_vol": null,
  "total_magnetization_normalized_formula_units": null,
  "num_magnetic_sites": null,
  "num_unique_magnetic_sites": null,
  "types_of_magnetic_species": null,
  "bulk_modulus": null,
  "shear_modulus": null,
  "universal_anisotropy": null,
  "homogeneous_poisson": null,
  "e_total": null,
  "e_ionic": null,
  "e_electronic": null,
  "n": null,
  "e_ij_max": null,
  "weighted_surface_energy_EV_PER_ANG2": null,
  "weighted_surface_energy": null,
  "weighted_work_function": null,
  "surface_anisotropy": null,
  "shape_factor": null,
  "has_reconstructed": null,
  "possible_species": null,
  "has_props": null,
  "theoretical": null,
  "database_IDs": null,
  "fields_not_requested": [
    "builder_meta",
    "nsites",
    "elements",
    "nelements",
    "composition",
    "composition_reduced",
    "chemsys",
    "symmetry",
    "property_name",
    "deprecated",
    "deprecation_reasons",
    "last_updated",
    "origins",
    "warnings",
    "task_ids",
    "uncorrected_energy_per_atom",
    "equilibrium_reaction_energy_per_atom",
    "decomposes_to",
    "xas",
    "grain_boundaries",
    "cbm",
    "vbm",
    "is_gap_direct",
    "is_metal",
    "es_source_calc_id",
    "bandstructure",
    "dos",
    "dos_energy_up",
    "dos_energy_down",
    "is_magnetic",
    "ordering",
    "total_magnetization_normalized_vol",
    "total_magnetization_normalized_formula_units",
    "num_magnetic_sites",
    "num_unique_magnetic_sites",
    "types_of_magnetic_species",
    "bulk_modulus",
    "shear_modulus",
    "universal_anisotropy",
    "homogeneous_poisson",
    "e_total",
    "e_ionic",
    "e_electronic",
    "n",
    "e_ij_max",
    "weighted_surface_energy_EV_PER_ANG2",
    "weighted_surface_energy",
    "weighted_work_function",
    "surface_anisotropy",
    "shape_factor",
    "has_reconstructed",
    "possible_species",
    "has_props",
    "theoretical",
    "database_IDs"
  ]
}
