{
  "builder_meta": null,
  "nsites": null,
  "elements": null,
  "nelements": null,
  "composition": null,
  "composition_reduced": null,
  "formula_pretty": "PuH3",
  "formula_anonymous": "AB3",
  "chemsys": null,
  "volume": 82.09896238840587,
  "density": 9.992640383204023,
  "density_atomic": 10.262370298550733,
  "symmetry": null,
  "property_name": null,
  "material_id": "mp-23679",
  "deprecated": null,
  "deprecation_reasons": null,
  "last_updated": null,
  "origins": null,
  "warnings": null,
  "structure": {
    "@module": "pymatgen.core.structure",
    "@class": "Structure",
    "charge": 0,
    "lattice": {
      "matrix": [
        [3.75302047, 2e-8, 0.0],
        [-1.87650971, 3.25021158, -0.0],
        [-0.0, 0.0, 6.73046547]
      ],
      "pbc": [true, true, true],
      "a": 3.75302047,
      "b": 3.7530206509544257,
      "c": 6.73046547,
      "alpha": 90.0,
      "beta": 90.0,
      "gamma": 119.99998884483676,
      "volume": 82.09896238840587
    },
    "properties": {},
    "sites": [
      {
        "species": [{ "element": "Pu", "occu": 1 }],
        "abc": [0.666667, 0.333333, 0.75],
        "properties": { "magmom": -4.92 },
        "label": "Pu",
        "xyz": [1.87651228651006, 1.08340278992948, 5.047849102500001]
      },
      {
        "species": [{ "element": "Pu", "occu": 1 }],
        "abc": [0.333333, 0.666667, 0.25],
        "properties": { "magmom": -4.92 },
        "label": "Pu",
        "xyz": [-1.5265100601347115e-6, 2.16680881007052, 1.6826163675]
      },
      {
        "species": [{ "element": "H", "occu": 1 }],
        "abc": [0.333333, 0.666667, 0.90664576],
        "properties": { "magmom": 0.026000000000000002 },
        "label": "H",
        "xyz": [-1.5265100601347115e-6, 2.16680881007052, 6.102147981201908]
      },
      {
        "species": [{ "element": "H", "occu": 1 }],
        "abc": [0.666667, 0.333333, 0.40664576],
        "properties": { "magmom": 0.026000000000000002 },
        "label": "H",
        "xyz": [1.87651228651006, 1.08340278992948, 2.7369152462019075]
      },
      {
        "species": [{ "element": "H", "occu": 1 }],
        "abc": [-0.0, -0.0, 0.25],
        "properties": { "magmom": 0.02 },
        "label": "H",
        "xyz": [0.0, 0.0, 1.6826163675]
      },
      {
        "species": [{ "element": "H", "occu": 1 }],
        "abc": [-0.0, -0.0, 0.75],
        "properties": { "magmom": 0.02 },
        "label": "H",
        "xyz": [0.0, 0.0, 5.047849102500001]
      },
      {
        "species": [{ "element": "H", "occu": 1 }],
        "abc": [0.333333, 0.666667, 0.59335424],
        "properties": { "magmom": 0.026000000000000002 },
        "label": "H",
        "xyz": [-1.5265100601347115e-6, 2.16680881007052, 3.9935502237980933]
      },
      {
        "species": [{ "element": "H", "occu": 1 }],
        "abc": [0.666667, 0.333333, 0.09335424],
        "properties": { "magmom": 0.026000000000000002 },
        "label": "H",
        "xyz": [1.87651228651006, 1.08340278992948, 0.6283174887980929]
      }
    ]
  },
  "task_ids": null,
  "uncorrected_energy_per_atom": null,
  "energy_per_atom": -24.79679107,
  "formation_energy_per_atom": -0.616369731249999,
  "energy_above_hull": 0.0,
  "is_stable": true,
  "equilibrium_reaction_energy_per_atom": null,
  "decomposes_to": null,
  "xas": null,
  "grain_boundaries": null,
  "band_gap": 0.0,
  "cbm": null,
  "vbm": null,
  "efermi": 7.44987081,
  "is_gap_direct": null,
  "is_metal": null,
  "es_source_calc_id": null,
  "bandstructure": null,
  "dos": null,
  "dos_energy_up": null,
  "dos_energy_down": null,
  "is_magnetic": null,
  "ordering": null,
  "total_magnetization": 10.0001073,
  "total_magnetization_normalized_vol": null,
  "total_magnetization_normalized_formula_units": null,
  "num_magnetic_sites": null,
  "num_unique_magnetic_sites": null,
  "types_of_magnetic_species": null,
  "bulk_modulus": null,
  "shear_modulus": null,
  "universal_anisotropy": null,
  "homogeneous_poisson": null,
  "e_total": null,
  "e_ionic": null,
  "e_electronic": null,
  "n": null,
  "e_ij_max": null,
  "weighted_surface_energy_EV_PER_ANG2": null,
  "weighted_surface_energy": null,
  "weighted_work_function": null,
  "surface_anisotropy": null,
  "shape_factor": null,
  "has_reconstructed": null,
  "possible_species": null,
  "has_props": null,
  "theoretical": null,
  "database_IDs": null,
  "fields_not_requested": [
    "builder_meta",
    "nsites",
    "elements",
    "nelements",
    "composition",
    "composition_reduced",
    "chemsys",
    "symmetry",
    "property_name",
    "deprecated",
    "deprecation_reasons",
    "last_updated",
    "origins",
    "warnings",
    "task_ids",
    "uncorrected_energy_per_atom",
    "equilibrium_reaction_energy_per_atom",
    "decomposes_to",
    "xas",
    "grain_boundaries",
    "cbm",
    "vbm",
    "is_gap_direct",
    "is_metal",
    "es_source_calc_id",
    "bandstructure",
    "dos",
    "dos_energy_up",
    "dos_energy_down",
    "is_magnetic",
    "ordering",
    "total_magnetization_normalized_vol",
    "total_magnetization_normalized_formula_units",
    "num_magnetic_sites",
    "num_unique_magnetic_sites",
    "types_of_magnetic_species",
    "bulk_modulus",
    "shear_modulus",
    "universal_anisotropy",
    "homogeneous_poisson",
    "e_total",
    "e_ionic",
    "e_electronic",
    "n",
    "e_ij_max",
    "weighted_surface_energy_EV_PER_ANG2",
    "weighted_surface_energy",
    "weighted_work_function",
    "surface_anisotropy",
    "shape_factor",
    "has_reconstructed",
    "possible_species",
    "has_props",
    "theoretical",
    "database_IDs"
  ]
}
