{
  "builder_meta": null,
  "nsites": null,
  "elements": null,
  "nelements": null,
  "composition": null,
  "composition_reduced": null,
  "formula_pretty": "PuHf3",
  "formula_anonymous": "AB3",
  "chemsys": null,
  "volume": 180.63866701574048,
  "density": 14.330712328938032,
  "density_atomic": 22.57983337696756,
  "symmetry": null,
  "property_name": null,
  "material_id": "mp-1186918",
  "deprecated": null,
  "deprecation_reasons": null,
  "last_updated": null,
  "origins": null,
  "warnings": null,
  "structure": {
    "@module": "pymatgen.core.structure",
    "@class": "Structure",
    "charge": 0,
    "lattice": {
      "matrix": [
        [3.183045, -5.513195, 0.0],
        [3.183045, 5.513195, 0.0],
        [0.0, 0.0, 5.146768]
      ],
      "pbc": [true, true, true],
      "a": 6.366089426017357,
      "b": 6.366089426017357,
      "c": 5.146768,
      "alpha": 90.0,
      "beta": 90.0,
      "gamma": 119.99999403489582,
      "volume": 180.63866701574048
    },
    "properties": {},
    "sites": [
      {
        "species": [{ "element": "Pu", "occu": 1 }],
        "abc": [0.333333, 0.666667, 0.75],
        "properties": { "magmom": 5.243 },
        "label": "Pu",
        "xyz": [3.183045, 1.83773534213, 3.860076]
      },
      {
        "species": [{ "element": "Pu", "occu": 1 }],
        "abc": [0.666667, 0.333333, 0.25],
        "properties": { "magmom": 5.243 },
        "label": "Pu",
        "xyz": [3.183045, -1.83773534213, 1.286692]
      },
      {
        "species": [{ "element": "Hf", "occu": 1 }],
        "abc": [0.164571, 0.329142999999999, 0.25],
        "properties": { "magmom": 0.122 },
        "label": "Hf",
        "xyz": [1.5715138791299967, 0.9073175275399946, 1.286692]
      },
      {
        "species": [{ "element": "Hf", "occu": 1 }],
        "abc": [0.670856999999999, 0.835429, 0.25],
        "properties": { "magmom": 0.122 },
        "label": "Hf",
        "xyz": [4.794576120869997, 0.9073175275400054, 1.286692]
      },
      {
        "species": [{ "element": "Hf", "occu": 1 }],
        "abc": [0.164571, 0.835429, 0.25],
        "properties": { "magmom": 0.122 },
        "label": "Hf",
        "xyz": [3.183045, 3.6985709713099997, 1.286692]
      },
      {
        "species": [{ "element": "Hf", "occu": 1 }],
        "abc": [0.835429, 0.670856999999999, 0.75],
        "properties": { "magmom": 0.122 },
        "label": "Hf",
        "xyz": [4.794576120869997, -0.9073175275400054, 3.860076]
      },
      {
        "species": [{ "element": "Hf", "occu": 1 }],
        "abc": [0.329142999999999, 0.164571, 0.75],
        "properties": { "magmom": 0.122 },
        "label": "Hf",
        "xyz": [1.5715138791299967, -0.9073175275399946, 3.860076]
      },
      {
        "species": [{ "element": "Hf", "occu": 1 }],
        "abc": [0.835429, 0.164571, 0.75],
        "properties": { "magmom": 0.122 },
        "label": "Hf",
        "xyz": [3.183045, -3.6985709713099997, 3.860076]
      }
    ]
  },
  "task_ids": null,
  "uncorrected_energy_per_atom": null,
  "energy_per_atom": -55.3709666778125,
  "formation_energy_per_atom": 0.081681902500001,
  "energy_above_hull": 0.081681902500001,
  "is_stable": false,
  "equilibrium_reaction_energy_per_atom": null,
  "decomposes_to": null,
  "xas": null,
  "grain_boundaries": null,
  "band_gap": 0.0,
  "cbm": null,
  "vbm": null,
  "efermi": 7.20147708,
  "is_gap_direct": null,
  "is_metal": null,
  "es_source_calc_id": null,
  "bandstructure": null,
  "dos": null,
  "dos_energy_up": null,
  "dos_energy_down": null,
  "is_magnetic": null,
  "ordering": null,
  "total_magnetization": 12.0593678,
  "total_magnetization_normalized_vol": null,
  "total_magnetization_normalized_formula_units": null,
  "num_magnetic_sites": null,
  "num_unique_magnetic_sites": null,
  "types_of_magnetic_species": null,
  "bulk_modulus": null,
  "shear_modulus": null,
  "universal_anisotropy": null,
  "homogeneous_poisson": null,
  "e_total": null,
  "e_ionic": null,
  "e_electronic": null,
  "n": null,
  "e_ij_max": null,
  "weighted_surface_energy_EV_PER_ANG2": null,
  "weighted_surface_energy": null,
  "weighted_work_function": null,
  "surface_anisotropy": null,
  "shape_factor": null,
  "has_reconstructed": null,
  "possible_species": null,
  "has_props": null,
  "theoretical": null,
  "database_IDs": null,
  "fields_not_requested": [
    "builder_meta",
    "nsites",
    "elements",
    "nelements",
    "composition",
    "composition_reduced",
    "chemsys",
    "symmetry",
    "property_name",
    "deprecated",
    "deprecation_reasons",
    "last_updated",
    "origins",
    "warnings",
    "task_ids",
    "uncorrected_energy_per_atom",
    "equilibrium_reaction_energy_per_atom",
    "decomposes_to",
    "xas",
    "grain_boundaries",
    "cbm",
    "vbm",
    "is_gap_direct",
    "is_metal",
    "es_source_calc_id",
    "bandstructure",
    "dos",
    "dos_energy_up",
    "dos_energy_down",
    "is_magnetic",
    "ordering",
    "total_magnetization_normalized_vol",
    "total_magnetization_normalized_formula_units",
    "num_magnetic_sites",
    "num_unique_magnetic_sites",
    "types_of_magnetic_species",
    "bulk_modulus",
    "shear_modulus",
    "universal_anisotropy",
    "homogeneous_poisson",
    "e_total",
    "e_ionic",
    "e_electronic",
    "n",
    "e_ij_max",
    "weighted_surface_energy_EV_PER_ANG2",
    "weighted_surface_energy",
    "weighted_work_function",
    "surface_anisotropy",
    "shape_factor",
    "has_reconstructed",
    "possible_species",
    "has_props",
    "theoretical",
    "database_IDs"
  ]
}
