{
  "builder_meta": null,
  "nsites": null,
  "elements": null,
  "nelements": null,
  "composition": null,
  "composition_reduced": null,
  "formula_pretty": "PuMg",
  "formula_anonymous": "AB",
  "chemsys": null,
  "volume": 101.33941205894713,
  "density": 8.792846242387046,
  "density_atomic": 25.334853014736783,
  "symmetry": null,
  "property_name": null,
  "material_id": "mp-1186807",
  "deprecated": null,
  "deprecation_reasons": null,
  "last_updated": null,
  "origins": null,
  "warnings": null,
  "structure": {
    "@module": "pymatgen.core.structure",
    "@class": "Structure",
    "charge": 0,
    "lattice": {
      "matrix": [
        [5.407841, 0.0, 0.0],
        [0.0, 3.052536, 0.0],
        [0.0, 0.0, 6.138944]
      ],
      "pbc": [true, true, true],
      "a": 5.407841,
      "b": 3.052536,
      "c": 6.138944,
      "alpha": 90.0,
      "beta": 90.0,
      "gamma": 90.0,
      "volume": 101.33941205894713
    },
    "properties": {},
    "sites": [
      {
        "species": [{ "element": "Pu", "occu": 1 }],
        "abc": [0.75, 0.500002, 0.359948],
        "properties": { "magmom": 5.617 },
        "label": "Pu",
        "xyz": [4.05588075, 1.526274105072, 2.209700614912]
      },
      {
        "species": [{ "element": "Pu", "occu": 1 }],
        "abc": [0.25, 0.500002, 0.640052],
        "properties": { "magmom": 5.617 },
        "label": "Pu",
        "xyz": [1.35196025, 1.526274105072, 3.929243385088]
      },
      {
        "species": [{ "element": "Mg", "occu": 1 }],
        "abc": [0.25, 0.0, 0.139685],
        "properties": { "magmom": -0.009000000000000001 },
        "label": "Mg",
        "xyz": [1.35196025, 0.0, 0.8575183926400001]
      },
      {
        "species": [{ "element": "Mg", "occu": 1 }],
        "abc": [0.75, 0.0, 0.860313999999999],
        "properties": { "magmom": -0.009000000000000001 },
        "label": "Mg",
        "xyz": [4.05588075, 0.0, 5.2814194684159945]
      }
    ]
  },
  "task_ids": null,
  "uncorrected_energy_per_atom": null,
  "energy_per_atom": -45.136905958125,
  "formation_energy_per_atom": 0.12591991,
  "energy_above_hull": 0.12591991,
  "is_stable": false,
  "equilibrium_reaction_energy_per_atom": null,
  "decomposes_to": null,
  "xas": null,
  "grain_boundaries": null,
  "band_gap": 0.0,
  "cbm": null,
  "vbm": null,
  "efermi": 7.50894701,
  "is_gap_direct": null,
  "is_metal": null,
  "es_source_calc_id": null,
  "bandstructure": null,
  "dos": null,
  "dos_energy_up": null,
  "dos_energy_down": null,
  "is_magnetic": null,
  "ordering": null,
  "total_magnetization": 11.9023459,
  "total_magnetization_normalized_vol": null,
  "total_magnetization_normalized_formula_units": null,
  "num_magnetic_sites": null,
  "num_unique_magnetic_sites": null,
  "types_of_magnetic_species": null,
  "bulk_modulus": null,
  "shear_modulus": null,
  "universal_anisotropy": null,
  "homogeneous_poisson": null,
  "e_total": null,
  "e_ionic": null,
  "e_electronic": null,
  "n": null,
  "e_ij_max": null,
  "weighted_surface_energy_EV_PER_ANG2": null,
  "weighted_surface_energy": null,
  "weighted_work_function": null,
  "surface_anisotropy": null,
  "shape_factor": null,
  "has_reconstructed": null,
  "possible_species": null,
  "has_props": null,
  "theoretical": null,
  "database_IDs": null,
  "fields_not_requested": [
    "builder_meta",
    "nsites",
    "elements",
    "nelements",
    "composition",
    "composition_reduced",
    "chemsys",
    "symmetry",
    "property_name",
    "deprecated",
    "deprecation_reasons",
    "last_updated",
    "origins",
    "warnings",
    "task_ids",
    "uncorrected_energy_per_atom",
    "equilibrium_reaction_energy_per_atom",
    "decomposes_to",
    "xas",
    "grain_boundaries",
    "cbm",
    "vbm",
    "is_gap_direct",
    "is_metal",
    "es_source_calc_id",
    "bandstructure",
    "dos",
    "dos_energy_up",
    "dos_energy_down",
    "is_magnetic",
    "ordering",
    "total_magnetization_normalized_vol",
    "total_magnetization_normalized_formula_units",
    "num_magnetic_sites",
    "num_unique_magnetic_sites",
    "types_of_magnetic_species",
    "bulk_modulus",
    "shear_modulus",
    "universal_anisotropy",
    "homogeneous_poisson",
    "e_total",
    "e_ionic",
    "e_electronic",
    "n",
    "e_ij_max",
    "weighted_surface_energy_EV_PER_ANG2",
    "weighted_surface_energy",
    "weighted_work_function",
    "surface_anisotropy",
    "shape_factor",
    "has_reconstructed",
    "possible_species",
    "has_props",
    "theoretical",
    "database_IDs"
  ]
}
