{"builder_meta": null, "nsites": null, "elements": null, "nelements": null, "composition": null, "composition_reduced": null, "formula_pretty": "PuMn3", "formula_anonymous": "AB3", "chemsys": null, "volume": 100.41664032789232, "density": 13.520704136866536, "density_atomic": 12.55208004098654, "symmetry": null, "property_name": null, "material_id": "mp-1186833", "deprecated": null, "deprecation_reasons": null, "last_updated": null, "origins": null, "warnings": null, "structure": {"@module": "pymatgen.core.structure", "@class": "Structure", "charge": 0, "lattice": {"matrix": [[5.226269, -0.004781, 0.0], [-2.617277999999999, 4.5309159999999995, 0.0], [0.0, 0.0, 4.242848]], "pbc": [true, true, true], "a": 5.226271186833114, "b": 5.232527489496829, "c": 4.242848, "alpha": 90.0, "beta": 90.0, "gamma": 120.06523921839239, "volume": 100.4166403278923}, "properties": {}, "sites": [{"species": [{"element": "Pu", "occu": 1}], "abc": [0.333808, 0.666419, 0.750000999999999], "properties": {"magmom": 0.005}, "label": "Pu", "xyz": [0.000366614870001003, 3.0178925737559994, 3.1821402428479963]}, {"species": [{"element": "Pu", "occu": 1}], "abc": [0.667674, 0.333458, 0.25], "properties": {"magmom": 0.007}, "label": "Pu", "xyz": [2.6166916409820007, 1.5076780381339998, 1.060712]}, {"species": [{"element": "Mn", "occu": 1}], "abc": [0.164524, 0.329664, 0.25], "properties": {"magmom": 0.001}, "label": "Mn", "xyz": [-0.002975653635999609, 1.49289330298, 1.060712]}, {"species": [{"element": "Mn", "occu": 1}], "abc": [0.670323, 0.83533, 0.25], "properties": {"magmom": 0.004}, "label": "Mn", "xyz": [1.3169974831470008, 3.7816052480169997, 1.060712]}, {"species": [{"element": "Mn", "occu": 1}], "abc": [0.164493, 0.835065, 0.25], "properties": {"magmom": -0.003}, "label": "Mn", "xyz": [-1.3259125864529988, 3.782822928506999, 1.060712]}, {"species": [{"element": "Mn", "occu": 1}], "abc": [0.835133999999999, 0.670659, 0.750000999999999], "properties": {"magmom": 0.002}, "label": "Mn", "xyz": [2.6093338888439956, 3.0347068179899996, 3.1821402428479963]}, {"species": [{"element": "Mn", "occu": 1}], "abc": [0.329032999999999, 0.164637999999999, 0.750000999999999], "properties": {"magmom": 0.006}, "label": "Mn", "xyz": [1.2887115525129977, 0.7443878416349954, 3.1821402428479963]}, {"species": [{"element": "Mn", "occu": 1}], "abc": [0.83501, 0.164765, 0.750000999999999], "properties": {"magmom": -0.005}, "label": "Mn", "xyz": [3.9327510680200004, 0.7425441919299999, 3.1821402428479963]}]}, "task_ids": null, "uncorrected_energy_per_atom": null, "energy_per_atom": -32.24689326164871, "formation_energy_per_atom": 0.354694782801722, "energy_above_hull": 0.354694782801722, "is_stable": false, "equilibrium_reaction_energy_per_atom": null, "decomposes_to": null, "xas": null, "grain_boundaries": null, "band_gap": 0.0, "cbm": null, "vbm": null, "efermi": 10.52312045, "is_gap_direct": null, "is_metal": null, "es_source_calc_id": null, "bandstructure": null, "dos": null, "dos_energy_up": null, "dos_energy_down": null, "is_magnetic": null, "ordering": null, "total_magnetization": 0.0166532, "total_magnetization_normalized_vol": null, "total_magnetization_normalized_formula_units": null, "num_magnetic_sites": null, "num_unique_magnetic_sites": null, "types_of_magnetic_species": null, "bulk_modulus": null, "shear_modulus": null, "universal_anisotropy": null, "homogeneous_poisson": null, "e_total": null, "e_ionic": null, "e_electronic": null, "n": null, "e_ij_max": null, "weighted_surface_energy_EV_PER_ANG2": null, "weighted_surface_energy": null, "weighted_work_function": null, "surface_anisotropy": null, "shape_factor": null, "has_reconstructed": null, "possible_species": null, "has_props": null, "theoretical": null, "database_IDs": null, "fields_not_requested": ["builder_meta", "nsites", "elements", "nelements", "composition", "composition_reduced", "chemsys", "symmetry", "property_name", "deprecated", "deprecation_reasons", "last_updated", "origins", "warnings", "task_ids", "uncorrected_energy_per_atom", "equilibrium_reaction_energy_per_atom", "decomposes_to", "xas", "grain_boundaries", "cbm", "vbm", "is_gap_direct", "is_metal", "es_source_calc_id", "bandstructure", "dos", "dos_energy_up", "dos_energy_down", "is_magnetic", "ordering", "total_magnetization_normalized_vol", "total_magnetization_normalized_formula_units", "num_magnetic_sites", "num_unique_magnetic_sites", "types_of_magnetic_species", "bulk_modulus", "shear_modulus", "universal_anisotropy", "homogeneous_poisson", "e_total", "e_ionic", "e_electronic", "n", "e_ij_max", "weighted_surface_energy_EV_PER_ANG2", "weighted_surface_energy", "weighted_work_function", "surface_anisotropy", "shape_factor", "has_reconstructed", "possible_species", "has_props", "theoretical", "database_IDs"]}