{"builder_meta": null, "nsites": null, "elements": null, "nelements": null, "composition": null, "composition_reduced": null, "formula_pretty": "PuNi", "formula_anonymous": "AB", "chemsys": null, "volume": 77.6255957395613, "density": 12.950218574511155, "density_atomic": 19.406398934890326, "symmetry": null, "property_name": null, "material_id": "mp-12751", "deprecated": null, "deprecation_reasons": null, "last_updated": null, "origins": null, "warnings": null, "structure": {"@module": "pymatgen.core.structure", "@class": "Structure", "charge": 0, "lattice": {"matrix": [[1.79506969, -5.17349001, -0.0], [1.79506969, 5.17349001, 0.0], [-0.0, 0.0, 4.17936231]], "pbc": [true, true, true], "a": 5.476063739176754, "b": 5.476063739176754, "c": 4.17936231, "alpha": 90.0, "beta": 90.0, "gamma": 141.729048235957, "volume": 77.6255957395613}, "properties": {}, "sites": [{"species": [{"element": "Pu", "occu": 1}], "abc": [0.14619709, 0.85380291, 0.75], "properties": {"magmom": 5.187}, "label": "Pu", "xyz": [1.79506969, 3.660791640787858, 3.1345217325]}, {"species": [{"element": "Pu", "occu": 1}], "abc": [0.85380291, 0.14619709, 0.25], "properties": {"magmom": 5.187}, "label": "Pu", "xyz": [1.79506969, -3.660791640787858, 1.0448405775]}, {"species": [{"element": "Ni", "occu": 1}], "abc": [0.42900832, 0.57099168, 0.75], "properties": {"magmom": -0.183}, "label": "Ni", "xyz": [1.79506969, 0.7345494945462336, 3.1345217325]}, {"species": [{"element": "Ni", "occu": 1}], "abc": [0.57099168, 0.42900832, 0.25], "properties": {"magmom": -0.183}, "label": "Ni", "xyz": [1.79506969, -0.7345494945462336, 1.0448405775]}]}, "task_ids": null, "uncorrected_energy_per_atom": null, "energy_per_atom": -10.1577094875, "formation_energy_per_atom": 0.10132509312500701, "energy_above_hull": 0.18487223069444803, "is_stable": false, "equilibrium_reaction_energy_per_atom": null, "decomposes_to": null, "xas": null, "grain_boundaries": null, "band_gap": 0.0, "cbm": null, "vbm": null, "efermi": 10.313939940000001, "is_gap_direct": null, "is_metal": null, "es_source_calc_id": null, "bandstructure": null, "dos": null, "dos_energy_up": null, "dos_energy_down": null, "is_magnetic": null, "ordering": null, "total_magnetization": 10.7877106, "total_magnetization_normalized_vol": null, "total_magnetization_normalized_formula_units": null, "num_magnetic_sites": null, "num_unique_magnetic_sites": null, "types_of_magnetic_species": null, "bulk_modulus": null, "shear_modulus": null, "universal_anisotropy": null, "homogeneous_poisson": null, "e_total": null, "e_ionic": null, "e_electronic": null, "n": null, "e_ij_max": null, "weighted_surface_energy_EV_PER_ANG2": null, "weighted_surface_energy": null, "weighted_work_function": null, "surface_anisotropy": null, "shape_factor": null, "has_reconstructed": null, "possible_species": null, "has_props": null, "theoretical": null, "database_IDs": null, "fields_not_requested": ["builder_meta", "nsites", "elements", "nelements", "composition", "composition_reduced", "chemsys", "symmetry", "property_name", "deprecated", "deprecation_reasons", "last_updated", "origins", "warnings", "task_ids", "uncorrected_energy_per_atom", "equilibrium_reaction_energy_per_atom", "decomposes_to", "xas", "grain_boundaries", "cbm", "vbm", "is_gap_direct", "is_metal", "es_source_calc_id", "bandstructure", "dos", "dos_energy_up", "dos_energy_down", "is_magnetic", "ordering", "total_magnetization_normalized_vol", "total_magnetization_normalized_formula_units", "num_magnetic_sites", "num_unique_magnetic_sites", "types_of_magnetic_species", "bulk_modulus", "shear_modulus", "universal_anisotropy", "homogeneous_poisson", "e_total", "e_ionic", "e_electronic", "n", "e_ij_max", "weighted_surface_energy_EV_PER_ANG2", "weighted_surface_energy", "weighted_work_function", "surface_anisotropy", "shape_factor", "has_reconstructed", "possible_species", "has_props", "theoretical", "database_IDs"]}