{"builder_meta": null, "nsites": null, "elements": null, "nelements": null, "composition": null, "composition_reduced": null, "formula_pretty": "PuNi5", "formula_anonymous": "AB5", "chemsys": null, "volume": 79.69397335185438, "density": 11.198901409620015, "density_atomic": 13.28232889197573, "symmetry": null, "property_name": null, "material_id": "mp-21315", "deprecated": null, "deprecation_reasons": null, "last_updated": null, "origins": null, "warnings": null, "structure": {"@module": "pymatgen.core.structure", "@class": "Structure", "charge": 0, "lattice": {"matrix": [[4.85364904, 0.00017895, 0.0], [-2.42666965, 4.20346205, 0.0], [0.0, 0.0, 3.906076419999999]], "pbc": [true, true, true], "a": 4.853649043298868, "b": 4.853639747243435, "c": 3.906076419999999, "alpha": 90.0, "beta": 90.0, "gamma": 119.99583989058954, "volume": 79.69397335185435}, "properties": {}, "sites": [{"species": [{"element": "Pu", "occu": 1}], "abc": [-0.0, -0.0, -0.0], "properties": {"magmom": 4.964}, "label": "Pu", "xyz": [0.0, 0.0, 0.0]}, {"species": [{"element": "Ni", "occu": 1}], "abc": [0.33334458, 0.66666139, 0.0], "properties": {"magmom": -0.466}, "label": "Ni", "xyz": [0.00017063876638956366, 2.8023455050778403, 0.0]}, {"species": [{"element": "Ni", "occu": 1}], "abc": [0.66665542, 0.33333861, 0.0], "properties": {"magmom": -0.466}, "label": "Ni", "xyz": [2.4268087512336103, 1.4012954949221592, 0.0]}, {"species": [{"element": "Ni", "occu": 1}], "abc": [0.5, -0.0, 0.5], "properties": {"magmom": -0.527}, "label": "Ni", "xyz": [2.42682452, 8.9475e-05, 1.9530382099999994]}, {"species": [{"element": "Ni", "occu": 1}], "abc": [0.5, 0.5, 0.5], "properties": {"magmom": -0.527}, "label": "Ni", "xyz": [1.2134896949999998, 2.1018204999999996, 1.9530382099999994]}, {"species": [{"element": "Ni", "occu": 1}], "abc": [-0.0, 0.5, 0.5], "properties": {"magmom": -0.527}, "label": "Ni", "xyz": [-1.213334825, 2.101731025, 1.9530382099999994]}]}, "task_ids": null, "uncorrected_energy_per_atom": null, "energy_per_atom": -7.401947856666666, "formation_energy_per_atom": -0.128845209791663, "energy_above_hull": 0.0, "is_stable": true, "equilibrium_reaction_energy_per_atom": null, "decomposes_to": null, "xas": null, "grain_boundaries": null, "band_gap": 0.0, "cbm": null, "vbm": null, "efermi": 8.89789966, "is_gap_direct": null, "is_metal": null, "es_source_calc_id": null, "bandstructure": null, "dos": null, "dos_energy_up": null, "dos_energy_down": null, "is_magnetic": null, "ordering": null, "total_magnetization": 2.9332327, "total_magnetization_normalized_vol": null, "total_magnetization_normalized_formula_units": null, "num_magnetic_sites": null, "num_unique_magnetic_sites": null, "types_of_magnetic_species": null, "bulk_modulus": null, "shear_modulus": null, "universal_anisotropy": null, "homogeneous_poisson": null, "e_total": null, "e_ionic": null, "e_electronic": null, "n": null, "e_ij_max": null, "weighted_surface_energy_EV_PER_ANG2": null, "weighted_surface_energy": null, "weighted_work_function": null, "surface_anisotropy": null, "shape_factor": null, "has_reconstructed": null, "possible_species": null, "has_props": null, "theoretical": null, "database_IDs": null, "fields_not_requested": ["builder_meta", "nsites", "elements", "nelements", "composition", "composition_reduced", "chemsys", "symmetry", "property_name", "deprecated", "deprecation_reasons", "last_updated", "origins", "warnings", "task_ids", "uncorrected_energy_per_atom", "equilibrium_reaction_energy_per_atom", "decomposes_to", "xas", "grain_boundaries", "cbm", "vbm", "is_gap_direct", "is_metal", "es_source_calc_id", "bandstructure", "dos", "dos_energy_up", "dos_energy_down", "is_magnetic", "ordering", "total_magnetization_normalized_vol", "total_magnetization_normalized_formula_units", "num_magnetic_sites", "num_unique_magnetic_sites", "types_of_magnetic_species", "bulk_modulus", "shear_modulus", "universal_anisotropy", "homogeneous_poisson", "e_total", "e_ionic", "e_electronic", "n", "e_ij_max", "weighted_surface_energy_EV_PER_ANG2", "weighted_surface_energy", "weighted_work_function", "surface_anisotropy", "shape_factor", "has_reconstructed", "possible_species", "has_props", "theoretical", "database_IDs"]}