{"builder_meta": null, "nsites": null, "elements": null, "nelements": null, "composition": null, "composition_reduced": null, "formula_pretty": "PuNi4", "formula_anonymous": "AB4", "chemsys": null, "volume": 205.70389460945907, "density": 11.594660398133708, "density_atomic": 13.713592973963937, "symmetry": null, "property_name": null, "material_id": "mp-569318", "deprecated": null, "deprecation_reasons": null, "last_updated": null, "origins": null, "warnings": null, "structure": {"@module": "pymatgen.core.structure", "@class": "Structure", "charge": 0, "lattice": {"matrix": [[4.809633, 0.0, 0.81039], [2.404816, 4.218665, 0.40519499999999903], [-0.050374999999999004, 0.0, 10.129588]], "pbc": [true, true, true], "a": 4.87742775925887, "b": 4.872828476778759, "c": 10.129713258052718, "alpha": 85.371272656537, "beta": 80.72082184319144, "gamma": 59.968779045054966, "volume": 205.70389460945907}, "properties": {}, "sites": [{"species": [{"element": "Pu", "occu": 1}], "abc": [0.12611, 0.0, 0.643787999999999], "properties": {"magmom": 4.861}, "label": "Pu", "xyz": [0.5741119971300006, 0.0, 6.62350548224399]}, {"species": [{"element": "Pu", "occu": 1}], "abc": [0.0, 0.0, 0.0], "properties": {"magmom": 4.927}, "label": "Pu", "xyz": [0.0, 0.0, 0.0]}, {"species": [{"element": "Pu", "occu": 1}], "abc": [0.8738900000000001, 0.0, 0.356212], "properties": {"magmom": 4.861}, "label": "Pu", "xyz": [4.185146002870001, 0.0, 4.316472517756]}, {"species": [{"element": "Ni", "occu": 1}], "abc": [0.569054, 0.498953, 0.801207], "properties": {"magmom": -0.352}, "label": "Ni", "xyz": [3.8964702522050003, 2.1049155577449996, 8.779225744611]}, {"species": [{"element": "Ni", "occu": 1}], "abc": [0.068007, 0.501047, 0.801207], "properties": {"magmom": -0.353}, "label": "Ni", "xyz": [1.4916537511580006, 2.113749442255, 8.374030744611]}, {"species": [{"element": "Ni", "occu": 1}], "abc": [0.430946, 0.501047, 0.198793], "properties": {"magmom": -0.354}, "label": "Ni", "xyz": [3.267603747795, 2.113749442255, 2.5659472553889993]}, {"species": [{"element": "Ni", "occu": 1}], "abc": [0.430876999999999, 0.0, 0.201377], "properties": {"magmom": -0.331}, "label": "Ni", "xyz": [2.0622158717659955, 0.0, 2.3890444547059992]}, {"species": [{"element": "Ni", "occu": 1}], "abc": [0.931993, 0.498953, 0.198793], "properties": {"magmom": -0.354}, "label": "Ni", "xyz": [5.672420248842, 2.1049155577449996, 2.9711422553889997]}, {"species": [{"element": "Ni", "occu": 1}], "abc": [0.665167, 0.669666, 0.0], "properties": {"magmom": -0.382}, "label": "Ni", "xyz": [4.809632665166999, 2.82509651589, 0.8103899999999994]}, {"species": [{"element": "Ni", "occu": 1}], "abc": [0.569122999999999, 0.0, 0.798623], "properties": {"magmom": -0.335}, "label": "Ni", "xyz": [2.697042128233996, 0.0, 8.550933545293999]}, {"species": [{"element": "Ni", "occu": 1}], "abc": [0.194061999999999, 0.341321999999999, 0.405636], "properties": {"magmom": -0.33}, "label": "Ni", "xyz": [1.7337496924979932, 1.4399231751299957, 4.4044934299379985]}, {"species": [{"element": "Ni", "occu": 1}], "abc": [0.805937999999999, 0.658678, 0.594364], "properties": {"magmom": -0.33}, "label": "Ni", "xyz": [5.430324307501996, 2.7787418248699995, 6.940679570061999]}, {"species": [{"element": "Ni", "occu": 1}], "abc": [0.464617, 0.341321999999999, 0.594364], "properties": {"magmom": -0.332}, "label": "Ni", "xyz": [3.0255127758129983, 1.4399231751299957, 6.535485380451999]}, {"species": [{"element": "Ni", "occu": 1}], "abc": [0.535382999999999, 0.658678, 0.405636], "properties": {"magmom": -0.332}, "label": "Ni", "xyz": [4.138561224186995, 2.7787418248699995, 4.809687619547999]}, {"species": [{"element": "Ni", "occu": 1}], "abc": [0.334833, 0.330333999999999, 0.0], "properties": {"magmom": -0.382}, "label": "Ni", "xyz": [2.4048163348329976, 1.3935684841099958, 0.4051949999999993]}]}, "task_ids": null, "uncorrected_energy_per_atom": null, "energy_per_atom": -7.689860742666666, "formation_energy_per_atom": -0.11816490241666301, "energy_above_hull": 0.009270505999999, "is_stable": false, "equilibrium_reaction_energy_per_atom": null, "decomposes_to": null, "xas": null, "grain_boundaries": null, "band_gap": 0.0, "cbm": null, "vbm": null, "efermi": 9.44083987, "is_gap_direct": null, "is_metal": null, "es_source_calc_id": null, "bandstructure": null, "dos": null, "dos_energy_up": null, "dos_energy_down": null, "is_magnetic": null, "ordering": null, "total_magnetization": 11.4119343, "total_magnetization_normalized_vol": null, "total_magnetization_normalized_formula_units": null, "num_magnetic_sites": null, "num_unique_magnetic_sites": null, "types_of_magnetic_species": null, "bulk_modulus": null, "shear_modulus": null, "universal_anisotropy": null, "homogeneous_poisson": null, "e_total": null, "e_ionic": null, "e_electronic": null, "n": null, "e_ij_max": null, "weighted_surface_energy_EV_PER_ANG2": null, "weighted_surface_energy": null, "weighted_work_function": null, "surface_anisotropy": null, "shape_factor": null, "has_reconstructed": null, "possible_species": null, "has_props": null, "theoretical": null, "database_IDs": null, "fields_not_requested": ["builder_meta", "nsites", "elements", "nelements", "composition", "composition_reduced", "chemsys", "symmetry", "property_name", "deprecated", "deprecation_reasons", "last_updated", "origins", "warnings", "task_ids", "uncorrected_energy_per_atom", "equilibrium_reaction_energy_per_atom", "decomposes_to", "xas", "grain_boundaries", "cbm", "vbm", "is_gap_direct", "is_metal", "es_source_calc_id", "bandstructure", "dos", "dos_energy_up", "dos_energy_down", "is_magnetic", "ordering", "total_magnetization_normalized_vol", "total_magnetization_normalized_formula_units", "num_magnetic_sites", "num_unique_magnetic_sites", "types_of_magnetic_species", "bulk_modulus", "shear_modulus", "universal_anisotropy", "homogeneous_poisson", "e_total", "e_ionic", "e_electronic", "n", "e_ij_max", "weighted_surface_energy_EV_PER_ANG2", "weighted_surface_energy", "weighted_work_function", "surface_anisotropy", "shape_factor", "has_reconstructed", "possible_species", "has_props", "theoretical", "database_IDs"]}