{
  "builder_meta": null,
  "nsites": null,
  "elements": null,
  "nelements": null,
  "composition": null,
  "composition_reduced": null,
  "formula_pretty": "PuNi3",
  "formula_anonymous": "AB3",
  "chemsys": null,
  "volume": 177.22526483124324,
  "density": 11.80801592599174,
  "density_atomic": 14.76877206927027,
  "symmetry": null,
  "property_name": null,
  "material_id": "mp-636403",
  "deprecated": null,
  "deprecation_reasons": null,
  "last_updated": null,
  "origins": null,
  "warnings": null,
  "structure": {
    "@module": "pymatgen.core.structure",
    "@class": "Structure",
    "charge": 0,
    "lattice": {
      "matrix": [
        [8.368585, -2.491132, 0.0],
        [8.368585, 2.491132, 0.0],
        [7.627033, 0.0, 4.250567]
      ],
      "pbc": [true, true, true],
      "a": 8.73149205712569,
      "b": 8.73149205712569,
      "c": 8.731491980445151,
      "alpha": 33.1540770807087,
      "beta": 33.1540770807087,
      "gamma": 33.15407468694237,
      "volume": 177.22526483124324
    },
    "properties": {},
    "sites": [
      {
        "species": [{ "element": "Pu", "occu": 1 }],
        "abc": [0.142613, 0.142613, 0.142613],
        "properties": { "magmom": 5.01 },
        "label": "Pu",
        "xyz": [3.4746520824389995, 0.0, 0.606186111571]
      },
      {
        "species": [{ "element": "Pu", "occu": 1 }],
        "abc": [0.0, 0.0, 0.0],
        "properties": { "magmom": 5.021 },
        "label": "Pu",
        "xyz": [0.0, 0.0, 0.0]
      },
      {
        "species": [{ "element": "Pu", "occu": 1 }],
        "abc": [0.857387, 0.857387, 0.857387],
        "properties": { "magmom": 5.01 },
        "label": "Pu",
        "xyz": [20.889550917561, 0.0, 3.644380888429]
      },
      {
        "species": [{ "element": "Ni", "occu": 1 }],
        "abc": [0.417518, 0.417518, 0.91846],
        "properties": { "magmom": -0.147 },
        "label": "Ni",
        "xyz": [13.993194473239999, 0.0, 3.9039757668200004]
      },
      {
        "species": [{ "element": "Ni", "occu": 1 }],
        "abc": [0.417518, 0.91846, 0.417518],
        "properties": { "magmom": -0.162 },
        "label": "Ni",
        "xyz": [14.364669015224, 1.247912646344, 1.774688232706]
      },
      {
        "species": [{ "element": "Ni", "occu": 1 }],
        "abc": [0.667366, 0.667366, 0.667366],
        "properties": { "magmom": -0.202 },
        "label": "Ni",
        "xyz": [16.259840699298, 0.0, 2.836683896522]
      },
      {
        "species": [{ "element": "Ni", "occu": 1 }],
        "abc": [0.5824819999999991, 0.5824819999999991, 0.08154],
        "properties": { "magmom": -0.147 },
        "label": "Ni",
        "xyz": [10.371008526759985, 0.0, 0.34659123318]
      },
      {
        "species": [{ "element": "Ni", "occu": 1 }],
        "abc": [0.91846, 0.417518, 0.417518],
        "properties": { "magmom": -0.145 },
        "label": "Ni",
        "xyz": [14.364669015224, -1.247912646344, 1.774688232706]
      },
      {
        "species": [{ "element": "Ni", "occu": 1 }],
        "abc": [0.5, 0.5, 0.5],
        "properties": { "magmom": -0.077 },
        "label": "Ni",
        "xyz": [12.1821015, 0.0, 2.1252835]
      },
      {
        "species": [{ "element": "Ni", "occu": 1 }],
        "abc": [0.5824819999999991, 0.08154, 0.5824819999999991],
        "properties": { "magmom": -0.162 },
        "label": "Ni",
        "xyz": [9.999533984775985, -1.2479126463439976, 2.475878767293996]
      },
      {
        "species": [{ "element": "Ni", "occu": 1 }],
        "abc": [0.332634, 0.332634, 0.332634],
        "properties": { "magmom": -0.202 },
        "label": "Ni",
        "xyz": [8.104362300702, 0.0, 1.413883103478]
      },
      {
        "species": [{ "element": "Ni", "occu": 1 }],
        "abc": [0.08154, 0.5824819999999991, 0.5824819999999991],
        "properties": { "magmom": -0.145 },
        "label": "Ni",
        "xyz": [9.999533984775985, 1.2479126463439976, 2.475878767293996]
      }
    ]
  },
  "task_ids": null,
  "uncorrected_energy_per_atom": null,
  "energy_per_atom": -8.144906336666667,
  "formation_energy_per_atom": -0.125320706354163,
  "energy_above_hull": 0.0,
  "is_stable": true,
  "equilibrium_reaction_energy_per_atom": null,
  "decomposes_to": null,
  "xas": null,
  "grain_boundaries": null,
  "band_gap": 0.0,
  "cbm": null,
  "vbm": null,
  "efermi": 9.57513695,
  "is_gap_direct": null,
  "is_metal": null,
  "es_source_calc_id": null,
  "bandstructure": null,
  "dos": null,
  "dos_energy_up": null,
  "dos_energy_down": null,
  "is_magnetic": null,
  "ordering": null,
  "total_magnetization": 14.3455403,
  "total_magnetization_normalized_vol": null,
  "total_magnetization_normalized_formula_units": null,
  "num_magnetic_sites": null,
  "num_unique_magnetic_sites": null,
  "types_of_magnetic_species": null,
  "bulk_modulus": null,
  "shear_modulus": null,
  "universal_anisotropy": null,
  "homogeneous_poisson": null,
  "e_total": null,
  "e_ionic": null,
  "e_electronic": null,
  "n": null,
  "e_ij_max": null,
  "weighted_surface_energy_EV_PER_ANG2": null,
  "weighted_surface_energy": null,
  "weighted_work_function": null,
  "surface_anisotropy": null,
  "shape_factor": null,
  "has_reconstructed": null,
  "possible_species": null,
  "has_props": null,
  "theoretical": null,
  "database_IDs": null,
  "fields_not_requested": [
    "builder_meta",
    "nsites",
    "elements",
    "nelements",
    "composition",
    "composition_reduced",
    "chemsys",
    "symmetry",
    "property_name",
    "deprecated",
    "deprecation_reasons",
    "last_updated",
    "origins",
    "warnings",
    "task_ids",
    "uncorrected_energy_per_atom",
    "equilibrium_reaction_energy_per_atom",
    "decomposes_to",
    "xas",
    "grain_boundaries",
    "cbm",
    "vbm",
    "is_gap_direct",
    "is_metal",
    "es_source_calc_id",
    "bandstructure",
    "dos",
    "dos_energy_up",
    "dos_energy_down",
    "is_magnetic",
    "ordering",
    "total_magnetization_normalized_vol",
    "total_magnetization_normalized_formula_units",
    "num_magnetic_sites",
    "num_unique_magnetic_sites",
    "types_of_magnetic_species",
    "bulk_modulus",
    "shear_modulus",
    "universal_anisotropy",
    "homogeneous_poisson",
    "e_total",
    "e_ionic",
    "e_electronic",
    "n",
    "e_ij_max",
    "weighted_surface_energy_EV_PER_ANG2",
    "weighted_surface_energy",
    "weighted_work_function",
    "surface_anisotropy",
    "shape_factor",
    "has_reconstructed",
    "possible_species",
    "has_props",
    "theoretical",
    "database_IDs"
  ]
}
