{"builder_meta": null, "nsites": null, "elements": null, "nelements": null, "composition": null, "composition_reduced": null, "formula_pretty": "PuNp3", "formula_anonymous": "AB3", "chemsys": null, "volume": 69.04400884178212, "density": 22.968173998079628, "density_atomic": 17.26100221044553, "symmetry": null, "property_name": null, "material_id": "mp-1186824", "deprecated": null, "deprecation_reasons": null, "last_updated": null, "origins": null, "warnings": null, "structure": {"@module": "pymatgen.core.structure", "@class": "Structure", "charge": 0, "lattice": {"matrix": [[0.0, 3.256107, 3.256107], [3.256107, 0.0, 3.256107], [3.256107, 3.256107, 0.0]], "pbc": [true, true, true], "a": 4.6048306799379715, "b": 4.6048306799379715, "c": 4.6048306799379715, "alpha": 59.99999999999999, "beta": 59.99999999999999, "gamma": 59.99999999999999, "volume": 69.04400884178212}, "properties": {}, "sites": [{"species": [{"element": "Pu", "occu": 1}], "abc": [0.75, 0.75, 0.75], "properties": {"magmom": 0.226}, "label": "Pu", "xyz": [4.8841605, 4.8841605, 4.8841605]}, {"species": [{"element": "Np", "occu": 1}], "abc": [0.0, 0.0, 0.0], "properties": {"magmom": 0.101}, "label": "Np", "xyz": [0.0, 0.0, 0.0]}, {"species": [{"element": "Np", "occu": 1}], "abc": [0.499998999999999, 0.499998999999999, 0.499998999999999], "properties": {"magmom": 0.11}, "label": "Np", "xyz": [3.256100487785994, 3.256100487785994, 3.256100487785994]}, {"species": [{"element": "Np", "occu": 1}], "abc": [0.25, 0.25, 0.25], "properties": {"magmom": -0.133}, "label": "Np", "xyz": [1.6280535, 1.6280535, 1.6280535]}]}, "task_ids": null, "uncorrected_energy_per_atom": null, "energy_per_atom": -83.39820583281252, "formation_energy_per_atom": 0.45903985343748804, "energy_above_hull": 0.45903985343748804, "is_stable": false, "equilibrium_reaction_energy_per_atom": null, "decomposes_to": null, "xas": null, "grain_boundaries": null, "band_gap": 0.0, "cbm": null, "vbm": null, "efermi": 18.97629575, "is_gap_direct": null, "is_metal": null, "es_source_calc_id": null, "bandstructure": null, "dos": null, "dos_energy_up": null, "dos_energy_down": null, "is_magnetic": null, "ordering": null, "total_magnetization": 0.308498899999999, "total_magnetization_normalized_vol": null, "total_magnetization_normalized_formula_units": null, "num_magnetic_sites": null, "num_unique_magnetic_sites": null, "types_of_magnetic_species": null, "bulk_modulus": null, "shear_modulus": null, "universal_anisotropy": null, "homogeneous_poisson": null, "e_total": null, "e_ionic": null, "e_electronic": null, "n": null, "e_ij_max": null, "weighted_surface_energy_EV_PER_ANG2": null, "weighted_surface_energy": null, "weighted_work_function": null, "surface_anisotropy": null, "shape_factor": null, "has_reconstructed": null, "possible_species": null, "has_props": null, "theoretical": null, "database_IDs": null, "fields_not_requested": ["builder_meta", "nsites", "elements", "nelements", "composition", "composition_reduced", "chemsys", "symmetry", "property_name", "deprecated", "deprecation_reasons", "last_updated", "origins", "warnings", "task_ids", "uncorrected_energy_per_atom", "equilibrium_reaction_energy_per_atom", "decomposes_to", "xas", "grain_boundaries", "cbm", "vbm", "is_gap_direct", "is_metal", "es_source_calc_id", "bandstructure", "dos", "dos_energy_up", "dos_energy_down", "is_magnetic", "ordering", "total_magnetization_normalized_vol", "total_magnetization_normalized_formula_units", "num_magnetic_sites", "num_unique_magnetic_sites", "types_of_magnetic_species", "bulk_modulus", "shear_modulus", "universal_anisotropy", "homogeneous_poisson", "e_total", "e_ionic", "e_electronic", "n", "e_ij_max", "weighted_surface_energy_EV_PER_ANG2", "weighted_surface_energy", "weighted_work_function", "surface_anisotropy", "shape_factor", "has_reconstructed", "possible_species", "has_props", "theoretical", "database_IDs"]}