{
  "builder_meta": null,
  "nsites": null,
  "elements": null,
  "nelements": null,
  "composition": null,
  "composition_reduced": null,
  "formula_pretty": "PuOs2",
  "formula_anonymous": "AB2",
  "chemsys": null,
  "volume": 216.3602115552511,
  "density": 19.170626948000304,
  "density_atomic": 18.03001762960426,
  "symmetry": null,
  "property_name": null,
  "material_id": "mp-1102741",
  "deprecated": null,
  "deprecation_reasons": null,
  "last_updated": null,
  "origins": null,
  "warnings": null,
  "structure": {
    "@module": "pymatgen.core.structure",
    "@class": "Structure",
    "charge": 0,
    "lattice": {
      "matrix": [
        [-2.672677, -4.629742, 0.0],
        [-2.672677, 4.629742, 0.0],
        [0.0, 0.0, -8.742671]
      ],
      "pbc": [true, true, true],
      "a": 5.345812691527174,
      "b": 5.345812691527174,
      "c": 8.742671,
      "alpha": 90.0,
      "beta": 90.0,
      "gamma": 120.00567665852867,
      "volume": 216.3602115552511
    },
    "properties": {},
    "sites": [
      {
        "species": [{ "element": "Pu", "occu": 1 }],
        "abc": [0.666681, 0.333319, 0.567525],
        "properties": { "magmom": 4.8 },
        "label": "Pu",
        "xyz": [-2.672677, -1.5433800526039998, -4.961684359274999]
      },
      {
        "species": [{ "element": "Pu", "occu": 1 }],
        "abc": [0.333319, 0.666681, 0.432475],
        "properties": { "magmom": 4.8 },
        "label": "Pu",
        "xyz": [-2.672677, 1.5433800526039998, -3.7809866407249997]
      },
      {
        "species": [{ "element": "Pu", "occu": 1 }],
        "abc": [0.333319, 0.666681, 0.067525],
        "properties": { "magmom": 4.8 },
        "label": "Pu",
        "xyz": [-2.672677, 1.5433800526039998, -0.590348859275]
      },
      {
        "species": [{ "element": "Pu", "occu": 1 }],
        "abc": [0.666681, 0.333319, 0.932474999999999],
        "properties": { "magmom": 4.8 },
        "label": "Pu",
        "xyz": [-2.672677, -1.5433800526039998, -8.15232214072499]
      },
      {
        "species": [{ "element": "Os", "occu": 1 }],
        "abc": [0.0, 0.0, 0.5],
        "properties": { "magmom": -0.323 },
        "label": "Os",
        "xyz": [0.0, 0.0, -4.3713355]
      },
      {
        "species": [{ "element": "Os", "occu": 1 }],
        "abc": [0.0, 0.0, 0.0],
        "properties": { "magmom": -0.323 },
        "label": "Os",
        "xyz": [0.0, 0.0, 0.0]
      },
      {
        "species": [{ "element": "Os", "occu": 1 }],
        "abc": [0.170989, 0.341881999999999, 0.75],
        "properties": { "magmom": -0.34400000000000003 },
        "label": "Os",
        "xyz": [-1.3707385256669975, 0.7911904996059954, -6.557003249999999]
      },
      {
        "species": [{ "element": "Os", "occu": 1 }],
        "abc": [0.170911999999999, 0.829087999999999, 0.75],
        "properties": { "magmom": -0.343 },
        "label": "Os",
        "xyz": [-2.6726769999999953, 3.0471850705920005, -6.557003249999999]
      },
      {
        "species": [{ "element": "Os", "occu": 1 }],
        "abc": [0.658118, 0.829010999999999, 0.75],
        "properties": { "magmom": -0.34400000000000003 },
        "label": "Os",
        "xyz": [-3.9746154743329978, 0.791190499605996, -6.557003249999999]
      },
      {
        "species": [{ "element": "Os", "occu": 1 }],
        "abc": [0.829010999999999, 0.658118, 0.25],
        "properties": { "magmom": -0.34400000000000003 },
        "label": "Os",
        "xyz": [-3.9746154743329978, -0.791190499605996, -2.18566775]
      },
      {
        "species": [{ "element": "Os", "occu": 1 }],
        "abc": [0.829087999999999, 0.170911999999999, 0.25],
        "properties": { "magmom": -0.343 },
        "label": "Os",
        "xyz": [-2.6726769999999953, -3.0471850705920005, -2.18566775]
      },
      {
        "species": [{ "element": "Os", "occu": 1 }],
        "abc": [0.341881999999999, 0.170989, 0.25],
        "properties": { "magmom": -0.34400000000000003 },
        "label": "Os",
        "xyz": [-1.3707385256669975, -0.7911904996059954, -2.18566775]
      }
    ]
  },
  "task_ids": null,
  "uncorrected_energy_per_atom": null,
  "energy_per_atom": -12.362697679166667,
  "formation_energy_per_atom": 0.034858101250004006,
  "energy_above_hull": 0.034858101250003,
  "is_stable": false,
  "equilibrium_reaction_energy_per_atom": null,
  "decomposes_to": null,
  "xas": null,
  "grain_boundaries": null,
  "band_gap": 0.0,
  "cbm": null,
  "vbm": null,
  "efermi": 10.12944822,
  "is_gap_direct": null,
  "is_metal": null,
  "es_source_calc_id": null,
  "bandstructure": null,
  "dos": null,
  "dos_energy_up": null,
  "dos_energy_down": null,
  "is_magnetic": null,
  "ordering": null,
  "total_magnetization": 17.1496513,
  "total_magnetization_normalized_vol": null,
  "total_magnetization_normalized_formula_units": null,
  "num_magnetic_sites": null,
  "num_unique_magnetic_sites": null,
  "types_of_magnetic_species": null,
  "bulk_modulus": null,
  "shear_modulus": null,
  "universal_anisotropy": null,
  "homogeneous_poisson": null,
  "e_total": null,
  "e_ionic": null,
  "e_electronic": null,
  "n": null,
  "e_ij_max": null,
  "weighted_surface_energy_EV_PER_ANG2": null,
  "weighted_surface_energy": null,
  "weighted_work_function": null,
  "surface_anisotropy": null,
  "shape_factor": null,
  "has_reconstructed": null,
  "possible_species": null,
  "has_props": null,
  "theoretical": null,
  "database_IDs": null,
  "fields_not_requested": [
    "builder_meta",
    "nsites",
    "elements",
    "nelements",
    "composition",
    "composition_reduced",
    "chemsys",
    "symmetry",
    "property_name",
    "deprecated",
    "deprecation_reasons",
    "last_updated",
    "origins",
    "warnings",
    "task_ids",
    "uncorrected_energy_per_atom",
    "equilibrium_reaction_energy_per_atom",
    "decomposes_to",
    "xas",
    "grain_boundaries",
    "cbm",
    "vbm",
    "is_gap_direct",
    "is_metal",
    "es_source_calc_id",
    "bandstructure",
    "dos",
    "dos_energy_up",
    "dos_energy_down",
    "is_magnetic",
    "ordering",
    "total_magnetization_normalized_vol",
    "total_magnetization_normalized_formula_units",
    "num_magnetic_sites",
    "num_unique_magnetic_sites",
    "types_of_magnetic_species",
    "bulk_modulus",
    "shear_modulus",
    "universal_anisotropy",
    "homogeneous_poisson",
    "e_total",
    "e_ionic",
    "e_electronic",
    "n",
    "e_ij_max",
    "weighted_surface_energy_EV_PER_ANG2",
    "weighted_surface_energy",
    "weighted_work_function",
    "surface_anisotropy",
    "shape_factor",
    "has_reconstructed",
    "possible_species",
    "has_props",
    "theoretical",
    "database_IDs"
  ]
}
