{"builder_meta": null, "nsites": null, "elements": null, "nelements": null, "composition": null, "composition_reduced": null, "formula_pretty": "PuP3", "formula_anonymous": "AB3", "chemsys": null, "volume": 144.53692172554705, "density": 7.741564592533099, "density_atomic": 18.06711521569338, "symmetry": null, "property_name": null, "material_id": "mp-861511", "deprecated": null, "deprecation_reasons": null, "last_updated": null, "origins": null, "warnings": null, "structure": {"@module": "pymatgen.core.structure", "@class": "Structure", "charge": 0, "lattice": {"matrix": [[2.789825, -4.832119, 0.0], [2.789825, 4.832119, 0.0], [0.0, 0.0, 5.360857]], "pbc": [true, true, true], "a": 5.57965030810946, "b": 5.57965030810946, "c": 5.360857, "alpha": 90.0, "beta": 90.0, "gamma": 120.00000365333965, "volume": 144.53692172554705}, "properties": {}, "sites": [{"species": [{"element": "Pu", "occu": 1}], "abc": [0.333333, 0.666667, 0.75], "properties": {"magmom": 4.705}, "label": "Pu", "xyz": [2.789825, 1.610709554746, 4.02064275]}, {"species": [{"element": "Pu", "occu": 1}], "abc": [0.666667, 0.333333, 0.25], "properties": {"magmom": 4.703}, "label": "Pu", "xyz": [2.789825, -1.610709554746, 1.34021425]}, {"species": [{"element": "P", "occu": 1}], "abc": [0.19567299999999901, 0.39134599999999903, 0.25], "properties": {"magmom": -0.054}, "label": "P", "xyz": [1.6376802816749945, 0.945515221087, 1.34021425]}, {"species": [{"element": "P", "occu": 1}], "abc": [0.608653999999999, 0.804327, 0.25], "properties": {"magmom": -0.054}, "label": "P", "xyz": [3.9419697183249975, 0.945515221087005, 1.34021425]}, {"species": [{"element": "P", "occu": 1}], "abc": [0.19567299999999901, 0.804327, 0.25], "properties": {"magmom": -0.054}, "label": "P", "xyz": [2.7898249999999973, 2.9410885578260046, 1.34021425]}, {"species": [{"element": "P", "occu": 1}], "abc": [0.804327, 0.608653999999999, 0.75], "properties": {"magmom": -0.054}, "label": "P", "xyz": [3.9419697183249975, -0.945515221087005, 4.02064275]}, {"species": [{"element": "P", "occu": 1}], "abc": [0.39134599999999903, 0.19567299999999901, 0.75], "properties": {"magmom": -0.054}, "label": "P", "xyz": [1.6376802816749945, -0.945515221087, 4.02064275]}, {"species": [{"element": "P", "occu": 1}], "abc": [0.804327, 0.19567299999999901, 0.75], "properties": {"magmom": -0.054}, "label": "P", "xyz": [2.7898249999999973, -2.9410885578260046, 4.02064275]}]}, "task_ids": null, "uncorrected_energy_per_atom": null, "energy_per_atom": -29.062150750178574, "formation_energy_per_atom": -0.721506478348217, "energy_above_hull": 0.049004775833331, "is_stable": false, "equilibrium_reaction_energy_per_atom": null, "decomposes_to": null, "xas": null, "grain_boundaries": null, "band_gap": 0.0, "cbm": null, "vbm": null, "efermi": 9.83544275, "is_gap_direct": null, "is_metal": null, "es_source_calc_id": null, "bandstructure": null, "dos": null, "dos_energy_up": null, "dos_energy_down": null, "is_magnetic": null, "ordering": null, "total_magnetization": 9.226119, "total_magnetization_normalized_vol": null, "total_magnetization_normalized_formula_units": null, "num_magnetic_sites": null, "num_unique_magnetic_sites": null, "types_of_magnetic_species": null, "bulk_modulus": null, "shear_modulus": null, "universal_anisotropy": null, "homogeneous_poisson": null, "e_total": null, "e_ionic": null, "e_electronic": null, "n": null, "e_ij_max": null, "weighted_surface_energy_EV_PER_ANG2": null, "weighted_surface_energy": null, "weighted_work_function": null, "surface_anisotropy": null, "shape_factor": null, "has_reconstructed": null, "possible_species": null, "has_props": null, "theoretical": null, "database_IDs": null, "fields_not_requested": ["builder_meta", "nsites", "elements", "nelements", "composition", "composition_reduced", "chemsys", "symmetry", "property_name", "deprecated", "deprecation_reasons", "last_updated", "origins", "warnings", "task_ids", "uncorrected_energy_per_atom", "equilibrium_reaction_energy_per_atom", "decomposes_to", "xas", "grain_boundaries", "cbm", "vbm", "is_gap_direct", "is_metal", "es_source_calc_id", "bandstructure", "dos", "dos_energy_up", "dos_energy_down", "is_magnetic", "ordering", "total_magnetization_normalized_vol", "total_magnetization_normalized_formula_units", "num_magnetic_sites", "num_unique_magnetic_sites", "types_of_magnetic_species", "bulk_modulus", "shear_modulus", "universal_anisotropy", "homogeneous_poisson", "e_total", "e_ionic", "e_electronic", "n", "e_ij_max", "weighted_surface_energy_EV_PER_ANG2", "weighted_surface_energy", "weighted_work_function", "surface_anisotropy", "shape_factor", "has_reconstructed", "possible_species", "has_props", "theoretical", "database_IDs"]}