{
  "builder_meta": null,
  "nsites": null,
  "elements": null,
  "nelements": null,
  "composition": null,
  "composition_reduced": null,
  "formula_pretty": "PuPb2",
  "formula_anonymous": "AB2",
  "chemsys": null,
  "volume": 346.30446686193966,
  "density": 12.628181569316027,
  "density_atomic": 28.858705571828306,
  "symmetry": null,
  "property_name": null,
  "material_id": "mp-1102374",
  "deprecated": null,
  "deprecation_reasons": null,
  "last_updated": null,
  "origins": null,
  "warnings": null,
  "structure": {
    "@module": "pymatgen.core.structure",
    "@class": "Structure",
    "charge": 0,
    "lattice": {
      "matrix": [
        [-2.402966, 2.402966, 14.993494],
        [2.402966, -2.402966, 14.993494],
        [2.402966, 2.402966, -14.993494]
      ],
      "pbc": [true, true, true],
      "a": 15.373787871645295,
      "b": 15.373787871645295,
      "c": 15.373787871645295,
      "alpha": 162.01527629742637,
      "beta": 162.01527629742637,
      "gamma": 25.540898972744525,
      "volume": 346.30446686193966
    },
    "properties": {},
    "sites": [
      {
        "species": [{ "element": "Pu", "occu": 1 }],
        "abc": [0.829144, 0.329144, 0.5],
        "properties": { "magmom": 5.471 },
        "label": "Pu",
        "xyz": [0.0, 2.402966, 9.870037178272]
      },
      {
        "species": [{ "element": "Pu", "occu": 1 }],
        "abc": [0.920856, 0.920856, 0.0],
        "properties": { "magmom": 5.471 },
        "label": "Pu",
        "xyz": [0.0, 0.0, 27.613697821728]
      },
      {
        "species": [{ "element": "Pu", "occu": 1 }],
        "abc": [0.670856, 0.170855999999999, 0.5],
        "properties": { "magmom": 5.471 },
        "label": "Pu",
        "xyz": [-2.4424906541753444e-15, 2.402966000000003, 5.123456821727985]
      },
      {
        "species": [{ "element": "Pu", "occu": 1 }],
        "abc": [0.079143999999999, 0.079143999999999, 0.0],
        "properties": { "magmom": 5.471 },
        "label": "Pu",
        "xyz": [0.0, 0.0, 2.3732901782719704]
      },
      {
        "species": [{ "element": "Pb", "occu": 1 }],
        "abc": [0.000397999999999, 0.500398, 0.5],
        "properties": { "magmom": 0.004 },
        "label": "Pb",
        "xyz": [
          2.402966000000003, -2.4424906541753444e-15, 0.011934821223985814
        ]
      },
      {
        "species": [{ "element": "Pb", "occu": 1 }],
        "abc": [0.749602, 0.749602, 0.0],
        "properties": { "magmom": 0.004 },
        "label": "Pb",
        "xyz": [0.0, 0.0, 22.478306178776]
      },
      {
        "species": [{ "element": "Pb", "occu": 1 }],
        "abc": [0.499602, 0.999602, 0.5],
        "properties": { "magmom": 0.004 },
        "label": "Pb",
        "xyz": [2.402966, 2.220446049250313e-16, 14.981559178776003]
      },
      {
        "species": [{ "element": "Pb", "occu": 1 }],
        "abc": [0.250398, 0.250398, 0.0],
        "properties": { "magmom": 0.004 },
        "label": "Pb",
        "xyz": [0.0, 0.0, 7.508681821224]
      },
      {
        "species": [{ "element": "Pb", "occu": 1 }],
        "abc": [0.163194, 0.663194, 0.5],
        "properties": { "magmom": -0.017 },
        "label": "Pb",
        "xyz": [2.402966, 0.0, 4.893696519672001]
      },
      {
        "species": [{ "element": "Pb", "occu": 1 }],
        "abc": [0.586805999999999, 0.586805999999999, 0.0],
        "properties": { "magmom": -0.017 },
        "label": "Pb",
        "xyz": [0.0, 0.0, 17.59654448032797]
      },
      {
        "species": [{ "element": "Pb", "occu": 1 }],
        "abc": [0.336806, 0.836805999999999, 0.5],
        "properties": { "magmom": -0.017 },
        "label": "Pb",
        "xyz": [2.4029659999999975, 2.4424906541753444e-15, 10.099797480327986]
      },
      {
        "species": [{ "element": "Pb", "occu": 1 }],
        "abc": [0.413194, 0.413194, 0.0],
        "properties": { "magmom": -0.017 },
        "label": "Pb",
        "xyz": [0.0, 0.0, 12.390443519672]
      }
    ]
  },
  "task_ids": null,
  "uncorrected_energy_per_atom": null,
  "energy_per_atom": -7.397188199166667,
  "formation_energy_per_atom": -0.009445992083327,
  "energy_above_hull": 0.037500952083334003,
  "is_stable": false,
  "equilibrium_reaction_energy_per_atom": null,
  "decomposes_to": null,
  "xas": null,
  "grain_boundaries": null,
  "band_gap": 0.0,
  "cbm": null,
  "vbm": null,
  "efermi": 9.00896141,
  "is_gap_direct": null,
  "is_metal": null,
  "es_source_calc_id": null,
  "bandstructure": null,
  "dos": null,
  "dos_energy_up": null,
  "dos_energy_down": null,
  "is_magnetic": null,
  "ordering": null,
  "total_magnetization": 23.1952634,
  "total_magnetization_normalized_vol": null,
  "total_magnetization_normalized_formula_units": null,
  "num_magnetic_sites": null,
  "num_unique_magnetic_sites": null,
  "types_of_magnetic_species": null,
  "bulk_modulus": null,
  "shear_modulus": null,
  "universal_anisotropy": null,
  "homogeneous_poisson": null,
  "e_total": null,
  "e_ionic": null,
  "e_electronic": null,
  "n": null,
  "e_ij_max": null,
  "weighted_surface_energy_EV_PER_ANG2": null,
  "weighted_surface_energy": null,
  "weighted_work_function": null,
  "surface_anisotropy": null,
  "shape_factor": null,
  "has_reconstructed": null,
  "possible_species": null,
  "has_props": null,
  "theoretical": null,
  "database_IDs": null,
  "fields_not_requested": [
    "builder_meta",
    "nsites",
    "elements",
    "nelements",
    "composition",
    "composition_reduced",
    "chemsys",
    "symmetry",
    "property_name",
    "deprecated",
    "deprecation_reasons",
    "last_updated",
    "origins",
    "warnings",
    "task_ids",
    "uncorrected_energy_per_atom",
    "equilibrium_reaction_energy_per_atom",
    "decomposes_to",
    "xas",
    "grain_boundaries",
    "cbm",
    "vbm",
    "is_gap_direct",
    "is_metal",
    "es_source_calc_id",
    "bandstructure",
    "dos",
    "dos_energy_up",
    "dos_energy_down",
    "is_magnetic",
    "ordering",
    "total_magnetization_normalized_vol",
    "total_magnetization_normalized_formula_units",
    "num_magnetic_sites",
    "num_unique_magnetic_sites",
    "types_of_magnetic_species",
    "bulk_modulus",
    "shear_modulus",
    "universal_anisotropy",
    "homogeneous_poisson",
    "e_total",
    "e_ionic",
    "e_electronic",
    "n",
    "e_ij_max",
    "weighted_surface_energy_EV_PER_ANG2",
    "weighted_surface_energy",
    "weighted_work_function",
    "surface_anisotropy",
    "shape_factor",
    "has_reconstructed",
    "possible_species",
    "has_props",
    "theoretical",
    "database_IDs"
  ]
}
