{"builder_meta": null, "nsites": null, "elements": null, "nelements": null, "composition": null, "composition_reduced": null, "formula_pretty": "PuPd", "formula_anonymous": "AB", "chemsys": null, "volume": 185.66272336437854, "density": 12.536412030884025, "density_atomic": 23.207840420547317, "symmetry": null, "property_name": null, "material_id": "mp-1079174", "deprecated": null, "deprecation_reasons": null, "last_updated": null, "origins": null, "warnings": null, "structure": {"@module": "pymatgen.core.structure", "@class": "Structure", "charge": 0, "lattice": {"matrix": [[4.440111, 0.0, 0.0], [0.0, 5.865178, 0.0], [0.0, 0.0, 7.129346]], "pbc": [true, true, true], "a": 4.440111, "b": 5.865178, "c": 7.129346, "alpha": 90.0, "beta": 90.0, "gamma": 90.0, "volume": 185.66272336437854}, "properties": {}, "sites": [{"species": [{"element": "Pu", "occu": 1}], "abc": [0.25, 0.360560999999999, 0.675725999999999], "properties": {"magmom": 5.343}, "label": "Pu", "xyz": [1.11002775, 2.1147544448579945, 4.817484455195993]}, {"species": [{"element": "Pu", "occu": 1}], "abc": [0.25, 0.139439, 0.175726], "properties": {"magmom": 5.343}, "label": "Pu", "xyz": [1.11002775, 0.8178345551420001, 1.252811455196]}, {"species": [{"element": "Pu", "occu": 1}], "abc": [0.75, 0.639439, 0.324274], "properties": {"magmom": 5.343}, "label": "Pu", "xyz": [3.33008325, 3.750423555142, 2.311861544804]}, {"species": [{"element": "Pu", "occu": 1}], "abc": [0.75, 0.860560999999999, 0.824274], "properties": {"magmom": 5.343}, "label": "Pu", "xyz": [3.33008325, 5.047343444857995, 5.876534544804]}, {"species": [{"element": "Pd", "occu": 1}], "abc": [0.25, 0.8541700000000001, 0.545924], "properties": {"magmom": -0.048}, "label": "Pd", "xyz": [1.11002775, 5.009859092260001, 3.8920810857039996]}, {"species": [{"element": "Pd", "occu": 1}], "abc": [0.25, 0.64583, 0.045924], "properties": {"magmom": -0.048}, "label": "Pd", "xyz": [1.11002775, 3.78790790774, 0.327408085704]}, {"species": [{"element": "Pd", "occu": 1}], "abc": [0.75, 0.14583000000000002, 0.454076], "properties": {"magmom": -0.048}, "label": "Pd", "xyz": [3.33008325, 0.8553189077400001, 3.237264914296]}, {"species": [{"element": "Pd", "occu": 1}], "abc": [0.75, 0.35417000000000004, 0.954075999999999], "properties": {"magmom": -0.048}, "label": "Pd", "xyz": [3.33008325, 2.0772700922600005, 6.801937914295993]}]}, "task_ids": null, "uncorrected_energy_per_atom": null, "energy_per_atom": -10.17218697125, "formation_energy_per_atom": -0.213279825624992, "energy_above_hull": 0.10889351583334, "is_stable": false, "equilibrium_reaction_energy_per_atom": null, "decomposes_to": null, "xas": null, "grain_boundaries": null, "band_gap": 0.0, "cbm": null, "vbm": null, "efermi": 8.63721468, "is_gap_direct": null, "is_metal": null, "es_source_calc_id": null, "bandstructure": null, "dos": null, "dos_energy_up": null, "dos_energy_down": null, "is_magnetic": null, "ordering": null, "total_magnetization": 22.700777, "total_magnetization_normalized_vol": null, "total_magnetization_normalized_formula_units": null, "num_magnetic_sites": null, "num_unique_magnetic_sites": null, "types_of_magnetic_species": null, "bulk_modulus": null, "shear_modulus": null, "universal_anisotropy": null, "homogeneous_poisson": null, "e_total": null, "e_ionic": null, "e_electronic": null, "n": null, "e_ij_max": null, "weighted_surface_energy_EV_PER_ANG2": null, "weighted_surface_energy": null, "weighted_work_function": null, "surface_anisotropy": null, "shape_factor": null, "has_reconstructed": null, "possible_species": null, "has_props": null, "theoretical": null, "database_IDs": null, "fields_not_requested": ["builder_meta", "nsites", "elements", "nelements", "composition", "composition_reduced", "chemsys", "symmetry", "property_name", "deprecated", "deprecation_reasons", "last_updated", "origins", "warnings", "task_ids", "uncorrected_energy_per_atom", "equilibrium_reaction_energy_per_atom", "decomposes_to", "xas", "grain_boundaries", "cbm", "vbm", "is_gap_direct", "is_metal", "es_source_calc_id", "bandstructure", "dos", "dos_energy_up", "dos_energy_down", "is_magnetic", "ordering", "total_magnetization_normalized_vol", "total_magnetization_normalized_formula_units", "num_magnetic_sites", "num_unique_magnetic_sites", "types_of_magnetic_species", "bulk_modulus", "shear_modulus", "universal_anisotropy", "homogeneous_poisson", "e_total", "e_ionic", "e_electronic", "n", "e_ij_max", "weighted_surface_energy_EV_PER_ANG2", "weighted_surface_energy", "weighted_work_function", "surface_anisotropy", "shape_factor", "has_reconstructed", "possible_species", "has_props", "theoretical", "database_IDs"]}