{
  "builder_meta": null,
  "nsites": null,
  "elements": null,
  "nelements": null,
  "composition": null,
  "composition_reduced": null,
  "formula_pretty": "PuPt",
  "formula_anonymous": "AB",
  "chemsys": null,
  "volume": 86.59507521679834,
  "density": 16.83966746823854,
  "density_atomic": 21.648768804199584,
  "symmetry": null,
  "property_name": null,
  "material_id": "mp-1065793",
  "deprecated": null,
  "deprecation_reasons": null,
  "last_updated": null,
  "origins": null,
  "warnings": null,
  "structure": {
    "@module": "pymatgen.core.structure",
    "@class": "Structure",
    "charge": 0,
    "lattice": {
      "matrix": [
        [-3.821064, 0.0, 0.0],
        [0.0, 0.0, -4.308981],
        [1.910532, -5.259377, 0.0]
      ],
      "pbc": [true, true, true],
      "a": 3.821064,
      "b": 4.308981,
      "c": 5.595639279935135,
      "alpha": 90.0,
      "beta": 109.96416168418585,
      "gamma": 90.0,
      "volume": 86.59507521679834
    },
    "properties": {},
    "sites": [
      {
        "species": [{ "element": "Pu", "occu": 1 }],
        "abc": [0.864051999999999, 0.25, 0.728104],
        "properties": { "magmom": 5.156 },
        "label": "Pu",
        "xyz": [-1.9105319999999963, -3.829373431208, -1.07724525]
      },
      {
        "species": [{ "element": "Pu", "occu": 1 }],
        "abc": [0.13594799999999901, 0.75, 0.271895999999999],
        "properties": { "magmom": 5.156 },
        "label": "Pu",
        "xyz": [1.887379141862766e-15, -1.4300035687919948, -3.2317357500000004]
      },
      {
        "species": [{ "element": "Pt", "occu": 1 }],
        "abc": [0.595998, 0.25, 0.191996],
        "properties": { "magmom": -0.08 },
        "label": "Pt",
        "xyz": [-1.9105320000000001, -1.009779346492, -1.07724525]
      },
      {
        "species": [{ "element": "Pt", "occu": 1 }],
        "abc": [0.404002, 0.75, 0.808004],
        "properties": { "magmom": -0.08 },
        "label": "Pt",
        "xyz": [0.0, -4.249597653507999, -3.2317357500000004]
      }
    ]
  },
  "task_ids": null,
  "uncorrected_energy_per_atom": null,
  "energy_per_atom": -10.9555153825,
  "formation_energy_per_atom": -0.550982481874992,
  "energy_above_hull": 0.0,
  "is_stable": true,
  "equilibrium_reaction_energy_per_atom": null,
  "decomposes_to": null,
  "xas": null,
  "grain_boundaries": null,
  "band_gap": 0.0,
  "cbm": null,
  "vbm": null,
  "efermi": 10.12766015,
  "is_gap_direct": null,
  "is_metal": null,
  "es_source_calc_id": null,
  "bandstructure": null,
  "dos": null,
  "dos_energy_up": null,
  "dos_energy_down": null,
  "is_magnetic": null,
  "ordering": null,
  "total_magnetization": 10.7208726,
  "total_magnetization_normalized_vol": null,
  "total_magnetization_normalized_formula_units": null,
  "num_magnetic_sites": null,
  "num_unique_magnetic_sites": null,
  "types_of_magnetic_species": null,
  "bulk_modulus": null,
  "shear_modulus": null,
  "universal_anisotropy": null,
  "homogeneous_poisson": null,
  "e_total": null,
  "e_ionic": null,
  "e_electronic": null,
  "n": null,
  "e_ij_max": null,
  "weighted_surface_energy_EV_PER_ANG2": null,
  "weighted_surface_energy": null,
  "weighted_work_function": null,
  "surface_anisotropy": null,
  "shape_factor": null,
  "has_reconstructed": null,
  "possible_species": null,
  "has_props": null,
  "theoretical": null,
  "database_IDs": null,
  "fields_not_requested": [
    "builder_meta",
    "nsites",
    "elements",
    "nelements",
    "composition",
    "composition_reduced",
    "chemsys",
    "symmetry",
    "property_name",
    "deprecated",
    "deprecation_reasons",
    "last_updated",
    "origins",
    "warnings",
    "task_ids",
    "uncorrected_energy_per_atom",
    "equilibrium_reaction_energy_per_atom",
    "decomposes_to",
    "xas",
    "grain_boundaries",
    "cbm",
    "vbm",
    "is_gap_direct",
    "is_metal",
    "es_source_calc_id",
    "bandstructure",
    "dos",
    "dos_energy_up",
    "dos_energy_down",
    "is_magnetic",
    "ordering",
    "total_magnetization_normalized_vol",
    "total_magnetization_normalized_formula_units",
    "num_magnetic_sites",
    "num_unique_magnetic_sites",
    "types_of_magnetic_species",
    "bulk_modulus",
    "shear_modulus",
    "universal_anisotropy",
    "homogeneous_poisson",
    "e_total",
    "e_ionic",
    "e_electronic",
    "n",
    "e_ij_max",
    "weighted_surface_energy_EV_PER_ANG2",
    "weighted_surface_energy",
    "weighted_work_function",
    "surface_anisotropy",
    "shape_factor",
    "has_reconstructed",
    "possible_species",
    "has_props",
    "theoretical",
    "database_IDs"
  ]
}
