{"builder_meta": null, "nsites": null, "elements": null, "nelements": null, "composition": null, "composition_reduced": null, "formula_pretty": "PuPt4", "formula_anonymous": "AB4", "chemsys": null, "volume": 100.19342638567133, "density": 16.97666210932208, "density_atomic": 20.038685277134267, "symmetry": null, "property_name": null, "material_id": "mp-27659", "deprecated": null, "deprecation_reasons": null, "last_updated": null, "origins": null, "warnings": null, "structure": {"@module": "pymatgen.core.structure", "@class": "Structure", "charge": 0, "lattice": {"matrix": [[2.699268, -4.246596, 0.0], [2.699268, 4.246596, 0.0], [0.0, 0.0, 4.370411]], "pbc": [true, true, true], "a": 5.031861019845441, "b": 5.031861019845441, "c": 4.370411, "alpha": 90.0, "beta": 90.0, "gamma": 115.11739189546167, "volume": 100.19342638567133}, "properties": {}, "sites": [{"species": [{"element": "Pu", "occu": 1}], "abc": [0.0, 0.0, 0.0], "properties": {"magmom": 4.878}, "label": "Pu", "xyz": [0.0, 0.0, 0.0]}, {"species": [{"element": "Pt", "occu": 1}], "abc": [0.658558, 0.341441999999999, 0.0], "properties": {"magmom": -0.155}, "label": "Pt", "xyz": [2.6992679999999973, -1.3466635371360043, 0.0]}, {"species": [{"element": "Pt", "occu": 1}], "abc": [0.341441999999999, 0.658558, 0.0], "properties": {"magmom": -0.155}, "label": "Pt", "xyz": [2.6992679999999973, 1.3466635371360043, 0.0]}, {"species": [{"element": "Pt", "occu": 1}], "abc": [0.0, 0.5, 0.5], "properties": {"magmom": -0.10300000000000001}, "label": "Pt", "xyz": [1.349634, 2.123298, 2.1852055]}, {"species": [{"element": "Pt", "occu": 1}], "abc": [0.5, 0.0, 0.5], "properties": {"magmom": -0.114}, "label": "Pt", "xyz": [1.349634, -2.123298, 2.1852055]}]}, "task_ids": null, "uncorrected_energy_per_atom": null, "energy_per_atom": -8.112110032, "formation_energy_per_atom": -0.307616879749996, "energy_above_hull": 0.19621180199999702, "is_stable": false, "equilibrium_reaction_energy_per_atom": null, "decomposes_to": null, "xas": null, "grain_boundaries": null, "band_gap": 0.0, "cbm": null, "vbm": null, "efermi": 7.15890701, "is_gap_direct": null, "is_metal": null, "es_source_calc_id": null, "bandstructure": null, "dos": null, "dos_energy_up": null, "dos_energy_down": null, "is_magnetic": null, "ordering": null, "total_magnetization": 4.53312, "total_magnetization_normalized_vol": null, "total_magnetization_normalized_formula_units": null, "num_magnetic_sites": null, "num_unique_magnetic_sites": null, "types_of_magnetic_species": null, "bulk_modulus": null, "shear_modulus": null, "universal_anisotropy": null, "homogeneous_poisson": null, "e_total": null, "e_ionic": null, "e_electronic": null, "n": null, "e_ij_max": null, "weighted_surface_energy_EV_PER_ANG2": null, "weighted_surface_energy": null, "weighted_work_function": null, "surface_anisotropy": null, "shape_factor": null, "has_reconstructed": null, "possible_species": null, "has_props": null, "theoretical": null, "database_IDs": null, "fields_not_requested": ["builder_meta", "nsites", "elements", "nelements", "composition", "composition_reduced", "chemsys", "symmetry", "property_name", "deprecated", "deprecation_reasons", "last_updated", "origins", "warnings", "task_ids", "uncorrected_energy_per_atom", "equilibrium_reaction_energy_per_atom", "decomposes_to", "xas", "grain_boundaries", "cbm", "vbm", "is_gap_direct", "is_metal", "es_source_calc_id", "bandstructure", "dos", "dos_energy_up", "dos_energy_down", "is_magnetic", "ordering", "total_magnetization_normalized_vol", "total_magnetization_normalized_formula_units", "num_magnetic_sites", "num_unique_magnetic_sites", "types_of_magnetic_species", "bulk_modulus", "shear_modulus", "universal_anisotropy", "homogeneous_poisson", "e_total", "e_ionic", "e_electronic", "n", "e_ij_max", "weighted_surface_energy_EV_PER_ANG2", "weighted_surface_energy", "weighted_work_function", "surface_anisotropy", "shape_factor", "has_reconstructed", "possible_species", "has_props", "theoretical", "database_IDs"]}