{
  "builder_meta": null,
  "nsites": null,
  "elements": null,
  "nelements": null,
  "composition": null,
  "composition_reduced": null,
  "formula_pretty": "PuPt5",
  "formula_anonymous": "AB5",
  "chemsys": null,
  "volume": 109.66769344610147,
  "density": 18.463911157104345,
  "density_atomic": 18.277948907683577,
  "symmetry": null,
  "property_name": null,
  "material_id": "mp-7751",
  "deprecated": null,
  "deprecation_reasons": null,
  "last_updated": null,
  "origins": null,
  "warnings": null,
  "structure": {
    "@module": "pymatgen.core.structure",
    "@class": "Structure",
    "charge": 0,
    "lattice": {
      "matrix": [
        [2.6816717, -4.64439045, 3.172e-5],
        [2.674518469999999, 4.64021596, 0.00022125],
        [-0.00100821, -0.00061972, 4.41051673]
      ],
      "pbc": [true, true, true],
      "a": 5.362995968639008,
      "b": 5.355805565063151,
      "c": 4.410516888772809,
      "alpha": 90.01114846837217,
      "beta": 89.99923834801919,
      "gamma": 120.03965400602743,
      "volume": 109.66769344610144
    },
    "properties": {},
    "sites": [
      {
        "species": [{ "element": "Pu", "occu": 1 }],
        "abc": [0.0, -4.4e-7, -8.9e-7],
        "properties": { "magmom": 4.979 },
        "label": "Pu",
        "xyz": [-1.1758908198999995e-6, -2.0411434716e-6, -3.9254572397e-6]
      },
      {
        "species": [{ "element": "Pt", "occu": 1 }],
        "abc": [-2.189999999999999e-6, 0.50000192, 0.50000308],
        "properties": { "magmom": -0.028 },
        "label": "Pt",
        "xyz": [1.336754389109152, 2.319817198520991, 2.205382574746862]
      },
      {
        "species": [{ "element": "Pt", "occu": 1 }],
        "abc": [0.3330413, 0.66612363, -0.00032789],
        "properties": { "magmom": -0.067 },
        "label": "Pt",
        "xyz": [2.674667711461632, 1.5441838692835401, -0.0012882204074262003]
      },
      {
        "species": [{ "element": "Pt", "occu": 1 }],
        "abc": [0.66695845, 0.333876399999999, 0.00032853],
        "properties": { "magmom": -0.067 },
        "label": "Pt",
        "xyz": [2.6815218677107384, -1.548357059376075, 0.0015440131368409]
      },
      {
        "species": [{ "element": "Pt", "occu": 1 }],
        "abc": [0.49999889000000003, -1.66e-6, 0.50000029],
        "properties": { "magmom": -0.03 },
        "label": "Pt",
        "xyz": [1.340324328351372, -2.3225076326648133, 2.2052755036473677]
      },
      {
        "species": [{ "element": "Pt", "occu": 1 }],
        "abc": [0.50000355, 0.50000016, 0.49999688000000003],
        "properties": { "magmom": -0.028 },
        "label": "Pt",
        "xyz": [2.677600931003105, -0.0024128482180172934, 2.205371089335809]
      }
    ]
  },
  "task_ids": null,
  "uncorrected_energy_per_atom": null,
  "energy_per_atom": -7.956562021666666,
  "formation_energy_per_atom": -0.44096217479166205,
  "energy_above_hull": 0.0,
  "is_stable": true,
  "equilibrium_reaction_energy_per_atom": null,
  "decomposes_to": null,
  "xas": null,
  "grain_boundaries": null,
  "band_gap": 0.0,
  "cbm": null,
  "vbm": null,
  "efermi": 8.26343464,
  "is_gap_direct": null,
  "is_metal": null,
  "es_source_calc_id": null,
  "bandstructure": null,
  "dos": null,
  "dos_energy_up": null,
  "dos_energy_down": null,
  "is_magnetic": null,
  "ordering": null,
  "total_magnetization": 4.9169868,
  "total_magnetization_normalized_vol": null,
  "total_magnetization_normalized_formula_units": null,
  "num_magnetic_sites": null,
  "num_unique_magnetic_sites": null,
  "types_of_magnetic_species": null,
  "bulk_modulus": null,
  "shear_modulus": null,
  "universal_anisotropy": null,
  "homogeneous_poisson": null,
  "e_total": null,
  "e_ionic": null,
  "e_electronic": null,
  "n": null,
  "e_ij_max": null,
  "weighted_surface_energy_EV_PER_ANG2": null,
  "weighted_surface_energy": null,
  "weighted_work_function": null,
  "surface_anisotropy": null,
  "shape_factor": null,
  "has_reconstructed": null,
  "possible_species": null,
  "has_props": null,
  "theoretical": null,
  "database_IDs": null,
  "fields_not_requested": [
    "builder_meta",
    "nsites",
    "elements",
    "nelements",
    "composition",
    "composition_reduced",
    "chemsys",
    "symmetry",
    "property_name",
    "deprecated",
    "deprecation_reasons",
    "last_updated",
    "origins",
    "warnings",
    "task_ids",
    "uncorrected_energy_per_atom",
    "equilibrium_reaction_energy_per_atom",
    "decomposes_to",
    "xas",
    "grain_boundaries",
    "cbm",
    "vbm",
    "is_gap_direct",
    "is_metal",
    "es_source_calc_id",
    "bandstructure",
    "dos",
    "dos_energy_up",
    "dos_energy_down",
    "is_magnetic",
    "ordering",
    "total_magnetization_normalized_vol",
    "total_magnetization_normalized_formula_units",
    "num_magnetic_sites",
    "num_unique_magnetic_sites",
    "types_of_magnetic_species",
    "bulk_modulus",
    "shear_modulus",
    "universal_anisotropy",
    "homogeneous_poisson",
    "e_total",
    "e_ionic",
    "e_electronic",
    "n",
    "e_ij_max",
    "weighted_surface_energy_EV_PER_ANG2",
    "weighted_surface_energy",
    "weighted_work_function",
    "surface_anisotropy",
    "shape_factor",
    "has_reconstructed",
    "possible_species",
    "has_props",
    "theoretical",
    "database_IDs"
  ]
}
