{"builder_meta": null, "nsites": null, "elements": null, "nelements": null, "composition": null, "composition_reduced": null, "formula_pretty": "PuRe2", "formula_anonymous": "AB2", "chemsys": null, "volume": 215.46764576407435, "density": 19.00200885510092, "density_atomic": 17.955637147006197, "symmetry": null, "property_name": null, "material_id": "mp-1103797", "deprecated": null, "deprecation_reasons": null, "last_updated": null, "origins": null, "warnings": null, "structure": {"@module": "pymatgen.core.structure", "@class": "Structure", "charge": 0, "lattice": {"matrix": [[-2.7795900000000002, -4.871018, 0.0], [-2.7795900000000002, 4.871018, 0.0], [0.0, 0.0, -7.957041]], "pbc": [true, true, true], "a": 5.608291800934042, "b": 5.608291800934042, "c": 7.957041, "alpha": 90.0, "beta": 90.0, "gamma": 120.57851767225937, "volume": 215.46764576407438}, "properties": {}, "sites": [{"species": [{"element": "Pu", "occu": 1}], "abc": [0.66666, 0.33334, 0.603352], "properties": {"magmom": 0.009000000000000001}, "label": "Pu", "xyz": [-2.7795900000000002, -1.6236077197600003, -4.800896601432]}, {"species": [{"element": "Pu", "occu": 1}], "abc": [0.33334, 0.66666, 0.396648], "properties": {"magmom": 0.009000000000000001}, "label": "Pu", "xyz": [-2.7795900000000002, 1.6236077197600003, -3.156144398568]}, {"species": [{"element": "Pu", "occu": 1}], "abc": [0.33334, 0.66666, 0.103352], "properties": {"magmom": 0.009000000000000001}, "label": "Pu", "xyz": [-2.7795900000000002, 1.6236077197600003, -0.822376101432]}, {"species": [{"element": "Pu", "occu": 1}], "abc": [0.66666, 0.33334, 0.896648], "properties": {"magmom": 0.009000000000000001}, "label": "Pu", "xyz": [-2.7795900000000002, -1.6236077197600003, -7.134664898568]}, {"species": [{"element": "Re", "occu": 1}], "abc": [0.0, 0.0, 0.5], "properties": {"magmom": 0.001}, "label": "Re", "xyz": [0.0, 0.0, -3.9785205]}, {"species": [{"element": "Re", "occu": 1}], "abc": [0.0, 0.0, 0.0], "properties": {"magmom": 0.001}, "label": "Re", "xyz": [0.0, 0.0, 0.0]}, {"species": [{"element": "Re", "occu": 1}], "abc": [0.173465999999999, 0.346831, 0.75], "properties": {"magmom": 0.001}, "label": "Re", "xyz": [-1.4462123382299974, 0.8444640355700048, -5.96778075]}, {"species": [{"element": "Re", "occu": 1}], "abc": [0.172479, 0.827521, 0.75], "properties": {"magmom": 0.001}, "label": "Re", "xyz": [-2.77959, 3.1907213727559998, -5.96778075]}, {"species": [{"element": "Re", "occu": 1}], "abc": [0.653169, 0.826534, 0.75], "properties": {"magmom": 0.001}, "label": "Re", "xyz": [-4.11296766177, 0.8444640355699997, -5.96778075]}, {"species": [{"element": "Re", "occu": 1}], "abc": [0.826534, 0.653169, 0.25], "properties": {"magmom": 0.001}, "label": "Re", "xyz": [-4.11296766177, -0.8444640355699997, -1.98926025]}, {"species": [{"element": "Re", "occu": 1}], "abc": [0.827521, 0.172479, 0.25], "properties": {"magmom": 0.001}, "label": "Re", "xyz": [-2.77959, -3.1907213727559998, -1.98926025]}, {"species": [{"element": "Re", "occu": 1}], "abc": [0.346831, 0.173465999999999, 0.25], "properties": {"magmom": 0.001}, "label": "Re", "xyz": [-1.4462123382299974, -0.8444640355700048, -1.98926025]}]}, "task_ids": null, "uncorrected_energy_per_atom": null, "energy_per_atom": -63.40312303875, "formation_energy_per_atom": 0.32273615000000605, "energy_above_hull": 0.32273615000000405, "is_stable": false, "equilibrium_reaction_energy_per_atom": null, "decomposes_to": null, "xas": null, "grain_boundaries": null, "band_gap": 0.0, "cbm": null, "vbm": null, "efermi": 9.71224453, "is_gap_direct": null, "is_metal": null, "es_source_calc_id": null, "bandstructure": null, "dos": null, "dos_energy_up": null, "dos_energy_down": null, "is_magnetic": null, "ordering": null, "total_magnetization": 0.043250199999999, "total_magnetization_normalized_vol": null, "total_magnetization_normalized_formula_units": null, "num_magnetic_sites": null, "num_unique_magnetic_sites": null, "types_of_magnetic_species": null, "bulk_modulus": null, "shear_modulus": null, "universal_anisotropy": null, "homogeneous_poisson": null, "e_total": null, "e_ionic": null, "e_electronic": null, "n": null, "e_ij_max": null, "weighted_surface_energy_EV_PER_ANG2": null, "weighted_surface_energy": null, "weighted_work_function": null, "surface_anisotropy": null, "shape_factor": null, "has_reconstructed": null, "possible_species": null, "has_props": null, "theoretical": null, "database_IDs": null, "fields_not_requested": ["builder_meta", "nsites", "elements", "nelements", "composition", "composition_reduced", "chemsys", "symmetry", "property_name", "deprecated", "deprecation_reasons", "last_updated", "origins", "warnings", "task_ids", "uncorrected_energy_per_atom", "equilibrium_reaction_energy_per_atom", "decomposes_to", "xas", "grain_boundaries", "cbm", "vbm", "is_gap_direct", "is_metal", "es_source_calc_id", "bandstructure", "dos", "dos_energy_up", "dos_energy_down", "is_magnetic", "ordering", "total_magnetization_normalized_vol", "total_magnetization_normalized_formula_units", "num_magnetic_sites", "num_unique_magnetic_sites", "types_of_magnetic_species", "bulk_modulus", "shear_modulus", "universal_anisotropy", "homogeneous_poisson", "e_total", "e_ionic", "e_electronic", "n", "e_ij_max", "weighted_surface_energy_EV_PER_ANG2", "weighted_surface_energy", "weighted_work_function", "surface_anisotropy", "shape_factor", "has_reconstructed", "possible_species", "has_props", "theoretical", "database_IDs"]}