{
  "builder_meta": null,
  "nsites": null,
  "elements": null,
  "nelements": null,
  "composition": null,
  "composition_reduced": null,
  "formula_pretty": "PuS2",
  "formula_anonymous": "AB2",
  "chemsys": null,
  "volume": 122.66890317217229,
  "density": 8.342161531734142,
  "density_atomic": 20.44481719536205,
  "symmetry": null,
  "property_name": null,
  "material_id": "mp-639690",
  "deprecated": null,
  "deprecation_reasons": null,
  "last_updated": null,
  "origins": null,
  "warnings": null,
  "structure": {
    "@module": "pymatgen.core.structure",
    "@class": "Structure",
    "charge": 0,
    "lattice": {
      "matrix": [
        [3.97334985, 0.0, -0.0],
        [0.0, 3.97334985, 0.0],
        [0.0, 0.0, 7.76999734]
      ],
      "pbc": [true, true, true],
      "a": 3.97334985,
      "b": 3.97334985,
      "c": 7.76999734,
      "alpha": 90.0,
      "beta": 90.0,
      "gamma": 90.0,
      "volume": 122.66890317217229
    },
    "properties": {},
    "sites": [
      {
        "species": [{ "element": "Pu", "occu": 1 }],
        "abc": [0.0, 0.0, -0.00150275],
        "properties": { "magmom": 4.835 },
        "label": "Pu",
        "xyz": [0.0, 0.0, -0.011676363502685]
      },
      {
        "species": [{ "element": "Pu", "occu": 1 }],
        "abc": [0.5, 0.5, 0.46550275],
        "properties": { "magmom": 4.835 },
        "label": "Pu",
        "xyz": [1.986674925, 1.986674925, 3.616955129262685]
      },
      {
        "species": [{ "element": "S", "occu": 1 }],
        "abc": [0.5, 0.5, 0.09217627],
        "properties": { "magmom": -0.097 },
        "label": "S",
        "xyz": [1.986674925, 1.986674925, 0.7162093727111218]
      },
      {
        "species": [{ "element": "S", "occu": 1 }],
        "abc": [0.0, 0.5, 0.732],
        "properties": { "magmom": -0.111 },
        "label": "S",
        "xyz": [0.0, 1.986674925, 5.68763805288]
      },
      {
        "species": [{ "element": "S", "occu": 1 }],
        "abc": [0.5, 0.0, 0.732],
        "properties": { "magmom": -0.111 },
        "label": "S",
        "xyz": [1.986674925, 0.0, 5.68763805288]
      },
      {
        "species": [{ "element": "S", "occu": 1 }],
        "abc": [0.0, -0.0, 0.37182373],
        "properties": { "magmom": -0.097 },
        "label": "S",
        "xyz": [0.0, 0.0, 2.8890693930488784]
      }
    ]
  },
  "task_ids": null,
  "uncorrected_energy_per_atom": null,
  "energy_per_atom": -9.265208618333332,
  "formation_energy_per_atom": -1.593658079583328,
  "energy_above_hull": 0.0,
  "is_stable": true,
  "equilibrium_reaction_energy_per_atom": null,
  "decomposes_to": null,
  "xas": null,
  "grain_boundaries": null,
  "band_gap": 0.0,
  "cbm": null,
  "vbm": null,
  "efermi": 9.40796821,
  "is_gap_direct": null,
  "is_metal": null,
  "es_source_calc_id": null,
  "bandstructure": null,
  "dos": null,
  "dos_energy_up": null,
  "dos_energy_down": null,
  "is_magnetic": null,
  "ordering": null,
  "total_magnetization": 9.3760736,
  "total_magnetization_normalized_vol": null,
  "total_magnetization_normalized_formula_units": null,
  "num_magnetic_sites": null,
  "num_unique_magnetic_sites": null,
  "types_of_magnetic_species": null,
  "bulk_modulus": null,
  "shear_modulus": null,
  "universal_anisotropy": null,
  "homogeneous_poisson": null,
  "e_total": null,
  "e_ionic": null,
  "e_electronic": null,
  "n": null,
  "e_ij_max": null,
  "weighted_surface_energy_EV_PER_ANG2": null,
  "weighted_surface_energy": null,
  "weighted_work_function": null,
  "surface_anisotropy": null,
  "shape_factor": null,
  "has_reconstructed": null,
  "possible_species": null,
  "has_props": null,
  "theoretical": null,
  "database_IDs": null,
  "fields_not_requested": [
    "builder_meta",
    "nsites",
    "elements",
    "nelements",
    "composition",
    "composition_reduced",
    "chemsys",
    "symmetry",
    "property_name",
    "deprecated",
    "deprecation_reasons",
    "last_updated",
    "origins",
    "warnings",
    "task_ids",
    "uncorrected_energy_per_atom",
    "equilibrium_reaction_energy_per_atom",
    "decomposes_to",
    "xas",
    "grain_boundaries",
    "cbm",
    "vbm",
    "is_gap_direct",
    "is_metal",
    "es_source_calc_id",
    "bandstructure",
    "dos",
    "dos_energy_up",
    "dos_energy_down",
    "is_magnetic",
    "ordering",
    "total_magnetization_normalized_vol",
    "total_magnetization_normalized_formula_units",
    "num_magnetic_sites",
    "num_unique_magnetic_sites",
    "types_of_magnetic_species",
    "bulk_modulus",
    "shear_modulus",
    "universal_anisotropy",
    "homogeneous_poisson",
    "e_total",
    "e_ionic",
    "e_electronic",
    "n",
    "e_ij_max",
    "weighted_surface_energy_EV_PER_ANG2",
    "weighted_surface_energy",
    "weighted_work_function",
    "surface_anisotropy",
    "shape_factor",
    "has_reconstructed",
    "possible_species",
    "has_props",
    "theoretical",
    "database_IDs"
  ]
}
