{"builder_meta": null, "nsites": null, "elements": null, "nelements": null, "composition": null, "composition_reduced": null, "formula_pretty": "PuSb2", "formula_anonymous": "AB2", "chemsys": null, "volume": 319.90603005202223, "density": 10.122297546153609, "density_atomic": 26.65883583766852, "symmetry": null, "property_name": null, "material_id": "mp-1102456", "deprecated": null, "deprecation_reasons": null, "last_updated": null, "origins": null, "warnings": null, "structure": {"@module": "pymatgen.core.structure", "@class": "Structure", "charge": 0, "lattice": {"matrix": [[3.0791215, 3.04835366, 0.0], [-3.0791215, 3.04835366, 0.0], [0.0, 0.0, 17.04120314]], "pbc": [true, true, true], "a": 4.332833858826997, "b": 4.332833858826997, "c": 17.04120314, "alpha": 90.0, "beta": 90.0, "gamma": 90.57539280535099, "volume": 319.90603005202223}, "properties": {}, "sites": [{"species": [{"element": "Pu", "occu": 1}], "abc": [0.35839501, 0.35839501, 0.8928779], "properties": {"magmom": 5.2}, "label": "Pu", "xyz": [0.0, 2.185029480918473, 15.215713673116607]}, {"species": [{"element": "Pu", "occu": 1}], "abc": [0.64160499, 0.64160499, 0.1071221], "properties": {"magmom": 5.2}, "label": "Pu", "xyz": [0.0, 3.911677839081527, 1.825489466883394]}, {"species": [{"element": "Pu", "occu": 1}], "abc": [0.14160499000000001, 0.14160499000000001, 0.3928779], "properties": {"magmom": 5.2}, "label": "Pu", "xyz": [0.0, 0.8633241790815269, 6.695112103116606]}, {"species": [{"element": "Pu", "occu": 1}], "abc": [0.8583950100000001, 0.8583950100000001, 0.6071221], "properties": {"magmom": 5.2}, "label": "Pu", "xyz": [0.0, 5.233383140918474, 10.346091036883394]}, {"species": [{"element": "Sb", "occu": 1}], "abc": [0.35916401000000003, 0.35916401000000003, 0.56963832], "properties": {"magmom": -0.153}, "label": "Sb", "xyz": [0.0, 2.1897178488475535, 9.707322327448326]}, {"species": [{"element": "Sb", "occu": 1}], "abc": [0.64083599, 0.64083599, 0.43036168], "properties": {"magmom": -0.153}, "label": "Sb", "xyz": [0.0, 3.906989471152447, 7.3338808125516755]}, {"species": [{"element": "Sb", "occu": 1}], "abc": [0.14083599, 0.14083599, 0.06963832], "properties": {"magmom": -0.153}, "label": "Sb", "xyz": [0.0, 0.8586358111524468, 1.186720757448325]}, {"species": [{"element": "Sb", "occu": 1}], "abc": [0.85916401, 0.85916401, 0.93036168], "properties": {"magmom": -0.153}, "label": "Sb", "xyz": [0.0, 5.238071508847553, 15.854482382551675]}, {"species": [{"element": "Sb", "occu": 1}], "abc": [0.87350918, 0.37350918, 0.75], "properties": {"magmom": -0.097}, "label": "Sb", "xyz": [1.53956075, 3.8013529817931975, 12.780902355]}, {"species": [{"element": "Sb", "occu": 1}], "abc": [0.62649082, 0.12649082, 0.25], "properties": {"magmom": -0.097}, "label": "Sb", "xyz": [1.5395607500000001, 2.2953543382068027, 4.260300785]}, {"species": [{"element": "Sb", "occu": 1}], "abc": [0.12649082, 0.62649082, 0.25], "properties": {"magmom": -0.097}, "label": "Sb", "xyz": [-1.5395607500000001, 2.2953543382068027, 4.260300785]}, {"species": [{"element": "Sb", "occu": 1}], "abc": [0.37350918, 0.87350918, 0.75], "properties": {"magmom": -0.097}, "label": "Sb", "xyz": [-1.53956075, 3.8013529817931975, 12.780902355]}]}, "task_ids": null, "uncorrected_energy_per_atom": null, "energy_per_atom": -8.136963955833334, "formation_energy_per_atom": -0.47165230208332903, "energy_above_hull": 0.0, "is_stable": true, "equilibrium_reaction_energy_per_atom": null, "decomposes_to": null, "xas": null, "grain_boundaries": null, "band_gap": 0.0, "cbm": null, "vbm": null, "efermi": 9.038988, "is_gap_direct": null, "is_metal": null, "es_source_calc_id": null, "bandstructure": null, "dos": null, "dos_energy_up": null, "dos_energy_down": null, "is_magnetic": null, "ordering": null, "total_magnetization": 19.706324, "total_magnetization_normalized_vol": null, "total_magnetization_normalized_formula_units": null, "num_magnetic_sites": null, "num_unique_magnetic_sites": null, "types_of_magnetic_species": null, "bulk_modulus": null, "shear_modulus": null, "universal_anisotropy": null, "homogeneous_poisson": null, "e_total": null, "e_ionic": null, "e_electronic": null, "n": null, "e_ij_max": null, "weighted_surface_energy_EV_PER_ANG2": null, "weighted_surface_energy": null, "weighted_work_function": null, "surface_anisotropy": null, "shape_factor": null, "has_reconstructed": null, "possible_species": null, "has_props": null, "theoretical": null, "database_IDs": null, "fields_not_requested": ["builder_meta", "nsites", "elements", "nelements", "composition", "composition_reduced", "chemsys", "symmetry", "property_name", "deprecated", "deprecation_reasons", "last_updated", "origins", "warnings", "task_ids", "uncorrected_energy_per_atom", "equilibrium_reaction_energy_per_atom", "decomposes_to", "xas", "grain_boundaries", "cbm", "vbm", "is_gap_direct", "is_metal", "es_source_calc_id", "bandstructure", "dos", "dos_energy_up", "dos_energy_down", "is_magnetic", "ordering", "total_magnetization_normalized_vol", "total_magnetization_normalized_formula_units", "num_magnetic_sites", "num_unique_magnetic_sites", "types_of_magnetic_species", "bulk_modulus", "shear_modulus", "universal_anisotropy", "homogeneous_poisson", "e_total", "e_ionic", "e_electronic", "n", "e_ij_max", "weighted_surface_energy_EV_PER_ANG2", "weighted_surface_energy", "weighted_work_function", "surface_anisotropy", "shape_factor", "has_reconstructed", "possible_species", "has_props", "theoretical", "database_IDs"]}