{
  "builder_meta": null,
  "nsites": null,
  "elements": null,
  "nelements": null,
  "composition": null,
  "composition_reduced": null,
  "formula_pretty": "PuSb3",
  "formula_anonymous": "AB3",
  "chemsys": null,
  "volume": 216.6308623081659,
  "density": 9.34061963026134,
  "density_atomic": 27.078857788520736,
  "symmetry": null,
  "property_name": null,
  "material_id": "mp-863035",
  "deprecated": null,
  "deprecation_reasons": null,
  "last_updated": null,
  "origins": null,
  "warnings": null,
  "structure": {
    "@module": "pymatgen.core.structure",
    "@class": "Structure",
    "charge": 0,
    "lattice": {
      "matrix": [
        [3.22638674, -5.59440607, -0.00011971],
        [3.23273335, 5.59800713, 0.0007212200000000001],
        [0.00046926, 0.00033025000000000003, 5.9931255]
      ],
      "pbc": [true, true, true],
      "a": 6.458091876586392,
      "b": 6.464383130654568,
      "c": 5.993125527470641,
      "alpha": 89.98862998634527,
      "beta": 90.00155581371843,
      "gamma": 120.02169291791334,
      "volume": 216.63086230816586
    },
    "properties": {},
    "sites": [
      {
        "species": [{ "element": "Pu", "occu": 1 }],
        "abc": [0.33382512000000003, 0.66674113, 0.74999997],
        "properties": { "magmom": 5.21 },
        "label": "Pu",
        "xyz": [3.232797172400517, 1.865116009447871, 4.495284850038898]
      },
      {
        "species": [{ "element": "Pu", "occu": 1 }],
        "abc": [0.66860364, 0.3342418, 0.24998413],
        "properties": { "magmom": 5.207 },
        "label": "Pu",
        "xyz": [3.2378058397886083, -1.8692697252371286, 1.4983472874275665]
      },
      {
        "species": [{ "element": "Sb", "occu": 1 }],
        "abc": [0.17565736, 0.35124232, 0.2500302],
        "properties": { "magmom": -0.038 },
        "label": "Sb",
        "xyz": [1.7023286680544307, 0.9836409831671163, 1.4986946624335646]
      },
      {
        "species": [{ "element": "Sb", "occu": 1 }],
        "abc": [0.64737644, 0.82370869, 0.24998149],
        "properties": { "magmom": -0.022 },
        "label": "Sb",
        "xyz": [4.751634620966215, 0.9895229905390417, 1.4986870199947644]
      },
      {
        "species": [{ "element": "Sb", "occu": 1 }],
        "abc": [0.17558504, 0.8244661600000001, 0.25003441],
        "properties": { "magmom": -0.04 },
        "label": "Sb",
        "xyz": [3.2319018273240423, 3.6331560024104306, 1.4990612006472317]
      },
      {
        "species": [{ "element": "Sb", "occu": 1 }],
        "abc": [0.82408657, 0.64825606, 0.7499669],
        "properties": { "magmom": -0.03 },
        "label": "Sb",
        "xyz": [4.754812896029177, -0.9810851868990461, 4.495014636378248]
      },
      {
        "species": [{ "element": "Sb", "occu": 1 }],
        "abc": [0.35099641, 0.17555801000000001, 0.75003096],
        "properties": { "magmom": -0.043000000000000003 },
        "label": "Sb",
        "xyz": [1.7003343563265265, -0.9805937572190572, 4.495114270333212]
      },
      {
        "species": [{ "element": "Sb", "occu": 1 }],
        "abc": [0.82386942, 0.17578584, 0.74997194],
        "properties": { "magmom": -0.028 },
        "label": "Sb",
        "xyz": [3.226742051437819, -3.624762020229155, 4.494704112753727]
      }
    ]
  },
  "task_ids": null,
  "uncorrected_energy_per_atom": null,
  "energy_per_atom": -7.149294068750002,
  "formation_energy_per_atom": -0.368060018437498,
  "energy_above_hull": 0.0,
  "is_stable": true,
  "equilibrium_reaction_energy_per_atom": null,
  "decomposes_to": null,
  "xas": null,
  "grain_boundaries": null,
  "band_gap": 0.0,
  "cbm": null,
  "vbm": null,
  "efermi": 10.1811487,
  "is_gap_direct": null,
  "is_metal": null,
  "es_source_calc_id": null,
  "bandstructure": null,
  "dos": null,
  "dos_energy_up": null,
  "dos_energy_down": null,
  "is_magnetic": null,
  "ordering": null,
  "total_magnetization": 10.4345242,
  "total_magnetization_normalized_vol": null,
  "total_magnetization_normalized_formula_units": null,
  "num_magnetic_sites": null,
  "num_unique_magnetic_sites": null,
  "types_of_magnetic_species": null,
  "bulk_modulus": null,
  "shear_modulus": null,
  "universal_anisotropy": null,
  "homogeneous_poisson": null,
  "e_total": null,
  "e_ionic": null,
  "e_electronic": null,
  "n": null,
  "e_ij_max": null,
  "weighted_surface_energy_EV_PER_ANG2": null,
  "weighted_surface_energy": null,
  "weighted_work_function": null,
  "surface_anisotropy": null,
  "shape_factor": null,
  "has_reconstructed": null,
  "possible_species": null,
  "has_props": null,
  "theoretical": null,
  "database_IDs": null,
  "fields_not_requested": [
    "builder_meta",
    "nsites",
    "elements",
    "nelements",
    "composition",
    "composition_reduced",
    "chemsys",
    "symmetry",
    "property_name",
    "deprecated",
    "deprecation_reasons",
    "last_updated",
    "origins",
    "warnings",
    "task_ids",
    "uncorrected_energy_per_atom",
    "equilibrium_reaction_energy_per_atom",
    "decomposes_to",
    "xas",
    "grain_boundaries",
    "cbm",
    "vbm",
    "is_gap_direct",
    "is_metal",
    "es_source_calc_id",
    "bandstructure",
    "dos",
    "dos_energy_up",
    "dos_energy_down",
    "is_magnetic",
    "ordering",
    "total_magnetization_normalized_vol",
    "total_magnetization_normalized_formula_units",
    "num_magnetic_sites",
    "num_unique_magnetic_sites",
    "types_of_magnetic_species",
    "bulk_modulus",
    "shear_modulus",
    "universal_anisotropy",
    "homogeneous_poisson",
    "e_total",
    "e_ionic",
    "e_electronic",
    "n",
    "e_ij_max",
    "weighted_surface_energy_EV_PER_ANG2",
    "weighted_surface_energy",
    "weighted_work_function",
    "surface_anisotropy",
    "shape_factor",
    "has_reconstructed",
    "possible_species",
    "has_props",
    "theoretical",
    "database_IDs"
  ]
}
