{"builder_meta": null, "nsites": null, "elements": null, "nelements": null, "composition": null, "composition_reduced": null, "formula_pretty": "PuSb", "formula_anonymous": "AB", "chemsys": null, "volume": 62.4601825497256, "density": 9.723935220907935, "density_atomic": 31.2300912748628, "symmetry": null, "property_name": null, "material_id": "mp-2566", "deprecated": null, "deprecation_reasons": null, "last_updated": null, "origins": null, "warnings": null, "structure": {"@module": "pymatgen.core.structure", "@class": "Structure", "charge": 0, "lattice": {"matrix": [[3.856885349999999, 2e-08, 2.22677405], [1.28562881, 3.63630646, 2.22677405], [2e-08, 1e-08, 4.45354705]], "pbc": [true, true, true], "a": 4.4535477175840406, "b": 4.453547886561135, "c": 4.45354705, "alpha": 59.99999820757226, "beta": 59.99999690221483, "gamma": 59.99999448740134, "volume": 62.46018254972558}, "properties": {}, "sites": [{"species": [{"element": "Pu", "occu": 1}], "abc": [-0.0, 0.0, -0.0], "properties": {"magmom": 5.105}, "label": "Pu", "xyz": [0.0, 0.0, 0.0]}, {"species": [{"element": "Sb", "occu": 1}], "abc": [0.5, 0.5, 0.5], "properties": {"magmom": -0.17}, "label": "Sb", "xyz": [2.5712570899999996, 1.818153245, 4.453547575]}]}, "task_ids": null, "uncorrected_energy_per_atom": null, "energy_per_atom": -9.930884990000003, "formation_energy_per_atom": -0.497418129374995, "energy_above_hull": 0.004904169749993001, "is_stable": false, "equilibrium_reaction_energy_per_atom": null, "decomposes_to": null, "xas": null, "grain_boundaries": null, "band_gap": 0.0, "cbm": null, "vbm": null, "efermi": 7.79074882, "is_gap_direct": null, "is_metal": null, "es_source_calc_id": null, "bandstructure": null, "dos": null, "dos_energy_up": null, "dos_energy_down": null, "is_magnetic": null, "ordering": null, "total_magnetization": 5.006479, "total_magnetization_normalized_vol": null, "total_magnetization_normalized_formula_units": null, "num_magnetic_sites": null, "num_unique_magnetic_sites": null, "types_of_magnetic_species": null, "bulk_modulus": null, "shear_modulus": null, "universal_anisotropy": null, "homogeneous_poisson": null, "e_total": null, "e_ionic": null, "e_electronic": null, "n": null, "e_ij_max": null, "weighted_surface_energy_EV_PER_ANG2": null, "weighted_surface_energy": null, "weighted_work_function": null, "surface_anisotropy": null, "shape_factor": null, "has_reconstructed": null, "possible_species": null, "has_props": null, "theoretical": null, "database_IDs": null, "fields_not_requested": ["builder_meta", "nsites", "elements", "nelements", "composition", "composition_reduced", "chemsys", "symmetry", "property_name", "deprecated", "deprecation_reasons", "last_updated", "origins", "warnings", "task_ids", "uncorrected_energy_per_atom", "equilibrium_reaction_energy_per_atom", "decomposes_to", "xas", "grain_boundaries", "cbm", "vbm", "is_gap_direct", "is_metal", "es_source_calc_id", "bandstructure", "dos", "dos_energy_up", "dos_energy_down", "is_magnetic", "ordering", "total_magnetization_normalized_vol", "total_magnetization_normalized_formula_units", "num_magnetic_sites", "num_unique_magnetic_sites", "types_of_magnetic_species", "bulk_modulus", "shear_modulus", "universal_anisotropy", "homogeneous_poisson", "e_total", "e_ionic", "e_electronic", "n", "e_ij_max", "weighted_surface_energy_EV_PER_ANG2", "weighted_surface_energy", "weighted_work_function", "surface_anisotropy", "shape_factor", "has_reconstructed", "possible_species", "has_props", "theoretical", "database_IDs"]}