{
  "builder_meta": null,
  "nsites": null,
  "elements": null,
  "nelements": null,
  "composition": null,
  "composition_reduced": null,
  "formula_pretty": "PuSe2",
  "formula_anonymous": "AB2",
  "chemsys": null,
  "volume": 142.84869447157175,
  "density": 9.344206667295676,
  "density_atomic": 23.808115745261958,
  "symmetry": null,
  "property_name": null,
  "material_id": "mp-1018954",
  "deprecated": null,
  "deprecation_reasons": null,
  "last_updated": null,
  "origins": null,
  "warnings": null,
  "structure": {
    "@module": "pymatgen.core.structure",
    "@class": "Structure",
    "charge": 0,
    "lattice": {
      "matrix": [
        [4.128396, -0.0, 0.0],
        [-0.0, 4.128396, 0.0],
        [-0.0, 0.0, 8.38134231]
      ],
      "pbc": [true, true, true],
      "a": 4.128396,
      "b": 4.128396,
      "c": 8.38134231,
      "alpha": 90.0,
      "beta": 90.0,
      "gamma": 90.0,
      "volume": 142.84869447157175
    },
    "properties": {},
    "sites": [
      {
        "species": [{ "element": "Pu", "occu": 1 }],
        "abc": [0.75, 0.75, 0.72532257],
        "properties": { "magmom": 5.047 },
        "label": "Pu",
        "xyz": [3.0962970000000003, 3.0962970000000003, 6.0791767443389375]
      },
      {
        "species": [{ "element": "Pu", "occu": 1 }],
        "abc": [0.25, 0.25, 0.27467743],
        "properties": { "magmom": 5.047 },
        "label": "Pu",
        "xyz": [1.032099, 1.032099, 2.3021655656610633]
      },
      {
        "species": [{ "element": "Se", "occu": 1 }],
        "abc": [0.75, 0.75, 0.36185098],
        "properties": { "magmom": -0.095 },
        "label": "Se",
        "xyz": [3.0962970000000003, 3.0962970000000003, 3.032796928588964]
      },
      {
        "species": [{ "element": "Se", "occu": 1 }],
        "abc": [0.25, 0.25, 0.6381490200000001],
        "properties": { "magmom": -0.095 },
        "label": "Se",
        "xyz": [1.032099, 1.032099, 5.3485453814110375]
      },
      {
        "species": [{ "element": "Se", "occu": 1 }],
        "abc": [0.75, 0.25, -0.0],
        "properties": { "magmom": -0.021 },
        "label": "Se",
        "xyz": [3.0962970000000003, 1.032099, 0.0]
      },
      {
        "species": [{ "element": "Se", "occu": 1 }],
        "abc": [0.25, 0.75, -0.0],
        "properties": { "magmom": -0.021 },
        "label": "Se",
        "xyz": [1.032099, 3.0962970000000003, 0.0]
      }
    ]
  },
  "task_ids": null,
  "uncorrected_energy_per_atom": null,
  "energy_per_atom": -40.005950885,
  "formation_energy_per_atom": -1.679461347291663,
  "energy_above_hull": 0.0,
  "is_stable": true,
  "equilibrium_reaction_energy_per_atom": null,
  "decomposes_to": null,
  "xas": null,
  "grain_boundaries": null,
  "band_gap": 0.0,
  "cbm": null,
  "vbm": null,
  "efermi": 8.18735527,
  "is_gap_direct": null,
  "is_metal": null,
  "es_source_calc_id": null,
  "bandstructure": null,
  "dos": null,
  "dos_energy_up": null,
  "dos_energy_down": null,
  "is_magnetic": null,
  "ordering": null,
  "total_magnetization": 10.0524644,
  "total_magnetization_normalized_vol": null,
  "total_magnetization_normalized_formula_units": null,
  "num_magnetic_sites": null,
  "num_unique_magnetic_sites": null,
  "types_of_magnetic_species": null,
  "bulk_modulus": null,
  "shear_modulus": null,
  "universal_anisotropy": null,
  "homogeneous_poisson": null,
  "e_total": null,
  "e_ionic": null,
  "e_electronic": null,
  "n": null,
  "e_ij_max": null,
  "weighted_surface_energy_EV_PER_ANG2": null,
  "weighted_surface_energy": null,
  "weighted_work_function": null,
  "surface_anisotropy": null,
  "shape_factor": null,
  "has_reconstructed": null,
  "possible_species": null,
  "has_props": null,
  "theoretical": null,
  "database_IDs": null,
  "fields_not_requested": [
    "builder_meta",
    "nsites",
    "elements",
    "nelements",
    "composition",
    "composition_reduced",
    "chemsys",
    "symmetry",
    "property_name",
    "deprecated",
    "deprecation_reasons",
    "last_updated",
    "origins",
    "warnings",
    "task_ids",
    "uncorrected_energy_per_atom",
    "equilibrium_reaction_energy_per_atom",
    "decomposes_to",
    "xas",
    "grain_boundaries",
    "cbm",
    "vbm",
    "is_gap_direct",
    "is_metal",
    "es_source_calc_id",
    "bandstructure",
    "dos",
    "dos_energy_up",
    "dos_energy_down",
    "is_magnetic",
    "ordering",
    "total_magnetization_normalized_vol",
    "total_magnetization_normalized_formula_units",
    "num_magnetic_sites",
    "num_unique_magnetic_sites",
    "types_of_magnetic_species",
    "bulk_modulus",
    "shear_modulus",
    "universal_anisotropy",
    "homogeneous_poisson",
    "e_total",
    "e_ionic",
    "e_electronic",
    "n",
    "e_ij_max",
    "weighted_surface_energy_EV_PER_ANG2",
    "weighted_surface_energy",
    "weighted_work_function",
    "surface_anisotropy",
    "shape_factor",
    "has_reconstructed",
    "possible_species",
    "has_props",
    "theoretical",
    "database_IDs"
  ]
}
