{
  "builder_meta": null,
  "nsites": null,
  "elements": null,
  "nelements": null,
  "composition": null,
  "composition_reduced": null,
  "formula_pretty": "PuSi3",
  "formula_anonymous": "AB3",
  "chemsys": null,
  "volume": 132.99411418549687,
  "density": 8.19709572041835,
  "density_atomic": 16.62426427318711,
  "symmetry": null,
  "property_name": null,
  "material_id": "mp-867907",
  "deprecated": null,
  "deprecation_reasons": null,
  "last_updated": null,
  "origins": null,
  "warnings": null,
  "structure": {
    "@module": "pymatgen.core.structure",
    "@class": "Structure",
    "charge": 0,
    "lattice": {
      "matrix": [
        [5.91235276, -3.9e-6, 3.325e-5],
        [-2.95617765, 5.12023434, -4.6760000000000006e-5],
        [2.4190000000000004e-5, -2.6280000000000002e-5, 4.39321452]
      ],
      "pbc": [true, true, true],
      "a": 5.912352760094782,
      "b": 5.912341836959468,
      "c": 4.3932145201452,
      "alpha": 90.00090770919203,
      "beta": 89.99936229560448,
      "gamma": 120.0001131229242,
      "volume": 132.9941141854969
    },
    "properties": {},
    "sites": [
      {
        "species": [{ "element": "Pu", "occu": 1 }],
        "abc": [0.33333507, 0.66666726, 0.750002],
        "properties": { "magmom": 5.023 },
        "label": "Pu",
        "xyz": [2.5809668934444298e-5, 3.4134715879463755, 3.2948995864590396]
      },
      {
        "species": [{ "element": "Pu", "occu": 1 }],
        "abc": [0.66666562, 0.33333256, 0.250001],
        "properties": { "magmom": 5.023 },
        "label": "Pu",
        "xyz": [2.9561781020390168, 1.7067316503299126, 1.0983146032158793]
      },
      {
        "species": [{ "element": "Si", "occu": 1 }],
        "abc": [0.14229131, 0.28458337, 0.250001],
        "properties": { "magmom": -0.07100000000000001 },
        "label": "Si",
        "xyz": [3.4689710251219054e-6, 1.4571264187045367, 1.0982994472821963]
      },
      {
        "species": [{ "element": "Si", "occu": 1 }],
        "abc": [0.71541895, 0.85770905, 0.250001],
        "properties": { "magmom": -0.07100000000000001 },
        "label": "Si",
        "xyz": [1.69427492730026, 4.391661971378591, 1.0982917044194294]
      },
      {
        "species": [{ "element": "Si", "occu": 1 }],
        "abc": [0.14229088, 0.85770736, 0.250001],
        "properties": { "magmom": -0.07100000000000001 },
        "label": "Si",
        "xyz": [-1.694255403257485, 4.39165555338203, 1.0982726479901264]
      },
      {
        "species": [{ "element": "Si", "occu": 1 }],
        "abc": [0.85770462, 0.71540674, 0.750000999999999],
        "properties": { "magmom": -0.07100000000000001 },
        "label": "Si",
        "xyz": [2.9562010043985802, 3.6630271021411533, 3.2949103494739687]
      },
      {
        "species": [{ "element": "Si", "occu": 1 }],
        "abc": [0.28459139, 0.14229561000000002, 0.750000999999999],
        "properties": { "magmom": -0.07100000000000001 },
        "label": "Si",
        "xyz": [1.26197173068781, 0.7285660488205464, 3.29491809213551]
      },
      {
        "species": [{ "element": "Si", "occu": 1 }],
        "abc": [0.85770515, 0.14229705, 0.750000999999999],
        "properties": { "magmom": -0.07100000000000001 },
        "label": "Si",
        "xyz": [4.650418194521971, 0.728571186814332, 3.2949371481006953]
      }
    ]
  },
  "task_ids": null,
  "uncorrected_energy_per_atom": null,
  "energy_per_atom": -28.518545205,
  "formation_energy_per_atom": -0.34913472093749903,
  "energy_above_hull": 0.087597331250002,
  "is_stable": false,
  "equilibrium_reaction_energy_per_atom": null,
  "decomposes_to": null,
  "xas": null,
  "grain_boundaries": null,
  "band_gap": 0.0,
  "cbm": null,
  "vbm": null,
  "efermi": 11.25086279,
  "is_gap_direct": null,
  "is_metal": null,
  "es_source_calc_id": null,
  "bandstructure": null,
  "dos": null,
  "dos_energy_up": null,
  "dos_energy_down": null,
  "is_magnetic": null,
  "ordering": null,
  "total_magnetization": 9.959154,
  "total_magnetization_normalized_vol": null,
  "total_magnetization_normalized_formula_units": null,
  "num_magnetic_sites": null,
  "num_unique_magnetic_sites": null,
  "types_of_magnetic_species": null,
  "bulk_modulus": null,
  "shear_modulus": null,
  "universal_anisotropy": null,
  "homogeneous_poisson": null,
  "e_total": null,
  "e_ionic": null,
  "e_electronic": null,
  "n": null,
  "e_ij_max": null,
  "weighted_surface_energy_EV_PER_ANG2": null,
  "weighted_surface_energy": null,
  "weighted_work_function": null,
  "surface_anisotropy": null,
  "shape_factor": null,
  "has_reconstructed": null,
  "possible_species": null,
  "has_props": null,
  "theoretical": null,
  "database_IDs": null,
  "fields_not_requested": [
    "builder_meta",
    "nsites",
    "elements",
    "nelements",
    "composition",
    "composition_reduced",
    "chemsys",
    "symmetry",
    "property_name",
    "deprecated",
    "deprecation_reasons",
    "last_updated",
    "origins",
    "warnings",
    "task_ids",
    "uncorrected_energy_per_atom",
    "equilibrium_reaction_energy_per_atom",
    "decomposes_to",
    "xas",
    "grain_boundaries",
    "cbm",
    "vbm",
    "is_gap_direct",
    "is_metal",
    "es_source_calc_id",
    "bandstructure",
    "dos",
    "dos_energy_up",
    "dos_energy_down",
    "is_magnetic",
    "ordering",
    "total_magnetization_normalized_vol",
    "total_magnetization_normalized_formula_units",
    "num_magnetic_sites",
    "num_unique_magnetic_sites",
    "types_of_magnetic_species",
    "bulk_modulus",
    "shear_modulus",
    "universal_anisotropy",
    "homogeneous_poisson",
    "e_total",
    "e_ionic",
    "e_electronic",
    "n",
    "e_ij_max",
    "weighted_surface_energy_EV_PER_ANG2",
    "weighted_surface_energy",
    "weighted_work_function",
    "surface_anisotropy",
    "shape_factor",
    "has_reconstructed",
    "possible_species",
    "has_props",
    "theoretical",
    "database_IDs"
  ]
}
