{
  "builder_meta": null,
  "nsites": null,
  "elements": null,
  "nelements": null,
  "composition": null,
  "composition_reduced": null,
  "formula_pretty": "PuSi",
  "formula_anonymous": "AB",
  "chemsys": null,
  "volume": 177.30194297895233,
  "density": 10.192975770356423,
  "density_atomic": 22.16274287236904,
  "symmetry": null,
  "property_name": null,
  "material_id": "mp-20713",
  "deprecated": null,
  "deprecation_reasons": null,
  "last_updated": null,
  "origins": null,
  "warnings": null,
  "structure": {
    "@module": "pymatgen.core.structure",
    "@class": "Structure",
    "charge": 0,
    "lattice": {
      "matrix": [
        [3.83510831, 0.0, 0.0],
        [-0.0, 5.77143023, 0.0],
        [0.0, 0.0, 8.01036695]
      ],
      "pbc": [true, true, true],
      "a": 3.83510831,
      "b": 5.77143023,
      "c": 8.01036695,
      "alpha": 90.0,
      "beta": 90.0,
      "gamma": 90.0,
      "volume": 177.30194297895233
    },
    "properties": {},
    "sites": [
      {
        "species": [{ "element": "Pu", "occu": 1 }],
        "abc": [0.25, 0.3940738, 0.6773685500000001],
        "properties": { "magmom": 5.37 },
        "label": "Pu",
        "xyz": [0.9587770775, 2.2743694421709737, 5.425970645889423]
      },
      {
        "species": [{ "element": "Pu", "occu": 1 }],
        "abc": [0.75, 0.6059262, 0.32263145],
        "properties": { "magmom": 5.37 },
        "label": "Pu",
        "xyz": [2.8763312325, 3.497060787829026, 2.5843963041105775]
      },
      {
        "species": [{ "element": "Pu", "occu": 1 }],
        "abc": [0.75, 0.894073799999999, 0.82263145],
        "properties": { "magmom": 5.37 },
        "label": "Pu",
        "xyz": [2.8763312325, 5.160084557170968, 6.5895797791105775]
      },
      {
        "species": [{ "element": "Pu", "occu": 1 }],
        "abc": [0.25, 0.1059262, 0.17736855],
        "properties": { "magmom": 5.37 },
        "label": "Pu",
        "xyz": [0.9587770775, 0.611345672829026, 1.4207871708894226]
      },
      {
        "species": [{ "element": "Si", "occu": 1 }],
        "abc": [0.25, 0.88112017, 0.53171769],
        "properties": { "magmom": -0.07 },
        "label": "Si",
        "xyz": [0.9587770775, 5.085323585400739, 4.259253810706346]
      },
      {
        "species": [{ "element": "Si", "occu": 1 }],
        "abc": [0.75, 0.11887983, 0.46828231000000003],
        "properties": { "magmom": -0.07 },
        "label": "Si",
        "xyz": [2.8763312325, 0.686106644599261, 3.7511131392936545]
      },
      {
        "species": [{ "element": "Si", "occu": 1 }],
        "abc": [0.75, 0.38112017, 0.96828231],
        "properties": { "magmom": -0.07 },
        "label": "Si",
        "xyz": [2.8763312325, 2.199608470400739, 7.756296614293654]
      },
      {
        "species": [{ "element": "Si", "occu": 1 }],
        "abc": [0.25, 0.61887983, 0.03171769],
        "properties": { "magmom": -0.07 },
        "label": "Si",
        "xyz": [0.9587770775, 3.571821759599261, 0.2540703357063455]
      }
    ]
  },
  "task_ids": null,
  "uncorrected_energy_per_atom": null,
  "energy_per_atom": -48.30346141625,
  "formation_energy_per_atom": -0.7384050431249981,
  "energy_above_hull": 0.0,
  "is_stable": true,
  "equilibrium_reaction_energy_per_atom": null,
  "decomposes_to": null,
  "xas": null,
  "grain_boundaries": null,
  "band_gap": 0.0,
  "cbm": null,
  "vbm": null,
  "efermi": 10.04788256,
  "is_gap_direct": null,
  "is_metal": null,
  "es_source_calc_id": null,
  "bandstructure": null,
  "dos": null,
  "dos_energy_up": null,
  "dos_energy_down": null,
  "is_magnetic": null,
  "ordering": null,
  "total_magnetization": 23.58504,
  "total_magnetization_normalized_vol": null,
  "total_magnetization_normalized_formula_units": null,
  "num_magnetic_sites": null,
  "num_unique_magnetic_sites": null,
  "types_of_magnetic_species": null,
  "bulk_modulus": null,
  "shear_modulus": null,
  "universal_anisotropy": null,
  "homogeneous_poisson": null,
  "e_total": null,
  "e_ionic": null,
  "e_electronic": null,
  "n": null,
  "e_ij_max": null,
  "weighted_surface_energy_EV_PER_ANG2": null,
  "weighted_surface_energy": null,
  "weighted_work_function": null,
  "surface_anisotropy": null,
  "shape_factor": null,
  "has_reconstructed": null,
  "possible_species": null,
  "has_props": null,
  "theoretical": null,
  "database_IDs": null,
  "fields_not_requested": [
    "builder_meta",
    "nsites",
    "elements",
    "nelements",
    "composition",
    "composition_reduced",
    "chemsys",
    "symmetry",
    "property_name",
    "deprecated",
    "deprecation_reasons",
    "last_updated",
    "origins",
    "warnings",
    "task_ids",
    "uncorrected_energy_per_atom",
    "equilibrium_reaction_energy_per_atom",
    "decomposes_to",
    "xas",
    "grain_boundaries",
    "cbm",
    "vbm",
    "is_gap_direct",
    "is_metal",
    "es_source_calc_id",
    "bandstructure",
    "dos",
    "dos_energy_up",
    "dos_energy_down",
    "is_magnetic",
    "ordering",
    "total_magnetization_normalized_vol",
    "total_magnetization_normalized_formula_units",
    "num_magnetic_sites",
    "num_unique_magnetic_sites",
    "types_of_magnetic_species",
    "bulk_modulus",
    "shear_modulus",
    "universal_anisotropy",
    "homogeneous_poisson",
    "e_total",
    "e_ionic",
    "e_electronic",
    "n",
    "e_ij_max",
    "weighted_surface_energy_EV_PER_ANG2",
    "weighted_surface_energy",
    "weighted_work_function",
    "surface_anisotropy",
    "shape_factor",
    "has_reconstructed",
    "possible_species",
    "has_props",
    "theoretical",
    "database_IDs"
  ]
}
