{"builder_meta": null, "nsites": null, "elements": null, "nelements": null, "composition": null, "composition_reduced": null, "formula_pretty": "PuSi2", "formula_anonymous": "AB2", "chemsys": null, "volume": 56.36056628684834, "density": 8.843872675507523, "density_atomic": 18.786855428949448, "symmetry": null, "property_name": null, "material_id": "mp-10186", "deprecated": null, "deprecation_reasons": null, "last_updated": null, "origins": null, "warnings": null, "structure": {"@module": "pymatgen.core.structure", "@class": "Structure", "charge": 0, "lattice": {"matrix": [[4.0315426, 0.0, 0.0], [-2.01577179, 3.49141842, 0.0], [-0.0, -0.0, 4.00407493]], "pbc": [true, true, true], "a": 4.0315426, "b": 4.031542941960944, "c": 4.00407493, "alpha": 90.0, "beta": 90.0, "gamma": 120.00000523525681, "volume": 56.36056628684834}, "properties": {}, "sites": [{"species": [{"element": "Pu", "occu": 1}], "abc": [-0.0, -0.0, 0.0], "properties": {"magmom": 5.042}, "label": "Pu", "xyz": [0.0, 0.0, 0.0]}, {"species": [{"element": "Si", "occu": 1}], "abc": [0.666667, 0.333333, 0.5], "properties": {"magmom": -0.044}, "label": "Si", "xyz": [2.01577315243813, 1.16380497619386, 2.002037465]}, {"species": [{"element": "Si", "occu": 1}], "abc": [0.333333, 0.666667, 0.5], "properties": {"magmom": -0.044}, "label": "Si", "xyz": [-2.342438130353841e-06, 2.32761344380614, 2.002037465]}]}, "task_ids": null, "uncorrected_energy_per_atom": null, "energy_per_atom": -35.216935183333334, "formation_energy_per_atom": -0.582309402916668, "energy_above_hull": 0.0, "is_stable": true, "equilibrium_reaction_energy_per_atom": null, "decomposes_to": null, "xas": null, "grain_boundaries": null, "band_gap": 0.0, "cbm": null, "vbm": null, "efermi": 10.7018798, "is_gap_direct": null, "is_metal": null, "es_source_calc_id": null, "bandstructure": null, "dos": null, "dos_energy_up": null, "dos_energy_down": null, "is_magnetic": null, "ordering": null, "total_magnetization": 5.2151702, "total_magnetization_normalized_vol": null, "total_magnetization_normalized_formula_units": null, "num_magnetic_sites": null, "num_unique_magnetic_sites": null, "types_of_magnetic_species": null, "bulk_modulus": null, "shear_modulus": null, "universal_anisotropy": null, "homogeneous_poisson": null, "e_total": null, "e_ionic": null, "e_electronic": null, "n": null, "e_ij_max": null, "weighted_surface_energy_EV_PER_ANG2": null, "weighted_surface_energy": null, "weighted_work_function": null, "surface_anisotropy": null, "shape_factor": null, "has_reconstructed": null, "possible_species": null, "has_props": null, "theoretical": null, "database_IDs": null, "fields_not_requested": ["builder_meta", "nsites", "elements", "nelements", "composition", "composition_reduced", "chemsys", "symmetry", "property_name", "deprecated", "deprecation_reasons", "last_updated", "origins", "warnings", "task_ids", "uncorrected_energy_per_atom", "equilibrium_reaction_energy_per_atom", "decomposes_to", "xas", "grain_boundaries", "cbm", "vbm", "is_gap_direct", "is_metal", "es_source_calc_id", "bandstructure", "dos", "dos_energy_up", "dos_energy_down", "is_magnetic", "ordering", "total_magnetization_normalized_vol", "total_magnetization_normalized_formula_units", "num_magnetic_sites", "num_unique_magnetic_sites", "types_of_magnetic_species", "bulk_modulus", "shear_modulus", "universal_anisotropy", "homogeneous_poisson", "e_total", "e_ionic", "e_electronic", "n", "e_ij_max", "weighted_surface_energy_EV_PER_ANG2", "weighted_surface_energy", "weighted_work_function", "surface_anisotropy", "shape_factor", "has_reconstructed", "possible_species", "has_props", "theoretical", "database_IDs"]}