{"builder_meta": null, "nsites": null, "elements": null, "nelements": null, "composition": null, "composition_reduced": null, "formula_pretty": "PuSn2", "formula_anonymous": "AB2", "chemsys": null, "volume": 314.164513761551, "density": 10.178319732817746, "density_atomic": 26.18037614679592, "symmetry": null, "property_name": null, "material_id": "mp-1102067", "deprecated": null, "deprecation_reasons": null, "last_updated": null, "origins": null, "warnings": null, "structure": {"@module": "pymatgen.core.structure", "@class": "Structure", "charge": 0, "lattice": {"matrix": [[4.58564625, -0.0, -0.0], [0.0, 4.6133453, -0.0047811600000000004], [-2.29282313, -2.28184002, 14.85284915]], "pbc": [true, true, true], "a": 4.58564625, "b": 4.613347777538892, "c": 15.201018375588932, "alpha": 98.69204376239612, "beta": 98.6752334195699, "gamma": 90.0, "volume": 314.16451376155095}, "properties": {}, "sites": [{"species": [{"element": "Pu", "occu": 1}], "abc": [0.32491506000000003, 0.8236886800000001, 0.64982613], "properties": {"magmom": 5.229}, "label": "Pu", "xyz": [9.145115138275983e-06, 2.3171610310654813, 9.647831295249022]}, {"species": [{"element": "Pu", "occu": 1}], "abc": [0.92508494, 0.92631132, 0.85017387], "properties": {"magmom": 5.229}, "label": "Pu", "xyz": [2.2928139723848617, 2.3334332139345184, 12.62307539975098]}, {"species": [{"element": "Pu", "occu": 1}], "abc": [0.17373122, 0.6729518, 0.34746244], "properties": {"magmom": 5.253}, "label": "Pu", "xyz": [-1.7373121830033256e-09, 2.311705322617691, 5.157589716382838]}, {"species": [{"element": "Pu", "occu": 1}], "abc": [0.07626878000000001, 0.0770482, 0.15253756000000002], "properties": {"magmom": 5.253}, "label": "Pu", "xyz": [-7.62687801802997e-10, 0.007383642382308708, 2.2652489886171625]}, {"species": [{"element": "Sn", "occu": 1}], "abc": [0.50186143, 0.00080261, 0.00372385], "properties": {"magmom": -0.005}, "label": "Sn", "xyz": [2.2928208550864873, -0.004794512887244001, 0.0553059449003999]}, {"species": [{"element": "Sn", "occu": 1}], "abc": [0.7481385700000001, 0.74919739, 0.49627615], "properties": {"magmom": -0.005}, "label": "Sn", "xyz": [2.292825392413513, 2.323883477887243, 7.367532760099601]}, {"species": [{"element": "Sn", "occu": 1}], "abc": [0.9994869999999991, 0.50003299, 0.998973999999999], "properties": {"magmom": -0.012}, "label": "Sn", "xyz": [2.292823120005128, 0.027325992121968845, 14.835219389041617]}, {"species": [{"element": "Sn", "occu": 1}], "abc": [0.250513, 0.24996701000000002, 0.501026], "properties": {"magmom": -0.012}, "label": "Sn", "xyz": [-2.5051298813139056e-09, 0.009922952878033131, 7.440468465958369]}, {"species": [{"element": "Sn", "occu": 1}], "abc": [0.66219605, 0.16127313000000001, 0.32439511], "properties": {"magmom": -0.048}, "label": "Sn", "xyz": [2.2928162219804187, 0.003790892011486857, 4.817420561189426]}, {"species": [{"element": "Sn", "occu": 1}], "abc": [0.58780395, 0.58872687, 0.17560489], "properties": {"magmom": -0.048}, "label": "Sn", "xyz": [2.2928300255195815, 2.3152980729885133, 2.6054181438105743]}, {"species": [{"element": "Sn", "occu": 1}], "abc": [0.83755575, 0.33850255, 0.6751115], "properties": {"magmom": -0.04}, "label": "Sn", "xyz": [2.2928231216244432, 0.021132709418284712, 10.025710834078268]}, {"species": [{"element": "Sn", "occu": 1}], "abc": [0.41244425, 0.41149745, 0.824888499999999], "properties": {"magmom": -0.04}, "label": "Sn", "xyz": [-4.1244401227658045e-09, 0.016116235581717042, 12.249977020921719]}]}, "task_ids": null, "uncorrected_energy_per_atom": null, "energy_per_atom": -45.781143775000004, "formation_energy_per_atom": -0.49823853791666706, "energy_above_hull": 0.0, "is_stable": true, "equilibrium_reaction_energy_per_atom": null, "decomposes_to": null, "xas": null, "grain_boundaries": null, "band_gap": 0.0, "cbm": null, "vbm": null, "efermi": 9.79597504, "is_gap_direct": null, "is_metal": null, "es_source_calc_id": null, "bandstructure": null, "dos": null, "dos_energy_up": null, "dos_energy_down": null, "is_magnetic": null, "ordering": null, "total_magnetization": 21.7445233, "total_magnetization_normalized_vol": null, "total_magnetization_normalized_formula_units": null, "num_magnetic_sites": null, "num_unique_magnetic_sites": null, "types_of_magnetic_species": null, "bulk_modulus": null, "shear_modulus": null, "universal_anisotropy": null, "homogeneous_poisson": null, "e_total": null, "e_ionic": null, "e_electronic": null, "n": null, "e_ij_max": null, "weighted_surface_energy_EV_PER_ANG2": null, "weighted_surface_energy": null, "weighted_work_function": null, "surface_anisotropy": null, "shape_factor": null, "has_reconstructed": null, "possible_species": null, "has_props": null, "theoretical": null, "database_IDs": null, "fields_not_requested": ["builder_meta", "nsites", "elements", "nelements", "composition", "composition_reduced", "chemsys", "symmetry", "property_name", "deprecated", "deprecation_reasons", "last_updated", "origins", "warnings", "task_ids", "uncorrected_energy_per_atom", "equilibrium_reaction_energy_per_atom", "decomposes_to", "xas", "grain_boundaries", "cbm", "vbm", "is_gap_direct", "is_metal", "es_source_calc_id", "bandstructure", "dos", "dos_energy_up", "dos_energy_down", "is_magnetic", "ordering", "total_magnetization_normalized_vol", "total_magnetization_normalized_formula_units", "num_magnetic_sites", "num_unique_magnetic_sites", "types_of_magnetic_species", "bulk_modulus", "shear_modulus", "universal_anisotropy", "homogeneous_poisson", "e_total", "e_ionic", "e_electronic", "n", "e_ij_max", "weighted_surface_energy_EV_PER_ANG2", "weighted_surface_energy", "weighted_work_function", "surface_anisotropy", "shape_factor", "has_reconstructed", "possible_species", "has_props", "theoretical", "database_IDs"]}