{
  "builder_meta": null,
  "nsites": null,
  "elements": null,
  "nelements": null,
  "composition": null,
  "composition_reduced": null,
  "formula_pretty": "PuTe2",
  "formula_anonymous": "AB2",
  "chemsys": null,
  "volume": 181.16672382223678,
  "density": 9.151140833788968,
  "density_atomic": 30.194453970372795,
  "symmetry": null,
  "property_name": null,
  "material_id": "mp-1019107",
  "deprecated": null,
  "deprecation_reasons": null,
  "last_updated": null,
  "origins": null,
  "warnings": null,
  "structure": {
    "@module": "pymatgen.core.structure",
    "@class": "Structure",
    "charge": 0,
    "lattice": {
      "matrix": [
        [4.47444307, 0.0, -0.0],
        [0.0, 4.47444307, 0.0],
        [-0.0, 0.0, 9.04899727]
      ],
      "pbc": [true, true, true],
      "a": 4.47444307,
      "b": 4.47444307,
      "c": 9.04899727,
      "alpha": 90.0,
      "beta": 90.0,
      "gamma": 90.0,
      "volume": 181.16672382223678
    },
    "properties": {},
    "sites": [
      {
        "species": [{ "element": "Pu", "occu": 1 }],
        "abc": [-0.0, 0.5, 0.72501789],
        "properties": { "magmom": 5.173 },
        "label": "Pu",
        "xyz": [0.0, 2.237221535, 6.560684907311161]
      },
      {
        "species": [{ "element": "Pu", "occu": 1 }],
        "abc": [0.5, 0.0, 0.27498211],
        "properties": { "magmom": 5.173 },
        "label": "Pu",
        "xyz": [2.237221535, 0.0, 2.4883123626888395]
      },
      {
        "species": [{ "element": "Te", "occu": 1 }],
        "abc": [0.0, 0.5, 0.3642245],
        "properties": { "magmom": -0.11900000000000001 },
        "label": "Te",
        "xyz": [0.0, 2.237221535, 3.2958665061671146]
      },
      {
        "species": [{ "element": "Te", "occu": 1 }],
        "abc": [0.5, -0.0, 0.635775499999999],
        "properties": { "magmom": -0.11900000000000001 },
        "label": "Te",
        "xyz": [2.237221535, 0.0, 5.753130763832876]
      },
      {
        "species": [{ "element": "Te", "occu": 1 }],
        "abc": [0.0, -0.0, 0.0],
        "properties": { "magmom": -0.07 },
        "label": "Te",
        "xyz": [0.0, 0.0, 0.0]
      },
      {
        "species": [{ "element": "Te", "occu": 1 }],
        "abc": [0.5, 0.5, -0.0],
        "properties": { "magmom": -0.07 },
        "label": "Te",
        "xyz": [2.237221535, 2.237221535, 0.0]
      }
    ]
  },
  "task_ids": null,
  "uncorrected_energy_per_atom": null,
  "energy_per_atom": -8.067269943333335,
  "formation_energy_per_atom": -1.05908852069444,
  "energy_above_hull": 0.0,
  "is_stable": true,
  "equilibrium_reaction_energy_per_atom": null,
  "decomposes_to": null,
  "xas": null,
  "grain_boundaries": null,
  "band_gap": 0.0,
  "cbm": null,
  "vbm": null,
  "efermi": 9.43453384,
  "is_gap_direct": null,
  "is_metal": null,
  "es_source_calc_id": null,
  "bandstructure": null,
  "dos": null,
  "dos_energy_up": null,
  "dos_energy_down": null,
  "is_magnetic": null,
  "ordering": null,
  "total_magnetization": 10.123036,
  "total_magnetization_normalized_vol": null,
  "total_magnetization_normalized_formula_units": null,
  "num_magnetic_sites": null,
  "num_unique_magnetic_sites": null,
  "types_of_magnetic_species": null,
  "bulk_modulus": null,
  "shear_modulus": null,
  "universal_anisotropy": null,
  "homogeneous_poisson": null,
  "e_total": null,
  "e_ionic": null,
  "e_electronic": null,
  "n": null,
  "e_ij_max": null,
  "weighted_surface_energy_EV_PER_ANG2": null,
  "weighted_surface_energy": null,
  "weighted_work_function": null,
  "surface_anisotropy": null,
  "shape_factor": null,
  "has_reconstructed": null,
  "possible_species": null,
  "has_props": null,
  "theoretical": null,
  "database_IDs": null,
  "fields_not_requested": [
    "builder_meta",
    "nsites",
    "elements",
    "nelements",
    "composition",
    "composition_reduced",
    "chemsys",
    "symmetry",
    "property_name",
    "deprecated",
    "deprecation_reasons",
    "last_updated",
    "origins",
    "warnings",
    "task_ids",
    "uncorrected_energy_per_atom",
    "equilibrium_reaction_energy_per_atom",
    "decomposes_to",
    "xas",
    "grain_boundaries",
    "cbm",
    "vbm",
    "is_gap_direct",
    "is_metal",
    "es_source_calc_id",
    "bandstructure",
    "dos",
    "dos_energy_up",
    "dos_energy_down",
    "is_magnetic",
    "ordering",
    "total_magnetization_normalized_vol",
    "total_magnetization_normalized_formula_units",
    "num_magnetic_sites",
    "num_unique_magnetic_sites",
    "types_of_magnetic_species",
    "bulk_modulus",
    "shear_modulus",
    "universal_anisotropy",
    "homogeneous_poisson",
    "e_total",
    "e_ionic",
    "e_electronic",
    "n",
    "e_ij_max",
    "weighted_surface_energy_EV_PER_ANG2",
    "weighted_surface_energy",
    "weighted_work_function",
    "surface_anisotropy",
    "shape_factor",
    "has_reconstructed",
    "possible_species",
    "has_props",
    "theoretical",
    "database_IDs"
  ]
}
