{"builder_meta": null, "nsites": null, "elements": null, "nelements": null, "composition": null, "composition_reduced": null, "formula_pretty": "PuTe3", "formula_anonymous": "AB3", "chemsys": null, "volume": 250.78767391935412, "density": 8.300454888222127, "density_atomic": 31.348459239919265, "symmetry": null, "property_name": null, "material_id": "mp-1080793", "deprecated": null, "deprecation_reasons": null, "last_updated": null, "origins": null, "warnings": null, "structure": {"@module": "pymatgen.core.structure", "@class": "Structure", "charge": 0, "lattice": {"matrix": [[2.19221246, -13.077768, 0.0], [2.19221246, 13.077768, -0.0], [-0.0, -0.0, 4.37381008]], "pbc": [true, true, true], "a": 13.26023421103878, "b": 13.26023421103878, "c": 4.37381008, "alpha": 90.0, "beta": 90.0, "gamma": 160.96808356126607, "volume": 250.78767391935412}, "properties": {}, "sites": [{"species": [{"element": "Pu", "occu": 1}], "abc": [0.17084701, 0.82915299, 0.75], "properties": {"magmom": 5.05}, "label": "Pu", "xyz": [2.19221246, 8.609172879452641, 3.28035756]}, {"species": [{"element": "Pu", "occu": 1}], "abc": [0.82915299, 0.17084701, 0.25], "properties": {"magmom": 5.05}, "label": "Pu", "xyz": [2.19221246, -8.609172879452641, 1.09345252]}, {"species": [{"element": "Te", "occu": 1}], "abc": [0.92545891, 0.07454109, 0.75], "properties": {"magmom": -0.053}, "label": "Te", "xyz": [2.19221246, -11.128105837025762, 3.28035756]}, {"species": [{"element": "Te", "occu": 1}], "abc": [0.07454109, 0.92545891, 0.25], "properties": {"magmom": -0.053}, "label": "Te", "xyz": [2.19221246, 11.128105837025762, 1.09345252]}, {"species": [{"element": "Te", "occu": 1}], "abc": [0.57521193, 0.42478807, 0.75], "properties": {"magmom": -0.055}, "label": "Te", "xyz": [2.19221246, -1.9672083427444802, 3.28035756]}, {"species": [{"element": "Te", "occu": 1}], "abc": [0.42478807, 0.57521193, 0.25], "properties": {"magmom": -0.055}, "label": "Te", "xyz": [2.19221246, 1.9672083427444802, 1.09345252]}, {"species": [{"element": "Te", "occu": 1}], "abc": [0.29617678000000003, 0.70382322, 0.75], "properties": {"magmom": -0.126}, "label": "Te", "xyz": [2.19221246, 5.3311055683459205, 3.28035756]}, {"species": [{"element": "Te", "occu": 1}], "abc": [0.70382322, 0.29617678000000003, 0.25], "properties": {"magmom": -0.126}, "label": "Te", "xyz": [2.19221246, -5.3311055683459205, 1.09345252]}]}, "task_ids": null, "uncorrected_energy_per_atom": null, "energy_per_atom": -6.971475182500001, "formation_energy_per_atom": -0.9295126421874961, "energy_above_hull": 0.0, "is_stable": true, "equilibrium_reaction_energy_per_atom": null, "decomposes_to": null, "xas": null, "grain_boundaries": null, "band_gap": 0.0, "cbm": null, "vbm": null, "efermi": 8.50677553, "is_gap_direct": null, "is_metal": null, "es_source_calc_id": null, "bandstructure": null, "dos": null, "dos_energy_up": null, "dos_energy_down": null, "is_magnetic": null, "ordering": null, "total_magnetization": 9.7141565, "total_magnetization_normalized_vol": null, "total_magnetization_normalized_formula_units": null, "num_magnetic_sites": null, "num_unique_magnetic_sites": null, "types_of_magnetic_species": null, "bulk_modulus": null, "shear_modulus": null, "universal_anisotropy": null, "homogeneous_poisson": null, "e_total": null, "e_ionic": null, "e_electronic": null, "n": null, "e_ij_max": null, "weighted_surface_energy_EV_PER_ANG2": null, "weighted_surface_energy": null, "weighted_work_function": null, "surface_anisotropy": null, "shape_factor": null, "has_reconstructed": null, "possible_species": null, "has_props": null, "theoretical": null, "database_IDs": null, "fields_not_requested": ["builder_meta", "nsites", "elements", "nelements", "composition", "composition_reduced", "chemsys", "symmetry", "property_name", "deprecated", "deprecation_reasons", "last_updated", "origins", "warnings", "task_ids", "uncorrected_energy_per_atom", "equilibrium_reaction_energy_per_atom", "decomposes_to", "xas", "grain_boundaries", "cbm", "vbm", "is_gap_direct", "is_metal", "es_source_calc_id", "bandstructure", "dos", "dos_energy_up", "dos_energy_down", "is_magnetic", "ordering", "total_magnetization_normalized_vol", "total_magnetization_normalized_formula_units", "num_magnetic_sites", "num_unique_magnetic_sites", "types_of_magnetic_species", "bulk_modulus", "shear_modulus", "universal_anisotropy", "homogeneous_poisson", "e_total", "e_ionic", "e_electronic", "n", "e_ij_max", "weighted_surface_energy_EV_PER_ANG2", "weighted_surface_energy", "weighted_work_function", "surface_anisotropy", "shape_factor", "has_reconstructed", "possible_species", "has_props", "theoretical", "database_IDs"]}