{
  "builder_meta": null,
  "nsites": null,
  "elements": null,
  "nelements": null,
  "composition": null,
  "composition_reduced": null,
  "formula_pretty": "PuZn2",
  "formula_anonymous": "AB2",
  "chemsys": null,
  "volume": 112.17075654071058,
  "density": 11.097365321575388,
  "density_atomic": 18.695126090118432,
  "symmetry": null,
  "property_name": null,
  "material_id": "mp-30861",
  "deprecated": null,
  "deprecation_reasons": null,
  "last_updated": null,
  "origins": null,
  "warnings": null,
  "structure": {
    "@module": "pymatgen.core.structure",
    "@class": "Structure",
    "charge": 0,
    "lattice": {
      "matrix": [
        [4.6880858100000005, 1.05e-6, 2.70666969],
        [1.56269564, 4.4199689, 2.70666969],
        [1.07e-6, 1.06e-6, 5.41333622]
      ],
      "pbc": [true, true, true],
      "a": 5.41333625158175,
      "b": 5.413335713865058,
      "c": 5.413336220000209,
      "alpha": 59.999963244402224,
      "beta": 59.99996955782172,
      "gamma": 59.99996957543173,
      "volume": 112.1707565407106
    },
    "properties": {},
    "sites": [
      {
        "species": [{ "element": "Pu", "occu": 1 }],
        "abc": [0.125, 0.125, 0.125],
        "properties": { "magmom": -5.308 },
        "label": "Pu",
        "xyz": [0.7813478150000001, 0.5524963762499999, 1.35333445]
      },
      {
        "species": [{ "element": "Pu", "occu": 1 }],
        "abc": [0.875, 0.875, 0.875],
        "properties": { "magmom": -5.308 },
        "label": "Pu",
        "xyz": [5.469434705, 3.8674746337499997, 9.47334115]
      },
      {
        "species": [{ "element": "Zn", "occu": 1 }],
        "abc": [0.5, -0.0, 0.5],
        "properties": { "magmom": 0.022 },
        "label": "Zn",
        "xyz": [2.34404344, 1.055e-6, 4.060002955]
      },
      {
        "species": [{ "element": "Zn", "occu": 1 }],
        "abc": [0.0, 0.5, 0.5],
        "properties": { "magmom": 0.022 },
        "label": "Zn",
        "xyz": [0.781348355, 2.2099849799999998, 4.060002955]
      },
      {
        "species": [{ "element": "Zn", "occu": 1 }],
        "abc": [0.5, 0.5, 0.5],
        "properties": { "magmom": 0.022 },
        "label": "Zn",
        "xyz": [3.1253912600000002, 2.2099855049999997, 5.4133378]
      },
      {
        "species": [{ "element": "Zn", "occu": 1 }],
        "abc": [0.5, 0.5, 0.0],
        "properties": { "magmom": 0.022 },
        "label": "Zn",
        "xyz": [3.1253907250000004, 2.209984975, 2.70666969]
      }
    ]
  },
  "task_ids": null,
  "uncorrected_energy_per_atom": null,
  "energy_per_atom": -5.795324933333333,
  "formation_energy_per_atom": -0.042851699583328004,
  "energy_above_hull": 0.039397284242427,
  "is_stable": false,
  "equilibrium_reaction_energy_per_atom": null,
  "decomposes_to": null,
  "xas": null,
  "grain_boundaries": null,
  "band_gap": 0.0,
  "cbm": null,
  "vbm": null,
  "efermi": 6.80008373,
  "is_gap_direct": null,
  "is_metal": null,
  "es_source_calc_id": null,
  "bandstructure": null,
  "dos": null,
  "dos_energy_up": null,
  "dos_energy_down": null,
  "is_magnetic": null,
  "ordering": null,
  "total_magnetization": 10.9317271,
  "total_magnetization_normalized_vol": null,
  "total_magnetization_normalized_formula_units": null,
  "num_magnetic_sites": null,
  "num_unique_magnetic_sites": null,
  "types_of_magnetic_species": null,
  "bulk_modulus": null,
  "shear_modulus": null,
  "universal_anisotropy": null,
  "homogeneous_poisson": null,
  "e_total": null,
  "e_ionic": null,
  "e_electronic": null,
  "n": null,
  "e_ij_max": null,
  "weighted_surface_energy_EV_PER_ANG2": null,
  "weighted_surface_energy": null,
  "weighted_work_function": null,
  "surface_anisotropy": null,
  "shape_factor": null,
  "has_reconstructed": null,
  "possible_species": null,
  "has_props": null,
  "theoretical": null,
  "database_IDs": null,
  "fields_not_requested": [
    "builder_meta",
    "nsites",
    "elements",
    "nelements",
    "composition",
    "composition_reduced",
    "chemsys",
    "symmetry",
    "property_name",
    "deprecated",
    "deprecation_reasons",
    "last_updated",
    "origins",
    "warnings",
    "task_ids",
    "uncorrected_energy_per_atom",
    "equilibrium_reaction_energy_per_atom",
    "decomposes_to",
    "xas",
    "grain_boundaries",
    "cbm",
    "vbm",
    "is_gap_direct",
    "is_metal",
    "es_source_calc_id",
    "bandstructure",
    "dos",
    "dos_energy_up",
    "dos_energy_down",
    "is_magnetic",
    "ordering",
    "total_magnetization_normalized_vol",
    "total_magnetization_normalized_formula_units",
    "num_magnetic_sites",
    "num_unique_magnetic_sites",
    "types_of_magnetic_species",
    "bulk_modulus",
    "shear_modulus",
    "universal_anisotropy",
    "homogeneous_poisson",
    "e_total",
    "e_ionic",
    "e_electronic",
    "n",
    "e_ij_max",
    "weighted_surface_energy_EV_PER_ANG2",
    "weighted_surface_energy",
    "weighted_work_function",
    "surface_anisotropy",
    "shape_factor",
    "has_reconstructed",
    "possible_species",
    "has_props",
    "theoretical",
    "database_IDs"
  ]
}
