{"builder_meta": null, "nsites": null, "elements": null, "nelements": null, "composition": null, "composition_reduced": null, "formula_pretty": "PuZr2", "formula_anonymous": "AB2", "chemsys": null, "volume": 64.32422374936316, "density": 11.008816315182468, "density_atomic": 21.441407916454384, "symmetry": null, "property_name": null, "material_id": "mp-1219764", "deprecated": null, "deprecation_reasons": null, "last_updated": null, "origins": null, "warnings": null, "structure": {"@module": "pymatgen.core.structure", "@class": "Structure", "charge": 0, "lattice": {"matrix": [[0.0, 0.0, -2.949772], [-2.517217, -4.362561, 0.0], [-2.490306, 4.347021, 0.0]], "pbc": [true, true, true], "a": 2.949772, "b": 5.036697321043821, "c": 5.009811927415739, "alpha": 120.20748402956006, "beta": 90.0, "gamma": 90.0, "volume": 64.32422374936317}, "properties": {}, "sites": [{"species": [{"element": "Pu", "occu": 1}], "abc": [0.5, 0.333187, 0.666288], "properties": {"magmom": -0.619}, "label": "Pu", "xyz": [-2.497964984707, 1.4428193161409997, -1.474886]}, {"species": [{"element": "Zr", "occu": 1}], "abc": [0.0, 0.000529, 0.001285], "properties": {"magmom": 0.11900000000000001}, "label": "Zr", "xyz": [-0.004531651003, 0.0032781272159999996, 0.0]}, {"species": [{"element": "Zr", "occu": 1}], "abc": [0.5, 0.666184999999999, 0.332427], "properties": {"magmom": 0.089}, "label": "Zr", "xyz": [-2.5047771598069977, -1.4612055498179963, -1.474886]}]}, "task_ids": null, "uncorrected_energy_per_atom": null, "energy_per_atom": -43.42039836041668, "formation_energy_per_atom": 0.53157895999999, "energy_above_hull": 0.531578959999997, "is_stable": false, "equilibrium_reaction_energy_per_atom": null, "decomposes_to": null, "xas": null, "grain_boundaries": null, "band_gap": 0.0, "cbm": null, "vbm": null, "efermi": 8.01563995, "is_gap_direct": null, "is_metal": null, "es_source_calc_id": null, "bandstructure": null, "dos": null, "dos_energy_up": null, "dos_energy_down": null, "is_magnetic": null, "ordering": null, "total_magnetization": 0.3268989, "total_magnetization_normalized_vol": null, "total_magnetization_normalized_formula_units": null, "num_magnetic_sites": null, "num_unique_magnetic_sites": null, "types_of_magnetic_species": null, "bulk_modulus": null, "shear_modulus": null, "universal_anisotropy": null, "homogeneous_poisson": null, "e_total": null, "e_ionic": null, "e_electronic": null, "n": null, "e_ij_max": null, "weighted_surface_energy_EV_PER_ANG2": null, "weighted_surface_energy": null, "weighted_work_function": null, "surface_anisotropy": null, "shape_factor": null, "has_reconstructed": null, "possible_species": null, "has_props": null, "theoretical": null, "database_IDs": null, "fields_not_requested": ["builder_meta", "nsites", "elements", "nelements", "composition", "composition_reduced", "chemsys", "symmetry", "property_name", "deprecated", "deprecation_reasons", "last_updated", "origins", "warnings", "task_ids", "uncorrected_energy_per_atom", "equilibrium_reaction_energy_per_atom", "decomposes_to", "xas", "grain_boundaries", "cbm", "vbm", "is_gap_direct", "is_metal", "es_source_calc_id", "bandstructure", "dos", "dos_energy_up", "dos_energy_down", "is_magnetic", "ordering", "total_magnetization_normalized_vol", "total_magnetization_normalized_formula_units", "num_magnetic_sites", "num_unique_magnetic_sites", "types_of_magnetic_species", "bulk_modulus", "shear_modulus", "universal_anisotropy", "homogeneous_poisson", "e_total", "e_ionic", "e_electronic", "n", "e_ij_max", "weighted_surface_energy_EV_PER_ANG2", "weighted_surface_energy", "weighted_work_function", "surface_anisotropy", "shape_factor", "has_reconstructed", "possible_species", "has_props", "theoretical", "database_IDs"]}