{
  "builder_meta": null,
  "nsites": null,
  "elements": null,
  "nelements": null,
  "composition": null,
  "composition_reduced": null,
  "formula_pretty": "PW",
  "formula_anonymous": "AB",
  "chemsys": null,
  "volume": 116.49161703058118,
  "density": 12.248319765384405,
  "density_atomic": 14.561452128822648,
  "symmetry": null,
  "property_name": null,
  "material_id": "mp-2420",
  "deprecated": null,
  "deprecation_reasons": null,
  "last_updated": null,
  "origins": null,
  "warnings": null,
  "structure": {
    "@module": "pymatgen.core.structure",
    "@class": "Structure",
    "charge": 0,
    "lattice": {
      "matrix": [
        [3.27062192, 0.0, -0.0],
        [0.0, 5.74170635, 2.01e-6],
        [0.0, 2.029999999999998e-6, 6.20330812]
      ],
      "pbc": [true, true, true],
      "a": 3.27062192,
      "b": 5.741706350000353,
      "c": 6.203308120000332,
      "alpha": 89.999961192715,
      "beta": 90.0,
      "gamma": 90.0,
      "volume": 116.49161703058118
    },
    "properties": {},
    "sites": [
      {
        "species": [{ "element": "P", "occu": 1 }],
        "abc": [0.75, 0.81437233, 0.43215961],
        "properties": { "magmom": -0.0 },
        "label": "P",
        "xyz": [2.45296644, 4.675887655709304, 2.680820854737417]
      },
      {
        "species": [{ "element": "P", "occu": 1 }],
        "abc": [0.25, 0.1856204, 0.56783869],
        "properties": { "magmom": -0.0 },
        "label": "P",
        "xyz": [0.81765548, 1.0657789820820807, 3.5224787296241664]
      },
      {
        "species": [{ "element": "P", "occu": 1 }],
        "abc": [0.75, 0.31437233000000003, 0.06784039],
        "properties": { "magmom": -0.0 },
        "label": "P",
        "xyz": [2.45296644, 1.8050337411412876, 0.42083547403935007]
      },
      {
        "species": [{ "element": "P", "occu": 1 }],
        "abc": [0.25, 0.6856194, 0.93216131],
        "properties": { "magmom": -0.0 },
        "label": "P",
        "xyz": [0.81765548, 3.9366271549506493, 5.782485201567831]
      },
      {
        "species": [{ "element": "W", "occu": 1 }],
        "abc": [0.75, 0.48628847000000003, 0.68722234],
        "properties": { "magmom": 0.0 },
        "label": "W",
        "xyz": [2.45296644, 2.7921269911921347, 4.263052899407226]
      },
      {
        "species": [{ "element": "W", "occu": 1 }],
        "abc": [0.75, 0.98628847, 0.8127776600000001],
        "properties": { "magmom": 0.0 },
        "label": "W",
        "xyz": [2.45296644, 5.6629804210694346, 5.041912240472424]
      },
      {
        "species": [{ "element": "W", "occu": 1 }],
        "abc": [0.25, 0.013719799999999002, 0.18722247],
        "properties": { "magmom": 0.0 },
        "label": "W",
        "xyz": [0.81765548, 0.07877544284233837, 1.1613986959742544]
      },
      {
        "species": [{ "element": "W", "occu": 1 }],
        "abc": [0.25, 0.5137198, 0.31277753],
        "properties": { "magmom": 0.0 },
        "label": "W",
        "xyz": [0.81765548, 2.949628872719116, 1.9402564241793419]
      }
    ]
  },
  "task_ids": null,
  "uncorrected_energy_per_atom": null,
  "energy_per_atom": -30.54919441,
  "formation_energy_per_atom": -0.36425906398809305,
  "energy_above_hull": 0.0,
  "is_stable": true,
  "equilibrium_reaction_energy_per_atom": null,
  "decomposes_to": null,
  "xas": null,
  "grain_boundaries": null,
  "band_gap": 0.0,
  "cbm": null,
  "vbm": null,
  "efermi": 9.13926213,
  "is_gap_direct": null,
  "is_metal": null,
  "es_source_calc_id": null,
  "bandstructure": null,
  "dos": null,
  "dos_energy_up": null,
  "dos_energy_down": null,
  "is_magnetic": null,
  "ordering": null,
  "total_magnetization": 1e-7,
  "total_magnetization_normalized_vol": null,
  "total_magnetization_normalized_formula_units": null,
  "num_magnetic_sites": null,
  "num_unique_magnetic_sites": null,
  "types_of_magnetic_species": null,
  "bulk_modulus": null,
  "shear_modulus": null,
  "universal_anisotropy": null,
  "homogeneous_poisson": null,
  "e_total": null,
  "e_ionic": null,
  "e_electronic": null,
  "n": null,
  "e_ij_max": null,
  "weighted_surface_energy_EV_PER_ANG2": null,
  "weighted_surface_energy": null,
  "weighted_work_function": null,
  "surface_anisotropy": null,
  "shape_factor": null,
  "has_reconstructed": null,
  "possible_species": null,
  "has_props": null,
  "theoretical": null,
  "database_IDs": null,
  "fields_not_requested": [
    "builder_meta",
    "nsites",
    "elements",
    "nelements",
    "composition",
    "composition_reduced",
    "chemsys",
    "symmetry",
    "property_name",
    "deprecated",
    "deprecation_reasons",
    "last_updated",
    "origins",
    "warnings",
    "task_ids",
    "uncorrected_energy_per_atom",
    "equilibrium_reaction_energy_per_atom",
    "decomposes_to",
    "xas",
    "grain_boundaries",
    "cbm",
    "vbm",
    "is_gap_direct",
    "is_metal",
    "es_source_calc_id",
    "bandstructure",
    "dos",
    "dos_energy_up",
    "dos_energy_down",
    "is_magnetic",
    "ordering",
    "total_magnetization_normalized_vol",
    "total_magnetization_normalized_formula_units",
    "num_magnetic_sites",
    "num_unique_magnetic_sites",
    "types_of_magnetic_species",
    "bulk_modulus",
    "shear_modulus",
    "universal_anisotropy",
    "homogeneous_poisson",
    "e_total",
    "e_ionic",
    "e_electronic",
    "n",
    "e_ij_max",
    "weighted_surface_energy_EV_PER_ANG2",
    "weighted_surface_energy",
    "weighted_work_function",
    "surface_anisotropy",
    "shape_factor",
    "has_reconstructed",
    "possible_species",
    "has_props",
    "theoretical",
    "database_IDs"
  ]
}
