{
  "builder_meta": null,
  "nsites": null,
  "elements": null,
  "nelements": null,
  "composition": null,
  "composition_reduced": null,
  "formula_pretty": "PW3",
  "formula_anonymous": "AB3",
  "chemsys": null,
  "volume": 237.4651103819201,
  "density": 16.292981251791442,
  "density_atomic": 14.841569398870007,
  "symmetry": null,
  "property_name": null,
  "material_id": "mp-1209828",
  "deprecated": null,
  "deprecation_reasons": null,
  "last_updated": null,
  "origins": null,
  "warnings": null,
  "structure": {
    "@module": "pymatgen.core.structure",
    "@class": "Structure",
    "charge": 0,
    "lattice": {
      "matrix": [
        [-4.941775, 4.941775, 2.430938],
        [4.941775, -4.941775, 2.430938],
        [4.941775, 4.941775, -2.430938]
      ],
      "pbc": [true, true, true],
      "a": 7.399441861457794,
      "b": 7.399441861457794,
      "c": 7.399441861457794,
      "alpha": 96.19611260936148,
      "beta": 96.19611260936148,
      "gamma": 141.6408569202754,
      "volume": 237.4651103819201
    },
    "properties": {},
    "sites": [
      {
        "species": [{ "element": "P", "occu": 1 }],
        "abc": [0.292385, 0.0, 0.292385],
        "properties": { "magmom": -0.0 },
        "label": "P",
        "xyz": [0.0, 2.88980176675, 0.0]
      },
      {
        "species": [{ "element": "P", "occu": 1 }],
        "abc": [0.707615, 0.0, 0.707615],
        "properties": { "magmom": -0.0 },
        "label": "P",
        "xyz": [0.0, 6.99374823325, 0.0]
      },
      {
        "species": [{ "element": "P", "occu": 1 }],
        "abc": [0.0, 0.707615, 0.707615],
        "properties": { "magmom": -0.0 },
        "label": "P",
        "xyz": [6.99374823325, 0.0, 0.0]
      },
      {
        "species": [{ "element": "P", "occu": 1 }],
        "abc": [0.0, 0.292385, 0.292385],
        "properties": { "magmom": -0.0 },
        "label": "P",
        "xyz": [2.88980176675, 0.0, 0.0]
      },
      {
        "species": [{ "element": "W", "occu": 1 }],
        "abc": [0.362361999999999, 0.362361999999999, 0.188288999999999],
        "properties": { "magmom": -0.0 },
        "label": "W",
        "xyz": [0.9304818729749951, 0.9304818729749951, 1.3040402260299975]
      },
      {
        "species": [{ "element": "W", "occu": 1 }],
        "abc": [0.174072, 0.174072, 0.811711],
        "properties": { "magmom": -0.0 },
        "label": "W",
        "xyz": [4.011293127025, 4.011293127025, -1.126902635846]
      },
      {
        "species": [{ "element": "W", "occu": 1 }],
        "abc": [0.825928, 0.637637999999999, 0.0],
        "properties": { "magmom": -0.0 },
        "label": "W",
        "xyz": [-0.9304868147500049, 0.9304868147500049, 3.5578382049079975]
      },
      {
        "species": [{ "element": "W", "occu": 1 }],
        "abc": [0.637637999999999, 0.825928, 0.0],
        "properties": { "magmom": -0.0 },
        "label": "W",
        "xyz": [0.9304868147500049, -0.9304868147500049, 3.5578382049079975]
      },
      {
        "species": [{ "element": "W", "occu": 1 }],
        "abc": [0.573521, 0.573521, 0.601266],
        "properties": { "magmom": -0.0 },
        "label": "W",
        "xyz": [2.97132128715, 2.97132128715, 1.3267476178879998]
      },
      {
        "species": [{ "element": "W", "occu": 1 }],
        "abc": [0.972255, 0.972255, 0.398734],
        "properties": { "magmom": -0.0 },
        "label": "W",
        "xyz": [1.9704537128499997, 1.9704537128499997, 3.7576856178879994]
      },
      {
        "species": [{ "element": "W", "occu": 1 }],
        "abc": [0.027745, 0.426479, 0.0],
        "properties": { "magmom": -0.0 },
        "label": "W",
        "xyz": [1.9704537128500001, -1.9704537128500001, 1.104190382112]
      },
      {
        "species": [{ "element": "W", "occu": 1 }],
        "abc": [0.426479, 0.027745, 0.0],
        "properties": { "magmom": -0.0 },
        "label": "W",
        "xyz": [-1.9704537128500001, 1.9704537128500001, 1.104190382112]
      },
      {
        "species": [{ "element": "W", "occu": 1 }],
        "abc": [0.854146, 0.5, 0.354145999999999],
        "properties": { "magmom": 0.0 },
        "label": "W",
        "xyz": [-4.218847493575595e-15, 3.5002196982999942, 2.430938000000002]
      },
      {
        "species": [{ "element": "W", "occu": 1 }],
        "abc": [0.145853999999999, 0.5, 0.645853999999999],
        "properties": { "magmom": 0.0 },
        "label": "W",
        "xyz": [4.941775, 1.4415553016999905, 0.0]
      },
      {
        "species": [{ "element": "W", "occu": 1 }],
        "abc": [0.5, 0.145853999999999, 0.645853999999999],
        "properties": { "magmom": 0.0 },
        "label": "W",
        "xyz": [1.4415553016999905, 4.941775, 0.0]
      },
      {
        "species": [{ "element": "W", "occu": 1 }],
        "abc": [0.5, 0.854146, 0.354145999999999],
        "properties": { "magmom": 0.0 },
        "label": "W",
        "xyz": [3.5002196982999942, -4.218847493575595e-15, 2.430938000000002]
      }
    ]
  },
  "task_ids": null,
  "uncorrected_energy_per_atom": null,
  "energy_per_atom": -40.900494791875005,
  "formation_energy_per_atom": -0.12412992886905201,
  "energy_above_hull": 0.057999603124997,
  "is_stable": false,
  "equilibrium_reaction_energy_per_atom": null,
  "decomposes_to": null,
  "xas": null,
  "grain_boundaries": null,
  "band_gap": 0.0,
  "cbm": null,
  "vbm": null,
  "efermi": 8.69163576,
  "is_gap_direct": null,
  "is_metal": null,
  "es_source_calc_id": null,
  "bandstructure": null,
  "dos": null,
  "dos_energy_up": null,
  "dos_energy_down": null,
  "is_magnetic": null,
  "ordering": null,
  "total_magnetization": 1.59e-5,
  "total_magnetization_normalized_vol": null,
  "total_magnetization_normalized_formula_units": null,
  "num_magnetic_sites": null,
  "num_unique_magnetic_sites": null,
  "types_of_magnetic_species": null,
  "bulk_modulus": null,
  "shear_modulus": null,
  "universal_anisotropy": null,
  "homogeneous_poisson": null,
  "e_total": null,
  "e_ionic": null,
  "e_electronic": null,
  "n": null,
  "e_ij_max": null,
  "weighted_surface_energy_EV_PER_ANG2": null,
  "weighted_surface_energy": null,
  "weighted_work_function": null,
  "surface_anisotropy": null,
  "shape_factor": null,
  "has_reconstructed": null,
  "possible_species": null,
  "has_props": null,
  "theoretical": null,
  "database_IDs": null,
  "fields_not_requested": [
    "builder_meta",
    "nsites",
    "elements",
    "nelements",
    "composition",
    "composition_reduced",
    "chemsys",
    "symmetry",
    "property_name",
    "deprecated",
    "deprecation_reasons",
    "last_updated",
    "origins",
    "warnings",
    "task_ids",
    "uncorrected_energy_per_atom",
    "equilibrium_reaction_energy_per_atom",
    "decomposes_to",
    "xas",
    "grain_boundaries",
    "cbm",
    "vbm",
    "is_gap_direct",
    "is_metal",
    "es_source_calc_id",
    "bandstructure",
    "dos",
    "dos_energy_up",
    "dos_energy_down",
    "is_magnetic",
    "ordering",
    "total_magnetization_normalized_vol",
    "total_magnetization_normalized_formula_units",
    "num_magnetic_sites",
    "num_unique_magnetic_sites",
    "types_of_magnetic_species",
    "bulk_modulus",
    "shear_modulus",
    "universal_anisotropy",
    "homogeneous_poisson",
    "e_total",
    "e_ionic",
    "e_electronic",
    "n",
    "e_ij_max",
    "weighted_surface_energy_EV_PER_ANG2",
    "weighted_surface_energy",
    "weighted_work_function",
    "surface_anisotropy",
    "shape_factor",
    "has_reconstructed",
    "possible_species",
    "has_props",
    "theoretical",
    "database_IDs"
  ]
}
