{
  "builder_meta": null,
  "nsites": null,
  "elements": null,
  "nelements": null,
  "composition": null,
  "composition_reduced": null,
  "formula_pretty": "Rb2As3",
  "formula_anonymous": "A2B3",
  "chemsys": null,
  "volume": 357.21048475557,
  "density": 3.678928815982916,
  "density_atomic": 35.721048475557,
  "symmetry": null,
  "property_name": null,
  "material_id": "mp-15556",
  "deprecated": null,
  "deprecation_reasons": null,
  "last_updated": null,
  "origins": null,
  "warnings": null,
  "structure": {
    "@module": "pymatgen.core.structure",
    "@class": "Structure",
    "charge": 0,
    "lattice": {
      "matrix": [
        [6.43186458, -0.03413949, -2.37035439],
        [-1.60753191, 6.22783157, -2.37035439],
        [0.015991099999999002, 0.02053052, 8.91417094]
      ],
      "pbc": [true, true, true],
      "a": 6.854825119171773,
      "b": 6.85482493140045,
      "c": 8.914208925365793,
      "alpha": 110.12810618796765,
      "beta": 110.12810833793185,
      "gamma": 96.02674583663466,
      "volume": 357.21048475556995
    },
    "properties": {},
    "sites": [
      {
        "species": [{ "element": "Rb", "occu": 1 }],
        "abc": [0.75, 0.25, 0.5],
        "properties": { "magmom": -0.0 },
        "label": "Rb",
        "xyz": [4.4300110075, 1.541618535, 2.08673108]
      },
      {
        "species": [{ "element": "Rb", "occu": 1 }],
        "abc": [0.25, 0.75, 0.5],
        "properties": { "magmom": -0.0 },
        "label": "Rb",
        "xyz": [0.4103127624999996, 4.672604065, 2.08673108]
      },
      {
        "species": [{ "element": "Rb", "occu": 1 }],
        "abc": [0.26345225, 0.7365477500000001, 0.0],
        "properties": { "magmom": -0.0 },
        "label": "Rb",
        "xyz": [0.5104651839326024, 4.5781012048081156, -2.37035439]
      },
      {
        "species": [{ "element": "Rb", "occu": 1 }],
        "abc": [0.7365477500000001, 0.26345225, -0.0],
        "properties": { "magmom": -0.0 },
        "label": "Rb",
        "xyz": [4.313867486067398, 1.615590875191885, -2.37035439]
      },
      {
        "species": [{ "element": "As", "occu": 1 }],
        "abc": [0.69594592, 0.69594592, 0.8434786],
        "properties": { "magmom": -0.0 },
        "label": "As",
        "xyz": [3.370962789049665, 4.327791787079185, 4.219635491282705]
      },
      {
        "species": [{ "element": "As", "occu": 1 }],
        "abc": [0.85246532, 0.85246532, 0.1565214],
        "properties": { "magmom": -0.0 },
        "label": "As",
        "xyz": [4.115079242677544, 5.283121166691794, -2.6460313118013934]
      },
      {
        "species": [{ "element": "As", "occu": 1 }],
        "abc": [0.30405408, 0.30405408, 0.1565214],
        "properties": { "magmom": -0.0 },
        "label": "As",
        "xyz": [1.4693609809503334, 1.8864308129208143, -0.0461733312827064]
      },
      {
        "species": [{ "element": "As", "occu": 1 }],
        "abc": [0.14753468, 0.14753468, 0.8434786],
        "properties": { "magmom": -0.0 },
        "label": "As",
        "xyz": [0.7252445273224548, 0.9311014333082065, 6.819493471801393]
      },
      {
        "species": [{ "element": "As", "occu": 1 }],
        "abc": [0.8428666100000001, 0.8428666100000001, 0.68573523],
        "properties": { "magmom": -0.0 },
        "label": "As",
        "xyz": [4.077234583711601, 5.234534747707669, 2.11697592140438]
      },
      {
        "species": [{ "element": "As", "occu": 1 }],
        "abc": [0.15713339, 0.15713339, 0.31426477],
        "properties": { "magmom": -0.0 },
        "label": "As",
        "xyz": [0.7630891862883981, 0.9796878522923317, 2.0564862385956197]
      }
    ]
  },
  "task_ids": null,
  "uncorrected_energy_per_atom": null,
  "energy_per_atom": -3.601258795999999,
  "formation_energy_per_atom": -0.40697164749999903,
  "energy_above_hull": 0.0,
  "is_stable": true,
  "equilibrium_reaction_energy_per_atom": null,
  "decomposes_to": null,
  "xas": null,
  "grain_boundaries": null,
  "band_gap": 0.39680000000000004,
  "cbm": null,
  "vbm": null,
  "efermi": 1.77841584,
  "is_gap_direct": null,
  "is_metal": null,
  "es_source_calc_id": null,
  "bandstructure": null,
  "dos": null,
  "dos_energy_up": null,
  "dos_energy_down": null,
  "is_magnetic": null,
  "ordering": null,
  "total_magnetization": 0.0,
  "total_magnetization_normalized_vol": null,
  "total_magnetization_normalized_formula_units": null,
  "num_magnetic_sites": null,
  "num_unique_magnetic_sites": null,
  "types_of_magnetic_species": null,
  "bulk_modulus": null,
  "shear_modulus": null,
  "universal_anisotropy": null,
  "homogeneous_poisson": null,
  "e_total": null,
  "e_ionic": null,
  "e_electronic": null,
  "n": null,
  "e_ij_max": null,
  "weighted_surface_energy_EV_PER_ANG2": null,
  "weighted_surface_energy": null,
  "weighted_work_function": null,
  "surface_anisotropy": null,
  "shape_factor": null,
  "has_reconstructed": null,
  "possible_species": null,
  "has_props": null,
  "theoretical": null,
  "database_IDs": null,
  "fields_not_requested": [
    "builder_meta",
    "nsites",
    "elements",
    "nelements",
    "composition",
    "composition_reduced",
    "chemsys",
    "symmetry",
    "property_name",
    "deprecated",
    "deprecation_reasons",
    "last_updated",
    "origins",
    "warnings",
    "task_ids",
    "uncorrected_energy_per_atom",
    "equilibrium_reaction_energy_per_atom",
    "decomposes_to",
    "xas",
    "grain_boundaries",
    "cbm",
    "vbm",
    "is_gap_direct",
    "is_metal",
    "es_source_calc_id",
    "bandstructure",
    "dos",
    "dos_energy_up",
    "dos_energy_down",
    "is_magnetic",
    "ordering",
    "total_magnetization_normalized_vol",
    "total_magnetization_normalized_formula_units",
    "num_magnetic_sites",
    "num_unique_magnetic_sites",
    "types_of_magnetic_species",
    "bulk_modulus",
    "shear_modulus",
    "universal_anisotropy",
    "homogeneous_poisson",
    "e_total",
    "e_ionic",
    "e_electronic",
    "n",
    "e_ij_max",
    "weighted_surface_energy_EV_PER_ANG2",
    "weighted_surface_energy",
    "weighted_work_function",
    "surface_anisotropy",
    "shape_factor",
    "has_reconstructed",
    "possible_species",
    "has_props",
    "theoretical",
    "database_IDs"
  ]
}
