{"builder_meta": null, "nsites": null, "elements": null, "nelements": null, "composition": null, "composition_reduced": null, "formula_pretty": "Rb2Au3", "formula_anonymous": "A2B3", "chemsys": null, "volume": 145.74708081622111, "density": 8.679812195922269, "density_atomic": 29.14941616324422, "symmetry": null, "property_name": null, "material_id": "mp-11814", "deprecated": null, "deprecation_reasons": null, "last_updated": null, "origins": null, "warnings": null, "structure": {"@module": "pymatgen.core.structure", "@class": "Structure", "charge": 0, "lattice": {"matrix": [[4.61085042, -1e-08, -1.91224986], [-0.9688047, 4.9263384, -2.33599669], [-0.02402823, -0.055158280000000004, 6.45706581]], "pbc": [true, true, true], "a": 4.991657151957073, "b": 5.53753312529574, "c": 6.457346100865311, "alpha": 115.3900158855471, "beta": 112.73749929455542, "gamma": 90.00000883797169, "volume": 145.7470808162211}, "properties": {}, "sites": [{"species": [{"element": "Rb", "occu": 1}], "abc": [0.80309646, 0.30309746, 0.60619491], "properties": {"magmom": -0.0}, "label": "Rb", "xyz": [3.3947496153631427, 1.4597239795291443, 1.6704846710481243]}, {"species": [{"element": "Rb", "occu": 1}], "abc": [0.19690254000000001, 0.69690354, 0.39380509], "properties": {"magmom": -0.0}, "label": "Rb", "xyz": [0.22326229498173816, 3.4114610568092654, 0.538334165205046]}, {"species": [{"element": "Au", "occu": 1}], "abc": [0.5, 0.25214756, 0.0], "properties": {"magmom": -0.0}, "label": "Au", "xyz": [2.061143468778468, 1.242164202294304, -1.5451407955515764]}, {"species": [{"element": "Au", "occu": 1}], "abc": [0.5, 0.7478524400000001, -0.0], "properties": {"magmom": -0.0}, "label": "Au", "xyz": [1.580902251221532, 3.684174187705696, -2.7031057544484236]}, {"species": [{"element": "Au", "occu": 1}], "abc": [-0.0, 0.0, 0.0], "properties": {"magmom": -0.0}, "label": "Au", "xyz": [0.0, 0.0, 0.0]}]}, "task_ids": null, "uncorrected_energy_per_atom": null, "energy_per_atom": -2.655181978, "formation_energy_per_atom": -0.29863914900000105, "energy_above_hull": 0.0, "is_stable": true, "equilibrium_reaction_energy_per_atom": null, "decomposes_to": null, "xas": null, "grain_boundaries": null, "band_gap": 0.0, "cbm": null, "vbm": null, "efermi": 2.51514085, "is_gap_direct": null, "is_metal": null, "es_source_calc_id": null, "bandstructure": null, "dos": null, "dos_energy_up": null, "dos_energy_down": null, "is_magnetic": null, "ordering": null, "total_magnetization": 1e-06, "total_magnetization_normalized_vol": null, "total_magnetization_normalized_formula_units": null, "num_magnetic_sites": null, "num_unique_magnetic_sites": null, "types_of_magnetic_species": null, "bulk_modulus": null, "shear_modulus": null, "universal_anisotropy": null, "homogeneous_poisson": null, "e_total": null, "e_ionic": null, "e_electronic": null, "n": null, "e_ij_max": null, "weighted_surface_energy_EV_PER_ANG2": null, "weighted_surface_energy": null, "weighted_work_function": null, "surface_anisotropy": null, "shape_factor": null, "has_reconstructed": null, "possible_species": null, "has_props": null, "theoretical": null, "database_IDs": null, "fields_not_requested": ["builder_meta", "nsites", "elements", "nelements", "composition", "composition_reduced", "chemsys", "symmetry", "property_name", "deprecated", "deprecation_reasons", "last_updated", "origins", "warnings", "task_ids", "uncorrected_energy_per_atom", "equilibrium_reaction_energy_per_atom", "decomposes_to", "xas", "grain_boundaries", "cbm", "vbm", "is_gap_direct", "is_metal", "es_source_calc_id", "bandstructure", "dos", "dos_energy_up", "dos_energy_down", "is_magnetic", "ordering", "total_magnetization_normalized_vol", "total_magnetization_normalized_formula_units", "num_magnetic_sites", "num_unique_magnetic_sites", "types_of_magnetic_species", "bulk_modulus", "shear_modulus", "universal_anisotropy", "homogeneous_poisson", "e_total", "e_ionic", "e_electronic", "n", "e_ij_max", "weighted_surface_energy_EV_PER_ANG2", "weighted_surface_energy", "weighted_work_function", "surface_anisotropy", "shape_factor", "has_reconstructed", "possible_species", "has_props", "theoretical", "database_IDs"]}