{"builder_meta": null, "nsites": null, "elements": null, "nelements": null, "composition": null, "composition_reduced": null, "formula_pretty": "Rb2Hg7", "formula_anonymous": "A2B7", "chemsys": null, "volume": 285.98323627994154, "density": 9.145493964190143, "density_atomic": 31.775915142215727, "symmetry": null, "property_name": null, "material_id": "mp-31474", "deprecated": null, "deprecation_reasons": null, "last_updated": null, "origins": null, "warnings": null, "structure": {"@module": "pymatgen.core.structure", "@class": "Structure", "charge": 0, "lattice": {"matrix": [[7.08437429, -0.0, -0.0], [-3.54218715, 6.13524851, 0.0], [-0.0, -0.0, 6.57971253]], "pbc": [true, true, true], "a": 7.08437429, "b": 7.084374643190628, "c": 6.57971253, "alpha": 90.0, "beta": 90.0, "gamma": 119.9999983975079, "volume": 285.98323627994154}, "properties": {}, "sites": [{"species": [{"element": "Rb", "occu": 1}], "abc": [0.333333, 0.666667, 0.84567499], "properties": {"magmom": 0.0}, "label": "Rb", "xyz": [-3.5455204803191975e-06, 4.09016771841617, 5.564298328010625]}, {"species": [{"element": "Rb", "occu": 1}], "abc": [0.666667, 0.333333, 0.15432501], "properties": {"magmom": 0.0}, "label": "Rb", "xyz": [3.5421906855204806, 2.04508079158383, 1.0154142019893755]}, {"species": [{"element": "Hg", "occu": 1}], "abc": [0.1805301, 0.361061199999999, 0.33587729], "properties": {"magmom": -0.0}, "label": "Hg", "xyz": [-3.5439924475078044e-06, 2.2152001893188062, 2.2099760135554436]}, {"species": [{"element": "Hg", "occu": 1}], "abc": [0.638938799999999, 0.8194699, 0.33587729], "properties": {"magmom": -0.0}, "label": "Hg", "xyz": [1.62376585801166, 5.027651482964849, 2.2099760135554436]}, {"species": [{"element": "Hg", "occu": 1}], "abc": [0.1805301, 0.8194699, 0.33587729], "properties": {"magmom": -0.0}, "label": "Hg", "xyz": [-1.6237729505806562, 5.027651482964849, 2.2099760135554436]}, {"species": [{"element": "Hg", "occu": 1}], "abc": [0.8194699, 0.638938799999999, 0.66412271], "properties": {"magmom": -0.0}, "label": "Hg", "xyz": [3.542190683992455, 3.920048320681182, 4.369736516444556]}, {"species": [{"element": "Hg", "occu": 1}], "abc": [0.8194699, 0.1805301, 0.66412271], "properties": {"magmom": -0.0}, "label": "Hg", "xyz": [5.165960090580656, 1.107597027035151, 4.369736516444556]}, {"species": [{"element": "Hg", "occu": 1}], "abc": [0.361061199999999, 0.1805301, 0.66412271], "properties": {"magmom": -0.0}, "label": "Hg", "xyz": [1.9184212819883264, 1.107597027035151, 4.369736516444556]}, {"species": [{"element": "Hg", "occu": 1}], "abc": [0.0, 0.0, -0.0], "properties": {"magmom": 0.0}, "label": "Hg", "xyz": [0.0, 0.0, 0.0]}]}, "task_ids": null, "uncorrected_energy_per_atom": null, "energy_per_atom": -0.6697627633333301, "formation_energy_per_atom": -0.21101027361111302, "energy_above_hull": 0.004523490370374, "is_stable": false, "equilibrium_reaction_energy_per_atom": null, "decomposes_to": null, "xas": null, "grain_boundaries": null, "band_gap": 0.0, "cbm": null, "vbm": null, "efermi": 1.4906545900000001, "is_gap_direct": null, "is_metal": null, "es_source_calc_id": null, "bandstructure": null, "dos": null, "dos_energy_up": null, "dos_energy_down": null, "is_magnetic": null, "ordering": null, "total_magnetization": 0.0, "total_magnetization_normalized_vol": null, "total_magnetization_normalized_formula_units": null, "num_magnetic_sites": null, "num_unique_magnetic_sites": null, "types_of_magnetic_species": null, "bulk_modulus": null, "shear_modulus": null, "universal_anisotropy": null, "homogeneous_poisson": null, "e_total": null, "e_ionic": null, "e_electronic": null, "n": null, "e_ij_max": null, "weighted_surface_energy_EV_PER_ANG2": null, "weighted_surface_energy": null, "weighted_work_function": null, "surface_anisotropy": null, "shape_factor": null, "has_reconstructed": null, "possible_species": null, "has_props": null, "theoretical": null, "database_IDs": null, "fields_not_requested": ["builder_meta", "nsites", "elements", "nelements", "composition", "composition_reduced", "chemsys", "symmetry", "property_name", "deprecated", "deprecation_reasons", "last_updated", "origins", "warnings", "task_ids", "uncorrected_energy_per_atom", "equilibrium_reaction_energy_per_atom", "decomposes_to", "xas", "grain_boundaries", "cbm", "vbm", "is_gap_direct", "is_metal", "es_source_calc_id", "bandstructure", "dos", "dos_energy_up", "dos_energy_down", "is_magnetic", "ordering", "total_magnetization_normalized_vol", "total_magnetization_normalized_formula_units", "num_magnetic_sites", "num_unique_magnetic_sites", "types_of_magnetic_species", "bulk_modulus", "shear_modulus", "universal_anisotropy", "homogeneous_poisson", "e_total", "e_ionic", "e_electronic", "n", "e_ij_max", "weighted_surface_energy_EV_PER_ANG2", "weighted_surface_energy", "weighted_work_function", "surface_anisotropy", "shape_factor", "has_reconstructed", "possible_species", "has_props", "theoretical", "database_IDs"]}