{"builder_meta": null, "nsites": null, "elements": null, "nelements": null, "composition": null, "composition_reduced": null, "formula_pretty": "Rb2In3", "formula_anonymous": "A2B3", "chemsys": null, "volume": 381.0350526652377, "density": 4.492104121828606, "density_atomic": 38.10350526652377, "symmetry": null, "property_name": null, "material_id": "mp-571505", "deprecated": null, "deprecation_reasons": null, "last_updated": null, "origins": null, "warnings": null, "structure": {"@module": "pymatgen.core.structure", "@class": "Structure", "charge": 0, "lattice": {"matrix": [[-3.4578282700000003, 3.4578282700000003, 7.96706017], [3.4578282700000003, -3.4578282700000003, 7.96706017], [3.4578282700000003, 3.4578282700000003, -7.96706017]], "pbc": [true, true, true], "a": 9.348112132512254, "b": 9.348112132512254, "c": 9.348112132512254, "alpha": 136.58160643976066, "beta": 136.58160643976066, "gamma": 63.08243279346645, "volume": 381.0350526652378}, "properties": {}, "sites": [{"species": [{"element": "Rb", "occu": 1}], "abc": [0.60980251, 0.60980251, -0.0], "properties": {"magmom": -0.0}, "label": "Rb", "xyz": [0.0, 0.0, 9.716666577974053]}, {"species": [{"element": "Rb", "occu": 1}], "abc": [0.39019749000000004, 0.39019749000000004, -0.0], "properties": {"magmom": -0.0}, "label": "Rb", "xyz": [0.0, 0.0, 6.217453762025947]}, {"species": [{"element": "Rb", "occu": 1}], "abc": [0.25, 0.75, 0.5], "properties": {"magmom": 0.0}, "label": "Rb", "xyz": [3.4578282700000003, 0.0, 3.983530085]}, {"species": [{"element": "Rb", "occu": 1}], "abc": [0.75, 0.25, 0.5], "properties": {"magmom": 0.0}, "label": "Rb", "xyz": [0.0, 3.4578282700000003, 3.983530085]}, {"species": [{"element": "In", "occu": 1}], "abc": [0.7045553800000001, 0.0, 0.7045553800000001], "properties": {"magmom": 0.0}, "label": "In", "xyz": [0.0, 4.872463021489186, 0.0]}, {"species": [{"element": "In", "occu": 1}], "abc": [0.85296139, 0.85296139, -0.0], "properties": {"magmom": -0.0}, "label": "In", "xyz": [0.0, 0.0, 13.591189433633673]}, {"species": [{"element": "In", "occu": 1}], "abc": [0.14703861000000001, 0.14703861000000001, 0.0], "properties": {"magmom": -0.0}, "label": "In", "xyz": [0.0, 0.0, 2.3429309063663277]}, {"species": [{"element": "In", "occu": 1}], "abc": [-0.0, 0.7045553800000001, 0.7045553800000001], "properties": {"magmom": 0.0}, "label": "In", "xyz": [4.872463021489186, 0.0, 0.0]}, {"species": [{"element": "In", "occu": 1}], "abc": [0.29544462, -0.0, 0.29544462], "properties": {"magmom": 0.0}, "label": "In", "xyz": [0.0, 2.0431935185108148, 0.0]}, {"species": [{"element": "In", "occu": 1}], "abc": [0.0, 0.29544462, 0.29544462], "properties": {"magmom": 0.0}, "label": "In", "xyz": [2.0431935185108148, 0.0, 0.0]}]}, "task_ids": null, "uncorrected_energy_per_atom": null, "energy_per_atom": -2.172231241, "formation_energy_per_atom": -0.12451336599999802, "energy_above_hull": 0.005627933761905001, "is_stable": false, "equilibrium_reaction_energy_per_atom": null, "decomposes_to": null, "xas": null, "grain_boundaries": null, "band_gap": 0.0, "cbm": null, "vbm": null, "efermi": 3.16601953, "is_gap_direct": null, "is_metal": null, "es_source_calc_id": null, "bandstructure": null, "dos": null, "dos_energy_up": null, "dos_energy_down": null, "is_magnetic": null, "ordering": null, "total_magnetization": 0.0, "total_magnetization_normalized_vol": null, "total_magnetization_normalized_formula_units": null, "num_magnetic_sites": null, "num_unique_magnetic_sites": null, "types_of_magnetic_species": null, "bulk_modulus": null, "shear_modulus": null, "universal_anisotropy": null, "homogeneous_poisson": null, "e_total": null, "e_ionic": null, "e_electronic": null, "n": null, "e_ij_max": null, "weighted_surface_energy_EV_PER_ANG2": null, "weighted_surface_energy": null, "weighted_work_function": null, "surface_anisotropy": null, "shape_factor": null, "has_reconstructed": null, "possible_species": null, "has_props": null, "theoretical": null, "database_IDs": null, "fields_not_requested": ["builder_meta", "nsites", "elements", "nelements", "composition", "composition_reduced", "chemsys", "symmetry", "property_name", "deprecated", "deprecation_reasons", "last_updated", "origins", "warnings", "task_ids", "uncorrected_energy_per_atom", "equilibrium_reaction_energy_per_atom", "decomposes_to", "xas", "grain_boundaries", "cbm", "vbm", "is_gap_direct", "is_metal", "es_source_calc_id", "bandstructure", "dos", "dos_energy_up", "dos_energy_down", "is_magnetic", "ordering", "total_magnetization_normalized_vol", "total_magnetization_normalized_formula_units", "num_magnetic_sites", "num_unique_magnetic_sites", "types_of_magnetic_species", "bulk_modulus", "shear_modulus", "universal_anisotropy", "homogeneous_poisson", "e_total", "e_ionic", "e_electronic", "n", "e_ij_max", "weighted_surface_energy_EV_PER_ANG2", "weighted_surface_energy", "weighted_work_function", "surface_anisotropy", "shape_factor", "has_reconstructed", "possible_species", "has_props", "theoretical", "database_IDs"]}