{"builder_meta": null, "nsites": null, "elements": null, "nelements": null, "composition": null, "composition_reduced": null, "formula_pretty": "Rb2Mo", "formula_anonymous": "AB2", "chemsys": null, "volume": 335.3035188804389, "density": 2.643320661840915, "density_atomic": 55.883919813406486, "symmetry": null, "property_name": null, "material_id": "mp-1209538", "deprecated": null, "deprecation_reasons": null, "last_updated": null, "origins": null, "warnings": null, "structure": {"@module": "pymatgen.core.structure", "@class": "Structure", "charge": 0, "lattice": {"matrix": [[0.0, -6.63357, 0.0], [-7.013583, 3.316785, 4.209916], [2.023902, 0.0, -8.42179]], "pbc": [true, true, true], "a": 6.63357, "b": 8.826936159346005, "c": 8.661566031019102, "alpha": 130.49627862423662, "beta": 90.0, "gamma": 112.07112143837945, "volume": 335.3035188804389}, "properties": {}, "sites": [{"species": [{"element": "Rb", "occu": 1}], "abc": [0.685739, 0.371479, 0.774407], "properties": {"magmom": 0.0}, "label": "Rb", "xyz": [-1.0380749231429998, -3.316781683215, -4.957997742766]}, {"species": [{"element": "Rb", "occu": 1}], "abc": [0.314261, 0.628521, 0.225593], "properties": {"magmom": 0.0}, "label": "Rb", "xyz": [-3.9516060768569994, -3.316785000428979e-06, 0.7461237427660001]}, {"species": [{"element": "Rb", "occu": 1}], "abc": [0.92478, 0.849561, 0.687048], "properties": {"magmom": 0.0}, "label": "Rb", "xyz": [-4.5679487657669995, -3.3167816832150003, -2.209593529044]}, {"species": [{"element": "Rb", "occu": 1}], "abc": [0.07522000000000001, 0.150439, 0.312952], "properties": {"magmom": 0.0}, "label": "Rb", "xyz": [-0.4217322342329999, -3.316785000095912e-06, -2.0022804709560003]}, {"species": [{"element": "Mo", "occu": 1}], "abc": [0.415350999999999, 0.830703, 0.904976], "properties": {"magmom": 0.0}, "label": "Mo", "xyz": [-3.9946217024969997, 3.3167850062021387e-06, -4.124327976092]}, {"species": [{"element": "Mo", "occu": 1}], "abc": [0.584649, 0.169297, 0.095024], "properties": {"magmom": 0.0}, "label": "Mo", "xyz": [-0.9950592975029999, -3.316788316785, -0.08754602390800004]}]}, "task_ids": null, "uncorrected_energy_per_atom": null, "energy_per_atom": -3.197802469999999, "formation_energy_per_atom": 1.071103615, "energy_above_hull": 1.071103615, "is_stable": false, "equilibrium_reaction_energy_per_atom": null, "decomposes_to": null, "xas": null, "grain_boundaries": null, "band_gap": 0.0, "cbm": null, "vbm": null, "efermi": 0.91637352, "is_gap_direct": null, "is_metal": null, "es_source_calc_id": null, "bandstructure": null, "dos": null, "dos_energy_up": null, "dos_energy_down": null, "is_magnetic": null, "ordering": null, "total_magnetization": 0.0047962, "total_magnetization_normalized_vol": null, "total_magnetization_normalized_formula_units": null, "num_magnetic_sites": null, "num_unique_magnetic_sites": null, "types_of_magnetic_species": null, "bulk_modulus": null, "shear_modulus": null, "universal_anisotropy": null, "homogeneous_poisson": null, "e_total": null, "e_ionic": null, "e_electronic": null, "n": null, "e_ij_max": null, "weighted_surface_energy_EV_PER_ANG2": null, "weighted_surface_energy": null, "weighted_work_function": null, "surface_anisotropy": null, "shape_factor": null, "has_reconstructed": null, "possible_species": null, "has_props": null, "theoretical": null, "database_IDs": null, "fields_not_requested": ["builder_meta", "nsites", "elements", "nelements", "composition", "composition_reduced", "chemsys", "symmetry", "property_name", "deprecated", "deprecation_reasons", "last_updated", "origins", "warnings", "task_ids", "uncorrected_energy_per_atom", "equilibrium_reaction_energy_per_atom", "decomposes_to", "xas", "grain_boundaries", "cbm", "vbm", "is_gap_direct", "is_metal", "es_source_calc_id", "bandstructure", "dos", "dos_energy_up", "dos_energy_down", "is_magnetic", "ordering", "total_magnetization_normalized_vol", "total_magnetization_normalized_formula_units", "num_magnetic_sites", "num_unique_magnetic_sites", "types_of_magnetic_species", "bulk_modulus", "shear_modulus", "universal_anisotropy", "homogeneous_poisson", "e_total", "e_ionic", "e_electronic", "n", "e_ij_max", "weighted_surface_energy_EV_PER_ANG2", "weighted_surface_energy", "weighted_work_function", "surface_anisotropy", "shape_factor", "has_reconstructed", "possible_species", "has_props", "theoretical", "database_IDs"]}