{"builder_meta": null, "nsites": null, "elements": null, "nelements": null, "composition": null, "composition_reduced": null, "formula_pretty": "Rb2O3", "formula_anonymous": "A2B3", "chemsys": null, "volume": 413.0637584381508, "density": 3.520503752484265, "density_atomic": 20.653187921907538, "symmetry": null, "property_name": null, "material_id": "mp-2571", "deprecated": null, "deprecation_reasons": null, "last_updated": null, "origins": null, "warnings": null, "structure": {"@module": "pymatgen.core.structure", "@class": "Structure", "charge": 0, "lattice": {"matrix": [[-4.691579, 4.691579, 4.691579], [4.691579, -4.691579, 4.691579], [4.691579, 4.691579, -4.691579]], "pbc": [true, true, true], "a": 8.126053195723186, "b": 8.126053195723186, "c": 8.126053195723186, "alpha": 109.47122063449069, "beta": 109.47122063449069, "gamma": 109.47122063449069, "volume": 413.0637584381508}, "properties": {}, "sites": [{"species": [{"element": "Rb", "occu": 1}], "abc": [0.5, 0.0, 0.102341999999999], "properties": {"magmom": 0.002}, "label": "Rb", "xyz": [-1.8656439219820047, 2.8259350780179955, 1.8656439219820047]}, {"species": [{"element": "Rb", "occu": 1}], "abc": [0.602341999999999, 0.5, 0.0], "properties": {"magmom": 0.002}, "label": "Rb", "xyz": [-0.4801455780179955, 0.4801455780179955, 5.1717245780179955]}, {"species": [{"element": "Rb", "occu": 1}], "abc": [0.0, 0.602341999999999, 0.5], "properties": {"magmom": 0.002}, "label": "Rb", "xyz": [5.1717245780179955, -0.4801455780179955, 0.4801455780179955]}, {"species": [{"element": "Rb", "occu": 1}], "abc": [0.897658, 0.897658, 0.897658], "properties": {"magmom": 0.002}, "label": "Rb", "xyz": [4.211433421982, 4.211433421982, 4.211433421982]}, {"species": [{"element": "Rb", "occu": 1}], "abc": [0.0, 0.102341999999999, 0.5], "properties": {"magmom": 0.002}, "label": "Rb", "xyz": [2.8259350780179955, 1.8656439219820047, -1.8656439219820047]}, {"species": [{"element": "Rb", "occu": 1}], "abc": [0.397657999999999, 0.397657999999999, 0.397657999999999], "properties": {"magmom": 0.002}, "label": "Rb", "xyz": [1.8656439219819954, 1.8656439219819954, 1.8656439219819954]}, {"species": [{"element": "Rb", "occu": 1}], "abc": [0.102341999999999, 0.5, 0.0], "properties": {"magmom": 0.002}, "label": "Rb", "xyz": [1.8656439219820047, -1.8656439219820047, 2.8259350780179955]}, {"species": [{"element": "Rb", "occu": 1}], "abc": [0.5, 0.0, 0.602341999999999], "properties": {"magmom": 0.002}, "label": "Rb", "xyz": [0.4801455780179955, 5.1717245780179955, -0.4801455780179955]}, {"species": [{"element": "O", "occu": 1}], "abc": [0.550032, 0.75, 0.300031999999999], "properties": {"magmom": 0.269}, "label": "O", "xyz": [2.345789499999995, 0.4694581610559956, 4.691579000000004]}, {"species": [{"element": "O", "occu": 1}], "abc": [0.75, 0.449968, 0.699967999999999], "properties": {"magmom": 0.269}, "label": "O", "xyz": [1.8763313389439955, 4.6915789999999955, 2.345789500000005]}, {"species": [{"element": "O", "occu": 1}], "abc": [0.25, 0.050032, 0.800032], "properties": {"magmom": 0.269}, "label": "O", "xyz": [2.8152476610559996, 4.691579, -2.3457894999999995]}, {"species": [{"element": "O", "occu": 1}], "abc": [0.449968, 0.699967999999999, 0.75], "properties": {"magmom": 0.269}, "label": "O", "xyz": [4.6915789999999955, 2.3457895000000044, 1.876331338943995]}, {"species": [{"element": "O", "occu": 1}], "abc": [0.050032, 0.800032, 0.25], "properties": {"magmom": 0.269}, "label": "O", "xyz": [4.691579, -2.3457894999999995, 2.8152476610559996]}, {"species": [{"element": "O", "occu": 1}], "abc": [0.699967999999999, 0.75, 0.449968], "properties": {"magmom": 0.269}, "label": "O", "xyz": [2.3457895000000044, 1.8763313389439955, 4.6915789999999955]}, {"species": [{"element": "O", "occu": 1}], "abc": [0.300031999999999, 0.550032, 0.75], "properties": {"magmom": 0.269}, "label": "O", "xyz": [4.691579000000004, 2.345789499999995, 0.4694581610559956]}, {"species": [{"element": "O", "occu": 1}], "abc": [0.25, 0.199967999999999, 0.949967999999999], "properties": {"magmom": 0.269}, "label": "O", "xyz": [4.222120838943991, 4.691579, -2.3457895000000004]}, {"species": [{"element": "O", "occu": 1}], "abc": [0.199967999999999, 0.949967999999999, 0.25], "properties": {"magmom": 0.269}, "label": "O", "xyz": [4.691579, -2.3457895000000004, 4.222120838943991]}, {"species": [{"element": "O", "occu": 1}], "abc": [0.75, 0.300031999999999, 0.550032], "properties": {"magmom": 0.269}, "label": "O", "xyz": [0.4694581610559956, 4.691579000000004, 2.3457894999999955]}, {"species": [{"element": "O", "occu": 1}], "abc": [0.949967999999999, 0.25, 0.199967999999999], "properties": {"magmom": 0.269}, "label": "O", "xyz": [-2.3457895, 4.22212083894399, 4.691579000000001]}, {"species": [{"element": "O", "occu": 1}], "abc": [0.800032, 0.25, 0.050032], "properties": {"magmom": 0.269}, "label": "O", "xyz": [-2.3457894999999995, 2.8152476610559996, 4.691579]}]}, "task_ids": null, "uncorrected_energy_per_atom": null, "energy_per_atom": -4.3848314965, "formation_energy_per_atom": -1.0238412645, "energy_above_hull": 0.052712337499999005, "is_stable": false, "equilibrium_reaction_energy_per_atom": null, "decomposes_to": null, "xas": null, "grain_boundaries": null, "band_gap": 0.0, "cbm": null, "vbm": null, "efermi": 0.95682703, "is_gap_direct": null, "is_metal": null, "es_source_calc_id": null, "bandstructure": null, "dos": null, "dos_energy_up": null, "dos_energy_down": null, "is_magnetic": null, "ordering": null, "total_magnetization": 3.9996576, "total_magnetization_normalized_vol": null, "total_magnetization_normalized_formula_units": null, "num_magnetic_sites": null, "num_unique_magnetic_sites": null, "types_of_magnetic_species": null, "bulk_modulus": null, "shear_modulus": null, "universal_anisotropy": null, "homogeneous_poisson": null, "e_total": null, "e_ionic": null, "e_electronic": null, "n": null, "e_ij_max": null, "weighted_surface_energy_EV_PER_ANG2": null, "weighted_surface_energy": null, "weighted_work_function": null, "surface_anisotropy": null, "shape_factor": null, "has_reconstructed": null, "possible_species": null, "has_props": null, "theoretical": null, "database_IDs": null, "fields_not_requested": ["builder_meta", "nsites", "elements", "nelements", "composition", "composition_reduced", "chemsys", "symmetry", "property_name", "deprecated", "deprecation_reasons", "last_updated", "origins", "warnings", "task_ids", "uncorrected_energy_per_atom", "equilibrium_reaction_energy_per_atom", "decomposes_to", "xas", "grain_boundaries", "cbm", "vbm", "is_gap_direct", "is_metal", "es_source_calc_id", "bandstructure", "dos", "dos_energy_up", "dos_energy_down", "is_magnetic", "ordering", "total_magnetization_normalized_vol", "total_magnetization_normalized_formula_units", "num_magnetic_sites", "num_unique_magnetic_sites", "types_of_magnetic_species", "bulk_modulus", "shear_modulus", "universal_anisotropy", "homogeneous_poisson", "e_total", "e_ionic", "e_electronic", "n", "e_ij_max", "weighted_surface_energy_EV_PER_ANG2", "weighted_surface_energy", "weighted_work_function", "surface_anisotropy", "shape_factor", "has_reconstructed", "possible_species", "has_props", "theoretical", "database_IDs"]}