{
  "builder_meta": null,
  "nsites": null,
  "elements": null,
  "nelements": null,
  "composition": null,
  "composition_reduced": null,
  "formula_pretty": "Rb2O2",
  "formula_anonymous": "AB",
  "chemsys": null,
  "volume": 88.54103940072844,
  "density": 3.805924364992925,
  "density_atomic": 22.13525985018211,
  "symmetry": null,
  "property_name": null,
  "material_id": "mp-7895",
  "deprecated": null,
  "deprecation_reasons": null,
  "last_updated": null,
  "origins": null,
  "warnings": null,
  "structure": {
    "@module": "pymatgen.core.structure",
    "@class": "Structure",
    "charge": 0,
    "lattice": {
      "matrix": [
        [3.81317112, 0.0, 1.7288776700000001],
        [1.5877588500000002, 4.56661157, 1.5676363800000002],
        [-0.0058917, 0.00289662, 5.08255374]
      ],
      "pbc": [true, true, true],
      "a": 4.186799731086583,
      "b": 5.0825587273449875,
      "c": 5.082557980242262,
      "alpha": 72.02607387450888,
      "beta": 65.67705785001226,
      "gamma": 65.67706131099138,
      "volume": 88.54103940072844
    },
    "properties": {},
    "sites": [
      {
        "species": [{ "element": "Rb", "occu": 1 }],
        "abc": [0.74373607, 0.25626393000000003, 0.25626393000000003],
        "properties": { "magmom": -0.0 },
        "label": "Rb",
        "xyz": [3.241368395623198, 1.1710001269365868, 2.990032539194929]
      },
      {
        "species": [{ "element": "Rb", "occu": 1 }],
        "abc": [0.25626393000000003, 0.74373607, 0.74373607],
        "properties": { "magmom": -0.0 },
        "label": "Rb",
        "xyz": [2.1536698743768024, 3.3985080630634132, 5.389035250805071]
      },
      {
        "species": [{ "element": "O", "occu": 1 }],
        "abc": [-0.0, 0.62688266, 0.37311734],
        "properties": { "magmom": 0.0 },
        "label": "O",
        "xyz": [0.9931401958944632, 2.863810387337767, 2.8791129956830224]
      },
      {
        "species": [{ "element": "O", "occu": 1 }],
        "abc": [0.0, 0.37311734, 0.62688266],
        "properties": { "magmom": 0.0 },
        "label": "O",
        "xyz": [0.5887269541055371, 1.7056978026622331, 3.7710771243169776]
      }
    ]
  },
  "task_ids": null,
  "uncorrected_energy_per_atom": null,
  "energy_per_atom": -4.1972411,
  "formation_energy_per_atom": -1.23299356125,
  "energy_above_hull": 0.0,
  "is_stable": true,
  "equilibrium_reaction_energy_per_atom": null,
  "decomposes_to": null,
  "xas": null,
  "grain_boundaries": null,
  "band_gap": 1.76,
  "cbm": null,
  "vbm": null,
  "efermi": 1.29022195,
  "is_gap_direct": null,
  "is_metal": null,
  "es_source_calc_id": null,
  "bandstructure": null,
  "dos": null,
  "dos_energy_up": null,
  "dos_energy_down": null,
  "is_magnetic": null,
  "ordering": null,
  "total_magnetization": 0.0,
  "total_magnetization_normalized_vol": null,
  "total_magnetization_normalized_formula_units": null,
  "num_magnetic_sites": null,
  "num_unique_magnetic_sites": null,
  "types_of_magnetic_species": null,
  "bulk_modulus": null,
  "shear_modulus": null,
  "universal_anisotropy": null,
  "homogeneous_poisson": null,
  "e_total": null,
  "e_ionic": null,
  "e_electronic": null,
  "n": null,
  "e_ij_max": null,
  "weighted_surface_energy_EV_PER_ANG2": null,
  "weighted_surface_energy": null,
  "weighted_work_function": null,
  "surface_anisotropy": null,
  "shape_factor": null,
  "has_reconstructed": null,
  "possible_species": null,
  "has_props": null,
  "theoretical": null,
  "database_IDs": null,
  "fields_not_requested": [
    "builder_meta",
    "nsites",
    "elements",
    "nelements",
    "composition",
    "composition_reduced",
    "chemsys",
    "symmetry",
    "property_name",
    "deprecated",
    "deprecation_reasons",
    "last_updated",
    "origins",
    "warnings",
    "task_ids",
    "uncorrected_energy_per_atom",
    "equilibrium_reaction_energy_per_atom",
    "decomposes_to",
    "xas",
    "grain_boundaries",
    "cbm",
    "vbm",
    "is_gap_direct",
    "is_metal",
    "es_source_calc_id",
    "bandstructure",
    "dos",
    "dos_energy_up",
    "dos_energy_down",
    "is_magnetic",
    "ordering",
    "total_magnetization_normalized_vol",
    "total_magnetization_normalized_formula_units",
    "num_magnetic_sites",
    "num_unique_magnetic_sites",
    "types_of_magnetic_species",
    "bulk_modulus",
    "shear_modulus",
    "universal_anisotropy",
    "homogeneous_poisson",
    "e_total",
    "e_ionic",
    "e_electronic",
    "n",
    "e_ij_max",
    "weighted_surface_energy_EV_PER_ANG2",
    "weighted_surface_energy",
    "weighted_work_function",
    "surface_anisotropy",
    "shape_factor",
    "has_reconstructed",
    "possible_species",
    "has_props",
    "theoretical",
    "database_IDs"
  ]
}
