{
  "builder_meta": null,
  "nsites": null,
  "elements": null,
  "nelements": null,
  "composition": null,
  "composition_reduced": null,
  "formula_pretty": "Rb2P",
  "formula_anonymous": "AB2",
  "chemsys": null,
  "volume": 490.5224280270618,
  "density": 2.734051406063614,
  "density_atomic": 40.87686900225515,
  "symmetry": null,
  "property_name": null,
  "material_id": "mp-1101799",
  "deprecated": null,
  "deprecation_reasons": null,
  "last_updated": null,
  "origins": null,
  "warnings": null,
  "structure": {
    "@module": "pymatgen.core.structure",
    "@class": "Structure",
    "charge": 0,
    "lattice": {
      "matrix": [
        [5.49043, 0.0, 0.0],
        [0.0, 8.42026, 0.0],
        [0.0, 0.0, 10.610284]
      ],
      "pbc": [true, true, true],
      "a": 5.49043,
      "b": 8.42026,
      "c": 10.610284,
      "alpha": 90.0,
      "beta": 90.0,
      "gamma": 90.0,
      "volume": 490.5224280270618
    },
    "properties": {},
    "sites": [
      {
        "species": [{ "element": "Rb", "occu": 1 }],
        "abc": [0.25, 0.839569, 0.927566999999999],
        "properties": { "magmom": 0.017 },
        "label": "Rb",
        "xyz": [1.3726075, 7.069389267940001, 9.84174929902799]
      },
      {
        "species": [{ "element": "Rb", "occu": 1 }],
        "abc": [0.25, 0.339569, 0.572433],
        "properties": { "magmom": 0.017 },
        "label": "Rb",
        "xyz": [1.3726075, 2.85925926794, 6.073676700971999]
      },
      {
        "species": [{ "element": "Rb", "occu": 1 }],
        "abc": [0.75, 0.160431, 0.072433],
        "properties": { "magmom": 0.017 },
        "label": "Rb",
        "xyz": [4.1178225, 1.35087073206, 0.7685347009719999]
      },
      {
        "species": [{ "element": "Rb", "occu": 1 }],
        "abc": [0.75, 0.660431, 0.427567],
        "properties": { "magmom": 0.017 },
        "label": "Rb",
        "xyz": [4.1178225, 5.56100073206, 4.536607299028]
      },
      {
        "species": [{ "element": "Rb", "occu": 1 }],
        "abc": [0.25, 0.981256999999999, 0.326204],
        "properties": { "magmom": 0.006 },
        "label": "Rb",
        "xyz": [1.3726075, 8.262439066819992, 3.461117081936]
      },
      {
        "species": [{ "element": "Rb", "occu": 1 }],
        "abc": [0.25, 0.481257, 0.173795999999999],
        "properties": { "magmom": 0.006 },
        "label": "Rb",
        "xyz": [1.3726075, 4.05230906682, 1.8440249180639894]
      },
      {
        "species": [{ "element": "Rb", "occu": 1 }],
        "abc": [0.75, 0.018743, 0.673796],
        "properties": { "magmom": 0.006 },
        "label": "Rb",
        "xyz": [4.1178225, 0.15782093318, 7.149166918063999]
      },
      {
        "species": [{ "element": "Rb", "occu": 1 }],
        "abc": [0.75, 0.518743, 0.826203999999999],
        "properties": { "magmom": 0.006 },
        "label": "Rb",
        "xyz": [4.1178225, 4.36795093318, 8.76625908193599]
      },
      {
        "species": [{ "element": "P", "occu": 1 }],
        "abc": [0.25, 0.248213, 0.884852],
        "properties": { "magmom": 0.368 },
        "label": "P",
        "xyz": [1.3726075, 2.09001799538, 9.388531017967999]
      },
      {
        "species": [{ "element": "P", "occu": 1 }],
        "abc": [0.25, 0.748213, 0.615147999999999],
        "properties": { "magmom": 0.368 },
        "label": "P",
        "xyz": [1.3726075, 6.300147995380001, 6.5268949820319895]
      },
      {
        "species": [{ "element": "P", "occu": 1 }],
        "abc": [0.75, 0.751787, 0.115148],
        "properties": { "magmom": 0.368 },
        "label": "P",
        "xyz": [4.1178225, 6.3302420046200005, 1.2217529820320001]
      },
      {
        "species": [{ "element": "P", "occu": 1 }],
        "abc": [0.75, 0.251787, 0.38485199999999903],
        "properties": { "magmom": 0.368 },
        "label": "P",
        "xyz": [4.1178225, 2.12011200462, 4.08338901796799]
      }
    ]
  },
  "task_ids": null,
  "uncorrected_energy_per_atom": null,
  "energy_per_atom": -2.461420360833333,
  "formation_energy_per_atom": -0.002573137380952,
  "energy_above_hull": 0.237024995277778,
  "is_stable": false,
  "equilibrium_reaction_energy_per_atom": null,
  "decomposes_to": null,
  "xas": null,
  "grain_boundaries": null,
  "band_gap": 0.0,
  "cbm": null,
  "vbm": null,
  "efermi": 0.78227905,
  "is_gap_direct": null,
  "is_metal": null,
  "es_source_calc_id": null,
  "bandstructure": null,
  "dos": null,
  "dos_energy_up": null,
  "dos_energy_down": null,
  "is_magnetic": null,
  "ordering": null,
  "total_magnetization": 4.0004017,
  "total_magnetization_normalized_vol": null,
  "total_magnetization_normalized_formula_units": null,
  "num_magnetic_sites": null,
  "num_unique_magnetic_sites": null,
  "types_of_magnetic_species": null,
  "bulk_modulus": null,
  "shear_modulus": null,
  "universal_anisotropy": null,
  "homogeneous_poisson": null,
  "e_total": null,
  "e_ionic": null,
  "e_electronic": null,
  "n": null,
  "e_ij_max": null,
  "weighted_surface_energy_EV_PER_ANG2": null,
  "weighted_surface_energy": null,
  "weighted_work_function": null,
  "surface_anisotropy": null,
  "shape_factor": null,
  "has_reconstructed": null,
  "possible_species": null,
  "has_props": null,
  "theoretical": null,
  "database_IDs": null,
  "fields_not_requested": [
    "builder_meta",
    "nsites",
    "elements",
    "nelements",
    "composition",
    "composition_reduced",
    "chemsys",
    "symmetry",
    "property_name",
    "deprecated",
    "deprecation_reasons",
    "last_updated",
    "origins",
    "warnings",
    "task_ids",
    "uncorrected_energy_per_atom",
    "equilibrium_reaction_energy_per_atom",
    "decomposes_to",
    "xas",
    "grain_boundaries",
    "cbm",
    "vbm",
    "is_gap_direct",
    "is_metal",
    "es_source_calc_id",
    "bandstructure",
    "dos",
    "dos_energy_up",
    "dos_energy_down",
    "is_magnetic",
    "ordering",
    "total_magnetization_normalized_vol",
    "total_magnetization_normalized_formula_units",
    "num_magnetic_sites",
    "num_unique_magnetic_sites",
    "types_of_magnetic_species",
    "bulk_modulus",
    "shear_modulus",
    "universal_anisotropy",
    "homogeneous_poisson",
    "e_total",
    "e_ionic",
    "e_electronic",
    "n",
    "e_ij_max",
    "weighted_surface_energy_EV_PER_ANG2",
    "weighted_surface_energy",
    "weighted_work_function",
    "surface_anisotropy",
    "shape_factor",
    "has_reconstructed",
    "possible_species",
    "has_props",
    "theoretical",
    "database_IDs"
  ]
}
