{"builder_meta": null, "nsites": null, "elements": null, "nelements": null, "composition": null, "composition_reduced": null, "formula_pretty": "Rb2P3", "formula_anonymous": "A2B3", "chemsys": null, "volume": 321.0463988705387, "density": 2.729478783975418, "density_atomic": 32.10463988705387, "symmetry": null, "property_name": null, "material_id": "mp-2079", "deprecated": null, "deprecation_reasons": null, "last_updated": null, "origins": null, "warnings": null, "structure": {"@module": "pymatgen.core.structure", "@class": "Structure", "charge": 0, "lattice": {"matrix": [[6.18411596, -0.02404173, -2.35960955], [-1.41281805, 6.02061516, -2.35960955], [0.01369835, 0.01721645, 8.61714451]], "pbc": [true, true, true], "a": 6.619035083753471, "b": 6.619034595443571, "c": 8.617172596459145, "alpha": 110.79401611366016, "beta": 110.79401673504731, "gamma": 94.33813813300164, "volume": 321.0463988705388}, "properties": {}, "sites": [{"species": [{"element": "Rb", "occu": 1}], "abc": [0.25, 0.75, 0.5], "properties": {"magmom": -0.0}, "label": "Rb", "xyz": [0.49326462749999994, 4.5180591625, 1.9489627049999996]}, {"species": [{"element": "Rb", "occu": 1}], "abc": [0.75, 0.25, 0.5], "properties": {"magmom": -0.0}, "label": "Rb", "xyz": [4.2917316325, 1.4957307174999999, 1.9489627049999996]}, {"species": [{"element": "Rb", "occu": 1}], "abc": [0.27960539, 0.72039461, -0.0], "properties": {"magmom": 0.0}, "label": "Rb", "xyz": [0.7113256466703137, 4.330496512855363, -2.35960955]}, {"species": [{"element": "Rb", "occu": 1}], "abc": [0.72039461, 0.27960539, 0.0], "properties": {"magmom": 0.0}, "label": "Rb", "xyz": [4.059972263329686, 1.6660769171446372, -2.35960955]}, {"species": [{"element": "P", "occu": 1}], "abc": [0.8528821400000001, 0.8528821400000001, 0.70576428], "properties": {"magmom": -0.0}, "label": "P", "xyz": [4.079022578183265, 5.126521135083947, 2.056735105619228]}, {"species": [{"element": "P", "occu": 1}], "abc": [0.14711786000000002, 0.14711786000000002, 0.29423572000000003], "properties": {"magmom": -0.0}, "label": "P", "xyz": [0.7059736818167346, 0.8872687449160539, 1.841190304380771]}, {"species": [{"element": "P", "occu": 1}], "abc": [0.13328097, 0.13328097, 0.8537165600000001], "properties": {"magmom": -0.0}, "label": "P", "xyz": [0.6476177218434486, 0.8139270918960391, 6.727616868809559]}, {"species": [{"element": "P", "occu": 1}], "abc": [0.27956241, 0.27956241, 0.14628344000000001], "properties": {"magmom": -0.0}, "label": "P", "xyz": [1.335879384307887, 1.6789350013633542, -0.058770723014116344]}, {"species": [{"element": "P", "occu": 1}], "abc": [0.8667190300000001, 0.8667190300000001, 0.14628344000000001], "properties": {"magmom": -0.0}, "label": "P", "xyz": [4.137378538156551, 5.199862788103961, -2.8296914588095587]}, {"species": [{"element": "P", "occu": 1}], "abc": [0.72043759, 0.72043759, 0.8537165600000001], "properties": {"magmom": -0.0}, "label": "P", "xyz": [3.4491168756921122, 4.334854878636645, 3.9566961330141166]}]}, "task_ids": null, "uncorrected_energy_per_atom": null, "energy_per_atom": -4.072774383, "formation_energy_per_atom": -0.43127663878571404, "energy_above_hull": 0.0, "is_stable": true, "equilibrium_reaction_energy_per_atom": null, "decomposes_to": null, "xas": null, "grain_boundaries": null, "band_gap": 0.7643999999999991, "cbm": null, "vbm": null, "efermi": 2.31509446, "is_gap_direct": null, "is_metal": null, "es_source_calc_id": null, "bandstructure": null, "dos": null, "dos_energy_up": null, "dos_energy_down": null, "is_magnetic": null, "ordering": null, "total_magnetization": 0.0, "total_magnetization_normalized_vol": null, "total_magnetization_normalized_formula_units": null, "num_magnetic_sites": null, "num_unique_magnetic_sites": null, "types_of_magnetic_species": null, "bulk_modulus": null, "shear_modulus": null, "universal_anisotropy": null, "homogeneous_poisson": null, "e_total": null, "e_ionic": null, "e_electronic": null, "n": null, "e_ij_max": null, "weighted_surface_energy_EV_PER_ANG2": null, "weighted_surface_energy": null, "weighted_work_function": null, "surface_anisotropy": null, "shape_factor": null, "has_reconstructed": null, "possible_species": null, "has_props": null, "theoretical": null, "database_IDs": null, "fields_not_requested": ["builder_meta", "nsites", "elements", "nelements", "composition", "composition_reduced", "chemsys", "symmetry", "property_name", "deprecated", "deprecation_reasons", "last_updated", "origins", "warnings", "task_ids", "uncorrected_energy_per_atom", "equilibrium_reaction_energy_per_atom", "decomposes_to", "xas", "grain_boundaries", "cbm", "vbm", "is_gap_direct", "is_metal", "es_source_calc_id", "bandstructure", "dos", "dos_energy_up", "dos_energy_down", "is_magnetic", "ordering", "total_magnetization_normalized_vol", "total_magnetization_normalized_formula_units", "num_magnetic_sites", "num_unique_magnetic_sites", "types_of_magnetic_species", "bulk_modulus", "shear_modulus", "universal_anisotropy", "homogeneous_poisson", "e_total", "e_ionic", "e_electronic", "n", "e_ij_max", "weighted_surface_energy_EV_PER_ANG2", "weighted_surface_energy", "weighted_work_function", "surface_anisotropy", "shape_factor", "has_reconstructed", "possible_species", "has_props", "theoretical", "database_IDs"]}