{"builder_meta": null, "nsites": null, "elements": null, "nelements": null, "composition": null, "composition_reduced": null, "formula_pretty": "Rb2S5", "formula_anonymous": "A2B5", "chemsys": null, "volume": 839.3706492482418, "density": 2.621350498819616, "density_atomic": 29.977523187437207, "symmetry": null, "property_name": null, "material_id": "mp-16911", "deprecated": null, "deprecation_reasons": null, "last_updated": null, "origins": null, "warnings": null, "structure": {"@module": "pymatgen.core.structure", "@class": "Structure", "charge": 0, "lattice": {"matrix": [[6.59739156, 0.0, 0.0], [0.0, 6.81587051, 0.0], [0.0, 0.0, 18.66638364]], "pbc": [true, true, true], "a": 6.59739156, "b": 6.81587051, "c": 18.66638364, "alpha": 90.0, "beta": 90.0, "gamma": 90.0, "volume": 839.3706492482418}, "properties": {}, "sites": [{"species": [{"element": "Rb", "occu": 1}], "abc": [0.41748414, 0.7099368500000001, 0.32442375], "properties": {"magmom": 0.0}, "label": "Rb", "xyz": [2.7543063416698583, 4.838837639877294, 6.05581817942745]}, {"species": [{"element": "Rb", "occu": 1}], "abc": [0.91748414, 0.79006315, 0.67557625], "properties": {"magmom": 0.0}, "label": "Rb", "xyz": [6.053002121669858, 5.384968125122707, 12.61056546057255]}, {"species": [{"element": "Rb", "occu": 1}], "abc": [0.58251586, 0.20993685, 0.17557625000000002], "properties": {"magmom": 0.0}, "label": "Rb", "xyz": [3.843085218330142, 1.4309023848772935, 3.2773736405725504]}, {"species": [{"element": "Rb", "occu": 1}], "abc": [0.08251586, 0.29006315, 0.82442375], "properties": {"magmom": 0.0}, "label": "Rb", "xyz": [0.5443894383301416, 1.9770328701227065, 15.389009999427449]}, {"species": [{"element": "Rb", "occu": 1}], "abc": [0.87829332, 0.57391309, 0.00790404], "properties": {"magmom": 0.0}, "label": "Rb", "xyz": [5.79444493657238, 3.9117173054339758, 0.14753984294590558]}, {"species": [{"element": "Rb", "occu": 1}], "abc": [0.37829332, 0.92608691, 0.99209596], "properties": {"magmom": 0.0}, "label": "Rb", "xyz": [2.495749156572379, 6.312088459566024, 18.518843797054092]}, {"species": [{"element": "Rb", "occu": 1}], "abc": [0.12170668, 0.07391309, 0.49209596], "properties": {"magmom": 0.0}, "label": "Rb", "xyz": [0.8029466234276208, 0.503782050433976, 9.185651977054095]}, {"species": [{"element": "Rb", "occu": 1}], "abc": [0.6217066800000001, 0.42608691, 0.50790404], "properties": {"magmom": 0.0}, "label": "Rb", "xyz": [4.101642403427621, 2.904153204566024, 9.480731662945905]}, {"species": [{"element": "S", "occu": 1}], "abc": [0.54318423, 0.70643327, 0.14994328], "properties": {"magmom": -0.0}, "label": "S", "xyz": [3.5835990545270993, 4.8149576922758675, 2.7988987887199395]}, {"species": [{"element": "S", "occu": 1}], "abc": [0.043184230000000004, 0.79356673, 0.85005672], "properties": {"magmom": -0.0}, "label": "S", "xyz": [0.28490327452709885, 5.408848072724132, 15.86748485128006]}, {"species": [{"element": "S", "occu": 1}], "abc": [0.45681577, 0.20643327, 0.35005672], "properties": {"magmom": -0.0}, "label": "S", "xyz": [3.0137925054729013, 1.4070224372758677, 6.53429303128006]}, {"species": [{"element": "S", "occu": 1}], "abc": [0.9568157700000001, 0.29356673, 0.64994328], "properties": {"magmom": -0.0}, "label": "S", "xyz": [6.312488285472901, 2.0009128177241324, 12.132090608719938]}, {"species": [{"element": "S", "occu": 1}], "abc": [0.24688967, 0.62257756, 0.13901305], "properties": {"magmom": 0.0}, "label": "S", "xyz": [1.6288278251091852, 4.2434080313917555, 2.594870922266502]}, {"species": [{"element": "S", "occu": 1}], "abc": [0.7468896700000001, 0.87742244, 0.86098695], "properties": {"magmom": 0.0}, "label": "S", "xyz": [4.927523605109186, 5.980397733608244, 16.071512717733498]}, {"species": [{"element": "S", "occu": 1}], "abc": [0.75311033, 0.12257756, 0.36098695000000003], "properties": {"magmom": 0.0}, "label": "S", "xyz": [4.968563734890815, 0.8354727763917555, 6.738320897733498]}, {"species": [{"element": "S", "occu": 1}], "abc": [0.25311033, 0.37742244, 0.63901305], "properties": {"magmom": 0.0}, "label": "S", "xyz": [1.6698679548908149, 2.5724624786082444, 11.928062742266501]}, {"species": [{"element": "S", "occu": 1}], "abc": [0.5911773300000001, 0.92317526, 0.54001783], "properties": {"magmom": -0.0}, "label": "S", "xyz": [3.900228327405335, 6.292243030195583, 10.080179987220301]}, {"species": [{"element": "S", "occu": 1}], "abc": [0.09117733, 0.5768247400000001, 0.45998217], "properties": {"magmom": -0.0}, "label": "S", "xyz": [0.6015325474053348, 3.9315627348044178, 8.586203652779698]}, {"species": [{"element": "S", "occu": 1}], "abc": [0.40882267, 0.42317526, 0.95998217], "properties": {"magmom": -0.0}, "label": "S", "xyz": [2.697163232594665, 2.8843077751955826, 17.919395472779698]}, {"species": [{"element": "S", "occu": 1}], "abc": [0.90882267, 0.07682474, 0.040017830000000004], "properties": {"magmom": -0.0}, "label": "S", "xyz": [5.995859012594666, 0.5236274798044174, 0.7469881672203013]}, {"species": [{"element": "S", "occu": 1}], "abc": [0.43100013, 0.91203383, 0.63365447], "properties": {"magmom": -0.0}, "label": "S", "xyz": [2.843476620020903, 6.216304486019354, 11.828037432220869]}, {"species": [{"element": "S", "occu": 1}], "abc": [0.93100013, 0.5879661700000001, 0.36634553000000003], "properties": {"magmom": -0.0}, "label": "S", "xyz": [6.142172400020903, 4.007501278980647, 6.8383462077791295]}, {"species": [{"element": "S", "occu": 1}], "abc": [0.56899987, 0.41203383, 0.86634553], "properties": {"magmom": -0.0}, "label": "S", "xyz": [3.753914939979097, 2.8083692310193533, 16.17153802777913]}, {"species": [{"element": "S", "occu": 1}], "abc": [0.06899987, 0.08796617, 0.13365447], "properties": {"magmom": -0.0}, "label": "S", "xyz": [0.45521915997909723, 0.5995660239806466, 2.4948456122208706]}, {"species": [{"element": "S", "occu": 1}], "abc": [0.44337662, 0.17583533, 0.68869768], "properties": {"magmom": 0.0}, "label": "S", "xyz": [2.925129170689327, 1.1984708403631184, 12.855495106857955]}, {"species": [{"element": "S", "occu": 1}], "abc": [0.94337662, 0.32416467, 0.31130232], "properties": {"magmom": 0.0}, "label": "S", "xyz": [6.223824950689328, 2.2094644146368814, 5.810888533142045]}, {"species": [{"element": "S", "occu": 1}], "abc": [0.55662338, 0.6758353300000001, 0.81130232], "properties": {"magmom": 0.0}, "label": "S", "xyz": [3.672262389310673, 4.606406095363119, 15.144080353142044]}, {"species": [{"element": "S", "occu": 1}], "abc": [0.05662338, 0.82416467, 0.18869768], "properties": {"magmom": 0.0}, "label": "S", "xyz": [0.3735666093106728, 5.617399669636882, 3.522303286857955]}]}, "task_ids": null, "uncorrected_energy_per_atom": null, "energy_per_atom": -4.190726713571429, "formation_energy_per_atom": -0.9546030017857141, "energy_above_hull": 0.0, "is_stable": true, "equilibrium_reaction_energy_per_atom": null, "decomposes_to": null, "xas": null, "grain_boundaries": null, "band_gap": 1.9539, "cbm": null, "vbm": null, "efermi": 1.21777355, "is_gap_direct": null, "is_metal": null, "es_source_calc_id": null, "bandstructure": null, "dos": null, "dos_energy_up": null, "dos_energy_down": null, "is_magnetic": null, "ordering": null, "total_magnetization": 0.0, "total_magnetization_normalized_vol": null, "total_magnetization_normalized_formula_units": null, "num_magnetic_sites": null, "num_unique_magnetic_sites": null, "types_of_magnetic_species": null, "bulk_modulus": null, "shear_modulus": null, "universal_anisotropy": null, "homogeneous_poisson": null, "e_total": null, "e_ionic": null, "e_electronic": null, "n": null, "e_ij_max": null, "weighted_surface_energy_EV_PER_ANG2": null, "weighted_surface_energy": null, "weighted_work_function": null, "surface_anisotropy": null, "shape_factor": null, "has_reconstructed": null, "possible_species": null, "has_props": null, "theoretical": null, "database_IDs": null, "fields_not_requested": ["builder_meta", "nsites", "elements", "nelements", "composition", "composition_reduced", "chemsys", "symmetry", "property_name", "deprecated", "deprecation_reasons", "last_updated", "origins", "warnings", "task_ids", "uncorrected_energy_per_atom", "equilibrium_reaction_energy_per_atom", "decomposes_to", "xas", "grain_boundaries", "cbm", "vbm", "is_gap_direct", "is_metal", "es_source_calc_id", "bandstructure", "dos", "dos_energy_up", "dos_energy_down", "is_magnetic", "ordering", "total_magnetization_normalized_vol", "total_magnetization_normalized_formula_units", "num_magnetic_sites", "num_unique_magnetic_sites", "types_of_magnetic_species", "bulk_modulus", "shear_modulus", "universal_anisotropy", "homogeneous_poisson", "e_total", "e_ionic", "e_electronic", "n", "e_ij_max", "weighted_surface_energy_EV_PER_ANG2", "weighted_surface_energy", "weighted_work_function", "surface_anisotropy", "shape_factor", "has_reconstructed", "possible_species", "has_props", "theoretical", "database_IDs"]}