{"builder_meta": null, "nsites": null, "elements": null, "nelements": null, "composition": null, "composition_reduced": null, "formula_pretty": "Rb2Se5", "formula_anonymous": "A2B5", "chemsys": null, "volume": 926.1414257034322, "density": 4.057376288736327, "density_atomic": 33.07647948940829, "symmetry": null, "property_name": null, "material_id": "mp-620372", "deprecated": null, "deprecation_reasons": null, "last_updated": null, "origins": null, "warnings": null, "structure": {"@module": "pymatgen.core.structure", "@class": "Structure", "charge": 0, "lattice": {"matrix": [[6.95507691, 0.0, -0.00064769], [0.0, 7.23338269, 0.0], [-0.00174645, 0.0, 18.40915841]], "pbc": [true, true, true], "a": 6.955076940157994, "b": 7.23338269, "c": 18.409158492841584, "alpha": 90.0, "beta": 90.01077122378139, "gamma": 90.0, "volume": 926.1414257034322}, "properties": {}, "sites": [{"species": [{"element": "Rb", "occu": 1}], "abc": [0.58591198, 0.24275802000000002, 0.16128748], "properties": {"magmom": 0.0}, "label": "Rb", "xyz": [4.074781202870935, 1.7559616597266738, 2.968787279539381]}, {"species": [{"element": "Rb", "occu": 1}], "abc": [0.62006585, 0.415298299999999, 0.50949258], "properties": {"magmom": -0.0}, "label": "Rb", "xyz": [4.311715872698183, 3.0040115344064198, 9.37892800348921]}, {"species": [{"element": "Rb", "occu": 1}], "abc": [0.91426241, 0.7572835, 0.66130162], "properties": {"magmom": -0.0}, "label": "Rb", "xyz": [6.357610447257703, 5.477721360322615, 12.173414120749293]}, {"species": [{"element": "Rb", "occu": 1}], "abc": [0.87998381, 0.58464518, 0.00950207], "properties": {"magmom": 0.0}, "label": "Rb", "xyz": [6.120338483214676, 4.228962324803934, 0.1743551551390098]}, {"species": [{"element": "Rb", "occu": 1}], "abc": [0.12001619000000001, 0.08464518, 0.49049793], "properties": {"magmom": 0.0}, "label": "Rb", "xyz": [0.8338652017853244, 0.6122709798039342, 9.029576359860991]}, {"species": [{"element": "Rb", "occu": 1}], "abc": [0.37993415, 0.9152983, 0.99050742], "properties": {"magmom": -0.0}, "label": "Rb", "xyz": [2.6407413623018177, 6.620702879406427, 18.23416192151079]}, {"species": [{"element": "Rb", "occu": 1}], "abc": [0.41408802, 0.74275802, 0.33871252], "properties": {"magmom": 0.0}, "label": "Rb", "xyz": [2.879422482129064, 5.372653004726674, 6.23514423546062]}, {"species": [{"element": "Rb", "occu": 1}], "abc": [0.08573759, 0.2572835, 0.83869838], "properties": {"magmom": -0.0}, "label": "Rb", "xyz": [0.5948467877422959, 1.861030015322615, 15.439675804250708]}, {"species": [{"element": "Se", "occu": 1}], "abc": [0.90087562, 0.07949488, 0.01849677], "properties": {"magmom": -0.0}, "label": "Se", "xyz": [6.265626919759967, 0.5750168889356272, 0.3399264808730179]}, {"species": [{"element": "Se", "occu": 1}], "abc": [0.42742576, 0.86628467, 0.62574373], "properties": {"magmom": 0.0}, "label": "Se", "xyz": [2.971686203977943, 6.266168536590362, 11.519138610243775]}, {"species": [{"element": "Se", "occu": 1}], "abc": [0.03890158, 0.8710379500000001, 0.20194124], "properties": {"magmom": -0.0}, "label": "Se", "xyz": [0.27021080054191976, 6.300550829863086, 3.717543080507478]}, {"species": [{"element": "Se", "occu": 1}], "abc": [0.96109842, 0.37103795, 0.29805876000000003], "properties": {"magmom": -0.0}, "label": "Se", "xyz": [6.68399288445808, 2.6838594848630857, 5.486388434492523]}, {"species": [{"element": "Se", "occu": 1}], "abc": [0.25487664, 0.35804619, 0.65062054], "properties": {"magmom": 0.0}, "label": "Se", "xyz": [1.7715503575202993, 2.589885112966451, 11.97721150460878]}, {"species": [{"element": "Se", "occu": 1}], "abc": [0.07272341, 0.13367149, 0.12565286], "properties": {"magmom": 0.0}, "label": "Se", "xyz": [0.5055774632701161, 0.9668970419125081, 2.31311630218413]}, {"species": [{"element": "Se", "occu": 1}], "abc": [0.56422922, 0.74495042, 0.16056993], "properties": {"magmom": -0.0}, "label": "Se", "xyz": [3.9239771926150615, 5.38851147293623, 2.9555918316291097]}, {"species": [{"element": "Se", "occu": 1}], "abc": [0.53884837, 0.62897457, 0.79802606], "properties": {"magmom": -0.0}, "label": "Se", "xyz": [3.7463381435656493, 4.549613767088194, 14.690639147147397]}, {"species": [{"element": "Se", "occu": 1}], "abc": [0.57257424, 0.36628467000000003, 0.8742562700000001], "properties": {"magmom": 0.0}, "label": "Se", "xyz": [3.9807710310220568, 2.6494771915903628, 16.093951314756225]}, {"species": [{"element": "Se", "occu": 1}], "abc": [0.09912438, 0.57949488, 0.48150323], "properties": {"magmom": -0.0}, "label": "Se", "xyz": [0.6885767652400322, 4.1917082339356275, 8.864005034126983]}, {"species": [{"element": "Se", "occu": 1}], "abc": [0.59923492, 0.9205179800000001, 0.51859681], "properties": {"magmom": -0.0}, "label": "Se", "xyz": [4.166819252358872, 6.658458822365767, 9.546542707745338]}, {"species": [{"element": "Se", "occu": 1}], "abc": [0.06430226, 0.75511468, 0.83947095], "properties": {"magmom": -0.0}, "label": "Se", "xyz": [0.4457610697461891, 5.46203345527689, 15.453912051212411]}, {"species": [{"element": "Se", "occu": 1}], "abc": [0.75494291, 0.14192417000000002, 0.349346899999999], "properties": {"magmom": 0.0}, "label": "Se", "xyz": [5.250075884815703, 1.0265918345706173, 6.430693453169033]}, {"species": [{"element": "Se", "occu": 1}], "abc": [0.9272765900000001, 0.63367149, 0.37434714], "properties": {"magmom": 0.0}, "label": "Se", "xyz": [6.448626221729884, 4.583588386912508, 6.890815212815871]}, {"species": [{"element": "Se", "occu": 1}], "abc": [0.9356977400000001, 0.25511468, 0.6605290500000001], "properties": {"magmom": -0.0}, "label": "Se", "xyz": [6.506696165253811, 1.845342110276889, 12.159177873787591]}, {"species": [{"element": "Se", "occu": 1}], "abc": [0.46115163000000003, 0.12897457, 0.70197394], "properties": {"magmom": -0.0}, "label": "Se", "xyz": [3.2061190914343505, 0.9329224220881934, 12.922450777852601]}, {"species": [{"element": "Se", "occu": 1}], "abc": [0.74512336, 0.85804619, 0.84937946], "properties": {"magmom": 0.0}, "label": "Se", "xyz": [5.180906877479701, 6.2065764579664515, 15.635878420391219]}, {"species": [{"element": "Se", "occu": 1}], "abc": [0.43577078, 0.24495042, 0.33943007000000003], "properties": {"magmom": -0.0}, "label": "Se", "xyz": [3.0302264923849385, 1.7718201279362298, 6.248339683370891]}, {"species": [{"element": "Se", "occu": 1}], "abc": [0.24505709, 0.64192417, 0.150653099999999], "properties": {"magmom": 0.0}, "label": "Se", "xyz": [1.704127800184297, 4.643283179570617, 2.7732380618309307]}, {"species": [{"element": "Se", "occu": 1}], "abc": [0.40076508, 0.42051798, 0.98140319], "properties": {"magmom": -0.0}, "label": "Se", "xyz": [2.785637982641127, 3.041767477365766, 18.066547217254662]}]}, "task_ids": null, "uncorrected_energy_per_atom": null, "energy_per_atom": -3.358667716785713, "formation_energy_per_atom": -0.581435497745535, "energy_above_hull": 0.190123902544643, "is_stable": false, "equilibrium_reaction_energy_per_atom": null, "decomposes_to": null, "xas": null, "grain_boundaries": null, "band_gap": 0.8360999999999991, "cbm": null, "vbm": null, "efermi": 1.05557163, "is_gap_direct": null, "is_metal": null, "es_source_calc_id": null, "bandstructure": null, "dos": null, "dos_energy_up": null, "dos_energy_down": null, "is_magnetic": null, "ordering": null, "total_magnetization": 0.0, "total_magnetization_normalized_vol": null, "total_magnetization_normalized_formula_units": null, "num_magnetic_sites": null, "num_unique_magnetic_sites": null, "types_of_magnetic_species": null, "bulk_modulus": null, "shear_modulus": null, "universal_anisotropy": null, "homogeneous_poisson": null, "e_total": null, "e_ionic": null, "e_electronic": null, "n": null, "e_ij_max": null, "weighted_surface_energy_EV_PER_ANG2": null, "weighted_surface_energy": null, "weighted_work_function": null, "surface_anisotropy": null, "shape_factor": null, "has_reconstructed": null, "possible_species": null, "has_props": null, "theoretical": null, "database_IDs": null, "fields_not_requested": ["builder_meta", "nsites", "elements", "nelements", "composition", "composition_reduced", "chemsys", "symmetry", "property_name", "deprecated", "deprecation_reasons", "last_updated", "origins", "warnings", "task_ids", "uncorrected_energy_per_atom", "equilibrium_reaction_energy_per_atom", "decomposes_to", "xas", "grain_boundaries", "cbm", "vbm", "is_gap_direct", "is_metal", "es_source_calc_id", "bandstructure", "dos", "dos_energy_up", "dos_energy_down", "is_magnetic", "ordering", "total_magnetization_normalized_vol", "total_magnetization_normalized_formula_units", "num_magnetic_sites", "num_unique_magnetic_sites", "types_of_magnetic_species", "bulk_modulus", "shear_modulus", "universal_anisotropy", "homogeneous_poisson", "e_total", "e_ionic", "e_electronic", "n", "e_ij_max", "weighted_surface_energy_EV_PER_ANG2", "weighted_surface_energy", "weighted_work_function", "surface_anisotropy", "shape_factor", "has_reconstructed", "possible_species", "has_props", "theoretical", "database_IDs"]}