{
  "builder_meta": null,
  "nsites": null,
  "elements": null,
  "nelements": null,
  "composition": null,
  "composition_reduced": null,
  "formula_pretty": "Rb2S3",
  "formula_anonymous": "A2B3",
  "chemsys": null,
  "volume": 306.6292394225025,
  "density": 2.893271352854191,
  "density_atomic": 30.662923942250252,
  "symmetry": null,
  "property_name": null,
  "material_id": "mp-7446",
  "deprecated": null,
  "deprecation_reasons": null,
  "last_updated": null,
  "origins": null,
  "warnings": null,
  "structure": {
    "@module": "pymatgen.core.structure",
    "@class": "Structure",
    "charge": 0,
    "lattice": {
      "matrix": [
        [6.48233583, -0.082243799999999, 0.0],
        [-2.10065484, 6.13308222, -0.0],
        [0.0, 0.0, 7.74630558]
      ],
      "pbc": [true, true, true],
      "a": 6.482857537810023,
      "b": 6.482858032850601,
      "c": 7.74630558,
      "alpha": 90.0,
      "beta": 90.0,
      "gamma": 109.63384608185247,
      "volume": 306.6292394225025
    },
    "properties": {},
    "sites": [
      {
        "species": [{ "element": "Rb", "occu": 1 }],
        "abc": [0.42161959, 0.5783804100000001, 0.80951751],
        "properties": { "magmom": 0.0 },
        "label": "Rb",
        "xyz": [1.5181021672592254, 3.5125790117312694, 6.270770004820706]
      },
      {
        "species": [{ "element": "Rb", "occu": 1 }],
        "abc": [0.5783804100000001, 0.42161959, 0.30951751],
        "properties": { "magmom": 0.0 },
        "label": "Rb",
        "xyz": [2.8635788227407755, 2.5382594082687326, 2.3976172148207056]
      },
      {
        "species": [{ "element": "Rb", "occu": 1 }],
        "abc": [0.89358509, 0.10641491, 0.53885122],
        "properties": { "magmom": 0.0 },
        "label": "Rb",
        "xyz": [5.56897765032111, 0.5791595590389591, 4.174106212275807]
      },
      {
        "species": [{ "element": "Rb", "occu": 1 }],
        "abc": [0.10641491, 0.89358509, 0.03885222],
        "properties": { "magmom": 0.0 },
        "label": "Rb",
        "xyz": [-1.1872966603211101, 5.471678860961043, 0.3009611685813876]
      },
      {
        "species": [{ "element": "S", "occu": 1 }],
        "abc": [0.3828927, 0.06633443, 0.6526868],
        "properties": { "magmom": 0.0 },
        "label": "S",
        "xyz": [2.3426933268172996, 0.375343962566575, 5.055911400832344]
      },
      {
        "species": [{ "element": "S", "occu": 1 }],
        "abc": [0.6171073, 0.9336655700000001, 0.152686799999999],
        "properties": { "magmom": 0.0 },
        "label": "S",
        "xyz": [2.038987663182701, 5.675494457433427, 1.1827586108323362]
      },
      {
        "species": [{ "element": "S", "occu": 1 }],
        "abc": [0.9336655700000001, 0.6171073, 0.6526868],
        "properties": { "magmom": 0.0 },
        "label": "S",
        "xyz": [4.756004341104042, 3.7079816050562413, 5.055911400832344]
      },
      {
        "species": [{ "element": "S", "occu": 1 }],
        "abc": [0.06633443, 0.3828927, 0.152686799999999],
        "properties": { "magmom": 0.0 },
        "label": "S",
        "xyz": [-0.3743233511040409, 2.34285681494376, 1.1827586108323362]
      },
      {
        "species": [{ "element": "S", "occu": 1 }],
        "abc": [0.79954102, 0.20045898, 0.00365767],
        "properties": { "magmom": -0.0 },
        "label": "S",
        "xyz": [4.761798274942284, 1.1636741143366605, 0.0283334295307986]
      },
      {
        "species": [{ "element": "S", "occu": 1 }],
        "abc": [0.20045898, 0.79954102, 0.5036576700000001],
        "properties": { "magmom": -0.0 },
        "label": "S",
        "xyz": [-0.38011728494228336, 4.887164305663341, 3.9014862195307987]
      }
    ]
  },
  "task_ids": null,
  "uncorrected_energy_per_atom": null,
  "energy_per_atom": -3.961274148999999,
  "formation_energy_per_atom": -1.0860447794999981,
  "energy_above_hull": 0.0,
  "is_stable": true,
  "equilibrium_reaction_energy_per_atom": null,
  "decomposes_to": null,
  "xas": null,
  "grain_boundaries": null,
  "band_gap": 1.3433,
  "cbm": null,
  "vbm": null,
  "efermi": 1.57122471,
  "is_gap_direct": null,
  "is_metal": null,
  "es_source_calc_id": null,
  "bandstructure": null,
  "dos": null,
  "dos_energy_up": null,
  "dos_energy_down": null,
  "is_magnetic": null,
  "ordering": null,
  "total_magnetization": 0.0,
  "total_magnetization_normalized_vol": null,
  "total_magnetization_normalized_formula_units": null,
  "num_magnetic_sites": null,
  "num_unique_magnetic_sites": null,
  "types_of_magnetic_species": null,
  "bulk_modulus": null,
  "shear_modulus": null,
  "universal_anisotropy": null,
  "homogeneous_poisson": null,
  "e_total": null,
  "e_ionic": null,
  "e_electronic": null,
  "n": null,
  "e_ij_max": null,
  "weighted_surface_energy_EV_PER_ANG2": null,
  "weighted_surface_energy": null,
  "weighted_work_function": null,
  "surface_anisotropy": null,
  "shape_factor": null,
  "has_reconstructed": null,
  "possible_species": null,
  "has_props": null,
  "theoretical": null,
  "database_IDs": null,
  "fields_not_requested": [
    "builder_meta",
    "nsites",
    "elements",
    "nelements",
    "composition",
    "composition_reduced",
    "chemsys",
    "symmetry",
    "property_name",
    "deprecated",
    "deprecation_reasons",
    "last_updated",
    "origins",
    "warnings",
    "task_ids",
    "uncorrected_energy_per_atom",
    "equilibrium_reaction_energy_per_atom",
    "decomposes_to",
    "xas",
    "grain_boundaries",
    "cbm",
    "vbm",
    "is_gap_direct",
    "is_metal",
    "es_source_calc_id",
    "bandstructure",
    "dos",
    "dos_energy_up",
    "dos_energy_down",
    "is_magnetic",
    "ordering",
    "total_magnetization_normalized_vol",
    "total_magnetization_normalized_formula_units",
    "num_magnetic_sites",
    "num_unique_magnetic_sites",
    "types_of_magnetic_species",
    "bulk_modulus",
    "shear_modulus",
    "universal_anisotropy",
    "homogeneous_poisson",
    "e_total",
    "e_ionic",
    "e_electronic",
    "n",
    "e_ij_max",
    "weighted_surface_energy_EV_PER_ANG2",
    "weighted_surface_energy",
    "weighted_work_function",
    "surface_anisotropy",
    "shape_factor",
    "has_reconstructed",
    "possible_species",
    "has_props",
    "theoretical",
    "database_IDs"
  ]
}
