{
  "builder_meta": null,
  "nsites": null,
  "elements": null,
  "nelements": null,
  "composition": null,
  "composition_reduced": null,
  "formula_pretty": "Rb2Se3",
  "formula_anonymous": "A2B3",
  "chemsys": null,
  "volume": 344.375349990818,
  "density": 3.932881582767029,
  "density_atomic": 34.4375349990818,
  "symmetry": null,
  "property_name": null,
  "material_id": "mp-7447",
  "deprecated": null,
  "deprecation_reasons": null,
  "last_updated": null,
  "origins": null,
  "warnings": null,
  "structure": {
    "@module": "pymatgen.core.structure",
    "@class": "Structure",
    "charge": 0,
    "lattice": {
      "matrix": [
        [6.7624932399999995, -0.06807033, 4.8780000000000004e-5],
        [-2.1798062, 6.40183018, 0.00013347],
        [0.0001757, 0.00011609000000000001, 7.98200732]
      ],
      "pbc": [true, true, true],
      "a": 6.762835824803933,
      "b": 6.762764578257292,
      "c": 7.982007322777959,
      "alpha": 89.99848689094888,
      "beta": 89.9983339847098,
      "gamma": 109.38028448594557,
      "volume": 344.37534999081794
    },
    "properties": {},
    "sites": [
      {
        "species": [{ "element": "Rb", "occu": 1 }],
        "abc": [0.41604869, 0.58394203, 0.82556978],
        "properties": { "magmom": -0.0 },
        "label": "Rb",
        "xyz": [1.5407910488116157, 3.7100729797958576, 6.589802260728632]
      },
      {
        "species": [{ "element": "Rb", "occu": 1 }],
        "abc": [0.58394968, 0.41603475, 0.32558087],
        "properties": { "magmom": 0.0 },
        "label": "Rb",
        "xyz": [3.0421378405935724, 2.6236719677409592, 2.5988729008154414]
      },
      {
        "species": [{ "element": "Rb", "occu": 1 }],
        "abc": [0.90177911, 0.0982159, 0.54876876],
        "properties": { "magmom": 0.0 },
        "label": "Rb",
        "xyz": [5.884279926260768, 0.5674408177364041, 4.380333356968482]
      },
      {
        "species": [{ "element": "Rb", "occu": 1 }],
        "abc": [0.09821539, 0.90174879, 0.04875715],
        "properties": { "magmom": -0.0 },
        "label": "Rb",
        "xyz": [-1.3014481257142791, 5.7661627248096465, 0.3893050755600635]
      },
      {
        "species": [{ "element": "Se", "occu": 1 }],
        "abc": [0.40237295, 0.07913953, 0.67391099],
        "properties": { "magmom": 0.0 },
        "label": "Se",
        "xyz": [2.548653922335715, 0.479326406422271, 5.379192645714017]
      },
      {
        "species": [{ "element": "Se", "occu": 1 }],
        "abc": [0.59761467, 0.92085227, 0.17391491],
        "properties": { "magmom": 0.0 },
        "label": "Se",
        "xyz": [2.034116235419444, 5.85448021538967, 1.3883421424732207]
      },
      {
        "species": [{ "element": "Se", "occu": 1 }],
        "abc": [0.9208324800000001, 0.59761074, 0.6737712],
        "properties": { "magmom": 0.0 },
        "label": "Se",
        "xyz": [4.9245662065336875, 3.763199318534423, 5.3781713317190265]
      },
      {
        "species": [{ "element": "Se", "occu": 1 }],
        "abc": [0.07915443, 0.40240729000000003, 0.17390603000000002],
        "properties": { "magmom": -0.0 },
        "label": "Se",
        "xyz": [-0.34185805258667384, 2.570775254353973, 1.3881767749062315]
      },
      {
        "species": [{ "element": "Se", "occu": 1 }],
        "abc": [0.79214186, 0.207871399999999, 0.00092051],
        "properties": { "magmom": 0.0 },
        "label": "Se",
        "xyz": [4.903734768581955, 1.2768361511238377, 0.007413902833822]
      },
      {
        "species": [{ "element": "Se", "occu": 1 }],
        "abc": [0.20789174, 0.7921783, 0.5008957900000001],
        "properties": { "magmom": 0.0 },
        "label": "Se",
        "xyz": [-0.32084067605331923, 5.057297838527281, 3.9982697353339613]
      }
    ]
  },
  "task_ids": null,
  "uncorrected_energy_per_atom": null,
  "energy_per_atom": -3.5699436760000003,
  "formation_energy_per_atom": -1.080183160406249,
  "energy_above_hull": 0.0,
  "is_stable": true,
  "equilibrium_reaction_energy_per_atom": null,
  "decomposes_to": null,
  "xas": null,
  "grain_boundaries": null,
  "band_gap": 0.681199999999999,
  "cbm": null,
  "vbm": null,
  "efermi": 0.94739657,
  "is_gap_direct": null,
  "is_metal": null,
  "es_source_calc_id": null,
  "bandstructure": null,
  "dos": null,
  "dos_energy_up": null,
  "dos_energy_down": null,
  "is_magnetic": null,
  "ordering": null,
  "total_magnetization": 0.0,
  "total_magnetization_normalized_vol": null,
  "total_magnetization_normalized_formula_units": null,
  "num_magnetic_sites": null,
  "num_unique_magnetic_sites": null,
  "types_of_magnetic_species": null,
  "bulk_modulus": null,
  "shear_modulus": null,
  "universal_anisotropy": null,
  "homogeneous_poisson": null,
  "e_total": null,
  "e_ionic": null,
  "e_electronic": null,
  "n": null,
  "e_ij_max": null,
  "weighted_surface_energy_EV_PER_ANG2": null,
  "weighted_surface_energy": null,
  "weighted_work_function": null,
  "surface_anisotropy": null,
  "shape_factor": null,
  "has_reconstructed": null,
  "possible_species": null,
  "has_props": null,
  "theoretical": null,
  "database_IDs": null,
  "fields_not_requested": [
    "builder_meta",
    "nsites",
    "elements",
    "nelements",
    "composition",
    "composition_reduced",
    "chemsys",
    "symmetry",
    "property_name",
    "deprecated",
    "deprecation_reasons",
    "last_updated",
    "origins",
    "warnings",
    "task_ids",
    "uncorrected_energy_per_atom",
    "equilibrium_reaction_energy_per_atom",
    "decomposes_to",
    "xas",
    "grain_boundaries",
    "cbm",
    "vbm",
    "is_gap_direct",
    "is_metal",
    "es_source_calc_id",
    "bandstructure",
    "dos",
    "dos_energy_up",
    "dos_energy_down",
    "is_magnetic",
    "ordering",
    "total_magnetization_normalized_vol",
    "total_magnetization_normalized_formula_units",
    "num_magnetic_sites",
    "num_unique_magnetic_sites",
    "types_of_magnetic_species",
    "bulk_modulus",
    "shear_modulus",
    "universal_anisotropy",
    "homogeneous_poisson",
    "e_total",
    "e_ionic",
    "e_electronic",
    "n",
    "e_ij_max",
    "weighted_surface_energy_EV_PER_ANG2",
    "weighted_surface_energy",
    "weighted_work_function",
    "surface_anisotropy",
    "shape_factor",
    "has_reconstructed",
    "possible_species",
    "has_props",
    "theoretical",
    "database_IDs"
  ]
}
