{
  "builder_meta": null,
  "nsites": null,
  "elements": null,
  "nelements": null,
  "composition": null,
  "composition_reduced": null,
  "formula_pretty": "Rb2Te5",
  "formula_anonymous": "A2B5",
  "chemsys": null,
  "volume": 281.6953363866727,
  "density": 4.768517588518594,
  "density_atomic": 40.242190912381815,
  "symmetry": null,
  "property_name": null,
  "material_id": "mp-31002",
  "deprecated": null,
  "deprecation_reasons": null,
  "last_updated": null,
  "origins": null,
  "warnings": null,
  "structure": {
    "@module": "pymatgen.core.structure",
    "@class": "Structure",
    "charge": 0,
    "lattice": {
      "matrix": [
        [5.43076148, 0.00877529, 2.0609631],
        [2.1683004, 6.93849548, 1.756017159999999],
        [0.00791913, -0.030353699999999, 7.47842629]
      ],
      "pbc": [true, true, true],
      "a": 5.808684546257266,
      "b": 7.478491988150757,
      "c": 7.478492082946054,
      "alpha": 76.62353992975098,
      "beta": 69.15825488897748,
      "gamma": 69.15826167505261,
      "volume": 281.6953363866727
    },
    "properties": {},
    "sites": [
      {
        "species": [{ "element": "Rb", "occu": 1 }],
        "abc": [0.35860357, 0.31837429, 0.31837429],
        "properties": { "magmom": -0.0 },
        "label": "Rb",
        "xyz": [2.6403428022943674, 2.2025215847486224, 3.679078102237167]
      },
      {
        "species": [{ "element": "Rb", "occu": 1 }],
        "abc": [0.64139643, 0.68162571, 0.68162571],
        "properties": { "magmom": -0.0 },
        "label": "Rb",
        "xyz": [4.966638207705634, 4.714395485251379, 7.616328447762832]
      },
      {
        "species": [{ "element": "Te", "occu": 1 }],
        "abc": [0.0, 0.0, -0.0],
        "properties": { "magmom": 0.0 },
        "label": "Te",
        "xyz": [0.0, 0.0, 0.0]
      },
      {
        "species": [{ "element": "Te", "occu": 1 }],
        "abc": [0.24103928, 0.32991624, 0.85460451],
        "properties": { "magmom": -0.0 },
        "label": "Te",
        "xyz": [2.031152076362707, 2.2652971206868004, 7.467208475669814]
      },
      {
        "species": [{ "element": "Te", "occu": 1 }],
        "abc": [0.75896072, 0.14539549000000002, 0.67008376],
        "properties": { "magmom": -0.0 },
        "label": "Te",
        "xyz": [4.44230222254059, 0.9951465291680827, 6.830679020982091]
      },
      {
        "species": [{ "element": "Te", "occu": 1 }],
        "abc": [0.75896072, 0.67008376, 0.14539549000000002],
        "properties": { "magmom": -0.0 },
        "label": "Te",
        "xyz": [5.575828933637293, 4.651619949313201, 3.8281980743301856]
      },
      {
        "species": [{ "element": "Te", "occu": 1 }],
        "abc": [0.24103928, 0.85460451, 0.32991624],
        "properties": { "magmom": -0.0 },
        "label": "Te",
        "xyz": [3.16467878745941, 5.921770540831919, 4.4647275290179085]
      }
    ]
  },
  "task_ids": null,
  "uncorrected_energy_per_atom": null,
  "energy_per_atom": -3.064999170000001,
  "formation_energy_per_atom": -0.539628082619048,
  "energy_above_hull": 0.145109646309522,
  "is_stable": false,
  "equilibrium_reaction_energy_per_atom": null,
  "decomposes_to": null,
  "xas": null,
  "grain_boundaries": null,
  "band_gap": 0.23650000000000002,
  "cbm": null,
  "vbm": null,
  "efermi": 3.21689672,
  "is_gap_direct": null,
  "is_metal": null,
  "es_source_calc_id": null,
  "bandstructure": null,
  "dos": null,
  "dos_energy_up": null,
  "dos_energy_down": null,
  "is_magnetic": null,
  "ordering": null,
  "total_magnetization": 0.0,
  "total_magnetization_normalized_vol": null,
  "total_magnetization_normalized_formula_units": null,
  "num_magnetic_sites": null,
  "num_unique_magnetic_sites": null,
  "types_of_magnetic_species": null,
  "bulk_modulus": null,
  "shear_modulus": null,
  "universal_anisotropy": null,
  "homogeneous_poisson": null,
  "e_total": null,
  "e_ionic": null,
  "e_electronic": null,
  "n": null,
  "e_ij_max": null,
  "weighted_surface_energy_EV_PER_ANG2": null,
  "weighted_surface_energy": null,
  "weighted_work_function": null,
  "surface_anisotropy": null,
  "shape_factor": null,
  "has_reconstructed": null,
  "possible_species": null,
  "has_props": null,
  "theoretical": null,
  "database_IDs": null,
  "fields_not_requested": [
    "builder_meta",
    "nsites",
    "elements",
    "nelements",
    "composition",
    "composition_reduced",
    "chemsys",
    "symmetry",
    "property_name",
    "deprecated",
    "deprecation_reasons",
    "last_updated",
    "origins",
    "warnings",
    "task_ids",
    "uncorrected_energy_per_atom",
    "equilibrium_reaction_energy_per_atom",
    "decomposes_to",
    "xas",
    "grain_boundaries",
    "cbm",
    "vbm",
    "is_gap_direct",
    "is_metal",
    "es_source_calc_id",
    "bandstructure",
    "dos",
    "dos_energy_up",
    "dos_energy_down",
    "is_magnetic",
    "ordering",
    "total_magnetization_normalized_vol",
    "total_magnetization_normalized_formula_units",
    "num_magnetic_sites",
    "num_unique_magnetic_sites",
    "types_of_magnetic_species",
    "bulk_modulus",
    "shear_modulus",
    "universal_anisotropy",
    "homogeneous_poisson",
    "e_total",
    "e_ionic",
    "e_electronic",
    "n",
    "e_ij_max",
    "weighted_surface_energy_EV_PER_ANG2",
    "weighted_surface_energy",
    "weighted_work_function",
    "surface_anisotropy",
    "shape_factor",
    "has_reconstructed",
    "possible_species",
    "has_props",
    "theoretical",
    "database_IDs"
  ]
}
