{"builder_meta": null, "nsites": null, "elements": null, "nelements": null, "composition": null, "composition_reduced": null, "formula_pretty": "Rb2Te3", "formula_anonymous": "A2B3", "chemsys": null, "volume": 837.204042658343, "density": 4.393192337903853, "density_atomic": 41.86020213291715, "symmetry": null, "property_name": null, "material_id": "mp-2095", "deprecated": null, "deprecation_reasons": null, "last_updated": null, "origins": null, "warnings": null, "structure": {"@module": "pymatgen.core.structure", "@class": "Structure", "charge": 0, "lattice": {"matrix": [[4.7923262, 0.0, 0.0], [0.0, 10.7526802, 0.0], [0.0, 0.0, 16.24681427]], "pbc": [true, true, true], "a": 4.7923262, "b": 10.7526802, "c": 16.24681427, "alpha": 90.0, "beta": 90.0, "gamma": 90.0, "volume": 837.204042658343}, "properties": {}, "sites": [{"species": [{"element": "Rb", "occu": 1}], "abc": [0.71948434, 0.96894578, 0.62327508], "properties": {"magmom": 0.0}, "label": "Rb", "xyz": [3.448003653071708, 10.418764103479557, 10.126234463879392]}, {"species": [{"element": "Rb", "occu": 1}], "abc": [0.21948434, 0.03105422, 0.87672492], "properties": {"magmom": 0.0}, "label": "Rb", "xyz": [1.0518405530717079, 0.333916096520444, 14.24398694112061]}, {"species": [{"element": "Rb", "occu": 1}], "abc": [0.28051566, 0.46894578000000003, 0.37672492], "properties": {"magmom": 0.0}, "label": "Rb", "xyz": [1.344322546928292, 5.042424003479557, 6.12057980612061]}, {"species": [{"element": "Rb", "occu": 1}], "abc": [0.7805156600000001, 0.53105422, 0.12327508000000001], "properties": {"magmom": 0.0}, "label": "Rb", "xyz": [3.740485646928292, 5.710256196520445, 2.002827328879392]}, {"species": [{"element": "Rb", "occu": 1}], "abc": [0.28051566, 0.03105422, 0.37672492], "properties": {"magmom": 0.0}, "label": "Rb", "xyz": [1.344322546928292, 0.333916096520444, 6.12057980612061]}, {"species": [{"element": "Rb", "occu": 1}], "abc": [0.7805156600000001, 0.96894578, 0.12327508000000001], "properties": {"magmom": 0.0}, "label": "Rb", "xyz": [3.740485646928292, 10.418764103479557, 2.002827328879392]}, {"species": [{"element": "Rb", "occu": 1}], "abc": [0.71948434, 0.53105422, 0.62327508], "properties": {"magmom": 0.0}, "label": "Rb", "xyz": [3.448003653071708, 5.710256196520445, 10.126234463879392]}, {"species": [{"element": "Rb", "occu": 1}], "abc": [0.21948434, 0.46894578000000003, 0.87672492], "properties": {"magmom": 0.0}, "label": "Rb", "xyz": [1.0518405530717079, 5.042424003479557, 14.24398694112061]}, {"species": [{"element": "Te", "occu": 1}], "abc": [0.19288501, 0.75, 0.51433185], "properties": {"magmom": -0.0}, "label": "Te", "xyz": [0.924367887010262, 8.06451015, 8.3562540400955]}, {"species": [{"element": "Te", "occu": 1}], "abc": [0.69288501, 0.25, 0.98566815], "properties": {"magmom": -0.0}, "label": "Te", "xyz": [3.3205309870102617, 2.68817005, 16.013967364904502]}, {"species": [{"element": "Te", "occu": 1}], "abc": [0.80711499, 0.25, 0.48566815], "properties": {"magmom": -0.0}, "label": "Te", "xyz": [3.867958312989738, 2.68817005, 7.8905602299045015]}, {"species": [{"element": "Te", "occu": 1}], "abc": [0.30711499000000003, 0.75, 0.01433185], "properties": {"magmom": -0.0}, "label": "Te", "xyz": [1.471795212989738, 8.06451015, 0.23284690509549952]}, {"species": [{"element": "Te", "occu": 1}], "abc": [0.29246051, 0.75, 0.74074658], "properties": {"magmom": 0.0}, "label": "Te", "xyz": [1.401566164538362, 8.06451015, 12.034772106397698]}, {"species": [{"element": "Te", "occu": 1}], "abc": [0.7924605100000001, 0.25, 0.7592534200000001], "properties": {"magmom": 0.0}, "label": "Te", "xyz": [3.7977292645383622, 2.68817005, 12.335449298602306]}, {"species": [{"element": "Te", "occu": 1}], "abc": [0.70753949, 0.25, 0.25925342], "properties": {"magmom": 0.0}, "label": "Te", "xyz": [3.390760035461638, 2.68817005, 4.212042163602304]}, {"species": [{"element": "Te", "occu": 1}], "abc": [0.20753949, 0.75, 0.24074658000000002], "properties": {"magmom": 0.0}, "label": "Te", "xyz": [0.994596935461638, 8.06451015, 3.9113649713976972]}, {"species": [{"element": "Te", "occu": 1}], "abc": [0.66748548, 0.75, 0.87587996], "properties": {"magmom": -0.0}, "label": "Te", "xyz": [3.1988081539235758, 8.06451015, 14.230259032935031]}, {"species": [{"element": "Te", "occu": 1}], "abc": [0.16748548, 0.25, 0.62412004], "properties": {"magmom": -0.0}, "label": "Te", "xyz": [0.8026450539235759, 2.68817005, 10.139962372064971]}, {"species": [{"element": "Te", "occu": 1}], "abc": [0.33251452, 0.25, 0.12412004], "properties": {"magmom": -0.0}, "label": "Te", "xyz": [1.5935180460764238, 2.68817005, 2.016555237064971]}, {"species": [{"element": "Te", "occu": 1}], "abc": [0.83251452, 0.75, 0.37587996], "properties": {"magmom": -0.0}, "label": "Te", "xyz": [3.989681146076424, 8.06451015, 6.10685189793503]}]}, "task_ids": null, "uncorrected_energy_per_atom": null, "energy_per_atom": -3.2368299855, "formation_energy_per_atom": -0.9586328204999991, "energy_above_hull": 0.0, "is_stable": true, "equilibrium_reaction_energy_per_atom": null, "decomposes_to": null, "xas": null, "grain_boundaries": null, "band_gap": 0.6694999999999991, "cbm": null, "vbm": null, "efermi": 2.44308638, "is_gap_direct": null, "is_metal": null, "es_source_calc_id": null, "bandstructure": null, "dos": null, "dos_energy_up": null, "dos_energy_down": null, "is_magnetic": null, "ordering": null, "total_magnetization": 0.0, "total_magnetization_normalized_vol": null, "total_magnetization_normalized_formula_units": null, "num_magnetic_sites": null, "num_unique_magnetic_sites": null, "types_of_magnetic_species": null, "bulk_modulus": null, "shear_modulus": null, "universal_anisotropy": null, "homogeneous_poisson": null, "e_total": null, "e_ionic": null, "e_electronic": null, "n": null, "e_ij_max": null, "weighted_surface_energy_EV_PER_ANG2": null, "weighted_surface_energy": null, "weighted_work_function": null, "surface_anisotropy": null, "shape_factor": null, "has_reconstructed": null, "possible_species": null, "has_props": null, "theoretical": null, "database_IDs": null, "fields_not_requested": ["builder_meta", "nsites", "elements", "nelements", "composition", "composition_reduced", "chemsys", "symmetry", "property_name", "deprecated", "deprecation_reasons", "last_updated", "origins", "warnings", "task_ids", "uncorrected_energy_per_atom", "equilibrium_reaction_energy_per_atom", "decomposes_to", "xas", "grain_boundaries", "cbm", "vbm", "is_gap_direct", "is_metal", "es_source_calc_id", "bandstructure", "dos", "dos_energy_up", "dos_energy_down", "is_magnetic", "ordering", "total_magnetization_normalized_vol", "total_magnetization_normalized_formula_units", "num_magnetic_sites", "num_unique_magnetic_sites", "types_of_magnetic_species", "bulk_modulus", "shear_modulus", "universal_anisotropy", "homogeneous_poisson", "e_total", "e_ionic", "e_electronic", "n", "e_ij_max", "weighted_surface_energy_EV_PER_ANG2", "weighted_surface_energy", "weighted_work_function", "surface_anisotropy", "shape_factor", "has_reconstructed", "possible_species", "has_props", "theoretical", "database_IDs"]}