{
  "builder_meta": null,
  "nsites": null,
  "elements": null,
  "nelements": null,
  "composition": null,
  "composition_reduced": null,
  "formula_pretty": "Rb3As",
  "formula_anonymous": "AB3",
  "chemsys": null,
  "volume": 343.7028875900506,
  "density": 3.201475030360911,
  "density_atomic": 42.96286094875632,
  "symmetry": null,
  "property_name": null,
  "material_id": "mp-7898",
  "deprecated": null,
  "deprecation_reasons": null,
  "last_updated": null,
  "origins": null,
  "warnings": null,
  "structure": {
    "@module": "pymatgen.core.structure",
    "@class": "Structure",
    "charge": 0,
    "lattice": {
      "matrix": [
        [6.08094816, 0.0, -0.0],
        [-3.04047408, 5.2662555300000005, 0.0],
        [0.0, -0.0, 10.73272376]
      ],
      "pbc": [true, true, true],
      "a": 6.08094816,
      "b": 6.080948111800283,
      "c": 10.73272376,
      "alpha": 90.0,
      "beta": 90.0,
      "gamma": 120.00000026220151,
      "volume": 343.7028875900507
    },
    "properties": {},
    "sites": [
      {
        "species": [{ "element": "Rb", "occu": 1 }],
        "abc": [0.333333, 0.666667, 0.58040093],
        "properties": { "magmom": 0.0 },
        "label": "Rb",
        "xyz": [-3.040474080062694e-6, 3.5108387754185104, 6.229282851737097]
      },
      {
        "species": [{ "element": "Rb", "occu": 1 }],
        "abc": [0.666667, 0.333333, 0.08040093],
        "properties": { "magmom": 0.0 },
        "label": "Rb",
        "xyz": [3.04047712047408, 1.75541675458149, 0.8629209717370968]
      },
      {
        "species": [{ "element": "Rb", "occu": 1 }],
        "abc": [0.666667, 0.333333, 0.41959907],
        "properties": { "magmom": 0.0 },
        "label": "Rb",
        "xyz": [3.04047712047408, 1.75541675458149, 4.503440908262903]
      },
      {
        "species": [{ "element": "Rb", "occu": 1 }],
        "abc": [0.333333, 0.666667, 0.9195990700000001],
        "properties": { "magmom": 0.0 },
        "label": "Rb",
        "xyz": [-3.040474080062694e-6, 3.5108387754185104, 9.869802788262904]
      },
      {
        "species": [{ "element": "Rb", "occu": 1 }],
        "abc": [0.0, -0.0, 0.75],
        "properties": { "magmom": -0.0 },
        "label": "Rb",
        "xyz": [0.0, 0.0, 8.049542820000001]
      },
      {
        "species": [{ "element": "Rb", "occu": 1 }],
        "abc": [-0.0, 0.0, 0.25],
        "properties": { "magmom": -0.0 },
        "label": "Rb",
        "xyz": [0.0, 0.0, 2.68318094]
      },
      {
        "species": [{ "element": "As", "occu": 1 }],
        "abc": [0.666667, 0.333333, 0.75],
        "properties": { "magmom": -0.0 },
        "label": "As",
        "xyz": [3.04047712047408, 1.75541675458149, 8.049542820000001]
      },
      {
        "species": [{ "element": "As", "occu": 1 }],
        "abc": [0.333333, 0.666667, 0.25],
        "properties": { "magmom": -0.0 },
        "label": "As",
        "xyz": [-3.040474080062694e-6, 3.5108387754185104, 2.68318094]
      }
    ]
  },
  "task_ids": null,
  "uncorrected_energy_per_atom": null,
  "energy_per_atom": -2.14902190375,
  "formation_energy_per_atom": -0.246090716249999,
  "energy_above_hull": 0.0,
  "is_stable": true,
  "equilibrium_reaction_energy_per_atom": null,
  "decomposes_to": null,
  "xas": null,
  "grain_boundaries": null,
  "band_gap": 0.0,
  "cbm": null,
  "vbm": null,
  "efermi": 0.837363299999999,
  "is_gap_direct": null,
  "is_metal": null,
  "es_source_calc_id": null,
  "bandstructure": null,
  "dos": null,
  "dos_energy_up": null,
  "dos_energy_down": null,
  "is_magnetic": null,
  "ordering": null,
  "total_magnetization": 0.0,
  "total_magnetization_normalized_vol": null,
  "total_magnetization_normalized_formula_units": null,
  "num_magnetic_sites": null,
  "num_unique_magnetic_sites": null,
  "types_of_magnetic_species": null,
  "bulk_modulus": null,
  "shear_modulus": null,
  "universal_anisotropy": null,
  "homogeneous_poisson": null,
  "e_total": null,
  "e_ionic": null,
  "e_electronic": null,
  "n": null,
  "e_ij_max": null,
  "weighted_surface_energy_EV_PER_ANG2": null,
  "weighted_surface_energy": null,
  "weighted_work_function": null,
  "surface_anisotropy": null,
  "shape_factor": null,
  "has_reconstructed": null,
  "possible_species": null,
  "has_props": null,
  "theoretical": null,
  "database_IDs": null,
  "fields_not_requested": [
    "builder_meta",
    "nsites",
    "elements",
    "nelements",
    "composition",
    "composition_reduced",
    "chemsys",
    "symmetry",
    "property_name",
    "deprecated",
    "deprecation_reasons",
    "last_updated",
    "origins",
    "warnings",
    "task_ids",
    "uncorrected_energy_per_atom",
    "equilibrium_reaction_energy_per_atom",
    "decomposes_to",
    "xas",
    "grain_boundaries",
    "cbm",
    "vbm",
    "is_gap_direct",
    "is_metal",
    "es_source_calc_id",
    "bandstructure",
    "dos",
    "dos_energy_up",
    "dos_energy_down",
    "is_magnetic",
    "ordering",
    "total_magnetization_normalized_vol",
    "total_magnetization_normalized_formula_units",
    "num_magnetic_sites",
    "num_unique_magnetic_sites",
    "types_of_magnetic_species",
    "bulk_modulus",
    "shear_modulus",
    "universal_anisotropy",
    "homogeneous_poisson",
    "e_total",
    "e_ionic",
    "e_electronic",
    "n",
    "e_ij_max",
    "weighted_surface_energy_EV_PER_ANG2",
    "weighted_surface_energy",
    "weighted_work_function",
    "surface_anisotropy",
    "shape_factor",
    "has_reconstructed",
    "possible_species",
    "has_props",
    "theoretical",
    "database_IDs"
  ]
}
