{
  "builder_meta": null,
  "nsites": null,
  "elements": null,
  "nelements": null,
  "composition": null,
  "composition_reduced": null,
  "formula_pretty": "Rb3Ac",
  "formula_anonymous": "AB3",
  "chemsys": null,
  "volume": 579.1592506991706,
  "density": 2.771984491858573,
  "density_atomic": 72.39490633739632,
  "symmetry": null,
  "property_name": null,
  "material_id": "mp-974658",
  "deprecated": null,
  "deprecation_reasons": null,
  "last_updated": null,
  "origins": null,
  "warnings": null,
  "structure": {
    "@module": "pymatgen.core.structure",
    "@class": "Structure",
    "charge": 0,
    "lattice": {
      "matrix": [
        [4.653833, -8.060675, 0.0],
        [4.653833, 8.060675, 0.0],
        [0.0, 0.0, 7.7194400000000005]
      ],
      "pbc": [true, true, true],
      "a": 9.307665821650131,
      "b": 9.307665821650131,
      "c": 7.7194400000000005,
      "alpha": 90.0,
      "beta": 90.0,
      "gamma": 119.99999873227806,
      "volume": 579.1592506991707
    },
    "properties": {},
    "sites": [
      {
        "species": [{ "element": "Rb", "occu": 1 }],
        "abc": [0.170487, 0.340974, 0.25],
        "properties": { "magmom": 0.005 },
        "label": "Rb",
        "xyz": [2.3802540800129997, 1.374240298725, 1.9298600000000001]
      },
      {
        "species": [{ "element": "Rb", "occu": 1 }],
        "abc": [0.659026, 0.829513, 0.25],
        "properties": { "magmom": 0.005 },
        "label": "Rb",
        "xyz": [6.927411919987, 1.3742402987249989, 1.9298600000000001]
      },
      {
        "species": [{ "element": "Rb", "occu": 1 }],
        "abc": [0.170487, 0.829513, 0.25],
        "properties": { "magmom": 0.005 },
        "label": "Rb",
        "xyz": [4.653833, 5.312194402549999, 1.9298600000000001]
      },
      {
        "species": [{ "element": "Rb", "occu": 1 }],
        "abc": [0.829513, 0.659026, 0.75],
        "properties": { "magmom": 0.005 },
        "label": "Rb",
        "xyz": [6.927411919987, -1.3742402987249989, 5.789580000000001]
      },
      {
        "species": [{ "element": "Rb", "occu": 1 }],
        "abc": [0.340974, 0.170487, 0.75],
        "properties": { "magmom": 0.005 },
        "label": "Rb",
        "xyz": [2.3802540800129997, -1.374240298725, 5.789580000000001]
      },
      {
        "species": [{ "element": "Rb", "occu": 1 }],
        "abc": [0.829513, 0.170487, 0.75],
        "properties": { "magmom": 0.005 },
        "label": "Rb",
        "xyz": [4.653833, -5.312194402549999, 5.789580000000001]
      },
      {
        "species": [{ "element": "Ac", "occu": 1 }],
        "abc": [0.333333, 0.666667, 0.75],
        "properties": { "magmom": 0.094 },
        "label": "Ac",
        "xyz": [4.653833, 2.6868970404500003, 5.789580000000001]
      },
      {
        "species": [{ "element": "Ac", "occu": 1 }],
        "abc": [0.666667, 0.333333, 0.25],
        "properties": { "magmom": 0.165 },
        "label": "Ac",
        "xyz": [4.653833, -2.6868970404500003, 1.9298600000000001]
      }
    ]
  },
  "task_ids": null,
  "uncorrected_energy_per_atom": null,
  "energy_per_atom": -1.28809959,
  "formation_energy_per_atom": 0.47759471624999905,
  "energy_above_hull": 0.47759471624999905,
  "is_stable": false,
  "equilibrium_reaction_energy_per_atom": null,
  "decomposes_to": null,
  "xas": null,
  "grain_boundaries": null,
  "band_gap": 0.0,
  "cbm": null,
  "vbm": null,
  "efermi": 1.02527478,
  "is_gap_direct": null,
  "is_metal": null,
  "es_source_calc_id": null,
  "bandstructure": null,
  "dos": null,
  "dos_energy_up": null,
  "dos_energy_down": null,
  "is_magnetic": null,
  "ordering": null,
  "total_magnetization": 1.3056496,
  "total_magnetization_normalized_vol": null,
  "total_magnetization_normalized_formula_units": null,
  "num_magnetic_sites": null,
  "num_unique_magnetic_sites": null,
  "types_of_magnetic_species": null,
  "bulk_modulus": null,
  "shear_modulus": null,
  "universal_anisotropy": null,
  "homogeneous_poisson": null,
  "e_total": null,
  "e_ionic": null,
  "e_electronic": null,
  "n": null,
  "e_ij_max": null,
  "weighted_surface_energy_EV_PER_ANG2": null,
  "weighted_surface_energy": null,
  "weighted_work_function": null,
  "surface_anisotropy": null,
  "shape_factor": null,
  "has_reconstructed": null,
  "possible_species": null,
  "has_props": null,
  "theoretical": null,
  "database_IDs": null,
  "fields_not_requested": [
    "builder_meta",
    "nsites",
    "elements",
    "nelements",
    "composition",
    "composition_reduced",
    "chemsys",
    "symmetry",
    "property_name",
    "deprecated",
    "deprecation_reasons",
    "last_updated",
    "origins",
    "warnings",
    "task_ids",
    "uncorrected_energy_per_atom",
    "equilibrium_reaction_energy_per_atom",
    "decomposes_to",
    "xas",
    "grain_boundaries",
    "cbm",
    "vbm",
    "is_gap_direct",
    "is_metal",
    "es_source_calc_id",
    "bandstructure",
    "dos",
    "dos_energy_up",
    "dos_energy_down",
    "is_magnetic",
    "ordering",
    "total_magnetization_normalized_vol",
    "total_magnetization_normalized_formula_units",
    "num_magnetic_sites",
    "num_unique_magnetic_sites",
    "types_of_magnetic_species",
    "bulk_modulus",
    "shear_modulus",
    "universal_anisotropy",
    "homogeneous_poisson",
    "e_total",
    "e_ionic",
    "e_electronic",
    "n",
    "e_ij_max",
    "weighted_surface_energy_EV_PER_ANG2",
    "weighted_surface_energy",
    "weighted_work_function",
    "surface_anisotropy",
    "shape_factor",
    "has_reconstructed",
    "possible_species",
    "has_props",
    "theoretical",
    "database_IDs"
  ]
}
