{"builder_meta": null, "nsites": null, "elements": null, "nelements": null, "composition": null, "composition_reduced": null, "formula_pretty": "Rb3Au7", "formula_anonymous": "A3B7", "chemsys": null, "volume": 276.531088965168, "density": 9.81901402529729, "density_atomic": 27.6531088965168, "symmetry": null, "property_name": null, "material_id": "mp-31144", "deprecated": null, "deprecation_reasons": null, "last_updated": null, "origins": null, "warnings": null, "structure": {"@module": "pymatgen.core.structure", "@class": "Structure", "charge": 0, "lattice": {"matrix": [[5.64183319, -2e-08, 0.0], [-2.82091762, 6.74426521, 0.0], [0.0, 0.0, 7.26756765]], "pbc": [true, true, true], "a": 5.64183319, "b": 7.310450700308621, "c": 7.26756765, "alpha": 90.0, "beta": 90.0, "gamma": 112.6980506685716, "volume": 276.531088965168}, "properties": {}, "sites": [{"species": [{"element": "Rb", "occu": 1}], "abc": [0.33660805, 0.67321709, 0.5], "properties": {"magmom": -0.0}, "label": "Rb", "xyz": [-3.4827549462157492e-06, 4.540354592132278, 3.633783825]}, {"species": [{"element": "Rb", "occu": 1}], "abc": [0.6633919500000001, 0.32678291, 0.5], "properties": {"magmom": -0.0}, "label": "Rb", "xyz": [2.8209190527549466, 2.203910597867722, 3.633783825]}, {"species": [{"element": "Rb", "occu": 1}], "abc": [0.5, -0.0, 0.0], "properties": {"magmom": -0.0}, "label": "Rb", "xyz": [2.820916595, -1e-08, 0.0]}, {"species": [{"element": "Au", "occu": 1}], "abc": [0.10814731, 0.21629362, 0.8035481800000001], "properties": {"magmom": 0.0}, "label": "Au", "xyz": [2.599215634502272e-06, 1.458741534348014, 5.839840758184377]}, {"species": [{"element": "Au", "occu": 1}], "abc": [0.89185269, 0.78370638, 0.19645182], "properties": {"magmom": 0.0}, "label": "Au", "xyz": [2.8209129707843656, 5.2855236556519865, 1.427726891815623]}, {"species": [{"element": "Au", "occu": 1}], "abc": [0.89185269, 0.78370638, 0.8035481800000001], "properties": {"magmom": 0.0}, "label": "Au", "xyz": [2.8209129707843656, 5.2855236556519865, 5.839840758184377]}, {"species": [{"element": "Au", "occu": 1}], "abc": [0.10814731, 0.21629362, 0.19645182], "properties": {"magmom": 0.0}, "label": "Au", "xyz": [2.599215634502272e-06, 1.458741534348014, 1.427726891815623]}, {"species": [{"element": "Au", "occu": 1}], "abc": [0.5, 0.5, 0.0], "properties": {"magmom": 0.0}, "label": "Au", "xyz": [1.410457785, 3.372132595, 0.0]}, {"species": [{"element": "Au", "occu": 1}], "abc": [-0.0, 0.5, -0.0], "properties": {"magmom": 0.0}, "label": "Au", "xyz": [-1.41045881, 3.372132605, 0.0]}, {"species": [{"element": "Au", "occu": 1}], "abc": [-0.0, -0.0, 0.5], "properties": {"magmom": 0.0}, "label": "Au", "xyz": [0.0, 0.0, 3.633783825]}]}, "task_ids": null, "uncorrected_energy_per_atom": null, "energy_per_atom": -2.862344118000004, "formation_energy_per_atom": -0.276466496250004, "energy_above_hull": 0.0, "is_stable": true, "equilibrium_reaction_energy_per_atom": null, "decomposes_to": null, "xas": null, "grain_boundaries": null, "band_gap": 0.0, "cbm": null, "vbm": null, "efermi": 2.57115046, "is_gap_direct": null, "is_metal": null, "es_source_calc_id": null, "bandstructure": null, "dos": null, "dos_energy_up": null, "dos_energy_down": null, "is_magnetic": null, "ordering": null, "total_magnetization": 0.0, "total_magnetization_normalized_vol": null, "total_magnetization_normalized_formula_units": null, "num_magnetic_sites": null, "num_unique_magnetic_sites": null, "types_of_magnetic_species": null, "bulk_modulus": null, "shear_modulus": null, "universal_anisotropy": null, "homogeneous_poisson": null, "e_total": null, "e_ionic": null, "e_electronic": null, "n": null, "e_ij_max": null, "weighted_surface_energy_EV_PER_ANG2": null, "weighted_surface_energy": null, "weighted_work_function": null, "surface_anisotropy": null, "shape_factor": null, "has_reconstructed": null, "possible_species": null, "has_props": null, "theoretical": null, "database_IDs": null, "fields_not_requested": ["builder_meta", "nsites", "elements", "nelements", "composition", "composition_reduced", "chemsys", "symmetry", "property_name", "deprecated", "deprecation_reasons", "last_updated", "origins", "warnings", "task_ids", "uncorrected_energy_per_atom", "equilibrium_reaction_energy_per_atom", "decomposes_to", "xas", "grain_boundaries", "cbm", "vbm", "is_gap_direct", "is_metal", "es_source_calc_id", "bandstructure", "dos", "dos_energy_up", "dos_energy_down", "is_magnetic", "ordering", "total_magnetization_normalized_vol", "total_magnetization_normalized_formula_units", "num_magnetic_sites", "num_unique_magnetic_sites", "types_of_magnetic_species", "bulk_modulus", "shear_modulus", "universal_anisotropy", "homogeneous_poisson", "e_total", "e_ionic", "e_electronic", "n", "e_ij_max", "weighted_surface_energy_EV_PER_ANG2", "weighted_surface_energy", "weighted_work_function", "surface_anisotropy", "shape_factor", "has_reconstructed", "possible_species", "has_props", "theoretical", "database_IDs"]}