{"builder_meta": null, "nsites": null, "elements": null, "nelements": null, "composition": null, "composition_reduced": null, "formula_pretty": "Rb3As7", "formula_anonymous": "A3B7", "chemsys": null, "volume": 5862.779529256382, "density": 3.538634361845165, "density_atomic": 36.64237205785239, "symmetry": null, "property_name": null, "material_id": "mp-680413", "deprecated": null, "deprecation_reasons": null, "last_updated": null, "origins": null, "warnings": null, "structure": {"@module": "pymatgen.core.structure", "@class": "Structure", "charge": 0, "lattice": {"matrix": [[13.537755, 0.0, 0.0], [0.0, 16.28425, 0.0], [0.0, 0.0, 26.594336]], "pbc": [true, true, true], "a": 13.537755, "b": 16.28425, "c": 26.594336, "alpha": 90.0, "beta": 90.0, "gamma": 90.0, "volume": 5862.779529256382}, "properties": {}, "sites": [{"species": [{"element": "Rb", "occu": 1}], "abc": [0.872042, 0.752857, 0.082897], "properties": {"magmom": 0.0}, "label": "Rb", "xyz": [11.80549094571, 12.25971160225, 2.204590671392]}, {"species": [{"element": "Rb", "occu": 1}], "abc": [0.623232, 0.393970999999999, 0.629462], "properties": {"magmom": 0.0}, "label": "Rb", "xyz": [8.43716212416, 6.415522256749984, 16.740123927232]}, {"species": [{"element": "Rb", "occu": 1}], "abc": [0.770393, 0.164292, 0.718549], "properties": {"magmom": 0.0}, "label": "Rb", "xyz": [10.429391687715, 2.675372001, 19.109333538464]}, {"species": [{"element": "Rb", "occu": 1}], "abc": [0.383258, 0.587457, 0.575628], "properties": {"magmom": 0.0}, "label": "Rb", "xyz": [5.18845290579, 9.566296652250001, 15.308444443008]}, {"species": [{"element": "Rb", "occu": 1}], "abc": [0.623232, 0.893971, 0.870537999999999], "properties": {"magmom": 0.0}, "label": "Rb", "xyz": [8.43716212416, 14.55764725675, 23.151380072767974]}, {"species": [{"element": "Rb", "occu": 1}], "abc": [0.123232, 0.106029, 0.629462], "properties": {"magmom": 0.0}, "label": "Rb", "xyz": [1.66828462416, 1.72660274325, 16.740123927232]}, {"species": [{"element": "Rb", "occu": 1}], "abc": [0.876768, 0.393970999999999, 0.129462], "properties": {"magmom": 0.0}, "label": "Rb", "xyz": [11.86947037584, 6.415522256749984, 3.4429559272319996]}, {"species": [{"element": "Rb", "occu": 1}], "abc": [0.627958, 0.252857, 0.917103], "properties": {"magmom": 0.0}, "label": "Rb", "xyz": [8.501141554290001, 4.11758660225, 24.389745328607997]}, {"species": [{"element": "Rb", "occu": 1}], "abc": [0.049893, 0.644699, 0.44132000000000005], "properties": {"magmom": 0.0}, "label": "Rb", "xyz": [0.6754392102150001, 10.49843969075, 11.73661236352]}, {"species": [{"element": "Rb", "occu": 1}], "abc": [0.372042, 0.747143, 0.082897], "properties": {"magmom": 0.0}, "label": "Rb", "xyz": [5.03661344571, 12.16666339775, 2.204590671392]}, {"species": [{"element": "Rb", "occu": 1}], "abc": [0.950106999999999, 0.855301, 0.94132], "properties": {"magmom": 0.0}, "label": "Rb", "xyz": [12.862315789784988, 13.92793530925, 25.03378036352]}, {"species": [{"element": "Rb", "occu": 1}], "abc": [0.123232, 0.606028999999999, 0.870537999999999], "properties": {"magmom": 0.0}, "label": "Rb", "xyz": [1.66828462416, 9.868727743249984, 23.151380072767974]}, {"species": [{"element": "Rb", "occu": 1}], "abc": [0.616742, 0.412543, 0.42437199999999903], "properties": {"magmom": 0.0}, "label": "Rb", "xyz": [8.349302094210001, 6.71795334775, 11.285891556991974]}, {"species": [{"element": "Rb", "occu": 1}], "abc": [0.965073, 0.456642, 0.324158], "properties": {"magmom": 0.0}, "label": "Rb", "xyz": [13.064921831115, 7.4360724885, 8.620766769088]}, {"species": [{"element": "Rb", "occu": 1}], "abc": [0.229606999999999, 0.835708, 0.281451], "properties": {"magmom": 0.0}, "label": "Rb", "xyz": [3.1083633122849865, 13.608877999, 7.485002461535999]}, {"species": [{"element": "Rb", "occu": 1}], "abc": [0.965073, 0.956642, 0.175842], "properties": {"magmom": 0.0}, "label": "Rb", "xyz": [13.064921831115, 15.5781974885, 4.676401230912]}, {"species": [{"element": "Rb", "occu": 1}], "abc": [0.229606999999999, 0.335708, 0.218549], "properties": {"magmom": 0.0}, "label": "Rb", "xyz": [3.1083633122849865, 5.466752999000001, 5.812165538464]}, {"species": [{"element": "Rb", "occu": 1}], "abc": [0.376768, 0.106029, 0.129462], "properties": {"magmom": 0.0}, "label": "Rb", "xyz": [5.10059287584, 1.72660274325, 3.4429559272319996]}, {"species": [{"element": "Rb", "occu": 1}], "abc": [0.376768, 0.606028999999999, 0.370538], "properties": {"magmom": 0.0}, "label": "Rb", "xyz": [5.10059287584, 9.868727743249984, 9.854212072767998]}, {"species": [{"element": "Rb", "occu": 1}], "abc": [0.383258, 0.087457, 0.924372], "properties": {"magmom": 0.0}, "label": "Rb", "xyz": [5.18845290579, 1.4241716522499999, 24.583059556991998]}, {"species": [{"element": "Rb", "occu": 1}], "abc": [0.372042, 0.247143, 0.417103], "properties": {"magmom": 0.0}, "label": "Rb", "xyz": [5.03661344571, 4.02453839775, 11.092577328608]}, {"species": [{"element": "Rb", "occu": 1}], "abc": [0.549893, 0.855301, 0.44132000000000005], "properties": {"magmom": 0.0}, "label": "Rb", "xyz": [7.444316710215, 13.92793530925, 11.73661236352]}, {"species": [{"element": "Rb", "occu": 1}], "abc": [0.883258, 0.412543, 0.924372], "properties": {"magmom": 0.0}, "label": "Rb", "xyz": [11.95733040579, 6.71795334775, 24.583059556991998]}, {"species": [{"element": "Rb", "occu": 1}], "abc": [0.770393, 0.664292, 0.781451], "properties": {"magmom": 0.0}, "label": "Rb", "xyz": [10.429391687715, 10.817497001, 20.782170461535998]}, {"species": [{"element": "Rb", "occu": 1}], "abc": [0.883258, 0.912543, 0.575628], "properties": {"magmom": 0.0}, "label": "Rb", "xyz": [11.95733040579, 14.86007834775, 15.308444443008]}, {"species": [{"element": "Rb", "occu": 1}], "abc": [0.616742, 0.912543, 0.075628], "properties": {"magmom": 0.0}, "label": "Rb", "xyz": [8.349302094210001, 14.86007834775, 2.0112764430079997]}, {"species": [{"element": "Rb", "occu": 1}], "abc": [0.270393, 0.835708, 0.781451], "properties": {"magmom": 0.0}, "label": "Rb", "xyz": [3.660514187715, 13.608877999, 20.782170461535998]}, {"species": [{"element": "Rb", "occu": 1}], "abc": [0.450107, 0.144699, 0.5586800000000001], "properties": {"magmom": 0.0}, "label": "Rb", "xyz": [6.093438289785, 2.35631469075, 14.857723636480001]}, {"species": [{"element": "Rb", "occu": 1}], "abc": [0.034927, 0.043358, 0.824158], "properties": {"magmom": 0.0}, "label": "Rb", "xyz": [0.47283316888500004, 0.7060525115, 21.917934769087996]}, {"species": [{"element": "Rb", "occu": 1}], "abc": [0.627958, 0.752857, 0.582897], "properties": {"magmom": 0.0}, "label": "Rb", "xyz": [8.501141554290001, 12.25971160225, 15.501758671391999]}, {"species": [{"element": "Rb", "occu": 1}], "abc": [0.872042, 0.252857, 0.417103], "properties": {"magmom": 0.0}, "label": "Rb", "xyz": [11.80549094571, 4.11758660225, 11.092577328608]}, {"species": [{"element": "Rb", "occu": 1}], "abc": [0.729607, 0.164292, 0.218549], "properties": {"magmom": 0.0}, "label": "Rb", "xyz": [9.877240812285, 2.675372001, 5.812165538464]}, {"species": [{"element": "Rb", "occu": 1}], "abc": [0.534926999999999, 0.456642, 0.824158], "properties": {"magmom": 0.0}, "label": "Rb", "xyz": [7.241710668884988, 7.4360724885, 21.917934769087996]}, {"species": [{"element": "Rb", "occu": 1}], "abc": [0.534926999999999, 0.956642, 0.675841999999999], "properties": {"magmom": 0.0}, "label": "Rb", "xyz": [7.241710668884988, 15.5781974885, 17.973569230911973]}, {"species": [{"element": "Rb", "occu": 1}], "abc": [0.270393, 0.335708, 0.718549], "properties": {"magmom": 0.0}, "label": "Rb", "xyz": [3.660514187715, 5.466752999000001, 19.109333538464]}, {"species": [{"element": "Rb", "occu": 1}], "abc": [0.127958, 0.247143, 0.917103], "properties": {"magmom": 0.0}, "label": "Rb", "xyz": [1.7322640542899999, 4.02453839775, 24.389745328607997]}, {"species": [{"element": "Rb", "occu": 1}], "abc": [0.950106999999999, 0.355301, 0.5586800000000001], "properties": {"magmom": 0.0}, "label": "Rb", "xyz": [12.862315789784988, 5.7858103092499995, 14.857723636480001]}, {"species": [{"element": "Rb", "occu": 1}], "abc": [0.034927, 0.543358, 0.675841999999999], "properties": {"magmom": 0.0}, "label": "Rb", "xyz": [0.47283316888500004, 8.8481775115, 17.973569230911973]}, {"species": [{"element": "Rb", "occu": 1}], "abc": [0.450107, 0.644699, 0.94132], "properties": {"magmom": 0.0}, "label": "Rb", "xyz": [6.093438289785, 10.49843969075, 25.03378036352]}, {"species": [{"element": "Rb", "occu": 1}], "abc": [0.127958, 0.747143, 0.582897], "properties": {"magmom": 0.0}, "label": "Rb", "xyz": [1.7322640542899999, 12.16666339775, 15.501758671391999]}, {"species": [{"element": "Rb", "occu": 1}], "abc": [0.465072999999999, 0.043358, 0.324158], "properties": {"magmom": 0.0}, "label": "Rb", "xyz": [6.296044331114987, 0.7060525115, 8.620766769088]}, {"species": [{"element": "Rb", "occu": 1}], "abc": [0.049893, 0.144699, 0.05868], "properties": {"magmom": 0.0}, "label": "Rb", "xyz": [0.6754392102150001, 2.35631469075, 1.56055563648]}, {"species": [{"element": "Rb", "occu": 1}], "abc": [0.876768, 0.893971, 0.370538], "properties": {"magmom": 0.0}, "label": "Rb", "xyz": [11.86947037584, 14.55764725675, 9.854212072767998]}, {"species": [{"element": "Rb", "occu": 1}], "abc": [0.549893, 0.355301, 0.05868], "properties": {"magmom": 0.0}, "label": "Rb", "xyz": [7.444316710215, 5.7858103092499995, 1.56055563648]}, {"species": [{"element": "Rb", "occu": 1}], "abc": [0.116742, 0.087457, 0.42437199999999903], "properties": {"magmom": 0.0}, "label": "Rb", "xyz": [1.5804245942100001, 1.4241716522499999, 11.285891556991974]}, {"species": [{"element": "Rb", "occu": 1}], "abc": [0.729607, 0.664292, 0.281451], "properties": {"magmom": 0.0}, "label": "Rb", "xyz": [9.877240812285, 10.817497001, 7.485002461535999]}, {"species": [{"element": "Rb", "occu": 1}], "abc": [0.116742, 0.587457, 0.075628], "properties": {"magmom": 0.0}, "label": "Rb", "xyz": [1.5804245942100001, 9.566296652250001, 2.0112764430079997]}, {"species": [{"element": "Rb", "occu": 1}], "abc": [0.465072999999999, 0.543358, 0.175842], "properties": {"magmom": 0.0}, "label": "Rb", "xyz": [6.296044331114987, 8.8481775115, 4.676401230912]}, {"species": [{"element": "As", "occu": 1}], "abc": [0.7855200000000001, 0.225358, 0.042656], "properties": {"magmom": 0.0}, "label": "As", "xyz": [10.634177307600002, 3.6697860115000003, 1.1344079964159999]}, {"species": [{"element": "As", "occu": 1}], "abc": [0.050803999999999, 0.882587999999999, 0.700087], "properties": {"magmom": 0.0}, "label": "As", "xyz": [0.6877721050199865, 14.372283638999985, 18.618348907232]}, {"species": [{"element": "As", "occu": 1}], "abc": [0.127858, 0.3644, 0.044931], "properties": {"magmom": 0.0}, "label": "As", "xyz": [1.7309102787900001, 5.9339807, 1.1949101108159998]}, {"species": [{"element": "As", "occu": 1}], "abc": [0.282865, 0.907501, 0.406091], "properties": {"magmom": 0.0}, "label": "As", "xyz": [3.8293570680749998, 14.777973159250001, 10.799720500575999]}, {"species": [{"element": "As", "occu": 1}], "abc": [0.627857999999999, 0.1356, 0.044931], "properties": {"magmom": 0.0}, "label": "As", "xyz": [8.499787778789987, 2.2081443, 1.1949101108159998]}, {"species": [{"element": "As", "occu": 1}], "abc": [0.872142, 0.1356, 0.544930999999999], "properties": {"magmom": 0.0}, "label": "As", "xyz": [11.80684472121, 2.2081443, 14.492078110815974]}, {"species": [{"element": "As", "occu": 1}], "abc": [0.630586, 0.369739, 0.185595999999999], "properties": {"magmom": 0.0}, "label": "As", "xyz": [8.53671877443, 6.02092231075, 4.9358023842559735]}, {"species": [{"element": "As", "occu": 1}], "abc": [0.782864999999999, 0.092499, 0.09390899999999901], "properties": {"magmom": 0.0}, "label": "As", "xyz": [10.598234568074988, 1.50627684075, 2.4974474994239735]}, {"species": [{"element": "As", "occu": 1}], "abc": [0.21448, 0.274642, 0.542656], "properties": {"magmom": 0.0}, "label": "As", "xyz": [2.9035776924000003, 4.4723389885, 14.431575996415999]}, {"species": [{"element": "As", "occu": 1}], "abc": [0.704892, 0.935010999999999, 0.240312], "properties": {"magmom": 0.0}, "label": "As", "xyz": [9.54265519746, 15.225952876749984, 6.390938072831999]}, {"species": [{"element": "As", "occu": 1}], "abc": [0.363197, 0.506409, 0.042383], "properties": {"magmom": 0.0}, "label": "As", "xyz": [4.916872002735, 8.24649075825, 1.1271477426879999]}, {"species": [{"element": "As", "occu": 1}], "abc": [0.217135, 0.407501, 0.593909], "properties": {"magmom": 0.0}, "label": "As", "xyz": [2.939520431925, 6.63584815925, 15.794615499424]}, {"species": [{"element": "As", "occu": 1}], "abc": [0.86553, 0.692141, 0.534781], "properties": {"magmom": 0.0}, "label": "As", "xyz": [11.71733308515, 11.27099707925, 14.222145600415997]}, {"species": [{"element": "As", "occu": 1}], "abc": [0.137876, 0.445386, 0.970133999999999], "properties": {"magmom": 0.0}, "label": "As", "xyz": [1.86653150838, 7.2527769705, 25.800069561023975]}, {"species": [{"element": "As", "occu": 1}], "abc": [0.228188, 0.684350999999999, 0.186249], "properties": {"magmom": 0.0}, "label": "As", "xyz": [3.08915323794, 11.144142771749985, 4.9531684856639995]}, {"species": [{"element": "As", "occu": 1}], "abc": [0.295108, 0.064988999999999, 0.759687999999999], "properties": {"magmom": 0.0}, "label": "As", "xyz": [3.99509980254, 1.0582971232499838, 20.203397927167973]}, {"species": [{"element": "As", "occu": 1}], "abc": [0.934736999999999, 0.259627999999999, 0.812781], "properties": {"magmom": 0.0}, "label": "As", "xyz": [12.654240495434987, 4.227847258999984, 21.615371008416]}, {"species": [{"element": "As", "occu": 1}], "abc": [0.999618, 0.2936, 0.724343], "properties": {"magmom": 0.0}, "label": "As", "xyz": [13.532583577590001, 4.781055800000001, 19.263421121247998]}, {"species": [{"element": "As", "occu": 1}], "abc": [0.565263, 0.759628, 0.187219], "properties": {"magmom": 0.0}, "label": "As", "xyz": [7.652392004565, 12.369972258999999, 4.978964991583999]}, {"species": [{"element": "As", "occu": 1}], "abc": [0.816823, 0.547252, 0.541447], "properties": {"magmom": 0.0}, "label": "As", "xyz": [11.057949652365, 8.911588381, 14.399423444192]}, {"species": [{"element": "As", "occu": 1}], "abc": [0.728188, 0.315649, 0.313751], "properties": {"magmom": 0.0}, "label": "As", "xyz": [9.85803073794, 5.140107228250001, 8.343999514336]}, {"species": [{"element": "As", "occu": 1}], "abc": [0.6344700000000001, 0.192140999999999, 0.465219], "properties": {"magmom": 0.0}, "label": "As", "xyz": [8.589299414850002, 3.128872079249984, 12.372190399584]}, {"species": [{"element": "As", "occu": 1}], "abc": [0.49961799999999906, 0.2064, 0.724343], "properties": {"magmom": 0.0}, "label": "As", "xyz": [6.763706077589988, 3.3610692, 19.263421121247998]}, {"species": [{"element": "As", "occu": 1}], "abc": [0.130586, 0.130261, 0.185595999999999], "properties": {"magmom": 0.0}, "label": "As", "xyz": [1.7678412744300003, 2.12120268925, 4.9358023842559735]}, {"species": [{"element": "As", "occu": 1}], "abc": [0.449196, 0.382588, 0.299913], "properties": {"magmom": 0.0}, "label": "As", "xyz": [6.08110539498, 6.230158639, 7.975987092767999]}, {"species": [{"element": "As", "occu": 1}], "abc": [0.71448, 0.225358, 0.542656], "properties": {"magmom": 0.0}, "label": "As", "xyz": [9.672455192400001, 3.6697860115000003, 14.431575996415999]}, {"species": [{"element": "As", "occu": 1}], "abc": [0.183176999999999, 0.952747999999999, 0.041447], "properties": {"magmom": 0.0}, "label": "As", "xyz": [2.479805347634987, 15.514786618999985, 1.1022554441919998]}, {"species": [{"element": "As", "occu": 1}], "abc": [0.204892, 0.564989, 0.240312], "properties": {"magmom": 0.0}, "label": "As", "xyz": [2.77377769746, 9.20042212325, 6.390938072831999]}, {"species": [{"element": "As", "occu": 1}], "abc": [0.999618, 0.7936000000000001, 0.775656999999999], "properties": {"magmom": 0.0}, "label": "As", "xyz": [13.532583577590001, 12.9231808, 20.62808287875197]}, {"species": [{"element": "As", "occu": 1}], "abc": [0.795107999999999, 0.935010999999999, 0.740312], "properties": {"magmom": 0.0}, "label": "As", "xyz": [10.763977302539988, 15.225952876749984, 19.688106072832]}, {"species": [{"element": "As", "occu": 1}], "abc": [0.127858, 0.8644000000000001, 0.455069], "properties": {"magmom": 0.0}, "label": "As", "xyz": [1.7309102787900001, 14.076105700000001, 12.102257889184]}, {"species": [{"element": "As", "occu": 1}], "abc": [0.782864999999999, 0.592499, 0.406091], "properties": {"magmom": 0.0}, "label": "As", "xyz": [10.598234568074988, 9.64840184075, 10.799720500575999]}, {"species": [{"element": "As", "occu": 1}], "abc": [0.71448, 0.725358, 0.957344], "properties": {"magmom": 0.0}, "label": "As", "xyz": [9.672455192400001, 11.8119110115, 25.459928003583997]}, {"species": [{"element": "As", "occu": 1}], "abc": [0.636803, 0.493591, 0.957616999999999], "properties": {"magmom": 0.0}, "label": "As", "xyz": [8.620882997265001, 8.03775924175, 25.467188257311975]}, {"species": [{"element": "As", "occu": 1}], "abc": [0.949195999999999, 0.117411999999999, 0.299913], "properties": {"magmom": 0.0}, "label": "As", "xyz": [12.849982894979988, 1.9119663609999837, 7.975987092767999]}, {"species": [{"element": "As", "occu": 1}], "abc": [0.863197, 0.493591, 0.457617], "properties": {"magmom": 0.0}, "label": "As", "xyz": [11.685749502735, 8.03775924175, 12.170020257311998]}, {"species": [{"element": "As", "occu": 1}], "abc": [0.49961799999999906, 0.7064, 0.775656999999999], "properties": {"magmom": 0.0}, "label": "As", "xyz": [6.763706077589988, 11.503194200000001, 20.62808287875197]}, {"species": [{"element": "As", "occu": 1}], "abc": [0.934736999999999, 0.759628, 0.687219], "properties": {"magmom": 0.0}, "label": "As", "xyz": [12.654240495434987, 12.369972258999999, 18.276132991584]}, {"species": [{"element": "As", "occu": 1}], "abc": [0.434737, 0.240372, 0.812781], "properties": {"magmom": 0.0}, "label": "As", "xyz": [5.885362995435, 3.9142777410000003, 21.615371008416]}, {"species": [{"element": "As", "occu": 1}], "abc": [0.869413999999999, 0.369739, 0.685596], "properties": {"magmom": 0.0}, "label": "As", "xyz": [11.769913725569987, 6.02092231075, 18.232970384256]}, {"species": [{"element": "As", "occu": 1}], "abc": [0.271812, 0.184351, 0.813751], "properties": {"magmom": 0.0}, "label": "As", "xyz": [3.67972426206, 3.00201777175, 21.641167514335997]}, {"species": [{"element": "As", "occu": 1}], "abc": [0.862124, 0.554613999999999, 0.029866], "properties": {"magmom": 0.0}, "label": "As", "xyz": [11.671223491620001, 9.031473029499985, 0.7942664389759999]}, {"species": [{"element": "As", "occu": 1}], "abc": [0.065263, 0.740371999999999, 0.187219], "properties": {"magmom": 0.0}, "label": "As", "xyz": [0.883514504565, 12.056402740999983, 4.978964991583999]}, {"species": [{"element": "As", "occu": 1}], "abc": [0.00038199999999900006, 0.2064, 0.224343], "properties": {"magmom": 0.0}, "label": "As", "xyz": [0.005171422409986463, 3.3610692, 5.966253121247999]}, {"species": [{"element": "As", "occu": 1}], "abc": [0.863197, 0.993591, 0.042383], "properties": {"magmom": 0.0}, "label": "As", "xyz": [11.685749502735, 16.17988424175, 1.1271477426879999]}, {"species": [{"element": "As", "occu": 1}], "abc": [0.683176999999999, 0.547252, 0.041447], "properties": {"magmom": 0.0}, "label": "As", "xyz": [9.248682847634987, 8.911588381, 1.1022554441919998]}, {"species": [{"element": "As", "occu": 1}], "abc": [0.500382, 0.2936, 0.224343], "properties": {"magmom": 0.0}, "label": "As", "xyz": [6.7740489224100005, 4.781055800000001, 5.966253121247999]}, {"species": [{"element": "As", "occu": 1}], "abc": [0.217135, 0.907501, 0.906091], "properties": {"magmom": 0.0}, "label": "As", "xyz": [2.939520431925, 14.777973159250001, 24.096888500575997]}, {"species": [{"element": "As", "occu": 1}], "abc": [0.228188, 0.184351, 0.313751], "properties": {"magmom": 0.0}, "label": "As", "xyz": [3.08915323794, 3.00201777175, 8.343999514336]}, {"species": [{"element": "As", "occu": 1}], "abc": [0.7855200000000001, 0.725358, 0.457344], "properties": {"magmom": 0.0}, "label": "As", "xyz": [10.634177307600002, 11.8119110115, 12.162760003584]}, {"species": [{"element": "As", "occu": 1}], "abc": [0.565263, 0.259627999999999, 0.312781], "properties": {"magmom": 0.0}, "label": "As", "xyz": [7.652392004565, 4.227847258999984, 8.318203008415999]}, {"species": [{"element": "As", "occu": 1}], "abc": [0.6344700000000001, 0.692141, 0.034781], "properties": {"magmom": 0.0}, "label": "As", "xyz": [8.589299414850002, 11.27099707925, 0.924977600416]}, {"species": [{"element": "As", "occu": 1}], "abc": [0.369413999999999, 0.130261, 0.685596], "properties": {"magmom": 0.0}, "label": "As", "xyz": [5.001036225569987, 2.12120268925, 18.232970384256]}, {"species": [{"element": "As", "occu": 1}], "abc": [0.057547999999999, 0.002451, 0.298024], "properties": {"magmom": 0.0}, "label": "As", "xyz": [0.7790707247399865, 0.039912696750000004, 7.925750392064]}, {"species": [{"element": "As", "occu": 1}], "abc": [0.363197, 0.006409, 0.457617], "properties": {"magmom": 0.0}, "label": "As", "xyz": [4.916872002735, 0.10436575825, 12.170020257311998]}, {"species": [{"element": "As", "occu": 1}], "abc": [0.050803999999999, 0.382588, 0.799913], "properties": {"magmom": 0.0}, "label": "As", "xyz": [0.6877721050199865, 6.230158639, 21.273155092767997]}, {"species": [{"element": "As", "occu": 1}], "abc": [0.683176999999999, 0.047251999999999, 0.458553], "properties": {"magmom": 0.0}, "label": "As", "xyz": [9.248682847634987, 0.7694633809999838, 12.194912555808]}, {"species": [{"element": "As", "occu": 1}], "abc": [0.057547999999999, 0.502451, 0.201976], "properties": {"magmom": 0.0}, "label": "As", "xyz": [0.7790707247399865, 8.18203769675, 5.371417607935999]}, {"species": [{"element": "As", "occu": 1}], "abc": [0.771811999999999, 0.815649, 0.686249], "properties": {"magmom": 0.0}, "label": "As", "xyz": [10.448601762059988, 13.282232228249999, 18.250336485664]}, {"species": [{"element": "As", "occu": 1}], "abc": [0.442451999999999, 0.502451, 0.701975999999999], "properties": {"magmom": 0.0}, "label": "As", "xyz": [5.989806775259987, 8.18203769675, 18.668585607935974]}, {"species": [{"element": "As", "occu": 1}], "abc": [0.183176999999999, 0.452748, 0.458553], "properties": {"magmom": 0.0}, "label": "As", "xyz": [2.479805347634987, 7.372661619, 12.194912555808]}, {"species": [{"element": "As", "occu": 1}], "abc": [0.21448, 0.774641999999999, 0.957344], "properties": {"magmom": 0.0}, "label": "As", "xyz": [2.9035776924000003, 12.614463988499985, 25.459928003583997]}, {"species": [{"element": "As", "occu": 1}], "abc": [0.372142, 0.3644, 0.544930999999999], "properties": {"magmom": 0.0}, "label": "As", "xyz": [5.03796722121, 5.9339807, 14.492078110815974]}, {"species": [{"element": "As", "occu": 1}], "abc": [0.00038199999999900006, 0.7064, 0.275657], "properties": {"magmom": 0.0}, "label": "As", "xyz": [0.005171422409986463, 11.503194200000001, 7.330914878751999]}, {"species": [{"element": "As", "occu": 1}], "abc": [0.362124, 0.445386, 0.470134], "properties": {"magmom": 0.0}, "label": "As", "xyz": [4.90234599162, 7.2527769705, 12.502901561023998]}, {"species": [{"element": "As", "occu": 1}], "abc": [0.550804, 0.117411999999999, 0.799913], "properties": {"magmom": 0.0}, "label": "As", "xyz": [7.45664960502, 1.9119663609999837, 21.273155092767997]}, {"species": [{"element": "As", "occu": 1}], "abc": [0.717135, 0.092499, 0.593909], "properties": {"magmom": 0.0}, "label": "As", "xyz": [9.708397931925001, 1.50627684075, 15.794615499424]}, {"species": [{"element": "As", "occu": 1}], "abc": [0.271812, 0.684350999999999, 0.686249], "properties": {"magmom": 0.0}, "label": "As", "xyz": [3.67972426206, 11.144142771749985, 18.250336485664]}, {"species": [{"element": "As", "occu": 1}], "abc": [0.637876, 0.054613999999999004, 0.970133999999999], "properties": {"magmom": 0.0}, "label": "As", "xyz": [8.63540900838, 0.8893480294999838, 25.800069561023975]}, {"species": [{"element": "As", "occu": 1}], "abc": [0.630586, 0.869738999999999, 0.314403999999999], "properties": {"magmom": 0.0}, "label": "As", "xyz": [8.53671877443, 14.163047310749985, 8.361365615743974]}, {"species": [{"element": "As", "occu": 1}], "abc": [0.942452, 0.9975489999999991, 0.701975999999999], "properties": {"magmom": 0.0}, "label": "As", "xyz": [12.75868427526, 16.244337303249985, 18.668585607935974]}, {"species": [{"element": "As", "occu": 1}], "abc": [0.28552, 0.774641999999999, 0.457344], "properties": {"magmom": 0.0}, "label": "As", "xyz": [3.8652998076, 12.614463988499985, 12.162760003584]}, {"species": [{"element": "As", "occu": 1}], "abc": [0.36553, 0.307859, 0.965218999999999], "properties": {"magmom": 0.0}, "label": "As", "xyz": [4.9484555851500005, 5.01325292075, 25.669358399583974]}, {"species": [{"element": "As", "occu": 1}], "abc": [0.136802999999999, 0.006409, 0.957616999999999], "properties": {"magmom": 0.0}, "label": "As", "xyz": [1.8520054972649866, 0.10436575825, 25.467188257311975]}, {"species": [{"element": "As", "occu": 1}], "abc": [0.065263, 0.240372, 0.312781], "properties": {"magmom": 0.0}, "label": "As", "xyz": [0.883514504565, 3.9142777410000003, 8.318203008415999]}, {"species": [{"element": "As", "occu": 1}], "abc": [0.36553, 0.807859, 0.534781], "properties": {"magmom": 0.0}, "label": "As", "xyz": [4.9484555851500005, 13.15537792075, 14.222145600415997]}, {"species": [{"element": "As", "occu": 1}], "abc": [0.295108, 0.564989, 0.740312], "properties": {"magmom": 0.0}, "label": "As", "xyz": [3.99509980254, 9.20042212325, 19.688106072832]}, {"species": [{"element": "As", "occu": 1}], "abc": [0.704892, 0.435011, 0.259688], "properties": {"magmom": 0.0}, "label": "As", "xyz": [9.54265519746, 7.08382787675, 6.906229927167999]}, {"species": [{"element": "As", "occu": 1}], "abc": [0.862124, 0.054613999999999004, 0.470134], "properties": {"magmom": 0.0}, "label": "As", "xyz": [11.671223491620001, 0.8893480294999838, 12.502901561023998]}, {"species": [{"element": "As", "occu": 1}], "abc": [0.204892, 0.064988999999999, 0.259688], "properties": {"magmom": 0.0}, "label": "As", "xyz": [2.77377769746, 1.0582971232499838, 6.906229927167999]}, {"species": [{"element": "As", "occu": 1}], "abc": [0.13447, 0.307859, 0.465219], "properties": {"magmom": 0.0}, "label": "As", "xyz": [1.8204219148500003, 5.01325292075, 12.372190399584]}, {"species": [{"element": "As", "occu": 1}], "abc": [0.637876, 0.554613999999999, 0.529866], "properties": {"magmom": 0.0}, "label": "As", "xyz": [8.63540900838, 9.031473029499985, 14.091434438975998]}, {"species": [{"element": "As", "occu": 1}], "abc": [0.136802999999999, 0.506409, 0.542383], "properties": {"magmom": 0.0}, "label": "As", "xyz": [1.8520054972649866, 8.24649075825, 14.424315742687998]}, {"species": [{"element": "As", "occu": 1}], "abc": [0.500382, 0.7936000000000001, 0.275657], "properties": {"magmom": 0.0}, "label": "As", "xyz": [6.7740489224100005, 12.9231808, 7.330914878751999]}, {"species": [{"element": "As", "occu": 1}], "abc": [0.557547999999999, 0.9975489999999991, 0.201976], "properties": {"magmom": 0.0}, "label": "As", "xyz": [7.547948224739987, 16.244337303249985, 5.371417607935999]}, {"species": [{"element": "As", "occu": 1}], "abc": [0.86553, 0.192140999999999, 0.965218999999999], "properties": {"magmom": 0.0}, "label": "As", "xyz": [11.71733308515, 3.128872079249984, 25.669358399583974]}, {"species": [{"element": "As", "occu": 1}], "abc": [0.869413999999999, 0.869738999999999, 0.814404], "properties": {"magmom": 0.0}, "label": "As", "xyz": [11.769913725569987, 14.163047310749985, 21.658533615744]}, {"species": [{"element": "As", "occu": 1}], "abc": [0.717135, 0.592499, 0.906091], "properties": {"magmom": 0.0}, "label": "As", "xyz": [9.708397931925001, 9.64840184075, 24.096888500575997]}, {"species": [{"element": "As", "occu": 1}], "abc": [0.442451999999999, 0.002451, 0.798024], "properties": {"magmom": 0.0}, "label": "As", "xyz": [5.989806775259987, 0.039912696750000004, 21.222918392064]}, {"species": [{"element": "As", "occu": 1}], "abc": [0.636803, 0.993591, 0.542383], "properties": {"magmom": 0.0}, "label": "As", "xyz": [8.620882997265001, 16.17988424175, 14.424315742687998]}, {"species": [{"element": "As", "occu": 1}], "abc": [0.949195999999999, 0.617412, 0.200087], "properties": {"magmom": 0.0}, "label": "As", "xyz": [12.849982894979988, 10.054091361, 5.321180907232]}, {"species": [{"element": "As", "occu": 1}], "abc": [0.627857999999999, 0.6356, 0.455069], "properties": {"magmom": 0.0}, "label": "As", "xyz": [8.499787778789987, 10.3502693, 12.102257889184]}, {"species": [{"element": "As", "occu": 1}], "abc": [0.550804, 0.617412, 0.700087], "properties": {"magmom": 0.0}, "label": "As", "xyz": [7.45664960502, 10.054091361, 18.618348907232]}, {"species": [{"element": "As", "occu": 1}], "abc": [0.771811999999999, 0.315649, 0.813751], "properties": {"magmom": 0.0}, "label": "As", "xyz": [10.448601762059988, 5.140107228250001, 21.641167514335997]}, {"species": [{"element": "As", "occu": 1}], "abc": [0.316822999999999, 0.452748, 0.958553], "properties": {"magmom": 0.0}, "label": "As", "xyz": [4.289072152364987, 7.372661619, 25.492080555808]}, {"species": [{"element": "As", "occu": 1}], "abc": [0.137876, 0.945386, 0.529866], "properties": {"magmom": 0.0}, "label": "As", "xyz": [1.86653150838, 15.3949019705, 14.091434438975998]}, {"species": [{"element": "As", "occu": 1}], "abc": [0.449196, 0.882587999999999, 0.200087], "properties": {"magmom": 0.0}, "label": "As", "xyz": [6.08110539498, 14.372283638999985, 5.321180907232]}, {"species": [{"element": "As", "occu": 1}], "abc": [0.795107999999999, 0.435011, 0.759687999999999], "properties": {"magmom": 0.0}, "label": "As", "xyz": [10.763977302539988, 7.08382787675, 20.203397927167973]}, {"species": [{"element": "As", "occu": 1}], "abc": [0.942452, 0.497548999999999, 0.798024], "properties": {"magmom": 0.0}, "label": "As", "xyz": [12.75868427526, 8.102212303249985, 21.222918392064]}, {"species": [{"element": "As", "occu": 1}], "abc": [0.13447, 0.807859, 0.034781], "properties": {"magmom": 0.0}, "label": "As", "xyz": [1.8204219148500003, 13.15537792075, 0.924977600416]}, {"species": [{"element": "As", "occu": 1}], "abc": [0.130586, 0.630261, 0.314403999999999], "properties": {"magmom": 0.0}, "label": "As", "xyz": [1.7678412744300003, 10.26332768925, 8.361365615743974]}, {"species": [{"element": "As", "occu": 1}], "abc": [0.316822999999999, 0.952747999999999, 0.541447], "properties": {"magmom": 0.0}, "label": "As", "xyz": [4.289072152364987, 15.514786618999985, 14.399423444192]}, {"species": [{"element": "As", "occu": 1}], "abc": [0.372142, 0.8644000000000001, 0.955069], "properties": {"magmom": 0.0}, "label": "As", "xyz": [5.03796722121, 14.076105700000001, 25.399425889184]}, {"species": [{"element": "As", "occu": 1}], "abc": [0.728188, 0.815649, 0.186249], "properties": {"magmom": 0.0}, "label": "As", "xyz": [9.85803073794, 13.282232228249999, 4.9531684856639995]}, {"species": [{"element": "As", "occu": 1}], "abc": [0.434737, 0.740371999999999, 0.687219], "properties": {"magmom": 0.0}, "label": "As", "xyz": [5.885362995435, 12.056402740999983, 18.276132991584]}, {"species": [{"element": "As", "occu": 1}], "abc": [0.282865, 0.407501, 0.09390899999999901], "properties": {"magmom": 0.0}, "label": "As", "xyz": [3.8293570680749998, 6.63584815925, 2.4974474994239735]}, {"species": [{"element": "As", "occu": 1}], "abc": [0.816823, 0.047251999999999, 0.958553], "properties": {"magmom": 0.0}, "label": "As", "xyz": [11.057949652365, 0.7694633809999838, 25.492080555808]}, {"species": [{"element": "As", "occu": 1}], "abc": [0.557547999999999, 0.497548999999999, 0.298024], "properties": {"magmom": 0.0}, "label": "As", "xyz": [7.547948224739987, 8.102212303249985, 7.925750392064]}, {"species": [{"element": "As", "occu": 1}], "abc": [0.872142, 0.6356, 0.955069], "properties": {"magmom": 0.0}, "label": "As", "xyz": [11.80684472121, 10.3502693, 25.399425889184]}, {"species": [{"element": "As", "occu": 1}], "abc": [0.362124, 0.945386, 0.029866], "properties": {"magmom": 0.0}, "label": "As", "xyz": [4.90234599162, 15.3949019705, 0.7942664389759999]}, {"species": [{"element": "As", "occu": 1}], "abc": [0.28552, 0.274642, 0.042656], "properties": {"magmom": 0.0}, "label": "As", "xyz": [3.8652998076, 4.4723389885, 1.1344079964159999]}, {"species": [{"element": "As", "occu": 1}], "abc": [0.369413999999999, 0.630261, 0.814404], "properties": {"magmom": 0.0}, "label": "As", "xyz": [5.001036225569987, 10.26332768925, 21.658533615744]}]}, "task_ids": null, "uncorrected_energy_per_atom": null, "energy_per_atom": -3.9199937003125003, "formation_energy_per_atom": -0.35674770581250104, "energy_above_hull": 0.0, "is_stable": true, "equilibrium_reaction_energy_per_atom": null, "decomposes_to": null, "xas": null, "grain_boundaries": null, "band_gap": 1.5816, "cbm": null, "vbm": null, "efermi": 1.8646224500000002, "is_gap_direct": null, "is_metal": null, "es_source_calc_id": null, "bandstructure": null, "dos": null, "dos_energy_up": null, "dos_energy_down": null, "is_magnetic": null, "ordering": null, "total_magnetization": 0.0006967, "total_magnetization_normalized_vol": null, "total_magnetization_normalized_formula_units": null, "num_magnetic_sites": null, "num_unique_magnetic_sites": null, "types_of_magnetic_species": null, "bulk_modulus": null, "shear_modulus": null, "universal_anisotropy": null, "homogeneous_poisson": null, "e_total": null, "e_ionic": null, "e_electronic": null, "n": null, "e_ij_max": null, "weighted_surface_energy_EV_PER_ANG2": null, "weighted_surface_energy": null, "weighted_work_function": null, "surface_anisotropy": null, "shape_factor": null, "has_reconstructed": null, "possible_species": null, "has_props": null, "theoretical": null, "database_IDs": null, "fields_not_requested": ["builder_meta", "nsites", "elements", "nelements", "composition", "composition_reduced", "chemsys", "symmetry", "property_name", "deprecated", "deprecation_reasons", "last_updated", "origins", "warnings", "task_ids", "uncorrected_energy_per_atom", "equilibrium_reaction_energy_per_atom", "decomposes_to", "xas", "grain_boundaries", "cbm", "vbm", "is_gap_direct", "is_metal", "es_source_calc_id", "bandstructure", "dos", "dos_energy_up", "dos_energy_down", "is_magnetic", "ordering", "total_magnetization_normalized_vol", "total_magnetization_normalized_formula_units", "num_magnetic_sites", "num_unique_magnetic_sites", "types_of_magnetic_species", "bulk_modulus", "shear_modulus", "universal_anisotropy", "homogeneous_poisson", "e_total", "e_ionic", "e_electronic", "n", "e_ij_max", "weighted_surface_energy_EV_PER_ANG2", "weighted_surface_energy", "weighted_work_function", "surface_anisotropy", "shape_factor", "has_reconstructed", "possible_species", "has_props", "theoretical", "database_IDs"]}