{"builder_meta": null, "nsites": null, "elements": null, "nelements": null, "composition": null, "composition_reduced": null, "formula_pretty": "Rb3Bi", "formula_anonymous": "AB3", "chemsys": null, "volume": 417.6911053058557, "density": 3.700284593309137, "density_atomic": 52.21138816323196, "symmetry": null, "property_name": null, "material_id": "mp-569095", "deprecated": null, "deprecation_reasons": null, "last_updated": null, "origins": null, "warnings": null, "structure": {"@module": "pymatgen.core.structure", "@class": "Structure", "charge": 0, "lattice": {"matrix": [[6.48213655, -2e-08, 0.0], [-3.24107031, 5.61369665, 0.0], [0.0, -0.0, 11.47857858]], "pbc": [true, true, true], "a": 6.48213655, "b": 6.4821390630396625, "c": 11.47857858, "alpha": 90.0, "beta": 90.0, "gamma": 120.00000812228048, "volume": 417.6911053058557}, "properties": {}, "sites": [{"species": [{"element": "Rb", "occu": 1}], "abc": [0.333333, 0.666667, 0.91841525], "properties": {"magmom": 0.0}, "label": "Rb", "xyz": [-4.597735620226473e-06, 3.74246629789889, 10.542101616195346]}, {"species": [{"element": "Rb", "occu": 1}], "abc": [0.666667, 0.333333, 0.41841525], "properties": {"magmom": 0.0}, "label": "Rb", "xyz": [3.2410708377356197, 1.87123033210111, 4.802812326195346]}, {"species": [{"element": "Rb", "occu": 1}], "abc": [-0.0, 0.0, 0.25], "properties": {"magmom": -0.0}, "label": "Rb", "xyz": [0.0, 0.0, 2.869644645]}, {"species": [{"element": "Rb", "occu": 1}], "abc": [0.666667, 0.333333, 0.08158475], "properties": {"magmom": 0.0}, "label": "Rb", "xyz": [3.2410708377356197, 1.87123033210111, 0.9364769638046551]}, {"species": [{"element": "Rb", "occu": 1}], "abc": [0.0, -0.0, 0.75], "properties": {"magmom": -0.0}, "label": "Rb", "xyz": [0.0, 0.0, 8.608933935]}, {"species": [{"element": "Rb", "occu": 1}], "abc": [0.333333, 0.666667, 0.58158475], "properties": {"magmom": 0.0}, "label": "Rb", "xyz": [-4.597735620226473e-06, 3.74246629789889, 6.675766253804655]}, {"species": [{"element": "Bi", "occu": 1}], "abc": [0.666667, 0.333333, 0.75], "properties": {"magmom": -0.0}, "label": "Bi", "xyz": [3.2410708377356197, 1.87123033210111, 8.608933935]}, {"species": [{"element": "Bi", "occu": 1}], "abc": [0.333333, 0.666667, 0.25], "properties": {"magmom": -0.0}, "label": "Bi", "xyz": [-4.597735620226473e-06, 3.74246629789889, 2.869644645]}]}, "task_ids": null, "uncorrected_energy_per_atom": null, "energy_per_atom": -2.027054827499999, "formation_energy_per_atom": -0.319145695624999, "energy_above_hull": 0.0, "is_stable": true, "equilibrium_reaction_energy_per_atom": null, "decomposes_to": null, "xas": null, "grain_boundaries": null, "band_gap": 0.0, "cbm": null, "vbm": null, "efermi": 0.79209506, "is_gap_direct": null, "is_metal": null, "es_source_calc_id": null, "bandstructure": null, "dos": null, "dos_energy_up": null, "dos_energy_down": null, "is_magnetic": null, "ordering": null, "total_magnetization": 1e-07, "total_magnetization_normalized_vol": null, "total_magnetization_normalized_formula_units": null, "num_magnetic_sites": null, "num_unique_magnetic_sites": null, "types_of_magnetic_species": null, "bulk_modulus": null, "shear_modulus": null, "universal_anisotropy": null, "homogeneous_poisson": null, "e_total": null, "e_ionic": null, "e_electronic": null, "n": null, "e_ij_max": null, "weighted_surface_energy_EV_PER_ANG2": null, "weighted_surface_energy": null, "weighted_work_function": null, "surface_anisotropy": null, "shape_factor": null, "has_reconstructed": null, "possible_species": null, "has_props": null, "theoretical": null, "database_IDs": null, "fields_not_requested": ["builder_meta", "nsites", "elements", "nelements", "composition", "composition_reduced", "chemsys", "symmetry", "property_name", "deprecated", "deprecation_reasons", "last_updated", "origins", "warnings", "task_ids", "uncorrected_energy_per_atom", "equilibrium_reaction_energy_per_atom", "decomposes_to", "xas", "grain_boundaries", "cbm", "vbm", "is_gap_direct", "is_metal", "es_source_calc_id", "bandstructure", "dos", "dos_energy_up", "dos_energy_down", "is_magnetic", "ordering", "total_magnetization_normalized_vol", "total_magnetization_normalized_formula_units", "num_magnetic_sites", "num_unique_magnetic_sites", "types_of_magnetic_species", "bulk_modulus", "shear_modulus", "universal_anisotropy", "homogeneous_poisson", "e_total", "e_ionic", "e_electronic", "n", "e_ij_max", "weighted_surface_energy_EV_PER_ANG2", "weighted_surface_energy", "weighted_work_function", "surface_anisotropy", "shape_factor", "has_reconstructed", "possible_species", "has_props", "theoretical", "database_IDs"]}