{
  "builder_meta": null,
  "nsites": null,
  "elements": null,
  "nelements": null,
  "composition": null,
  "composition_reduced": null,
  "formula_pretty": "Rb3Bi2",
  "formula_anonymous": "A2B3",
  "chemsys": null,
  "volume": 473.81865682084253,
  "density": 4.726737046320532,
  "density_atomic": 47.38186568208425,
  "symmetry": null,
  "property_name": null,
  "material_id": "mp-1207251",
  "deprecated": null,
  "deprecation_reasons": null,
  "last_updated": null,
  "origins": null,
  "warnings": null,
  "structure": {
    "@module": "pymatgen.core.structure",
    "@class": "Structure",
    "charge": 0,
    "lattice": {
      "matrix": [
        [5.08269353, 4.90002517, -0.04675534],
        [-5.08268504, 4.90001701, -0.04672831],
        [-2.275e-5, 2.65269365, 9.48710765]
      ],
      "pbc": [true, true, true],
      "a": 7.06018457608269,
      "b": 7.060172621762487,
      "c": 9.850989552524986,
      "alpha": 79.60000575486251,
      "beta": 79.60041391150193,
      "gamma": 92.0940097725004,
      "volume": 473.81865682084253
    },
    "properties": {},
    "sites": [
      {
        "species": [{ "element": "Rb", "occu": 1 }],
        "abc": [0.6593859400000001, 0.76240576, 0.51565311],
        "properties": { "magmom": 0.008 },
        "label": "Rb",
        "xyz": [-0.5236234308591149, 8.33467862576584, 4.8256008181123065]
      },
      {
        "species": [{ "element": "Rb", "occu": 1 }],
        "abc": [0.34048059, 0.23751648, 0.48469923000000004],
        "properties": { "magmom": 0.008 },
        "label": "Rb",
        "xyz": [0.5233260053266413, 4.117956822632665, 4.571375743425711]
      },
      {
        "species": [{ "element": "Rb", "occu": 1 }],
        "abc": [0.23759461, 0.34061311, 0.9843472],
        "properties": { "magmom": 0.008 },
        "label": "Rb",
        "xyz": [-0.523630965513801, 5.444401168920614, 9.31158275960922]
      },
      {
        "species": [{ "element": "Rb", "occu": 1 }],
        "abc": [0.76248321, 0.65952091, 0.01529814],
        "properties": { "magmom": 0.008 },
        "label": "Rb",
        "xyz": [0.5233310673437596, 7.008431876987886, 0.0786666417629675]
      },
      {
        "species": [{ "element": "Rb", "occu": 1 }],
        "abc": [0.8421781700000001, 0.15781996, 0.75000118],
        "properties": { "magmom": 0.008 },
        "label": "Rb",
        "xyz": [3.478367323533997, 6.889538086820567, 7.068590945593033]
      },
      {
        "species": [{ "element": "Rb", "occu": 1 }],
        "abc": [0.15789046, 0.8421137, 0.249998299999999],
        "properties": { "magmom": 0.008 },
        "label": "Rb",
        "xyz": [-3.4776955729396493, 5.563207585377707, 2.325028012248082]
      },
      {
        "species": [{ "element": "Bi", "occu": 1 }],
        "abc": [0.31498891, 0.88164467, 0.84285751],
        "properties": { "magmom": 0.267 },
        "label": "Bi",
        "xyz": [-2.880149254934337, 8.099370231678513, 7.940354751948064]
      },
      {
        "species": [{ "element": "Bi", "occu": 1 }],
        "abc": [0.68508803, 0.11844458000000001, 0.15717293000000002],
        "properties": { "magmom": 0.269 },
        "label": "Bi",
        "xyz": [2.8800724270422053, 4.354260680770915, 1.4535502677512746]
      },
      {
        "species": [{ "element": "Bi", "occu": 1 }],
        "abc": [0.11835549000000001, 0.68500981, 0.65714057],
        "properties": { "magmom": 0.267 },
        "label": "Bi",
        "xyz": [-2.8801393802252306, 5.679697218220932, 6.196820226841823]
      },
      {
        "species": [{ "element": "Bi", "occu": 1 }],
        "abc": [0.8815555900000001, 0.31491203, 0.34282984],
        "properties": { "magmom": 0.269 },
        "label": "Bi",
        "xyz": [2.8800704304524416, 6.772141423006347, 3.1965308594123565]
      }
    ]
  },
  "task_ids": null,
  "uncorrected_energy_per_atom": null,
  "energy_per_atom": -2.449001656000001,
  "formation_energy_per_atom": -0.304667488500002,
  "energy_above_hull": 0.027854970687497004,
  "is_stable": false,
  "equilibrium_reaction_energy_per_atom": null,
  "decomposes_to": null,
  "xas": null,
  "grain_boundaries": null,
  "band_gap": 0.0,
  "cbm": null,
  "vbm": null,
  "efermi": 1.59497854,
  "is_gap_direct": null,
  "is_metal": null,
  "es_source_calc_id": null,
  "bandstructure": null,
  "dos": null,
  "dos_energy_up": null,
  "dos_energy_down": null,
  "is_magnetic": null,
  "ordering": null,
  "total_magnetization": 2.0195873,
  "total_magnetization_normalized_vol": null,
  "total_magnetization_normalized_formula_units": null,
  "num_magnetic_sites": null,
  "num_unique_magnetic_sites": null,
  "types_of_magnetic_species": null,
  "bulk_modulus": null,
  "shear_modulus": null,
  "universal_anisotropy": null,
  "homogeneous_poisson": null,
  "e_total": null,
  "e_ionic": null,
  "e_electronic": null,
  "n": null,
  "e_ij_max": null,
  "weighted_surface_energy_EV_PER_ANG2": null,
  "weighted_surface_energy": null,
  "weighted_work_function": null,
  "surface_anisotropy": null,
  "shape_factor": null,
  "has_reconstructed": null,
  "possible_species": null,
  "has_props": null,
  "theoretical": null,
  "database_IDs": null,
  "fields_not_requested": [
    "builder_meta",
    "nsites",
    "elements",
    "nelements",
    "composition",
    "composition_reduced",
    "chemsys",
    "symmetry",
    "property_name",
    "deprecated",
    "deprecation_reasons",
    "last_updated",
    "origins",
    "warnings",
    "task_ids",
    "uncorrected_energy_per_atom",
    "equilibrium_reaction_energy_per_atom",
    "decomposes_to",
    "xas",
    "grain_boundaries",
    "cbm",
    "vbm",
    "is_gap_direct",
    "is_metal",
    "es_source_calc_id",
    "bandstructure",
    "dos",
    "dos_energy_up",
    "dos_energy_down",
    "is_magnetic",
    "ordering",
    "total_magnetization_normalized_vol",
    "total_magnetization_normalized_formula_units",
    "num_magnetic_sites",
    "num_unique_magnetic_sites",
    "types_of_magnetic_species",
    "bulk_modulus",
    "shear_modulus",
    "universal_anisotropy",
    "homogeneous_poisson",
    "e_total",
    "e_ionic",
    "e_electronic",
    "n",
    "e_ij_max",
    "weighted_surface_energy_EV_PER_ANG2",
    "weighted_surface_energy",
    "weighted_work_function",
    "surface_anisotropy",
    "shape_factor",
    "has_reconstructed",
    "possible_species",
    "has_props",
    "theoretical",
    "database_IDs"
  ]
}
