{"builder_meta": null, "nsites": null, "elements": null, "nelements": null, "composition": null, "composition_reduced": null, "formula_pretty": "Rb3Ca", "formula_anonymous": "AB3", "chemsys": null, "volume": 593.2908294995402, "density": 1.65962095734919, "density_atomic": 74.16135368744253, "symmetry": null, "property_name": null, "material_id": "mp-974635", "deprecated": null, "deprecation_reasons": null, "last_updated": null, "origins": null, "warnings": null, "structure": {"@module": "pymatgen.core.structure", "@class": "Structure", "charge": 0, "lattice": {"matrix": [[4.724719, -8.183454, 0.0], [4.724719, 8.183454, 0.0], [0.0, 0.0, 7.67229]], "pbc": [true, true, true], "a": 9.449438554701384, "b": 9.449438554701384, "c": 7.67229, "alpha": 90.0, "beta": 90.0, "gamma": 120.00000388369611, "volume": 593.2908294995402}, "properties": {}, "sites": [{"species": [{"element": "Rb", "occu": 1}], "abc": [0.171847, 0.343694, 0.25], "properties": {"magmom": 0.0}, "label": "Rb", "xyz": [2.435786357979, 1.4063020195379998, 1.9180725]}, {"species": [{"element": "Rb", "occu": 1}], "abc": [0.656306, 0.828152999999999, 0.25], "properties": {"magmom": 0.0}, "label": "Rb", "xyz": [7.013651642020996, 1.4063020195379927, 1.9180725]}, {"species": [{"element": "Rb", "occu": 1}], "abc": [0.171847, 0.828152999999999, 0.25], "properties": {"magmom": 0.0}, "label": "Rb", "xyz": [4.724718999999996, 5.370849960923992, 1.9180725]}, {"species": [{"element": "Rb", "occu": 1}], "abc": [0.828152999999999, 0.656306, 0.75], "properties": {"magmom": 0.0}, "label": "Rb", "xyz": [7.013651642020996, -1.4063020195379927, 5.7542175]}, {"species": [{"element": "Rb", "occu": 1}], "abc": [0.343694, 0.171847, 0.75], "properties": {"magmom": 0.0}, "label": "Rb", "xyz": [2.435786357979, -1.4063020195379998, 5.7542175]}, {"species": [{"element": "Rb", "occu": 1}], "abc": [0.828152999999999, 0.171847, 0.75], "properties": {"magmom": 0.0}, "label": "Rb", "xyz": [4.724718999999996, -5.370849960923992, 5.7542175]}, {"species": [{"element": "Ca", "occu": 1}], "abc": [0.333333, 0.666667, 0.75], "properties": {"magmom": -0.0}, "label": "Ca", "xyz": [4.724719, 2.7278234556360004, 5.7542175]}, {"species": [{"element": "Ca", "occu": 1}], "abc": [0.666667, 0.333333, 0.25], "properties": {"magmom": -0.0}, "label": "Ca", "xyz": [4.724719, -2.7278234556360004, 1.9180725]}]}, "task_ids": null, "uncorrected_energy_per_atom": null, "energy_per_atom": -1.050188735, "formation_energy_per_atom": 0.186611789375, "energy_above_hull": 0.186611789375, "is_stable": false, "equilibrium_reaction_energy_per_atom": null, "decomposes_to": null, "xas": null, "grain_boundaries": null, "band_gap": 0.0, "cbm": null, "vbm": null, "efermi": 0.42181234, "is_gap_direct": null, "is_metal": null, "es_source_calc_id": null, "bandstructure": null, "dos": null, "dos_energy_up": null, "dos_energy_down": null, "is_magnetic": null, "ordering": null, "total_magnetization": 0.0048337, "total_magnetization_normalized_vol": null, "total_magnetization_normalized_formula_units": null, "num_magnetic_sites": null, "num_unique_magnetic_sites": null, "types_of_magnetic_species": null, "bulk_modulus": null, "shear_modulus": null, "universal_anisotropy": null, "homogeneous_poisson": null, "e_total": null, "e_ionic": null, "e_electronic": null, "n": null, "e_ij_max": null, "weighted_surface_energy_EV_PER_ANG2": null, "weighted_surface_energy": null, "weighted_work_function": null, "surface_anisotropy": null, "shape_factor": null, "has_reconstructed": null, "possible_species": null, "has_props": null, "theoretical": null, "database_IDs": null, "fields_not_requested": ["builder_meta", "nsites", "elements", "nelements", "composition", "composition_reduced", "chemsys", "symmetry", "property_name", "deprecated", "deprecation_reasons", "last_updated", "origins", "warnings", "task_ids", "uncorrected_energy_per_atom", "equilibrium_reaction_energy_per_atom", "decomposes_to", "xas", "grain_boundaries", "cbm", "vbm", "is_gap_direct", "is_metal", "es_source_calc_id", "bandstructure", "dos", "dos_energy_up", "dos_energy_down", "is_magnetic", "ordering", "total_magnetization_normalized_vol", "total_magnetization_normalized_formula_units", "num_magnetic_sites", "num_unique_magnetic_sites", "types_of_magnetic_species", "bulk_modulus", "shear_modulus", "universal_anisotropy", "homogeneous_poisson", "e_total", "e_ionic", "e_electronic", "n", "e_ij_max", "weighted_surface_energy_EV_PER_ANG2", "weighted_surface_energy", "weighted_work_function", "surface_anisotropy", "shape_factor", "has_reconstructed", "possible_species", "has_props", "theoretical", "database_IDs"]}