{
  "builder_meta": null,
  "nsites": null,
  "elements": null,
  "nelements": null,
  "composition": null,
  "composition_reduced": null,
  "formula_pretty": "Rb3Er",
  "formula_anonymous": "AB3",
  "chemsys": null,
  "volume": 530.0954949904692,
  "density": 2.654268798349868,
  "density_atomic": 66.26193687380865,
  "symmetry": null,
  "property_name": null,
  "material_id": "mp-974672",
  "deprecated": null,
  "deprecation_reasons": null,
  "last_updated": null,
  "origins": null,
  "warnings": null,
  "structure": {
    "@module": "pymatgen.core.structure",
    "@class": "Structure",
    "charge": 0,
    "lattice": {
      "matrix": [
        [4.547635, -7.876734, 0.0],
        [4.547635, 7.876734, 0.0],
        [0.0, 0.0, 7.399329]
      ],
      "pbc": [true, true, true],
      "a": 9.095269242852627,
      "b": 9.095269242852627,
      "c": 7.399329,
      "alpha": 90.0,
      "beta": 90.0,
      "gamma": 119.9999944924701,
      "volume": 530.0954949904692
    },
    "properties": {},
    "sites": [
      {
        "species": [{ "element": "Rb", "occu": 1 }],
        "abc": [0.173694, 0.347387, 0.25],
        "properties": { "magmom": -0.004 },
        "label": "Rb",
        "xyz": [2.3696861934349998, 1.3681335586619998, 1.84983225]
      },
      {
        "species": [{ "element": "Rb", "occu": 1 }],
        "abc": [0.652613, 0.826306, 0.25],
        "properties": { "magmom": -0.005 },
        "label": "Rb",
        "xyz": [6.725583806565, 1.3681335586620005, 1.84983225]
      },
      {
        "species": [{ "element": "Rb", "occu": 1 }],
        "abc": [0.173694, 0.826306, 0.25],
        "properties": { "magmom": -0.004 },
        "label": "Rb",
        "xyz": [4.547635, 5.140451129208, 1.84983225]
      },
      {
        "species": [{ "element": "Rb", "occu": 1 }],
        "abc": [0.826306, 0.652613, 0.75],
        "properties": { "magmom": -0.005 },
        "label": "Rb",
        "xyz": [6.725583806565, -1.3681335586620005, 5.549496749999999]
      },
      {
        "species": [{ "element": "Rb", "occu": 1 }],
        "abc": [0.347387, 0.173694, 0.75],
        "properties": { "magmom": -0.005 },
        "label": "Rb",
        "xyz": [2.3696861934349998, -1.3681335586619998, 5.549496749999999]
      },
      {
        "species": [{ "element": "Rb", "occu": 1 }],
        "abc": [0.826306, 0.173694, 0.75],
        "properties": { "magmom": -0.005 },
        "label": "Rb",
        "xyz": [4.547635, -5.140451129208, 5.549496749999999]
      },
      {
        "species": [{ "element": "Er", "occu": 1 }],
        "abc": [0.333333, 0.666667, 0.75],
        "properties": { "magmom": -0.225 },
        "label": "Er",
        "xyz": [4.547635, 2.625583251156, 5.549496749999999]
      },
      {
        "species": [{ "element": "Er", "occu": 1 }],
        "abc": [0.666667, 0.333333, 0.25],
        "properties": { "magmom": -0.227 },
        "label": "Er",
        "xyz": [4.547635, -2.625583251156, 1.84983225]
      }
    ]
  },
  "task_ids": null,
  "uncorrected_energy_per_atom": null,
  "energy_per_atom": -1.2462108125,
  "formation_energy_per_atom": 0.631119444375,
  "energy_above_hull": 0.631119444375,
  "is_stable": false,
  "equilibrium_reaction_energy_per_atom": null,
  "decomposes_to": null,
  "xas": null,
  "grain_boundaries": null,
  "band_gap": 0.0,
  "cbm": null,
  "vbm": null,
  "efermi": 0.52955676,
  "is_gap_direct": null,
  "is_metal": null,
  "es_source_calc_id": null,
  "bandstructure": null,
  "dos": null,
  "dos_energy_up": null,
  "dos_energy_down": null,
  "is_magnetic": null,
  "ordering": null,
  "total_magnetization": 1.0255877,
  "total_magnetization_normalized_vol": null,
  "total_magnetization_normalized_formula_units": null,
  "num_magnetic_sites": null,
  "num_unique_magnetic_sites": null,
  "types_of_magnetic_species": null,
  "bulk_modulus": null,
  "shear_modulus": null,
  "universal_anisotropy": null,
  "homogeneous_poisson": null,
  "e_total": null,
  "e_ionic": null,
  "e_electronic": null,
  "n": null,
  "e_ij_max": null,
  "weighted_surface_energy_EV_PER_ANG2": null,
  "weighted_surface_energy": null,
  "weighted_work_function": null,
  "surface_anisotropy": null,
  "shape_factor": null,
  "has_reconstructed": null,
  "possible_species": null,
  "has_props": null,
  "theoretical": null,
  "database_IDs": null,
  "fields_not_requested": [
    "builder_meta",
    "nsites",
    "elements",
    "nelements",
    "composition",
    "composition_reduced",
    "chemsys",
    "symmetry",
    "property_name",
    "deprecated",
    "deprecation_reasons",
    "last_updated",
    "origins",
    "warnings",
    "task_ids",
    "uncorrected_energy_per_atom",
    "equilibrium_reaction_energy_per_atom",
    "decomposes_to",
    "xas",
    "grain_boundaries",
    "cbm",
    "vbm",
    "is_gap_direct",
    "is_metal",
    "es_source_calc_id",
    "bandstructure",
    "dos",
    "dos_energy_up",
    "dos_energy_down",
    "is_magnetic",
    "ordering",
    "total_magnetization_normalized_vol",
    "total_magnetization_normalized_formula_units",
    "num_magnetic_sites",
    "num_unique_magnetic_sites",
    "types_of_magnetic_species",
    "bulk_modulus",
    "shear_modulus",
    "universal_anisotropy",
    "homogeneous_poisson",
    "e_total",
    "e_ionic",
    "e_electronic",
    "n",
    "e_ij_max",
    "weighted_surface_energy_EV_PER_ANG2",
    "weighted_surface_energy",
    "weighted_work_function",
    "surface_anisotropy",
    "shape_factor",
    "has_reconstructed",
    "possible_species",
    "has_props",
    "theoretical",
    "database_IDs"
  ]
}
