{"builder_meta": null, "nsites": null, "elements": null, "nelements": null, "composition": null, "composition_reduced": null, "formula_pretty": "Rb3Ge", "formula_anonymous": "AB3", "chemsys": null, "volume": 189.02288312049234, "density": 2.890599335312197, "density_atomic": 47.255720780123085, "symmetry": null, "property_name": null, "material_id": "mp-974997", "deprecated": null, "deprecation_reasons": null, "last_updated": null, "origins": null, "warnings": null, "structure": {"@module": "pymatgen.core.structure", "@class": "Structure", "charge": 0, "lattice": {"matrix": [[-3.127844999999999, 3.127844999999999, 4.8301870000000005], [3.127844999999999, -3.127844999999999, 4.8301870000000005], [3.127844999999999, 3.127844999999999, -4.8301870000000005]], "pbc": [true, true, true], "a": 6.549620992318486, "b": 6.549620992318486, "c": 6.549620992318486, "alpha": 122.94751539126702, "beta": 122.94751539126702, "gamma": 84.96633138639505, "volume": 189.02288312049222}, "properties": {}, "sites": [{"species": [{"element": "Rb", "occu": 1}], "abc": [0.75, 0.25, 0.5], "properties": {"magmom": 0.011}, "label": "Rb", "xyz": [0.0, 3.127844999999999, 2.4150935000000002]}, {"species": [{"element": "Rb", "occu": 1}], "abc": [0.25, 0.75, 0.5], "properties": {"magmom": 0.011}, "label": "Rb", "xyz": [3.127844999999999, 0.0, 2.4150935000000002]}, {"species": [{"element": "Rb", "occu": 1}], "abc": [0.5, 0.5, 0.0], "properties": {"magmom": 0.003}, "label": "Rb", "xyz": [0.0, 0.0, 4.8301870000000005]}, {"species": [{"element": "Ge", "occu": 1}], "abc": [0.0, 0.0, 0.0], "properties": {"magmom": 0.304}, "label": "Ge", "xyz": [0.0, 0.0, 0.0]}]}, "task_ids": null, "uncorrected_energy_per_atom": null, "energy_per_atom": -1.6942784475, "formation_energy_per_atom": 0.19687907062499901, "energy_above_hull": 0.292738131171875, "is_stable": false, "equilibrium_reaction_energy_per_atom": null, "decomposes_to": null, "xas": null, "grain_boundaries": null, "band_gap": 0.0, "cbm": null, "vbm": null, "efermi": 1.27343579, "is_gap_direct": null, "is_metal": null, "es_source_calc_id": null, "bandstructure": null, "dos": null, "dos_energy_up": null, "dos_energy_down": null, "is_magnetic": null, "ordering": null, "total_magnetization": 1.0020553, "total_magnetization_normalized_vol": null, "total_magnetization_normalized_formula_units": null, "num_magnetic_sites": null, "num_unique_magnetic_sites": null, "types_of_magnetic_species": null, "bulk_modulus": null, "shear_modulus": null, "universal_anisotropy": null, "homogeneous_poisson": null, "e_total": null, "e_ionic": null, "e_electronic": null, "n": null, "e_ij_max": null, "weighted_surface_energy_EV_PER_ANG2": null, "weighted_surface_energy": null, "weighted_work_function": null, "surface_anisotropy": null, "shape_factor": null, "has_reconstructed": null, "possible_species": null, "has_props": null, "theoretical": null, "database_IDs": null, "fields_not_requested": ["builder_meta", "nsites", "elements", "nelements", "composition", "composition_reduced", "chemsys", "symmetry", "property_name", "deprecated", "deprecation_reasons", "last_updated", "origins", "warnings", "task_ids", "uncorrected_energy_per_atom", "equilibrium_reaction_energy_per_atom", "decomposes_to", "xas", "grain_boundaries", "cbm", "vbm", "is_gap_direct", "is_metal", "es_source_calc_id", "bandstructure", "dos", "dos_energy_up", "dos_energy_down", "is_magnetic", "ordering", "total_magnetization_normalized_vol", "total_magnetization_normalized_formula_units", "num_magnetic_sites", "num_unique_magnetic_sites", "types_of_magnetic_species", "bulk_modulus", "shear_modulus", "universal_anisotropy", "homogeneous_poisson", "e_total", "e_ionic", "e_electronic", "n", "e_ij_max", "weighted_surface_energy_EV_PER_ANG2", "weighted_surface_energy", "weighted_work_function", "surface_anisotropy", "shape_factor", "has_reconstructed", "possible_species", "has_props", "theoretical", "database_IDs"]}