{"builder_meta": null, "nsites": null, "elements": null, "nelements": null, "composition": null, "composition_reduced": null, "formula_pretty": "Rb3Hf", "formula_anonymous": "AB3", "chemsys": null, "volume": 231.45425810327106, "density": 3.120087253630415, "density_atomic": 57.863564525817765, "symmetry": null, "property_name": null, "material_id": "mp-2775197", "deprecated": null, "deprecation_reasons": null, "last_updated": null, "origins": null, "warnings": null, "structure": {"@module": "pymatgen.core.structure", "@class": "Structure", "charge": 0.0, "lattice": {"matrix": [[-3.44356997, 3.44356997, 4.87963525], [3.44356997, -3.44356997, 4.87963525], [3.44356997, 3.44356997, -4.87963525]], "pbc": [true, true, true], "a": 6.893996551320153, "b": 6.893996551320153, "c": 6.893996551320153, "alpha": 120.06578979332913, "beta": 120.06578979332913, "gamma": 89.88608645684029, "volume": 231.45425810327106}, "properties": {}, "sites": [{"species": [{"element": "Rb", "occu": 1}], "abc": [0.75, 0.25, 0.5], "properties": {"magmom": 0.022}, "label": "Rb", "xyz": [2.220446049250313e-16, 3.4435699699999995, 2.439817625]}, {"species": [{"element": "Rb", "occu": 1}], "abc": [0.25, 0.75, 0.5], "properties": {"magmom": 0.022}, "label": "Rb", "xyz": [3.4435699699999995, 2.220446049250313e-16, 2.439817625]}, {"species": [{"element": "Rb", "occu": 1}], "abc": [0.5, 0.5, 0.0], "properties": {"magmom": 0.022}, "label": "Rb", "xyz": [0.0, 0.0, 4.87963525]}, {"species": [{"element": "Hf", "occu": 1}], "abc": [0.0, 0.0, 0.0], "properties": {"magmom": 1.332}, "label": "Hf", "xyz": [0.0, 0.0, 0.0]}]}, "task_ids": null, "uncorrected_energy_per_atom": null, "energy_per_atom": -2.05682881, "formation_energy_per_atom": 1.167869001875, "energy_above_hull": 1.167869001875, "is_stable": false, "equilibrium_reaction_energy_per_atom": null, "decomposes_to": null, "xas": null, "grain_boundaries": null, "band_gap": 0.0, "cbm": null, "vbm": null, "efermi": 0.82127826, "is_gap_direct": null, "is_metal": null, "es_source_calc_id": null, "bandstructure": null, "dos": null, "dos_energy_up": null, "dos_energy_down": null, "is_magnetic": null, "ordering": null, "total_magnetization": 2.9212954, "total_magnetization_normalized_vol": null, "total_magnetization_normalized_formula_units": null, "num_magnetic_sites": null, "num_unique_magnetic_sites": null, "types_of_magnetic_species": null, "bulk_modulus": null, "shear_modulus": null, "universal_anisotropy": null, "homogeneous_poisson": null, "e_total": null, "e_ionic": null, "e_electronic": null, "n": null, "e_ij_max": null, "weighted_surface_energy_EV_PER_ANG2": null, "weighted_surface_energy": null, "weighted_work_function": null, "surface_anisotropy": null, "shape_factor": null, "has_reconstructed": null, "possible_species": null, "has_props": null, "theoretical": null, "database_IDs": null, "fields_not_requested": ["builder_meta", "nsites", "elements", "nelements", "composition", "composition_reduced", "chemsys", "symmetry", "property_name", "deprecated", "deprecation_reasons", "last_updated", "origins", "warnings", "task_ids", "uncorrected_energy_per_atom", "equilibrium_reaction_energy_per_atom", "decomposes_to", "xas", "grain_boundaries", "cbm", "vbm", "is_gap_direct", "is_metal", "es_source_calc_id", "bandstructure", "dos", "dos_energy_up", "dos_energy_down", "is_magnetic", "ordering", "total_magnetization_normalized_vol", "total_magnetization_normalized_formula_units", "num_magnetic_sites", "num_unique_magnetic_sites", "types_of_magnetic_species", "bulk_modulus", "shear_modulus", "universal_anisotropy", "homogeneous_poisson", "e_total", "e_ionic", "e_electronic", "n", "e_ij_max", "weighted_surface_energy_EV_PER_ANG2", "weighted_surface_energy", "weighted_work_function", "surface_anisotropy", "shape_factor", "has_reconstructed", "possible_species", "has_props", "theoretical", "database_IDs"]}