{"builder_meta": null, "nsites": null, "elements": null, "nelements": null, "composition": null, "composition_reduced": null, "formula_pretty": "Rb3Mg", "formula_anonymous": "AB3", "chemsys": null, "volume": 272.1736882370433, "density": 1.712609574944719, "density_atomic": 68.04342205926082, "symmetry": null, "property_name": null, "material_id": "mp-974981", "deprecated": null, "deprecation_reasons": null, "last_updated": null, "origins": null, "warnings": null, "structure": {"@module": "pymatgen.core.structure", "@class": "Structure", "charge": 0, "lattice": {"matrix": [[-2.517592, 3.711235, 7.282531], [2.517592, -3.711235, 7.282531], [2.517592, 3.711235, -7.282531]], "pbc": [true, true, true], "a": 8.552589810674307, "b": 8.552589810674307, "c": 8.552589810674307, "alpha": 145.76094740589755, "beta": 128.56540040885355, "gamma": 63.249591407056926, "volume": 272.1736882370433}, "properties": {}, "sites": [{"species": [{"element": "Rb", "occu": 1}], "abc": [0.759483999999999, 0.708633, 0.050851], "properties": {"magmom": 0.0}, "label": "Rb", "xyz": [2.1094237467877974e-15, 0.3774400219699965, 10.321283580245991]}, {"species": [{"element": "Rb", "occu": 1}], "abc": [0.090382999999999, 0.5, 0.590383], "properties": {"magmom": 0.0}, "label": "Rb", "xyz": [2.5175920000000023, 0.6708651060099959, -7.993605777301127e-15]}, {"species": [{"element": "Rb", "occu": 1}], "abc": [0.342219, 0.291367, 0.050851], "properties": {"magmom": 0.0}, "label": "Rb", "xyz": [-2.5175919999842478e-06, 0.377443733205, 4.243785702285]}, {"species": [{"element": "Mg", "occu": 1}], "abc": [0.641243999999999, 0.0, 0.641243999999999], "properties": {"magmom": 0.0}, "label": "Mg", "xyz": [0.0, 4.759614352679993, 0.0]}]}, "task_ids": null, "uncorrected_energy_per_atom": null, "energy_per_atom": -0.9654087, "formation_energy_per_atom": 0.177609358125, "energy_above_hull": 0.177609358125, "is_stable": false, "equilibrium_reaction_energy_per_atom": null, "decomposes_to": null, "xas": null, "grain_boundaries": null, "band_gap": 0.0, "cbm": null, "vbm": null, "efermi": 0.40758615000000004, "is_gap_direct": null, "is_metal": null, "es_source_calc_id": null, "bandstructure": null, "dos": null, "dos_energy_up": null, "dos_energy_down": null, "is_magnetic": null, "ordering": null, "total_magnetization": 0.004442499999999, "total_magnetization_normalized_vol": null, "total_magnetization_normalized_formula_units": null, "num_magnetic_sites": null, "num_unique_magnetic_sites": null, "types_of_magnetic_species": null, "bulk_modulus": null, "shear_modulus": null, "universal_anisotropy": null, "homogeneous_poisson": null, "e_total": null, "e_ionic": null, "e_electronic": null, "n": null, "e_ij_max": null, "weighted_surface_energy_EV_PER_ANG2": null, "weighted_surface_energy": null, "weighted_work_function": null, "surface_anisotropy": null, "shape_factor": null, "has_reconstructed": null, "possible_species": null, "has_props": null, "theoretical": null, "database_IDs": null, "fields_not_requested": ["builder_meta", "nsites", "elements", "nelements", "composition", "composition_reduced", "chemsys", "symmetry", "property_name", "deprecated", "deprecation_reasons", "last_updated", "origins", "warnings", "task_ids", "uncorrected_energy_per_atom", "equilibrium_reaction_energy_per_atom", "decomposes_to", "xas", "grain_boundaries", "cbm", "vbm", "is_gap_direct", "is_metal", "es_source_calc_id", "bandstructure", "dos", "dos_energy_up", "dos_energy_down", "is_magnetic", "ordering", "total_magnetization_normalized_vol", "total_magnetization_normalized_formula_units", "num_magnetic_sites", "num_unique_magnetic_sites", "types_of_magnetic_species", "bulk_modulus", "shear_modulus", "universal_anisotropy", "homogeneous_poisson", "e_total", "e_ionic", "e_electronic", "n", "e_ij_max", "weighted_surface_energy_EV_PER_ANG2", "weighted_surface_energy", "weighted_work_function", "surface_anisotropy", "shape_factor", "has_reconstructed", "possible_species", "has_props", "theoretical", "database_IDs"]}