{
  "builder_meta": null,
  "nsites": null,
  "elements": null,
  "nelements": null,
  "composition": null,
  "composition_reduced": null,
  "formula_pretty": "Rb3Na",
  "formula_anonymous": "AB3",
  "chemsys": null,
  "volume": 611.1740218195964,
  "density": 1.5182035098591662,
  "density_atomic": 76.39675272744955,
  "symmetry": null,
  "property_name": null,
  "material_id": "mp-1186861",
  "deprecated": null,
  "deprecation_reasons": null,
  "last_updated": null,
  "origins": null,
  "warnings": null,
  "structure": {
    "@module": "pymatgen.core.structure",
    "@class": "Structure",
    "charge": 0,
    "lattice": {
      "matrix": [
        [4.80004272, -8.31391865, -0.0],
        [4.80004272, 8.31391865, -0.0],
        [0.0, 0.0, 7.65744731]
      ],
      "pbc": [true, true, true],
      "a": 9.600086115897232,
      "b": 9.600086115897232,
      "c": 7.65744731,
      "alpha": 90.0,
      "beta": 90.0,
      "gamma": 120.00000465797909,
      "volume": 611.1740218195964
    },
    "properties": {},
    "sites": [
      {
        "species": [{ "element": "Rb", "occu": 1 }],
        "abc": [0.82700016, 0.17299984000000002, 0.75],
        "properties": { "magmom": 0.0 },
        "label": "Rb",
        "xyz": [4.80004272, -5.437305457553968, 5.7430854825]
      },
      {
        "species": [{ "element": "Rb", "occu": 1 }],
        "abc": [0.34599968000000003, 0.17299984000000002, 0.75],
        "properties": { "magmom": 0.0 },
        "label": "Rb",
        "xyz": [2.491219867659495, -1.4383065962230162, 5.7430854825]
      },
      {
        "species": [{ "element": "Rb", "occu": 1 }],
        "abc": [0.82700016, 0.65400032, 0.75],
        "properties": { "magmom": 0.0 },
        "label": "Rb",
        "xyz": [7.108865572340505, -1.4383065962230166, 5.7430854825]
      },
      {
        "species": [{ "element": "Rb", "occu": 1 }],
        "abc": [0.17299984000000002, 0.82700016, 0.25],
        "properties": { "magmom": 0.0 },
        "label": "Rb",
        "xyz": [4.80004272, 5.437305457553968, 1.9143618275]
      },
      {
        "species": [{ "element": "Rb", "occu": 1 }],
        "abc": [0.65400032, 0.82700016, 0.25],
        "properties": { "magmom": 0.0 },
        "label": "Rb",
        "xyz": [7.108865572340505, 1.4383065962230166, 1.9143618275]
      },
      {
        "species": [{ "element": "Rb", "occu": 1 }],
        "abc": [0.17299984000000002, 0.34599968000000003, 0.25],
        "properties": { "magmom": 0.0 },
        "label": "Rb",
        "xyz": [2.491219867659495, 1.4383065962230162, 1.9143618275]
      },
      {
        "species": [{ "element": "Na", "occu": 1 }],
        "abc": [0.666667, 0.333333, 0.25],
        "properties": { "magmom": -0.0 },
        "label": "Na",
        "xyz": [4.80004272, -2.7713117592791003, 1.9143618275]
      },
      {
        "species": [{ "element": "Na", "occu": 1 }],
        "abc": [0.333333, 0.666667, 0.75],
        "properties": { "magmom": -0.0 },
        "label": "Na",
        "xyz": [4.80004272, 2.7713117592791003, 5.7430854825]
      }
    ]
  },
  "task_ids": null,
  "uncorrected_energy_per_atom": null,
  "energy_per_atom": -1.0263854000000001,
  "formation_energy_per_atom": 0.04444534903017101,
  "energy_above_hull": 0.04444534903017101,
  "is_stable": false,
  "equilibrium_reaction_energy_per_atom": null,
  "decomposes_to": null,
  "xas": null,
  "grain_boundaries": null,
  "band_gap": 0.0,
  "cbm": null,
  "vbm": null,
  "efermi": 0.15550223,
  "is_gap_direct": null,
  "is_metal": null,
  "es_source_calc_id": null,
  "bandstructure": null,
  "dos": null,
  "dos_energy_up": null,
  "dos_energy_down": null,
  "is_magnetic": null,
  "ordering": null,
  "total_magnetization": 0.0003903,
  "total_magnetization_normalized_vol": null,
  "total_magnetization_normalized_formula_units": null,
  "num_magnetic_sites": null,
  "num_unique_magnetic_sites": null,
  "types_of_magnetic_species": null,
  "bulk_modulus": null,
  "shear_modulus": null,
  "universal_anisotropy": null,
  "homogeneous_poisson": null,
  "e_total": null,
  "e_ionic": null,
  "e_electronic": null,
  "n": null,
  "e_ij_max": null,
  "weighted_surface_energy_EV_PER_ANG2": null,
  "weighted_surface_energy": null,
  "weighted_work_function": null,
  "surface_anisotropy": null,
  "shape_factor": null,
  "has_reconstructed": null,
  "possible_species": null,
  "has_props": null,
  "theoretical": null,
  "database_IDs": null,
  "fields_not_requested": [
    "builder_meta",
    "nsites",
    "elements",
    "nelements",
    "composition",
    "composition_reduced",
    "chemsys",
    "symmetry",
    "property_name",
    "deprecated",
    "deprecation_reasons",
    "last_updated",
    "origins",
    "warnings",
    "task_ids",
    "uncorrected_energy_per_atom",
    "equilibrium_reaction_energy_per_atom",
    "decomposes_to",
    "xas",
    "grain_boundaries",
    "cbm",
    "vbm",
    "is_gap_direct",
    "is_metal",
    "es_source_calc_id",
    "bandstructure",
    "dos",
    "dos_energy_up",
    "dos_energy_down",
    "is_magnetic",
    "ordering",
    "total_magnetization_normalized_vol",
    "total_magnetization_normalized_formula_units",
    "num_magnetic_sites",
    "num_unique_magnetic_sites",
    "types_of_magnetic_species",
    "bulk_modulus",
    "shear_modulus",
    "universal_anisotropy",
    "homogeneous_poisson",
    "e_total",
    "e_ionic",
    "e_electronic",
    "n",
    "e_ij_max",
    "weighted_surface_energy_EV_PER_ANG2",
    "weighted_surface_energy",
    "weighted_work_function",
    "surface_anisotropy",
    "shape_factor",
    "has_reconstructed",
    "possible_species",
    "has_props",
    "theoretical",
    "database_IDs"
  ]
}
