{"builder_meta": null, "nsites": null, "elements": null, "nelements": null, "composition": null, "composition_reduced": null, "formula_pretty": "Rb3Pr", "formula_anonymous": "AB3", "chemsys": null, "volume": 549.753389275559, "density": 2.4001689957246333, "density_atomic": 68.71917365944488, "symmetry": null, "property_name": null, "material_id": "mp-974662", "deprecated": null, "deprecation_reasons": null, "last_updated": null, "origins": null, "warnings": null, "structure": {"@module": "pymatgen.core.structure", "@class": "Structure", "charge": 0, "lattice": {"matrix": [[4.579782, -7.932416, 0.0], [4.579782, 7.932416, 0.0], [0.0, 0.0, 7.566371]], "pbc": [true, true, true], "a": 9.159564769386153, "b": 9.159564769386153, "c": 7.566371, "alpha": 90.0, "beta": 90.0, "gamma": 120.00000555727033, "volume": 549.753389275559}, "properties": {}, "sites": [{"species": [{"element": "Rb", "occu": 1}], "abc": [0.172574, 0.345149, 0.25], "properties": {"magmom": 0.013000000000000001}, "label": "Rb", "xyz": [2.371058476386, 1.3689366912, 1.89159275]}, {"species": [{"element": "Rb", "occu": 1}], "abc": [0.654851, 0.827426, 0.25], "properties": {"magmom": 0.014}, "label": "Rb", "xyz": [6.788505523613999, 1.3689366912, 1.89159275]}, {"species": [{"element": "Rb", "occu": 1}], "abc": [0.172574, 0.827426, 0.25], "properties": {"magmom": 0.013000000000000001}, "label": "Rb", "xyz": [4.579782, 5.194558482431999, 1.89159275]}, {"species": [{"element": "Rb", "occu": 1}], "abc": [0.827426, 0.654851, 0.75], "properties": {"magmom": 0.013000000000000001}, "label": "Rb", "xyz": [6.788505523613999, -1.3689366912, 5.67477825]}, {"species": [{"element": "Rb", "occu": 1}], "abc": [0.345149, 0.172574, 0.75], "properties": {"magmom": 0.014}, "label": "Rb", "xyz": [2.371058476386, -1.3689366912, 5.67477825]}, {"species": [{"element": "Rb", "occu": 1}], "abc": [0.827426, 0.172574, 0.75], "properties": {"magmom": 0.013000000000000001}, "label": "Rb", "xyz": [4.579782, -5.194558482431999, 5.67477825]}, {"species": [{"element": "Pr", "occu": 1}], "abc": [0.333333, 0.666667, 0.75], "properties": {"magmom": 0.533}, "label": "Pr", "xyz": [4.579782, 2.6441439549440005, 5.67477825]}, {"species": [{"element": "Pr", "occu": 1}], "abc": [0.666667, 0.333333, 0.25], "properties": {"magmom": 0.532}, "label": "Pr", "xyz": [4.579782, -2.6441439549440005, 1.89159275]}]}, "task_ids": null, "uncorrected_energy_per_atom": null, "energy_per_atom": -1.3504105925, "formation_energy_per_atom": 0.5838578264583331, "energy_above_hull": 0.5838578264583331, "is_stable": false, "equilibrium_reaction_energy_per_atom": null, "decomposes_to": null, "xas": null, "grain_boundaries": null, "band_gap": 0.0, "cbm": null, "vbm": null, "efermi": 0.58229393, "is_gap_direct": null, "is_metal": null, "es_source_calc_id": null, "bandstructure": null, "dos": null, "dos_energy_up": null, "dos_energy_down": null, "is_magnetic": null, "ordering": null, "total_magnetization": 3.2872816, "total_magnetization_normalized_vol": null, "total_magnetization_normalized_formula_units": null, "num_magnetic_sites": null, "num_unique_magnetic_sites": null, "types_of_magnetic_species": null, "bulk_modulus": null, "shear_modulus": null, "universal_anisotropy": null, "homogeneous_poisson": null, "e_total": null, "e_ionic": null, "e_electronic": null, "n": null, "e_ij_max": null, "weighted_surface_energy_EV_PER_ANG2": null, "weighted_surface_energy": null, "weighted_work_function": null, "surface_anisotropy": null, "shape_factor": null, "has_reconstructed": null, "possible_species": null, "has_props": null, "theoretical": null, "database_IDs": null, "fields_not_requested": ["builder_meta", "nsites", "elements", "nelements", "composition", "composition_reduced", "chemsys", "symmetry", "property_name", "deprecated", "deprecation_reasons", "last_updated", "origins", "warnings", "task_ids", "uncorrected_energy_per_atom", "equilibrium_reaction_energy_per_atom", "decomposes_to", "xas", "grain_boundaries", "cbm", "vbm", "is_gap_direct", "is_metal", "es_source_calc_id", "bandstructure", "dos", "dos_energy_up", "dos_energy_down", "is_magnetic", "ordering", "total_magnetization_normalized_vol", "total_magnetization_normalized_formula_units", "num_magnetic_sites", "num_unique_magnetic_sites", "types_of_magnetic_species", "bulk_modulus", "shear_modulus", "universal_anisotropy", "homogeneous_poisson", "e_total", "e_ionic", "e_electronic", "n", "e_ij_max", "weighted_surface_energy_EV_PER_ANG2", "weighted_surface_energy", "weighted_work_function", "surface_anisotropy", "shape_factor", "has_reconstructed", "possible_species", "has_props", "theoretical", "database_IDs"]}