{"builder_meta": null, "nsites": null, "elements": null, "nelements": null, "composition": null, "composition_reduced": null, "formula_pretty": "Rb3Pd", "formula_anonymous": "AB3", "chemsys": null, "volume": 859.8848387349374, "density": 2.802619154737095, "density_atomic": 53.742802420933586, "symmetry": null, "property_name": null, "material_id": "mp-1179774", "deprecated": null, "deprecation_reasons": null, "last_updated": null, "origins": null, "warnings": null, "structure": {"@module": "pymatgen.core.structure", "@class": "Structure", "charge": 0, "lattice": {"matrix": [[-5.9904589999999995, 5.9904589999999995, 5.9904589999999995], [5.9904589999999995, -5.9904589999999995, 5.9904589999999995], [5.9904589999999995, 5.9904589999999995, -5.9904589999999995]], "pbc": [true, true, true], "a": 10.375779348658249, "b": 10.375779348658249, "c": 10.375779348658249, "alpha": 109.47122063449069, "beta": 109.47122063449069, "gamma": 109.47122063449069, "volume": 859.8848387349368}, "properties": {}, "sites": [{"species": [{"element": "Rb", "occu": 1}], "abc": [0.300917, 0.116257, 0.8153400000000001], "properties": {"magmom": 0.014}, "label": "Rb", "xyz": [3.77806268212, 5.9904589999999995, -2.385197098194]}, {"species": [{"element": "Rb", "occu": 1}], "abc": [0.699083, 0.883743, 0.18466000000000002], "properties": {"magmom": 0.014}, "label": "Rb", "xyz": [2.212396317879999, 1.1102230246251565e-15, 8.375656098194]}, {"species": [{"element": "Rb", "occu": 1}], "abc": [0.300917, 0.48557599999999906, 0.18466000000000002], "properties": {"magmom": 0.014}, "label": "Rb", "xyz": [2.2123903274209944, 5.990459005733584e-06, 3.605255911346994]}, {"species": [{"element": "Rb", "occu": 1}], "abc": [0.699083, 0.514424, 0.8153400000000001], "properties": {"magmom": 0.014}, "label": "Rb", "xyz": [3.7780686725789994, 5.990453009541, 2.3852030886530002]}, {"species": [{"element": "Rb", "occu": 1}], "abc": [0.8153400000000001, 0.300917, 0.116257], "properties": {"magmom": 0.015}, "label": "Rb", "xyz": [-2.3851970981940003, 3.77806268212, 5.9904589999999995]}, {"species": [{"element": "Rb", "occu": 1}], "abc": [0.18466000000000002, 0.699083, 0.883743], "properties": {"magmom": 0.015}, "label": "Rb", "xyz": [8.375656098194, 2.212396317879999, 8.881784197001252e-16]}, {"species": [{"element": "Rb", "occu": 1}], "abc": [0.18466000000000002, 0.300917, 0.48557599999999906], "properties": {"magmom": 0.013000000000000001}, "label": "Rb", "xyz": [3.605255911346994, 2.2123903274209944, 5.990459005733584e-06]}, {"species": [{"element": "Rb", "occu": 1}], "abc": [0.8153400000000001, 0.699083, 0.514424], "properties": {"magmom": 0.013000000000000001}, "label": "Rb", "xyz": [2.385203088653, 3.7780686725789994, 5.990453009541]}, {"species": [{"element": "Rb", "occu": 1}], "abc": [0.116257, 0.8153400000000001, 0.300917], "properties": {"magmom": 0.014}, "label": "Rb", "xyz": [5.9904589999999995, -2.3851970981940003, 3.77806268212]}, {"species": [{"element": "Rb", "occu": 1}], "abc": [0.883743, 0.18466000000000002, 0.699083], "properties": {"magmom": 0.014}, "label": "Rb", "xyz": [8.881784197001252e-16, 8.375656098194, 2.212396317879999]}, {"species": [{"element": "Rb", "occu": 1}], "abc": [0.48557599999999906, 0.18466000000000002, 0.300917], "properties": {"magmom": 0.014}, "label": "Rb", "xyz": [5.990459005733584e-06, 3.605255911346994, 2.2123903274209944]}, {"species": [{"element": "Rb", "occu": 1}], "abc": [0.514424, 0.8153400000000001, 0.699083], "properties": {"magmom": 0.014}, "label": "Rb", "xyz": [5.990453009541, 2.385203088653, 3.778068672579]}, {"species": [{"element": "Pd", "occu": 1}], "abc": [0.0, 0.0, 0.0], "properties": {"magmom": 0.028}, "label": "Pd", "xyz": [0.0, 0.0, 0.0]}, {"species": [{"element": "Pd", "occu": 1}], "abc": [0.5, 0.0, 0.5], "properties": {"magmom": 0.019}, "label": "Pd", "xyz": [0.0, 5.9904589999999995, 0.0]}, {"species": [{"element": "Pd", "occu": 1}], "abc": [0.5, 0.5, 0.0], "properties": {"magmom": 0.018000000000000002}, "label": "Pd", "xyz": [0.0, 0.0, 5.9904589999999995]}, {"species": [{"element": "Pd", "occu": 1}], "abc": [0.0, 0.5, 0.5], "properties": {"magmom": 0.018000000000000002}, "label": "Pd", "xyz": [5.9904589999999995, 0.0, 0.0]}]}, "task_ids": null, "uncorrected_energy_per_atom": null, "energy_per_atom": -1.837694795625, "formation_energy_per_atom": 0.192676211249999, "energy_above_hull": 0.192676211249999, "is_stable": false, "equilibrium_reaction_energy_per_atom": null, "decomposes_to": null, "xas": null, "grain_boundaries": null, "band_gap": 0.0, "cbm": null, "vbm": null, "efermi": 0.7918530500000001, "is_gap_direct": null, "is_metal": null, "es_source_calc_id": null, "bandstructure": null, "dos": null, "dos_energy_up": null, "dos_energy_down": null, "is_magnetic": null, "ordering": null, "total_magnetization": 1.953389, "total_magnetization_normalized_vol": null, "total_magnetization_normalized_formula_units": null, "num_magnetic_sites": null, "num_unique_magnetic_sites": null, "types_of_magnetic_species": null, "bulk_modulus": null, "shear_modulus": null, "universal_anisotropy": null, "homogeneous_poisson": null, "e_total": null, "e_ionic": null, "e_electronic": null, "n": null, "e_ij_max": null, "weighted_surface_energy_EV_PER_ANG2": null, "weighted_surface_energy": null, "weighted_work_function": null, "surface_anisotropy": null, "shape_factor": null, "has_reconstructed": null, "possible_species": null, "has_props": null, "theoretical": null, "database_IDs": null, "fields_not_requested": ["builder_meta", "nsites", "elements", "nelements", "composition", "composition_reduced", "chemsys", "symmetry", "property_name", "deprecated", "deprecation_reasons", "last_updated", "origins", "warnings", "task_ids", "uncorrected_energy_per_atom", "equilibrium_reaction_energy_per_atom", "decomposes_to", "xas", "grain_boundaries", "cbm", "vbm", "is_gap_direct", "is_metal", "es_source_calc_id", "bandstructure", "dos", "dos_energy_up", "dos_energy_down", "is_magnetic", "ordering", "total_magnetization_normalized_vol", "total_magnetization_normalized_formula_units", "num_magnetic_sites", "num_unique_magnetic_sites", "types_of_magnetic_species", "bulk_modulus", "shear_modulus", "universal_anisotropy", "homogeneous_poisson", "e_total", "e_ionic", "e_electronic", "n", "e_ij_max", "weighted_surface_energy_EV_PER_ANG2", "weighted_surface_energy", "weighted_work_function", "surface_anisotropy", "shape_factor", "has_reconstructed", "possible_species", "has_props", "theoretical", "database_IDs"]}