{"builder_meta": null, "nsites": null, "elements": null, "nelements": null, "composition": null, "composition_reduced": null, "formula_pretty": "Rb3Sb", "formula_anonymous": "AB3", "chemsys": null, "volume": 396.5647708918155, "density": 3.166973696862201, "density_atomic": 49.57059636147694, "symmetry": null, "property_name": null, "material_id": "mp-16319", "deprecated": null, "deprecation_reasons": null, "last_updated": null, "origins": null, "warnings": null, "structure": {"@module": "pymatgen.core.structure", "@class": "Structure", "charge": 0, "lattice": {"matrix": [[6.37521196, 0.0, 0.0], [-3.18760598, 5.52109637, 0.0], [0.0, -0.0, 11.26663369]], "pbc": [true, true, true], "a": 6.37521196, "b": 6.375212703162063, "c": 11.26663369, "alpha": 90.0, "beta": 90.0, "gamma": 119.99999614387725, "volume": 396.5647708918155}, "properties": {}, "sites": [{"species": [{"element": "Rb", "occu": 1}], "abc": [0.0, -0.0, 0.25], "properties": {"magmom": 0.0}, "label": "Rb", "xyz": [0.0, 0.0, 2.8166584225]}, {"species": [{"element": "Rb", "occu": 1}], "abc": [-0.0, 0.0, 0.75], "properties": {"magmom": 0.0}, "label": "Rb", "xyz": [0.0, 0.0, 8.449975267500001]}, {"species": [{"element": "Rb", "occu": 1}], "abc": [0.333333, 0.666667, 0.58233995], "properties": {"magmom": 0.0}, "label": "Rb", "xyz": [-3.1876059800595158e-06, 3.6807327536987904, 6.561010899702916]}, {"species": [{"element": "Rb", "occu": 1}], "abc": [0.666667, 0.333333, 0.08233995], "properties": {"magmom": 0.0}, "label": "Rb", "xyz": [3.18760916760598, 1.84036361630121, 0.9276940547029155]}, {"species": [{"element": "Rb", "occu": 1}], "abc": [0.666667, 0.333333, 0.41766005], "properties": {"magmom": 0.0}, "label": "Rb", "xyz": [3.18760916760598, 1.84036361630121, 4.705622790297085]}, {"species": [{"element": "Rb", "occu": 1}], "abc": [0.333333, 0.666667, 0.9176600500000001], "properties": {"magmom": 0.0}, "label": "Rb", "xyz": [-3.1876059800595158e-06, 3.6807327536987904, 10.338939635297086]}, {"species": [{"element": "Sb", "occu": 1}], "abc": [0.333333, 0.666667, 0.25], "properties": {"magmom": 0.0}, "label": "Sb", "xyz": [-3.1876059800595158e-06, 3.6807327536987904, 2.8166584225]}, {"species": [{"element": "Sb", "occu": 1}], "abc": [0.666667, 0.333333, 0.75], "properties": {"magmom": 0.0}, "label": "Sb", "xyz": [3.18760916760598, 1.84036361630121, 8.449975267500001]}]}, "task_ids": null, "uncorrected_energy_per_atom": null, "energy_per_atom": -2.16332574375, "formation_energy_per_atom": -0.395674879375, "energy_above_hull": 0.0, "is_stable": true, "equilibrium_reaction_energy_per_atom": null, "decomposes_to": null, "xas": null, "grain_boundaries": null, "band_gap": 0.0878, "cbm": null, "vbm": null, "efermi": 1.02919015, "is_gap_direct": null, "is_metal": null, "es_source_calc_id": null, "bandstructure": null, "dos": null, "dos_energy_up": null, "dos_energy_down": null, "is_magnetic": null, "ordering": null, "total_magnetization": 0.0, "total_magnetization_normalized_vol": null, "total_magnetization_normalized_formula_units": null, "num_magnetic_sites": null, "num_unique_magnetic_sites": null, "types_of_magnetic_species": null, "bulk_modulus": null, "shear_modulus": null, "universal_anisotropy": null, "homogeneous_poisson": null, "e_total": null, "e_ionic": null, "e_electronic": null, "n": null, "e_ij_max": null, "weighted_surface_energy_EV_PER_ANG2": null, "weighted_surface_energy": null, "weighted_work_function": null, "surface_anisotropy": null, "shape_factor": null, "has_reconstructed": null, "possible_species": null, "has_props": null, "theoretical": null, "database_IDs": null, "fields_not_requested": ["builder_meta", "nsites", "elements", "nelements", "composition", "composition_reduced", "chemsys", "symmetry", "property_name", "deprecated", "deprecation_reasons", "last_updated", "origins", "warnings", "task_ids", "uncorrected_energy_per_atom", "equilibrium_reaction_energy_per_atom", "decomposes_to", "xas", "grain_boundaries", "cbm", "vbm", "is_gap_direct", "is_metal", "es_source_calc_id", "bandstructure", "dos", "dos_energy_up", "dos_energy_down", "is_magnetic", "ordering", "total_magnetization_normalized_vol", "total_magnetization_normalized_formula_units", "num_magnetic_sites", "num_unique_magnetic_sites", "types_of_magnetic_species", "bulk_modulus", "shear_modulus", "universal_anisotropy", "homogeneous_poisson", "e_total", "e_ionic", "e_electronic", "n", "e_ij_max", "weighted_surface_energy_EV_PER_ANG2", "weighted_surface_energy", "weighted_work_function", "surface_anisotropy", "shape_factor", "has_reconstructed", "possible_species", "has_props", "theoretical", "database_IDs"]}