{
  "builder_meta": null,
  "nsites": null,
  "elements": null,
  "nelements": null,
  "composition": null,
  "composition_reduced": null,
  "formula_pretty": "Rb3Yb",
  "formula_anonymous": "AB3",
  "chemsys": null,
  "volume": 526.8631967166289,
  "density": 2.706993189266443,
  "density_atomic": 65.85789958957861,
  "symmetry": null,
  "property_name": null,
  "material_id": "mp-972055",
  "deprecated": null,
  "deprecation_reasons": null,
  "last_updated": null,
  "origins": null,
  "warnings": null,
  "structure": {
    "@module": "pymatgen.core.structure",
    "@class": "Structure",
    "charge": 0.0,
    "lattice": {
      "matrix": [
        [4.517580449556139, -7.824679033075096, -0.0],
        [4.517580449556139, 7.824679033075096, -0.0],
        [0.0, -0.0, 7.452387689747858]
      ],
      "pbc": [true, true, true],
      "a": 9.03516104388056,
      "b": 9.03516104388056,
      "c": 7.452387689747858,
      "alpha": 90.0,
      "beta": 90.0,
      "gamma": 120.00000106005777,
      "volume": 526.8631967166289
    },
    "properties": {},
    "sites": [
      {
        "species": [{ "element": "Rb", "occu": 1 }],
        "abc": [0.17591270196476902, 0.35182540392521805, 0.25],
        "properties": { "magmom": -0.022 },
        "label": "Rb",
        "xyz": [2.384099349654393, 1.376460430681514, 1.8630969224369645]
      },
      {
        "species": [{ "element": "Rb", "occu": 1 }],
        "abc": [0.648174596074781, 0.8240872980352301, 0.25],
        "properties": { "magmom": -0.022 },
        "label": "Rb",
        "xyz": [6.651061549457876, 1.3764604306815142, 1.8630969224369645]
      },
      {
        "species": [{ "element": "Rb", "occu": 1 }],
        "abc": [0.175912701960449, 0.82408729803955, 0.25],
        "properties": { "magmom": -0.022 },
        "label": "Rb",
        "xyz": [4.517580449556134, 5.0717581717120614, 1.8630969224369645]
      },
      {
        "species": [{ "element": "Rb", "occu": 1 }],
        "abc": [0.8240872980352301, 0.648174596074781, 0.75],
        "properties": { "magmom": -0.022 },
        "label": "Rb",
        "xyz": [6.651061549457876, -1.3764604306815142, 5.589290767310893]
      },
      {
        "species": [{ "element": "Rb", "occu": 1 }],
        "abc": [0.35182540392521805, 0.17591270196476902, 0.75],
        "properties": { "magmom": -0.022 },
        "label": "Rb",
        "xyz": [2.384099349654393, -1.376460430681514, 5.589290767310893]
      },
      {
        "species": [{ "element": "Rb", "occu": 1 }],
        "abc": [0.82408729803955, 0.175912701960449, 0.75],
        "properties": { "magmom": -0.022 },
        "label": "Rb",
        "xyz": [4.517580449556134, -5.0717581717120614, 5.589290767310893]
      },
      {
        "species": [{ "element": "Yb", "occu": 1 }],
        "abc": [0.33333300000000304, 0.666666999999996, 0.75],
        "properties": { "magmom": -0.591 },
        "label": "Yb",
        "xyz": [4.517580449556134, 2.6082315608109994, 5.589290767310893]
      },
      {
        "species": [{ "element": "Yb", "occu": 1 }],
        "abc": [0.666666999999996, 0.33333300000000304, 0.25],
        "properties": { "magmom": -0.591 },
        "label": "Yb",
        "xyz": [4.517580449556134, -2.6082315608109994, 1.8630969224369645]
      }
    ]
  },
  "task_ids": null,
  "uncorrected_energy_per_atom": null,
  "energy_per_atom": -18.934541465,
  "formation_energy_per_atom": 0.6459492278125011,
  "energy_above_hull": 0.6459492278125011,
  "is_stable": false,
  "equilibrium_reaction_energy_per_atom": null,
  "decomposes_to": null,
  "xas": null,
  "grain_boundaries": null,
  "band_gap": 0.0,
  "cbm": null,
  "vbm": null,
  "efermi": 0.30807252,
  "is_gap_direct": null,
  "is_metal": null,
  "es_source_calc_id": null,
  "bandstructure": null,
  "dos": null,
  "dos_energy_up": null,
  "dos_energy_down": null,
  "is_magnetic": null,
  "ordering": null,
  "total_magnetization": 3.2479505,
  "total_magnetization_normalized_vol": null,
  "total_magnetization_normalized_formula_units": null,
  "num_magnetic_sites": null,
  "num_unique_magnetic_sites": null,
  "types_of_magnetic_species": null,
  "bulk_modulus": null,
  "shear_modulus": null,
  "universal_anisotropy": null,
  "homogeneous_poisson": null,
  "e_total": null,
  "e_ionic": null,
  "e_electronic": null,
  "n": null,
  "e_ij_max": null,
  "weighted_surface_energy_EV_PER_ANG2": null,
  "weighted_surface_energy": null,
  "weighted_work_function": null,
  "surface_anisotropy": null,
  "shape_factor": null,
  "has_reconstructed": null,
  "possible_species": null,
  "has_props": null,
  "theoretical": null,
  "database_IDs": null,
  "fields_not_requested": [
    "builder_meta",
    "nsites",
    "elements",
    "nelements",
    "composition",
    "composition_reduced",
    "chemsys",
    "symmetry",
    "property_name",
    "deprecated",
    "deprecation_reasons",
    "last_updated",
    "origins",
    "warnings",
    "task_ids",
    "uncorrected_energy_per_atom",
    "equilibrium_reaction_energy_per_atom",
    "decomposes_to",
    "xas",
    "grain_boundaries",
    "cbm",
    "vbm",
    "is_gap_direct",
    "is_metal",
    "es_source_calc_id",
    "bandstructure",
    "dos",
    "dos_energy_up",
    "dos_energy_down",
    "is_magnetic",
    "ordering",
    "total_magnetization_normalized_vol",
    "total_magnetization_normalized_formula_units",
    "num_magnetic_sites",
    "num_unique_magnetic_sites",
    "types_of_magnetic_species",
    "bulk_modulus",
    "shear_modulus",
    "universal_anisotropy",
    "homogeneous_poisson",
    "e_total",
    "e_ionic",
    "e_electronic",
    "n",
    "e_ij_max",
    "weighted_surface_energy_EV_PER_ANG2",
    "weighted_surface_energy",
    "weighted_work_function",
    "surface_anisotropy",
    "shape_factor",
    "has_reconstructed",
    "possible_species",
    "has_props",
    "theoretical",
    "database_IDs"
  ]
}
