{"builder_meta": null, "nsites": null, "elements": null, "nelements": null, "composition": null, "composition_reduced": null, "formula_pretty": "Rb4Bi", "formula_anonymous": "AB4", "chemsys": null, "volume": 882.0898253751818, "density": 2.073962481791601, "density_atomic": 88.20898253751818, "symmetry": null, "property_name": null, "material_id": "mp-1209438", "deprecated": null, "deprecation_reasons": null, "last_updated": null, "origins": null, "warnings": null, "structure": {"@module": "pymatgen.core.structure", "@class": "Structure", "charge": 0, "lattice": {"matrix": [[0.0, 7.611921, 7.611921], [7.611921, 0.0, 7.611921], [7.611921, 7.611921, 0.0]], "pbc": [true, true, true], "a": 10.764881913912571, "b": 10.764881913912571, "c": 10.764881913912571, "alpha": 59.99999999999999, "beta": 59.99999999999999, "gamma": 59.99999999999999, "volume": 882.0898253751818}, "properties": {}, "sites": [{"species": [{"element": "Rb", "occu": 1}], "abc": [0.38107, 0.38107, 0.38107], "properties": {"magmom": 0.0}, "label": "Rb", "xyz": [5.80134947094, 5.80134947094, 5.80134947094]}, {"species": [{"element": "Rb", "occu": 1}], "abc": [0.38107, 0.38107, 0.85679], "properties": {"magmom": 0.0}, "label": "Rb", "xyz": [9.422492529060001, 9.422492529060001, 5.80134947094]}, {"species": [{"element": "Rb", "occu": 1}], "abc": [0.38107, 0.85679, 0.38107], "properties": {"magmom": 0.0}, "label": "Rb", "xyz": [9.422492529060001, 5.80134947094, 9.422492529060001]}, {"species": [{"element": "Rb", "occu": 1}], "abc": [0.8689300000000001, 0.8689300000000001, 0.39321000000000006], "properties": {"magmom": 0.0}, "label": "Rb", "xyz": [9.607309970940001, 9.607309970940001, 13.22845302906]}, {"species": [{"element": "Rb", "occu": 1}], "abc": [0.8689300000000001, 0.8689300000000001, 0.8689300000000001], "properties": {"magmom": 0.0}, "label": "Rb", "xyz": [13.22845302906, 13.22845302906, 13.22845302906]}, {"species": [{"element": "Rb", "occu": 1}], "abc": [0.85679, 0.38107, 0.38107], "properties": {"magmom": 0.0}, "label": "Rb", "xyz": [5.80134947094, 9.422492529060001, 9.422492529060001]}, {"species": [{"element": "Rb", "occu": 1}], "abc": [0.8689300000000001, 0.39321000000000006, 0.8689300000000001], "properties": {"magmom": 0.0}, "label": "Rb", "xyz": [9.607309970940001, 13.22845302906, 9.607309970940001]}, {"species": [{"element": "Rb", "occu": 1}], "abc": [0.39321000000000006, 0.8689300000000001, 0.8689300000000001], "properties": {"magmom": 0.0}, "label": "Rb", "xyz": [13.22845302906, 9.607309970940001, 9.607309970940001]}, {"species": [{"element": "Bi", "occu": 1}], "abc": [0.0, 0.0, 0.0], "properties": {"magmom": -0.0}, "label": "Bi", "xyz": [0.0, 0.0, 0.0]}, {"species": [{"element": "Bi", "occu": 1}], "abc": [0.25, 0.25, 0.25], "properties": {"magmom": -0.0}, "label": "Bi", "xyz": [3.8059605, 3.8059605, 3.8059605]}]}, "task_ids": null, "uncorrected_energy_per_atom": null, "energy_per_atom": -1.530739716, "formation_energy_per_atom": 0.031694403999999, "energy_above_hull": 0.287010960499999, "is_stable": false, "equilibrium_reaction_energy_per_atom": null, "decomposes_to": null, "xas": null, "grain_boundaries": null, "band_gap": 0.0, "cbm": null, "vbm": null, "efermi": -0.12329078, "is_gap_direct": null, "is_metal": null, "es_source_calc_id": null, "bandstructure": null, "dos": null, "dos_energy_up": null, "dos_energy_down": null, "is_magnetic": null, "ordering": null, "total_magnetization": 0.0006565, "total_magnetization_normalized_vol": null, "total_magnetization_normalized_formula_units": null, "num_magnetic_sites": null, "num_unique_magnetic_sites": null, "types_of_magnetic_species": null, "bulk_modulus": null, "shear_modulus": null, "universal_anisotropy": null, "homogeneous_poisson": null, "e_total": null, "e_ionic": null, "e_electronic": null, "n": null, "e_ij_max": null, "weighted_surface_energy_EV_PER_ANG2": null, "weighted_surface_energy": null, "weighted_work_function": null, "surface_anisotropy": null, "shape_factor": null, "has_reconstructed": null, "possible_species": null, "has_props": null, "theoretical": null, "database_IDs": null, "fields_not_requested": ["builder_meta", "nsites", "elements", "nelements", "composition", "composition_reduced", "chemsys", "symmetry", "property_name", "deprecated", "deprecation_reasons", "last_updated", "origins", "warnings", "task_ids", "uncorrected_energy_per_atom", "equilibrium_reaction_energy_per_atom", "decomposes_to", "xas", "grain_boundaries", "cbm", "vbm", "is_gap_direct", "is_metal", "es_source_calc_id", "bandstructure", "dos", "dos_energy_up", "dos_energy_down", "is_magnetic", "ordering", "total_magnetization_normalized_vol", "total_magnetization_normalized_formula_units", "num_magnetic_sites", "num_unique_magnetic_sites", "types_of_magnetic_species", "bulk_modulus", "shear_modulus", "universal_anisotropy", "homogeneous_poisson", "e_total", "e_ionic", "e_electronic", "n", "e_ij_max", "weighted_surface_energy_EV_PER_ANG2", "weighted_surface_energy", "weighted_work_function", "surface_anisotropy", "shape_factor", "has_reconstructed", "possible_species", "has_props", "theoretical", "database_IDs"]}