{
  "builder_meta": null,
  "nsites": null,
  "elements": null,
  "nelements": null,
  "composition": null,
  "composition_reduced": null,
  "formula_pretty": "Rb5Bi4",
  "formula_anonymous": "A4B5",
  "chemsys": null,
  "volume": 429.6706031845046,
  "density": 4.882097034448006,
  "density_atomic": 47.741178131611626,
  "symmetry": null,
  "property_name": null,
  "material_id": "mp-1219596",
  "deprecated": null,
  "deprecation_reasons": null,
  "last_updated": null,
  "origins": null,
  "warnings": null,
  "structure": {
    "@module": "pymatgen.core.structure",
    "@class": "Structure",
    "charge": 0,
    "lattice": {
      "matrix": [
        [2.91276902, 6.59544517, 0.021550510000000002],
        [-2.91276902, 6.59544517, 0.021550510000000002],
        [0.0, 4.46274056, 11.1975088]
      ],
      "pbc": [true, true, true],
      "a": 7.210033618425737,
      "b": 7.210033618425737,
      "c": 12.054055609293767,
      "alpha": 70.03503771368368,
      "beta": 70.03503771368368,
      "gamma": 47.655485125507774,
      "volume": 429.67060318450467
    },
    "properties": {},
    "sites": [
      {
        "species": [{ "element": "Rb", "occu": 1 }],
        "abc": [0.40367656, 0.40367656, 0.889220199999999],
        "properties": { "magmom": -0.0 },
        "label": "Rb",
        "xyz": [0.0, 9.293212289099738, 9.974449886123839]
      },
      {
        "species": [{ "element": "Rb", "occu": 1 }],
        "abc": [0.60204745, 0.60204745, 0.10559364],
        "properties": { "magmom": -0.0 },
        "label": "Rb",
        "xyz": [0.0, 8.412778912532671, 1.208334572307431]
      },
      {
        "species": [{ "element": "Rb", "occu": 1 }],
        "abc": [0.7510920600000001, 0.7510920600000001, 0.66508661],
        "properties": { "magmom": 0.0 },
        "label": "Rb",
        "xyz": [0.0, 12.875681989064603, 7.479686002137069]
      },
      {
        "species": [{ "element": "Rb", "occu": 1 }],
        "abc": [0.25867572, 0.25867572, 0.33142254],
        "properties": { "magmom": -0.0 },
        "label": "Rb",
        "xyz": [0.0, 4.891215867896767, 3.7222559955495864]
      },
      {
        "species": [{ "element": "Rb", "occu": 1 }],
        "abc": [0.5093228200000001, 0.5093228200000001, 0.49443684],
        "properties": { "magmom": -0.0 },
        "label": "Rb",
        "xyz": [0.0, 8.92496480650579, 5.558413199995468]
      },
      {
        "species": [{ "element": "Bi", "occu": 1 }],
        "abc": [0.04927132, 0.04927132, 0.67480393],
        "properties": { "magmom": 0.0 },
        "label": "Bi",
        "xyz": [0.0, 3.66140744748545, 7.5582465885983305]
      },
      {
        "species": [{ "element": "Bi", "occu": 1 }],
        "abc": [0.95820201, 0.95820201, 0.32063411],
        "properties": { "magmom": -0.0 },
        "label": "Bi",
        "xyz": [0.0, 14.070444485094084, 3.6316027523022187]
      },
      {
        "species": [{ "element": "Bi", "occu": 1 }],
        "abc": [0.10832445, 0.10832445, 0.89066106],
        "properties": { "magmom": 0.0 },
        "label": "Bi",
        "xyz": [0.0, 5.403685178765406, 9.977853951453266]
      },
      {
        "species": [{ "element": "Bi", "occu": 1 }],
        "abc": [0.89678863, 0.89678863, 0.10604107],
        "properties": { "magmom": -0.0 },
        "label": "Bi",
        "xyz": [0.0, 12.30267426060363, 1.2260483191638187]
      }
    ]
  },
  "task_ids": null,
  "uncorrected_energy_per_atom": null,
  "energy_per_atom": -2.609339262222218,
  "formation_energy_per_atom": -0.33569397305555204,
  "energy_above_hull": 0.000791971631946,
  "is_stable": false,
  "equilibrium_reaction_energy_per_atom": null,
  "decomposes_to": null,
  "xas": null,
  "grain_boundaries": null,
  "band_gap": 0.0,
  "cbm": null,
  "vbm": null,
  "efermi": 1.67415025,
  "is_gap_direct": null,
  "is_metal": null,
  "es_source_calc_id": null,
  "bandstructure": null,
  "dos": null,
  "dos_energy_up": null,
  "dos_energy_down": null,
  "is_magnetic": null,
  "ordering": null,
  "total_magnetization": 0.0,
  "total_magnetization_normalized_vol": null,
  "total_magnetization_normalized_formula_units": null,
  "num_magnetic_sites": null,
  "num_unique_magnetic_sites": null,
  "types_of_magnetic_species": null,
  "bulk_modulus": null,
  "shear_modulus": null,
  "universal_anisotropy": null,
  "homogeneous_poisson": null,
  "e_total": null,
  "e_ionic": null,
  "e_electronic": null,
  "n": null,
  "e_ij_max": null,
  "weighted_surface_energy_EV_PER_ANG2": null,
  "weighted_surface_energy": null,
  "weighted_work_function": null,
  "surface_anisotropy": null,
  "shape_factor": null,
  "has_reconstructed": null,
  "possible_species": null,
  "has_props": null,
  "theoretical": null,
  "database_IDs": null,
  "fields_not_requested": [
    "builder_meta",
    "nsites",
    "elements",
    "nelements",
    "composition",
    "composition_reduced",
    "chemsys",
    "symmetry",
    "property_name",
    "deprecated",
    "deprecation_reasons",
    "last_updated",
    "origins",
    "warnings",
    "task_ids",
    "uncorrected_energy_per_atom",
    "equilibrium_reaction_energy_per_atom",
    "decomposes_to",
    "xas",
    "grain_boundaries",
    "cbm",
    "vbm",
    "is_gap_direct",
    "is_metal",
    "es_source_calc_id",
    "bandstructure",
    "dos",
    "dos_energy_up",
    "dos_energy_down",
    "is_magnetic",
    "ordering",
    "total_magnetization_normalized_vol",
    "total_magnetization_normalized_formula_units",
    "num_magnetic_sites",
    "num_unique_magnetic_sites",
    "types_of_magnetic_species",
    "bulk_modulus",
    "shear_modulus",
    "universal_anisotropy",
    "homogeneous_poisson",
    "e_total",
    "e_ionic",
    "e_electronic",
    "n",
    "e_ij_max",
    "weighted_surface_energy_EV_PER_ANG2",
    "weighted_surface_energy",
    "weighted_work_function",
    "surface_anisotropy",
    "shape_factor",
    "has_reconstructed",
    "possible_species",
    "has_props",
    "theoretical",
    "database_IDs"
  ]
}
