{
  "builder_meta": null,
  "nsites": null,
  "elements": null,
  "nelements": null,
  "composition": null,
  "composition_reduced": null,
  "formula_pretty": "Rb5Sb4",
  "formula_anonymous": "A4B5",
  "chemsys": null,
  "volume": 401.29725715271945,
  "density": 3.783634261424335,
  "density_atomic": 44.58858412807994,
  "symmetry": null,
  "property_name": null,
  "material_id": "mp-1219574",
  "deprecated": null,
  "deprecation_reasons": null,
  "last_updated": null,
  "origins": null,
  "warnings": null,
  "structure": {
    "@module": "pymatgen.core.structure",
    "@class": "Structure",
    "charge": 0,
    "lattice": {
      "matrix": [
        [-0.0, -5.73941248, 1e-8],
        [5.95705293, 2.869706749999999, -2.54701455],
        [6.03166775, -2.869706749999999, 9.15835833]
      ],
      "pbc": [true, true, true],
      "a": 5.73941248,
      "b": 7.085829489885347,
      "c": 11.335420591141117,
      "alpha": 86.88169834167601,
      "beta": 75.33525060808748,
      "gamma": 113.89064790931833,
      "volume": 401.29725715271945
    },
    "properties": {},
    "sites": [
      {
        "species": [{ "element": "Rb", "occu": 1 }],
        "abc": [0.58305277, 0.83131703, 0.66521049],
        "properties": { "magmom": 0.0 },
        "label": "Rb",
        "xyz": [8.964528208815096, -2.869703285579425, 3.974859467052623]
      },
      {
        "species": [{ "element": "Rb", "occu": 1 }],
        "abc": [0.41120721, 0.15386616, 0.33144974],
        "properties": { "magmom": 0.0 },
        "label": "Rb",
        "xyz": [2.915783566759734, -2.8697005911551456, 2.643636143144778]
      },
      {
        "species": [{ "element": "Rb", "occu": 1 }],
        "abc": [0.70800808, 0.31022412, 0.89420897],
        "properties": { "magmom": 0.0 },
        "label": "Rb",
        "xyz": [7.24159290911239, -5.739415676235576, 7.399340828839355]
      },
      {
        "species": [{ "element": "Rb", "occu": 1 }],
        "abc": [0.29189609, 0.68501917, 0.10122898],
        "properties": { "magmom": -0.0 },
        "label": "Rb",
        "xyz": [4.691275027786063, -5.412982421459933e-6, -0.8176625178795593]
      },
      {
        "species": [{ "element": "Rb", "occu": 1 }],
        "abc": [0.99507729, 0.48270594, 0.49255337],
        "properties": { "magmom": 0.0 },
        "label": "Rb",
        "xyz": [5.846423111188222, -5.739418253131732, 3.281521216508418]
      },
      {
        "species": [{ "element": "Sb", "occu": 1 }],
        "abc": [0.27173523, 0.22459242000000001, 0.68112096],
        "properties": { "magmom": 0.0 },
        "label": "Sb",
        "xyz": [5.446204261897831, -2.869703603123315, 5.665909658911238]
      },
      {
        "species": [{ "element": "Sb", "occu": 1 }],
        "abc": [0.72628948, 0.768593699999999, 0.31601374],
        "properties": { "magmom": -0.0 },
        "label": "Sb",
        "xyz": [6.48464323667942, -2.869703139477984, 0.9365477384480165]
      },
      {
        "species": [{ "element": "Sb", "occu": 1 }],
        "abc": [0.006616110000000001, 0.9031792, 0.88994499],
        "properties": { "magmom": 0.0 },
        "label": "Sb",
        "xyz": [10.748138795132128, 5.7174648642188686e-6, 5.850024548817069]
      },
      {
        "species": [{ "element": "Sb", "occu": 1 }],
        "abc": [0.99191675, 0.09100226, 0.10716775],
        "properties": { "magmom": -0.0 },
        "label": "Sb",
        "xyz": [1.1885055410846843, -5.739409589841098, 0.749696585536142]
      }
    ]
  },
  "task_ids": null,
  "uncorrected_energy_per_atom": null,
  "energy_per_atom": -2.873930965555555,
  "formation_energy_per_atom": -0.49407815194444404,
  "energy_above_hull": 0.0,
  "is_stable": true,
  "equilibrium_reaction_energy_per_atom": null,
  "decomposes_to": null,
  "xas": null,
  "grain_boundaries": null,
  "band_gap": 0.0,
  "cbm": null,
  "vbm": null,
  "efermi": 2.09785257,
  "is_gap_direct": null,
  "is_metal": null,
  "es_source_calc_id": null,
  "bandstructure": null,
  "dos": null,
  "dos_energy_up": null,
  "dos_energy_down": null,
  "is_magnetic": null,
  "ordering": null,
  "total_magnetization": 0.0,
  "total_magnetization_normalized_vol": null,
  "total_magnetization_normalized_formula_units": null,
  "num_magnetic_sites": null,
  "num_unique_magnetic_sites": null,
  "types_of_magnetic_species": null,
  "bulk_modulus": null,
  "shear_modulus": null,
  "universal_anisotropy": null,
  "homogeneous_poisson": null,
  "e_total": null,
  "e_ionic": null,
  "e_electronic": null,
  "n": null,
  "e_ij_max": null,
  "weighted_surface_energy_EV_PER_ANG2": null,
  "weighted_surface_energy": null,
  "weighted_work_function": null,
  "surface_anisotropy": null,
  "shape_factor": null,
  "has_reconstructed": null,
  "possible_species": null,
  "has_props": null,
  "theoretical": null,
  "database_IDs": null,
  "fields_not_requested": [
    "builder_meta",
    "nsites",
    "elements",
    "nelements",
    "composition",
    "composition_reduced",
    "chemsys",
    "symmetry",
    "property_name",
    "deprecated",
    "deprecation_reasons",
    "last_updated",
    "origins",
    "warnings",
    "task_ids",
    "uncorrected_energy_per_atom",
    "equilibrium_reaction_energy_per_atom",
    "decomposes_to",
    "xas",
    "grain_boundaries",
    "cbm",
    "vbm",
    "is_gap_direct",
    "is_metal",
    "es_source_calc_id",
    "bandstructure",
    "dos",
    "dos_energy_up",
    "dos_energy_down",
    "is_magnetic",
    "ordering",
    "total_magnetization_normalized_vol",
    "total_magnetization_normalized_formula_units",
    "num_magnetic_sites",
    "num_unique_magnetic_sites",
    "types_of_magnetic_species",
    "bulk_modulus",
    "shear_modulus",
    "universal_anisotropy",
    "homogeneous_poisson",
    "e_total",
    "e_ionic",
    "e_electronic",
    "n",
    "e_ij_max",
    "weighted_surface_energy_EV_PER_ANG2",
    "weighted_surface_energy",
    "weighted_work_function",
    "surface_anisotropy",
    "shape_factor",
    "has_reconstructed",
    "possible_species",
    "has_props",
    "theoretical",
    "database_IDs"
  ]
}
