{
  "builder_meta": null,
  "nsites": null,
  "elements": null,
  "nelements": null,
  "composition": null,
  "composition_reduced": null,
  "formula_pretty": "Rb6C5",
  "formula_anonymous": "A5B6",
  "chemsys": null,
  "volume": 421.8694201083293,
  "density": 2.254861012703713,
  "density_atomic": 38.35176546439357,
  "symmetry": null,
  "property_name": null,
  "material_id": "mp-33056",
  "deprecated": null,
  "deprecation_reasons": null,
  "last_updated": null,
  "origins": null,
  "warnings": null,
  "structure": {
    "@module": "pymatgen.core.structure",
    "@class": "Structure",
    "charge": 0,
    "lattice": {
      "matrix": [
        [3.918567, -6.787157, 0.0],
        [3.918567, 6.787157, 0.0],
        [0.0, 0.0, 7.93109]
      ],
      "pbc": [true, true, true],
      "a": 7.837133881473379,
      "b": 7.837133881473379,
      "c": 7.93109,
      "alpha": 90.0,
      "beta": 90.0,
      "gamma": 119.99999899942273,
      "volume": 421.8694201083293
    },
    "properties": {},
    "sites": [
      {
        "species": [{ "element": "Rb", "occu": 1 }],
        "abc": [0.0, 0.618502, 0.5],
        "properties": { "magmom": 0.073 },
        "label": "Rb",
        "xyz": [2.423641526634, 4.197870178814, 3.965545]
      },
      {
        "species": [{ "element": "Rb", "occu": 1 }],
        "abc": [0.381498, 0.381498, 0.5],
        "properties": { "magmom": 0.073 },
        "label": "Rb",
        "xyz": [2.989850946732, 0.0, 3.965545]
      },
      {
        "species": [{ "element": "Rb", "occu": 1 }],
        "abc": [0.0, 0.361730999999999, 0.0],
        "properties": { "magmom": 0.051000000000000004 },
        "label": "Rb",
        "xyz": [1.417467159476996, 2.455125088766993, 0.0]
      },
      {
        "species": [{ "element": "Rb", "occu": 1 }],
        "abc": [0.638269, 0.638269, 0.0],
        "properties": { "magmom": 0.051000000000000004 },
        "label": "Rb",
        "xyz": [5.002199681046, 0.0, 0.0]
      },
      {
        "species": [{ "element": "Rb", "occu": 1 }],
        "abc": [0.361730999999999, 0.0, 0.0],
        "properties": { "magmom": 0.051000000000000004 },
        "label": "Rb",
        "xyz": [1.417467159476996, -2.455125088766993, 0.0]
      },
      {
        "species": [{ "element": "Rb", "occu": 1 }],
        "abc": [0.618502, 0.0, 0.5],
        "properties": { "magmom": 0.073 },
        "label": "Rb",
        "xyz": [2.423641526634, -4.197870178814, 3.965545]
      },
      {
        "species": [{ "element": "C", "occu": 1 }],
        "abc": [0.333333, 0.666667, 0.7570500000000001],
        "properties": { "magmom": 1.142 },
        "label": "C",
        "xyz": [3.9185670000000004, 2.262390191438, 6.004231684500001]
      },
      {
        "species": [{ "element": "C", "occu": 1 }],
        "abc": [0.0, 0.0, 0.5],
        "properties": { "magmom": 1.15 },
        "label": "C",
        "xyz": [0.0, 0.0, 3.965545]
      },
      {
        "species": [{ "element": "C", "occu": 1 }],
        "abc": [0.666667, 0.333333, 0.24295000000000003],
        "properties": { "magmom": 1.142 },
        "label": "C",
        "xyz": [3.9185670000000004, -2.262390191438, 1.9268583155000003]
      },
      {
        "species": [{ "element": "C", "occu": 1 }],
        "abc": [0.666667, 0.333333, 0.7570500000000001],
        "properties": { "magmom": 1.142 },
        "label": "C",
        "xyz": [3.9185670000000004, -2.262390191438, 6.004231684500001]
      },
      {
        "species": [{ "element": "C", "occu": 1 }],
        "abc": [0.333333, 0.666667, 0.24295000000000003],
        "properties": { "magmom": 1.142 },
        "label": "C",
        "xyz": [3.9185670000000004, 2.262390191438, 1.9268583155000003]
      }
    ]
  },
  "task_ids": null,
  "uncorrected_energy_per_atom": null,
  "energy_per_atom": -2.6265175554545452,
  "formation_energy_per_atom": 2.103167162499999,
  "energy_above_hull": 2.120729163778409,
  "is_stable": false,
  "equilibrium_reaction_energy_per_atom": null,
  "decomposes_to": null,
  "xas": null,
  "grain_boundaries": null,
  "band_gap": 0.0,
  "cbm": null,
  "vbm": null,
  "efermi": 0.1233915,
  "is_gap_direct": null,
  "is_metal": null,
  "es_source_calc_id": null,
  "bandstructure": null,
  "dos": null,
  "dos_energy_up": null,
  "dos_energy_down": null,
  "is_magnetic": null,
  "ordering": null,
  "total_magnetization": 14.0000004,
  "total_magnetization_normalized_vol": null,
  "total_magnetization_normalized_formula_units": null,
  "num_magnetic_sites": null,
  "num_unique_magnetic_sites": null,
  "types_of_magnetic_species": null,
  "bulk_modulus": null,
  "shear_modulus": null,
  "universal_anisotropy": null,
  "homogeneous_poisson": null,
  "e_total": null,
  "e_ionic": null,
  "e_electronic": null,
  "n": null,
  "e_ij_max": null,
  "weighted_surface_energy_EV_PER_ANG2": null,
  "weighted_surface_energy": null,
  "weighted_work_function": null,
  "surface_anisotropy": null,
  "shape_factor": null,
  "has_reconstructed": null,
  "possible_species": null,
  "has_props": null,
  "theoretical": null,
  "database_IDs": null,
  "fields_not_requested": [
    "builder_meta",
    "nsites",
    "elements",
    "nelements",
    "composition",
    "composition_reduced",
    "chemsys",
    "symmetry",
    "property_name",
    "deprecated",
    "deprecation_reasons",
    "last_updated",
    "origins",
    "warnings",
    "task_ids",
    "uncorrected_energy_per_atom",
    "equilibrium_reaction_energy_per_atom",
    "decomposes_to",
    "xas",
    "grain_boundaries",
    "cbm",
    "vbm",
    "is_gap_direct",
    "is_metal",
    "es_source_calc_id",
    "bandstructure",
    "dos",
    "dos_energy_up",
    "dos_energy_down",
    "is_magnetic",
    "ordering",
    "total_magnetization_normalized_vol",
    "total_magnetization_normalized_formula_units",
    "num_magnetic_sites",
    "num_unique_magnetic_sites",
    "types_of_magnetic_species",
    "bulk_modulus",
    "shear_modulus",
    "universal_anisotropy",
    "homogeneous_poisson",
    "e_total",
    "e_ionic",
    "e_electronic",
    "n",
    "e_ij_max",
    "weighted_surface_energy_EV_PER_ANG2",
    "weighted_surface_energy",
    "weighted_work_function",
    "surface_anisotropy",
    "shape_factor",
    "has_reconstructed",
    "possible_species",
    "has_props",
    "theoretical",
    "database_IDs"
  ]
}
