{"builder_meta": null, "nsites": null, "elements": null, "nelements": null, "composition": null, "composition_reduced": null, "formula_pretty": "Rb6O", "formula_anonymous": "AB6", "chemsys": null, "volume": 1929.2578633094852, "density": 1.820603394621344, "density_atomic": 68.90206654676733, "symmetry": null, "property_name": null, "material_id": "mp-540855", "deprecated": null, "deprecation_reasons": null, "last_updated": null, "origins": null, "warnings": null, "structure": {"@module": "pymatgen.core.structure", "@class": "Structure", "charge": 0, "lattice": {"matrix": [[4.26081634, -7.37995194, 0.0], [4.26081634, 7.37995087, -0.0], [0.0, 0.0, 30.67707631]], "pbc": [true, true, true], "a": 8.521634028748286, "b": 8.521633102101072, "c": 30.67707631, "alpha": 90.0, "beta": 90.0, "gamma": 120.00000687417757, "volume": 1929.2578633094852}, "properties": {}, "sites": [{"species": [{"element": "Rb", "occu": 1}], "abc": [0.31707709, 0.38981385, 0.13972106], "properties": {"magmom": -0.004}, "label": "Rb", "xyz": [3.0119324677499595, 0.536793375970495, 4.286233619734089]}, {"species": [{"element": "Rb", "occu": 1}], "abc": [0.92726324, 0.31707709, 0.6397210600000001], "properties": {"magmom": -0.004}, "label": "Rb", "xyz": [5.301905610584992, -4.503144800726117, 19.62477177473409]}, {"species": [{"element": "Rb", "occu": 1}], "abc": [0.38981385, 0.07273676, 0.6397210600000001], "properties": {"magmom": -0.004}, "label": "Rb", "xyz": [1.9708431971649674, -2.340013763303388, 19.62477177473409]}, {"species": [{"element": "Rb", "occu": 1}], "abc": [0.61018615, 0.92726324, 0.13972106], "properties": {"magmom": -0.004}, "label": "Rb", "xyz": [6.550789482835032, 2.3400126933033887, 4.286233619734089]}, {"species": [{"element": "Rb", "occu": 1}], "abc": [0.07273676, 0.68292291, 0.13972106], "properties": {"magmom": -0.004}, "label": "Rb", "xyz": [3.219727069415008, 4.5031437307261175, 4.286233619734089]}, {"species": [{"element": "Rb", "occu": 1}], "abc": [0.68292291, 0.61018615, 0.6397210600000001], "properties": {"magmom": -0.004}, "label": "Rb", "xyz": [5.50970021225004, -0.5367944459704947, 19.62477177473409]}, {"species": [{"element": "Rb", "occu": 1}], "abc": [0.68292291, 0.61018615, 0.86027894], "properties": {"magmom": -0.004}, "label": "Rb", "xyz": [5.50970021225004, -0.5367944459704947, 26.390842690265913]}, {"species": [{"element": "Rb", "occu": 1}], "abc": [0.07273676, 0.68292291, 0.36027894], "properties": {"magmom": -0.004}, "label": "Rb", "xyz": [3.219727069415008, 4.5031437307261175, 11.052304535265911]}, {"species": [{"element": "Rb", "occu": 1}], "abc": [0.61018615, 0.92726324, 0.36027894], "properties": {"magmom": -0.004}, "label": "Rb", "xyz": [6.550789482835032, 2.3400126933033887, 11.052304535265911]}, {"species": [{"element": "Rb", "occu": 1}], "abc": [0.38981385, 0.07273676, 0.86027894], "properties": {"magmom": -0.004}, "label": "Rb", "xyz": [1.9708431971649674, -2.340013763303388, 26.390842690265913]}, {"species": [{"element": "Rb", "occu": 1}], "abc": [0.92726324, 0.31707709, 0.86027894], "properties": {"magmom": -0.004}, "label": "Rb", "xyz": [5.301905610584992, -4.503144800726117, 26.390842690265913]}, {"species": [{"element": "Rb", "occu": 1}], "abc": [0.31707709, 0.38981385, 0.36027894], "properties": {"magmom": -0.004}, "label": "Rb", "xyz": [3.0119324677499595, 0.536793375970495, 11.052304535265911]}, {"species": [{"element": "Rb", "occu": 1}], "abc": [0.08667846, 0.43230331, 0.25], "properties": {"magmom": -0.001}, "label": "Rb", "xyz": [2.211286005778122, 2.5506943197051672, 7.6692690775]}, {"species": [{"element": "Rb", "occu": 1}], "abc": [0.65437615, 0.08667846, 0.75], "properties": {"magmom": -0.001}, "label": "Rb", "xyz": [3.1574975911203276, -4.1895817613949715, 23.0078072325]}, {"species": [{"element": "Rb", "occu": 1}], "abc": [0.43230331, 0.34562385, 0.75], "properties": {"magmom": -0.001}, "label": "Rb", "xyz": [3.314604754657794, -0.6396906188026716, 23.0078072325]}, {"species": [{"element": "Rb", "occu": 1}], "abc": [0.56769669, 0.65437615, 0.25], "properties": {"magmom": -0.001}, "label": "Rb", "xyz": [5.207027925342206, 0.6396895488026724, 7.6692690775]}, {"species": [{"element": "Rb", "occu": 1}], "abc": [0.34562385, 0.91332154, 0.25], "properties": {"magmom": -0.001}, "label": "Rb", "xyz": [5.364135088879673, 4.189580691394971, 7.6692690775]}, {"species": [{"element": "Rb", "occu": 1}], "abc": [0.91332154, 0.56769669, 0.75], "properties": {"magmom": -0.001}, "label": "Rb", "xyz": [6.3103466742218774, -2.550695389705167, 23.0078072325]}, {"species": [{"element": "Rb", "occu": 1}], "abc": [-0.0, 0.0, 0.0], "properties": {"magmom": -0.005}, "label": "Rb", "xyz": [0.0, 0.0, 0.0]}, {"species": [{"element": "Rb", "occu": 1}], "abc": [-0.0, 0.0, 0.5], "properties": {"magmom": -0.005}, "label": "Rb", "xyz": [0.0, 0.0, 15.338538155]}, {"species": [{"element": "Rb", "occu": 1}], "abc": [0.333333, 0.666667, 0.98356561], "properties": {"magmom": -0.002}, "label": "Rb", "xyz": [4.26081634, 2.4599881866342703, 30.1729172738617]}, {"species": [{"element": "Rb", "occu": 1}], "abc": [0.666667, 0.333333, 0.48356561000000003], "properties": {"magmom": -0.002}, "label": "Rb", "xyz": [4.26081634, -2.4599892566342705, 14.834379118861701]}, {"species": [{"element": "Rb", "occu": 1}], "abc": [0.666667, 0.333333, 0.01643439], "properties": {"magmom": -0.002}, "label": "Rb", "xyz": [4.26081634, -2.4599892566342705, 0.5041590361383009]}, {"species": [{"element": "Rb", "occu": 1}], "abc": [0.333333, 0.666667, 0.51643439], "properties": {"magmom": -0.002}, "label": "Rb", "xyz": [4.26081634, 2.4599881866342703, 15.842697191138301]}, {"species": [{"element": "O", "occu": 1}], "abc": [0.333333, 0.666667, 0.18697291], "properties": {"magmom": -0.008}, "label": "O", "xyz": [4.26081634, 2.4599881866342703, 5.735782227972762]}, {"species": [{"element": "O", "occu": 1}], "abc": [0.666667, 0.333333, 0.68697291], "properties": {"magmom": -0.008}, "label": "O", "xyz": [4.26081634, -2.4599892566342705, 21.074320382972765]}, {"species": [{"element": "O", "occu": 1}], "abc": [0.666667, 0.333333, 0.8130270900000001], "properties": {"magmom": -0.008}, "label": "O", "xyz": [4.26081634, -2.4599892566342705, 24.94129408202724]}, {"species": [{"element": "O", "occu": 1}], "abc": [0.333333, 0.666667, 0.31302709], "properties": {"magmom": -0.008}, "label": "O", "xyz": [4.26081634, 2.4599881866342703, 9.60275592702724]}]}, "task_ids": null, "uncorrected_energy_per_atom": null, "energy_per_atom": -2.063163944999999, "formation_energy_per_atom": -0.51585459642857, "energy_above_hull": 0.001051034821428, "is_stable": false, "equilibrium_reaction_energy_per_atom": null, "decomposes_to": null, "xas": null, "grain_boundaries": null, "band_gap": 0.0, "cbm": null, "vbm": null, "efermi": 0.23186651, "is_gap_direct": null, "is_metal": null, "es_source_calc_id": null, "bandstructure": null, "dos": null, "dos_energy_up": null, "dos_energy_down": null, "is_magnetic": null, "ordering": null, "total_magnetization": 1.161625, "total_magnetization_normalized_vol": null, "total_magnetization_normalized_formula_units": null, "num_magnetic_sites": null, "num_unique_magnetic_sites": null, "types_of_magnetic_species": null, "bulk_modulus": null, "shear_modulus": null, "universal_anisotropy": null, "homogeneous_poisson": null, "e_total": null, "e_ionic": null, "e_electronic": null, "n": null, "e_ij_max": null, "weighted_surface_energy_EV_PER_ANG2": null, "weighted_surface_energy": null, "weighted_work_function": null, "surface_anisotropy": null, "shape_factor": null, "has_reconstructed": null, "possible_species": null, "has_props": null, "theoretical": null, "database_IDs": null, "fields_not_requested": ["builder_meta", "nsites", "elements", "nelements", "composition", "composition_reduced", "chemsys", "symmetry", "property_name", "deprecated", "deprecation_reasons", "last_updated", "origins", "warnings", "task_ids", "uncorrected_energy_per_atom", "equilibrium_reaction_energy_per_atom", "decomposes_to", "xas", "grain_boundaries", "cbm", "vbm", "is_gap_direct", "is_metal", "es_source_calc_id", "bandstructure", "dos", "dos_energy_up", "dos_energy_down", "is_magnetic", "ordering", "total_magnetization_normalized_vol", "total_magnetization_normalized_formula_units", "num_magnetic_sites", "num_unique_magnetic_sites", "types_of_magnetic_species", "bulk_modulus", "shear_modulus", "universal_anisotropy", "homogeneous_poisson", "e_total", "e_ionic", "e_electronic", "n", "e_ij_max", "weighted_surface_energy_EV_PER_ANG2", "weighted_surface_energy", "weighted_work_function", "surface_anisotropy", "shape_factor", "has_reconstructed", "possible_species", "has_props", "theoretical", "database_IDs"]}