{
  "builder_meta": null,
  "nsites": null,
  "elements": null,
  "nelements": null,
  "composition": null,
  "composition_reduced": null,
  "formula_pretty": "RbAs",
  "formula_anonymous": "AB",
  "chemsys": null,
  "volume": 561.131929876838,
  "density": 3.797080157274115,
  "density_atomic": 35.07074561730237,
  "symmetry": null,
  "property_name": null,
  "material_id": "mp-10802",
  "deprecated": null,
  "deprecation_reasons": null,
  "last_updated": null,
  "origins": null,
  "warnings": null,
  "structure": {
    "@module": "pymatgen.core.structure",
    "@class": "Structure",
    "charge": 0,
    "lattice": {
      "matrix": [
        [6.62238443, 0.0, 0.0],
        [0.0, 6.97180645, 0.0],
        [0.0, 0.0, 12.15360933]
      ],
      "pbc": [true, true, true],
      "a": 6.62238443,
      "b": 6.97180645,
      "c": 12.15360933,
      "alpha": 90.0,
      "beta": 90.0,
      "gamma": 90.0,
      "volume": 561.131929876838
    },
    "properties": {},
    "sites": [
      {
        "species": [{ "element": "Rb", "occu": 1 }],
        "abc": [0.09652733000000001, 0.11110038, 0.41590428],
        "properties": { "magmom": 0.0 },
        "label": "Rb",
        "xyz": [0.639241087261472, 0.774570345881451, 5.054738137794932]
      },
      {
        "species": [{ "element": "Rb", "occu": 1 }],
        "abc": [0.59652733, 0.38889962, 0.58409572],
        "properties": { "magmom": 0.0 },
        "label": "Rb",
        "xyz": [3.950433302261472, 2.711332879118549, 7.098871192205068]
      },
      {
        "species": [{ "element": "Rb", "occu": 1 }],
        "abc": [0.90347267, 0.61110038, 0.08409572],
        "properties": { "magmom": 0.0 },
        "label": "Rb",
        "xyz": [5.983143342738528, 4.260473570881451, 1.0220665272050675]
      },
      {
        "species": [{ "element": "Rb", "occu": 1 }],
        "abc": [0.40347267000000003, 0.88889962, 0.91590428],
        "properties": { "magmom": 0.0 },
        "label": "Rb",
        "xyz": [2.6719511277385286, 6.197236104118549, 11.131542802794932]
      },
      {
        "species": [{ "element": "Rb", "occu": 1 }],
        "abc": [0.67004115, 0.14815709999999901, 0.21512519],
        "properties": { "magmom": -0.0 },
        "label": "Rb",
        "xyz": [4.437270079219295, 1.0329226253932882, 2.614547516302023]
      },
      {
        "species": [{ "element": "Rb", "occu": 1 }],
        "abc": [0.17004115, 0.351842899999999, 0.78487481],
        "properties": { "magmom": -0.0 },
        "label": "Rb",
        "xyz": [1.1260778642192946, 2.4529805996066982, 9.539061813697979]
      },
      {
        "species": [{ "element": "Rb", "occu": 1 }],
        "abc": [0.32995885, 0.648157099999999, 0.28487481],
        "properties": { "magmom": -0.0 },
        "label": "Rb",
        "xyz": [2.185114350780706, 4.518825850393288, 3.462257148697977]
      },
      {
        "species": [{ "element": "Rb", "occu": 1 }],
        "abc": [0.82995885, 0.8518429, 0.71512519],
        "properties": { "magmom": -0.0 },
        "label": "Rb",
        "xyz": [5.4963065657807055, 5.938883824606704, 8.691352181302022]
      },
      {
        "species": [{ "element": "As", "occu": 1 }],
        "abc": [0.17068688, 0.18154662, 0.10626556000000001],
        "properties": { "magmom": 0.0 },
        "label": "As",
        "xyz": [1.1303541365172785, 1.265707896291699, 1.291510101473675]
      },
      {
        "species": [{ "element": "As", "occu": 1 }],
        "abc": [0.67068688, 0.31845338, 0.89373444],
        "properties": { "magmom": 0.0 },
        "label": "As",
        "xyz": [4.441546351517278, 2.220195328708301, 10.862099228526326]
      },
      {
        "species": [{ "element": "As", "occu": 1 }],
        "abc": [0.82931312, 0.68154662, 0.39373444],
        "properties": { "magmom": 0.0 },
        "label": "As",
        "xyz": [5.492030293482722, 4.751611121291699, 4.7852945635263255]
      },
      {
        "species": [{ "element": "As", "occu": 1 }],
        "abc": [0.32931312, 0.81845338, 0.60626556],
        "properties": { "magmom": 0.0 },
        "label": "As",
        "xyz": [2.1808380784827217, 5.706098553708301, 7.368314766473675]
      },
      {
        "species": [{ "element": "As", "occu": 1 }],
        "abc": [0.40986481, 0.42489797, 0.03097193],
        "properties": { "magmom": -0.0 },
        "label": "As",
        "xyz": [2.7142823361489086, 2.9623064078379064, 0.37642073741610693]
      },
      {
        "species": [{ "element": "As", "occu": 1 }],
        "abc": [0.90986481, 0.07510203, 0.96902807],
        "properties": { "magmom": -0.0 },
        "label": "As",
        "xyz": [6.025474551148909, 0.5235968171620935, 11.777188592583894]
      },
      {
        "species": [{ "element": "As", "occu": 1 }],
        "abc": [0.59013519, 0.9248979700000001, 0.46902807],
        "properties": { "magmom": -0.0 },
        "label": "As",
        "xyz": [3.908102093851092, 6.448209632837907, 5.700383927583894]
      },
      {
        "species": [{ "element": "As", "occu": 1 }],
        "abc": [0.09013519, 0.57510203, 0.53097193],
        "properties": { "magmom": -0.0 },
        "label": "As",
        "xyz": [0.5969098788510917, 4.009500042162093, 6.453225402416106]
      }
    ]
  },
  "task_ids": null,
  "uncorrected_energy_per_atom": null,
  "energy_per_atom": -3.242885495625,
  "formation_energy_per_atom": -0.41755719312500006,
  "energy_above_hull": 0.0,
  "is_stable": true,
  "equilibrium_reaction_energy_per_atom": null,
  "decomposes_to": null,
  "xas": null,
  "grain_boundaries": null,
  "band_gap": 0.5879000000000001,
  "cbm": null,
  "vbm": null,
  "efermi": 1.78637971,
  "is_gap_direct": null,
  "is_metal": null,
  "es_source_calc_id": null,
  "bandstructure": null,
  "dos": null,
  "dos_energy_up": null,
  "dos_energy_down": null,
  "is_magnetic": null,
  "ordering": null,
  "total_magnetization": 0.0,
  "total_magnetization_normalized_vol": null,
  "total_magnetization_normalized_formula_units": null,
  "num_magnetic_sites": null,
  "num_unique_magnetic_sites": null,
  "types_of_magnetic_species": null,
  "bulk_modulus": null,
  "shear_modulus": null,
  "universal_anisotropy": null,
  "homogeneous_poisson": null,
  "e_total": null,
  "e_ionic": null,
  "e_electronic": null,
  "n": null,
  "e_ij_max": null,
  "weighted_surface_energy_EV_PER_ANG2": null,
  "weighted_surface_energy": null,
  "weighted_work_function": null,
  "surface_anisotropy": null,
  "shape_factor": null,
  "has_reconstructed": null,
  "possible_species": null,
  "has_props": null,
  "theoretical": null,
  "database_IDs": null,
  "fields_not_requested": [
    "builder_meta",
    "nsites",
    "elements",
    "nelements",
    "composition",
    "composition_reduced",
    "chemsys",
    "symmetry",
    "property_name",
    "deprecated",
    "deprecation_reasons",
    "last_updated",
    "origins",
    "warnings",
    "task_ids",
    "uncorrected_energy_per_atom",
    "equilibrium_reaction_energy_per_atom",
    "decomposes_to",
    "xas",
    "grain_boundaries",
    "cbm",
    "vbm",
    "is_gap_direct",
    "is_metal",
    "es_source_calc_id",
    "bandstructure",
    "dos",
    "dos_energy_up",
    "dos_energy_down",
    "is_magnetic",
    "ordering",
    "total_magnetization_normalized_vol",
    "total_magnetization_normalized_formula_units",
    "num_magnetic_sites",
    "num_unique_magnetic_sites",
    "types_of_magnetic_species",
    "bulk_modulus",
    "shear_modulus",
    "universal_anisotropy",
    "homogeneous_poisson",
    "e_total",
    "e_ionic",
    "e_electronic",
    "n",
    "e_ij_max",
    "weighted_surface_energy_EV_PER_ANG2",
    "weighted_surface_energy",
    "weighted_work_function",
    "surface_anisotropy",
    "shape_factor",
    "has_reconstructed",
    "possible_species",
    "has_props",
    "theoretical",
    "database_IDs"
  ]
}
