{
  "builder_meta": null,
  "nsites": null,
  "elements": null,
  "nelements": null,
  "composition": null,
  "composition_reduced": null,
  "formula_pretty": "RbBi",
  "formula_anonymous": "AB",
  "chemsys": null,
  "volume": 1465.0435417087303,
  "density": 5.339830253725067,
  "density_atomic": 45.78261067839782,
  "symmetry": null,
  "property_name": null,
  "material_id": "mp-31105",
  "deprecated": null,
  "deprecation_reasons": null,
  "last_updated": null,
  "origins": null,
  "warnings": null,
  "structure": {
    "@module": "pymatgen.core.structure",
    "@class": "Structure",
    "charge": 0,
    "lattice": {
      "matrix": [
        [7.54076765, 0.0, 0.0],
        [0.0, 12.97473071, -5.57291082],
        [0.0, -0.03901541, 14.99071624]
      ],
      "pbc": [true, true, true],
      "a": 7.54076765,
      "b": 14.120940903661134,
      "c": 14.990767011411297,
      "alpha": 113.3936269592398,
      "beta": 90.0,
      "gamma": 90.0,
      "volume": 1465.0435417087303
    },
    "properties": {},
    "sites": [
      {
        "species": [{ "element": "Rb", "occu": 1 }],
        "abc": [0.1411414, 0.54929027, 0.85143851],
        "properties": { "magmom": 0.0 },
        "label": "Rb",
        "xyz": [1.06431450319571, 7.093674112315752, 9.702527410214682]
      },
      {
        "species": [{ "element": "Rb", "occu": 1 }],
        "abc": [0.6411414, 0.95070973, 0.14856149],
        "properties": { "magmom": 0.0 },
        "label": "Rb",
        "xyz": [4.83469832819571, 12.329406542684247, -3.0711774002146814]
      },
      {
        "species": [{ "element": "Rb", "occu": 1 }],
        "abc": [0.858858599999999, 0.45070973000000003, 0.14856149],
        "properties": { "magmom": 0.0 },
        "label": "Rb",
        "xyz": [6.476453146804283, 5.842041187684247, -0.2847219902146816]
      },
      {
        "species": [{ "element": "Rb", "occu": 1 }],
        "abc": [0.35885859999999903, 0.049290270000000004, 0.85143851],
        "properties": { "magmom": 0.0 },
        "label": "Rb",
        "xyz": [2.7060693218042826, 0.6063087573157526, 12.488982820214682]
      },
      {
        "species": [{ "element": "Rb", "occu": 1 }],
        "abc": [0.42363993, 0.68864041, 0.65597476],
        "properties": { "magmom": 0.0 },
        "label": "Rb",
        "xyz": [3.1945702793922646, 8.909330751562939, 5.995799895783866]
      },
      {
        "species": [{ "element": "Rb", "occu": 1 }],
        "abc": [0.92363993, 0.81135959, 0.34402524],
        "properties": { "magmom": 0.0 },
        "label": "Rb",
        "xyz": [6.964954104392265, 10.513749903437061, 0.6355501142161337]
      },
      {
        "species": [{ "element": "Rb", "occu": 1 }],
        "abc": [0.57636007, 0.31135959, 0.34402524],
        "properties": { "magmom": 0.0 },
        "label": "Rb",
        "xyz": [4.346197370607736, 4.02638454843706, 3.422005524216134]
      },
      {
        "species": [{ "element": "Rb", "occu": 1 }],
        "abc": [0.07636007, 0.18864041, 0.65597476],
        "properties": { "magmom": 0.0 },
        "label": "Rb",
        "xyz": [0.5758135456077356, 2.4219653965629395, 8.782255305783865]
      },
      {
        "species": [{ "element": "Rb", "occu": 1 }],
        "abc": [0.1963634, 0.53330895, 0.39481308],
        "properties": { "magmom": 0.0 },
        "label": "Rb",
        "xyz": [1.48073077436401, 6.904136217293291, 2.94644763226258]
      },
      {
        "species": [{ "element": "Rb", "occu": 1 }],
        "abc": [0.6963634, 0.96669105, 0.60518692],
        "properties": { "magmom": 0.0 },
        "label": "Rb",
        "xyz": [5.25111459936401, 12.518944437706708, 3.6849023777374192]
      },
      {
        "species": [{ "element": "Rb", "occu": 1 }],
        "abc": [0.803636599999999, 0.46669105, 0.60518692],
        "properties": { "magmom": 0.0 },
        "label": "Rb",
        "xyz": [6.060036875635983, 6.031579082706708, 6.4713577877374195]
      },
      {
        "species": [{ "element": "Rb", "occu": 1 }],
        "abc": [0.3036366, 0.033308950000000004, 0.39481308],
        "properties": { "magmom": 0.0 },
        "label": "Rb",
        "xyz": [2.28965305063599, 0.41677086229329174, 5.73290304226258]
      },
      {
        "species": [{ "element": "Rb", "occu": 1 }],
        "abc": [0.38190455, 0.64505819, 0.12394814],
        "properties": { "magmom": 0.0 },
        "label": "Rb",
        "xyz": [2.8798534760278076, 8.364620420029176, -1.7367803713648222]
      },
      {
        "species": [{ "element": "Rb", "occu": 1 }],
        "abc": [0.88190355, 0.85494181, 0.87605186],
        "properties": { "magmom": 0.0 },
        "label": "Rb",
        "xyz": [6.650229760260157, 11.058460234970823, 8.368130381364821]
      },
      {
        "species": [{ "element": "Rb", "occu": 1 }],
        "abc": [0.61809645, 0.35494181, 0.87605186],
        "properties": { "magmom": 0.0 },
        "label": "Rb",
        "xyz": [4.6609217147398425, 4.571094879970822, 11.154585791364822]
      },
      {
        "species": [{ "element": "Rb", "occu": 1 }],
        "abc": [0.11809545, 0.14505819, 0.12394814],
        "properties": { "magmom": 0.0 },
        "label": "Rb",
        "xyz": [0.8905303489721925, 1.8772550650291775, 1.0496750386351776]
      },
      {
        "species": [{ "element": "Bi", "occu": 1 }],
        "abc": [0.20091124, 0.88088773, 0.57465312],
        "properties": { "magmom": 0.0 },
        "label": "Bi",
        "xyz": [1.515024979113386, 11.406860755408609, 3.705353096628431]
      },
      {
        "species": [{ "element": "Bi", "occu": 1 }],
        "abc": [0.70091124, 0.61911227, 0.42534688],
        "properties": { "magmom": 0.0 },
        "label": "Bi",
        "xyz": [5.285408804113387, 8.016219899591391, 2.925996913371569]
      },
      {
        "species": [{ "element": "Bi", "occu": 1 }],
        "abc": [0.7990887600000001, 0.11911227, 0.42534688],
        "properties": { "magmom": 0.0 },
        "label": "Bi",
        "xyz": [6.025742670886615, 1.5288545445913908, 5.7124523233715685]
      },
      {
        "species": [{ "element": "Bi", "occu": 1 }],
        "abc": [0.29908876, 0.38088773000000004, 0.57465312],
        "properties": { "magmom": 0.0 },
        "label": "Bi",
        "xyz": [2.2553588458866143, 4.919495400408609, 6.491808506628431]
      },
      {
        "species": [{ "element": "Bi", "occu": 1 }],
        "abc": [0.43337471, 0.76980194, 0.39815694],
        "properties": { "magmom": -0.0 },
        "label": "Bi",
        "xyz": [3.2679779934961317, 9.972438615277131, 1.6786201458437153]
      },
      {
        "species": [{ "element": "Bi", "occu": 1 }],
        "abc": [0.93337471, 0.73019806, 0.60184306],
        "properties": { "magmom": -0.0 },
        "label": "Bi",
        "xyz": [7.038361818496132, 9.450642039722867, 4.952729864156285]
      },
      {
        "species": [{ "element": "Bi", "occu": 1 }],
        "abc": [0.5666252900000001, 0.23019806, 0.60184306],
        "properties": { "magmom": -0.0 },
        "label": "Bi",
        "xyz": [4.272789656503869, 2.963276684722868, 7.739185274156284]
      },
      {
        "species": [{ "element": "Bi", "occu": 1 }],
        "abc": [0.06662529, 0.26980194, 0.39815694],
        "properties": { "magmom": -0.0 },
        "label": "Bi",
        "xyz": [0.5024058315038685, 3.485073260277132, 4.465075555843715]
      },
      {
        "species": [{ "element": "Bi", "occu": 1 }],
        "abc": [0.1264832, 0.86354676, 0.10450044],
        "properties": { "magmom": 0.0 },
        "label": "Bi",
        "xyz": [0.95378042282848, 11.200209538981218, -3.2459326393847974]
      },
      {
        "species": [{ "element": "Bi", "occu": 1 }],
        "abc": [0.6264832, 0.63645324, 0.89549956],
        "properties": { "magmom": 0.0 },
        "label": "Bi",
        "xyz": [4.72416424782848, 8.22287111601878, 9.877282649384798]
      },
      {
        "species": [{ "element": "Bi", "occu": 1 }],
        "abc": [0.8735168, 0.13645324, 0.89549956],
        "properties": { "magmom": 0.0 },
        "label": "Bi",
        "xyz": [6.58698722717152, 1.7355057610187807, 12.663738059384798]
      },
      {
        "species": [{ "element": "Bi", "occu": 1 }],
        "abc": [0.3735168, 0.36354676, 0.10450044],
        "properties": { "magmom": 0.0 },
        "label": "Bi",
        "xyz": [2.81660340217152, 4.712844183981219, -0.4594772293847975]
      },
      {
        "species": [{ "element": "Bi", "occu": 1 }],
        "abc": [0.86599129, 0.6872169300000001, 0.07159494],
        "properties": { "magmom": -0.0 },
        "label": "Bi",
        "xyz": [6.530239104813768, 8.913661300164895, -2.7565392351243574]
      },
      {
        "species": [{ "element": "Bi", "occu": 1 }],
        "abc": [0.36599129, 0.81278307, 0.92840506],
        "properties": { "magmom": -0.0 },
        "label": "Bi",
        "xyz": [2.759855279813769, 10.509419354835105, 9.387889245124356]
      },
      {
        "species": [{ "element": "Bi", "occu": 1 }],
        "abc": [0.13400871, 0.31278307, 0.92840506],
        "properties": { "magmom": -0.0 },
        "label": "Bi",
        "xyz": [1.0105285451862316, 4.022053999835105, 12.174344655124356]
      },
      {
        "species": [{ "element": "Bi", "occu": 1 }],
        "abc": [0.63400871, 0.18721693, 0.07159494],
        "properties": { "magmom": -0.0 },
        "label": "Bi",
        "xyz": [4.780912370186232, 2.426295945164895, 0.02991617487564291]
      }
    ]
  },
  "task_ids": null,
  "uncorrected_energy_per_atom": null,
  "energy_per_atom": -2.776724492812498,
  "formation_energy_per_atom": -0.34144030156249905,
  "energy_above_hull": 0.0,
  "is_stable": true,
  "equilibrium_reaction_energy_per_atom": null,
  "decomposes_to": null,
  "xas": null,
  "grain_boundaries": null,
  "band_gap": 0.38619999999999904,
  "cbm": null,
  "vbm": null,
  "efermi": 1.9226344,
  "is_gap_direct": null,
  "is_metal": null,
  "es_source_calc_id": null,
  "bandstructure": null,
  "dos": null,
  "dos_energy_up": null,
  "dos_energy_down": null,
  "is_magnetic": null,
  "ordering": null,
  "total_magnetization": 0.0,
  "total_magnetization_normalized_vol": null,
  "total_magnetization_normalized_formula_units": null,
  "num_magnetic_sites": null,
  "num_unique_magnetic_sites": null,
  "types_of_magnetic_species": null,
  "bulk_modulus": null,
  "shear_modulus": null,
  "universal_anisotropy": null,
  "homogeneous_poisson": null,
  "e_total": null,
  "e_ionic": null,
  "e_electronic": null,
  "n": null,
  "e_ij_max": null,
  "weighted_surface_energy_EV_PER_ANG2": null,
  "weighted_surface_energy": null,
  "weighted_work_function": null,
  "surface_anisotropy": null,
  "shape_factor": null,
  "has_reconstructed": null,
  "possible_species": null,
  "has_props": null,
  "theoretical": null,
  "database_IDs": null,
  "fields_not_requested": [
    "builder_meta",
    "nsites",
    "elements",
    "nelements",
    "composition",
    "composition_reduced",
    "chemsys",
    "symmetry",
    "property_name",
    "deprecated",
    "deprecation_reasons",
    "last_updated",
    "origins",
    "warnings",
    "task_ids",
    "uncorrected_energy_per_atom",
    "equilibrium_reaction_energy_per_atom",
    "decomposes_to",
    "xas",
    "grain_boundaries",
    "cbm",
    "vbm",
    "is_gap_direct",
    "is_metal",
    "es_source_calc_id",
    "bandstructure",
    "dos",
    "dos_energy_up",
    "dos_energy_down",
    "is_magnetic",
    "ordering",
    "total_magnetization_normalized_vol",
    "total_magnetization_normalized_formula_units",
    "num_magnetic_sites",
    "num_unique_magnetic_sites",
    "types_of_magnetic_species",
    "bulk_modulus",
    "shear_modulus",
    "universal_anisotropy",
    "homogeneous_poisson",
    "e_total",
    "e_ionic",
    "e_electronic",
    "n",
    "e_ij_max",
    "weighted_surface_energy_EV_PER_ANG2",
    "weighted_surface_energy",
    "weighted_work_function",
    "surface_anisotropy",
    "shape_factor",
    "has_reconstructed",
    "possible_species",
    "has_props",
    "theoretical",
    "database_IDs"
  ]
}
