{"builder_meta": null, "nsites": null, "elements": null, "nelements": null, "composition": null, "composition_reduced": null, "formula_pretty": "RbC", "formula_anonymous": "AB", "chemsys": null, "volume": 448.25221679882384, "density": 2.888853218565817, "density_atomic": 28.01576354992649, "symmetry": null, "property_name": null, "material_id": "mp-10821", "deprecated": null, "deprecation_reasons": null, "last_updated": null, "origins": null, "warnings": null, "structure": {"@module": "pymatgen.core.structure", "@class": "Structure", "charge": 0, "lattice": {"matrix": [[4.800649, 0.0, 0.0], [0.0, 9.474949, 0.0], [0.0, 0.0, 9.85475]], "pbc": [true, true, true], "a": 4.800649, "b": 9.474949, "c": 9.85475, "alpha": 90.0, "beta": 90.0, "gamma": 90.0, "volume": 448.25221679882384}, "properties": {}, "sites": [{"species": [{"element": "Rb", "occu": 1}], "abc": [0.25, 0.9870779999999991, 0.668543999999999], "properties": {"magmom": -0.0}, "label": "Rb", "xyz": [1.20016225, 9.352513709021991, 6.5883339839999895]}, {"species": [{"element": "Rb", "occu": 1}], "abc": [0.75, 0.012922, 0.331456], "properties": {"magmom": -0.0}, "label": "Rb", "xyz": [3.60048675, 0.122435290978, 3.2664160159999995]}, {"species": [{"element": "Rb", "occu": 1}], "abc": [0.25, 0.487077999999999, 0.831456], "properties": {"magmom": -0.0}, "label": "Rb", "xyz": [1.20016225, 4.615039209021991, 8.193791015999999]}, {"species": [{"element": "Rb", "occu": 1}], "abc": [0.75, 0.512922, 0.168544], "properties": {"magmom": -0.0}, "label": "Rb", "xyz": [3.60048675, 4.8599097909780005, 1.6609589839999999]}, {"species": [{"element": "Rb", "occu": 1}], "abc": [0.25, 0.339176, 0.427743], "properties": {"magmom": 0.0}, "label": "Rb", "xyz": [1.20016225, 3.213675302024, 4.21530032925]}, {"species": [{"element": "Rb", "occu": 1}], "abc": [0.75, 0.660824, 0.572257], "properties": {"magmom": 0.0}, "label": "Rb", "xyz": [3.60048675, 6.261273697976, 5.6394496707499995]}, {"species": [{"element": "Rb", "occu": 1}], "abc": [0.25, 0.839175999999999, 0.072257], "properties": {"magmom": 0.0}, "label": "Rb", "xyz": [1.20016225, 7.951149802023991, 0.71207467075]}, {"species": [{"element": "Rb", "occu": 1}], "abc": [0.75, 0.160824, 0.927743], "properties": {"magmom": 0.0}, "label": "Rb", "xyz": [3.60048675, 1.523799197976, 9.142675329249998]}, {"species": [{"element": "C", "occu": 1}], "abc": [0.25, 0.668721, 0.353338], "properties": {"magmom": -0.0}, "label": "C", "xyz": [1.20016225, 6.336097370229, 3.4820576555]}, {"species": [{"element": "C", "occu": 1}], "abc": [0.75, 0.331279, 0.646662], "properties": {"magmom": -0.0}, "label": "C", "xyz": [3.60048675, 3.138851629771, 6.372692344499999]}, {"species": [{"element": "C", "occu": 1}], "abc": [0.25, 0.168720999999999, 0.146662], "properties": {"magmom": -0.0}, "label": "C", "xyz": [1.20016225, 1.5986228702289906, 1.4453173444999998]}, {"species": [{"element": "C", "occu": 1}], "abc": [0.75, 0.831279, 0.853337999999999], "properties": {"magmom": -0.0}, "label": "C", "xyz": [3.60048675, 7.876326129771001, 8.40943265549999]}, {"species": [{"element": "C", "occu": 1}], "abc": [0.25, 0.789423, 0.409327999999999], "properties": {"magmom": 0.0}, "label": "C", "xyz": [1.20016225, 7.479742664427, 4.0338251079999905]}, {"species": [{"element": "C", "occu": 1}], "abc": [0.75, 0.210577, 0.590672], "properties": {"magmom": 0.0}, "label": "C", "xyz": [3.60048675, 1.995206335573, 5.820924891999999]}, {"species": [{"element": "C", "occu": 1}], "abc": [0.25, 0.289423, 0.090672], "properties": {"magmom": 0.0}, "label": "C", "xyz": [1.20016225, 2.742268164427, 0.8935498919999999]}, {"species": [{"element": "C", "occu": 1}], "abc": [0.75, 0.710577, 0.909327999999999], "properties": {"magmom": 0.0}, "label": "C", "xyz": [3.60048675, 6.732680835573, 8.96120010799999]}]}, "task_ids": null, "uncorrected_energy_per_atom": null, "energy_per_atom": -4.78630846875, "formation_energy_per_atom": 0.318291313749999, "energy_above_hull": 0.33760951515625004, "is_stable": false, "equilibrium_reaction_energy_per_atom": null, "decomposes_to": null, "xas": null, "grain_boundaries": null, "band_gap": 3.5275, "cbm": null, "vbm": null, "efermi": -0.19774472, "is_gap_direct": null, "is_metal": null, "es_source_calc_id": null, "bandstructure": null, "dos": null, "dos_energy_up": null, "dos_energy_down": null, "is_magnetic": null, "ordering": null, "total_magnetization": 0.0, "total_magnetization_normalized_vol": null, "total_magnetization_normalized_formula_units": null, "num_magnetic_sites": null, "num_unique_magnetic_sites": null, "types_of_magnetic_species": null, "bulk_modulus": null, "shear_modulus": null, "universal_anisotropy": null, "homogeneous_poisson": null, "e_total": null, "e_ionic": null, "e_electronic": null, "n": null, "e_ij_max": null, "weighted_surface_energy_EV_PER_ANG2": null, "weighted_surface_energy": null, "weighted_work_function": null, "surface_anisotropy": null, "shape_factor": null, "has_reconstructed": null, "possible_species": null, "has_props": null, "theoretical": null, "database_IDs": null, "fields_not_requested": ["builder_meta", "nsites", "elements", "nelements", "composition", "composition_reduced", "chemsys", "symmetry", "property_name", "deprecated", "deprecation_reasons", "last_updated", "origins", "warnings", "task_ids", "uncorrected_energy_per_atom", "equilibrium_reaction_energy_per_atom", "decomposes_to", "xas", "grain_boundaries", "cbm", "vbm", "is_gap_direct", "is_metal", "es_source_calc_id", "bandstructure", "dos", "dos_energy_up", "dos_energy_down", "is_magnetic", "ordering", "total_magnetization_normalized_vol", "total_magnetization_normalized_formula_units", "num_magnetic_sites", "num_unique_magnetic_sites", "types_of_magnetic_species", "bulk_modulus", "shear_modulus", "universal_anisotropy", "homogeneous_poisson", "e_total", "e_ionic", "e_electronic", "n", "e_ij_max", "weighted_surface_energy_EV_PER_ANG2", "weighted_surface_energy", "weighted_work_function", "surface_anisotropy", "shape_factor", "has_reconstructed", "possible_species", "has_props", "theoretical", "database_IDs"]}