{"builder_meta": null, "nsites": null, "elements": null, "nelements": null, "composition": null, "composition_reduced": null, "formula_pretty": "RbC2", "formula_anonymous": "AB2", "chemsys": null, "volume": 166.79199759167278, "density": 2.180093728667684, "density_atomic": 27.798666265278797, "symmetry": null, "property_name": null, "material_id": "mp-1077369", "deprecated": null, "deprecation_reasons": null, "last_updated": null, "origins": null, "warnings": null, "structure": {"@module": "pymatgen.core.structure", "@class": "Structure", "charge": 0, "lattice": {"matrix": [[4.615185, 0.0, 0.0], [0.0, 4.615185, 0.0], [0.0, 0.0, 7.830635]], "pbc": [true, true, true], "a": 4.615185, "b": 4.615185, "c": 7.830635, "alpha": 90.0, "beta": 90.0, "gamma": 90.0, "volume": 166.79199759167278}, "properties": {}, "sites": [{"species": [{"element": "Rb", "occu": 1}], "abc": [0.0, 0.5, 0.261513], "properties": {"magmom": 0.013000000000000001}, "label": "Rb", "xyz": [0.0, 2.3075925, 2.0478128507549997]}, {"species": [{"element": "Rb", "occu": 1}], "abc": [0.5, 0.0, 0.738487], "properties": {"magmom": 0.013000000000000001}, "label": "Rb", "xyz": [2.3075925, 0.0, 5.782822149245]}, {"species": [{"element": "C", "occu": 1}], "abc": [0.0, 0.5, 0.651991], "properties": {"magmom": 0.301}, "label": "C", "xyz": [0.0, 2.3075925, 5.105503544285]}, {"species": [{"element": "C", "occu": 1}], "abc": [0.5, 0.0, 0.348008999999999], "properties": {"magmom": 0.301}, "label": "C", "xyz": [2.3075925, 0.0, 2.725131455714992]}, {"species": [{"element": "C", "occu": 1}], "abc": [0.0, 0.5, 0.813307999999999], "properties": {"magmom": 0.307}, "label": "C", "xyz": [0.0, 2.3075925, 6.368718090579993]}, {"species": [{"element": "C", "occu": 1}], "abc": [0.5, 0.0, 0.186692], "properties": {"magmom": 0.307}, "label": "C", "xyz": [2.3075925, 0.0, 1.46191690942]}]}, "task_ids": null, "uncorrected_energy_per_atom": null, "energy_per_atom": -5.177317715, "formation_energy_per_atom": 1.301970637499999, "energy_above_hull": 1.327728239375, "is_stable": false, "equilibrium_reaction_energy_per_atom": null, "decomposes_to": null, "xas": null, "grain_boundaries": null, "band_gap": 0.036999999999999006, "cbm": null, "vbm": null, "efermi": -2.38576851, "is_gap_direct": null, "is_metal": null, "es_source_calc_id": null, "bandstructure": null, "dos": null, "dos_energy_up": null, "dos_energy_down": null, "is_magnetic": null, "ordering": null, "total_magnetization": 1.9999911, "total_magnetization_normalized_vol": null, "total_magnetization_normalized_formula_units": null, "num_magnetic_sites": null, "num_unique_magnetic_sites": null, "types_of_magnetic_species": null, "bulk_modulus": null, "shear_modulus": null, "universal_anisotropy": null, "homogeneous_poisson": null, "e_total": null, "e_ionic": null, "e_electronic": null, "n": null, "e_ij_max": null, "weighted_surface_energy_EV_PER_ANG2": null, "weighted_surface_energy": null, "weighted_work_function": null, "surface_anisotropy": null, "shape_factor": null, "has_reconstructed": null, "possible_species": null, "has_props": null, "theoretical": null, "database_IDs": null, "fields_not_requested": ["builder_meta", "nsites", "elements", "nelements", "composition", "composition_reduced", "chemsys", "symmetry", "property_name", "deprecated", "deprecation_reasons", "last_updated", "origins", "warnings", "task_ids", "uncorrected_energy_per_atom", "equilibrium_reaction_energy_per_atom", "decomposes_to", "xas", "grain_boundaries", "cbm", "vbm", "is_gap_direct", "is_metal", "es_source_calc_id", "bandstructure", "dos", "dos_energy_up", "dos_energy_down", "is_magnetic", "ordering", "total_magnetization_normalized_vol", "total_magnetization_normalized_formula_units", "num_magnetic_sites", "num_unique_magnetic_sites", "types_of_magnetic_species", "bulk_modulus", "shear_modulus", "universal_anisotropy", "homogeneous_poisson", "e_total", "e_ionic", "e_electronic", "n", "e_ij_max", "weighted_surface_energy_EV_PER_ANG2", "weighted_surface_energy", "weighted_work_function", "surface_anisotropy", "shape_factor", "has_reconstructed", "possible_species", "has_props", "theoretical", "database_IDs"]}