{
  "builder_meta": null,
  "nsites": null,
  "elements": null,
  "nelements": null,
  "composition": null,
  "composition_reduced": null,
  "formula_pretty": "RbC8",
  "formula_anonymous": "AB8",
  "chemsys": null,
  "volume": 238.56140065139675,
  "density": 2.527454253293858,
  "density_atomic": 13.25341114729982,
  "symmetry": null,
  "property_name": null,
  "material_id": "mp-568643",
  "deprecated": null,
  "deprecation_reasons": null,
  "last_updated": null,
  "origins": null,
  "warnings": null,
  "structure": {
    "@module": "pymatgen.core.structure",
    "@class": "Structure",
    "charge": 0,
    "lattice": {
      "matrix": [
        [4.92490291, -0.00029811000000000003, -0.5306958900000001],
        [-2.54827195, 4.21447728, -0.53010961],
        [-0.008130450000000001, -0.01270474, 11.49739445]
      ],
      "pbc": [true, true, true],
      "a": 4.953413660240677,
      "b": 4.953435663598282,
      "c": 11.497404344178145,
      "alpha": 96.17668768416475,
      "beta": 96.19083510059617,
      "gamma": 120.00462005027248,
      "volume": 238.56140065139675
    },
    "properties": {},
    "sites": [
      {
        "species": [{ "element": "Rb", "occu": 1 }],
        "abc": [0.87517674, 0.12483458, 0.2499334],
        "properties": { "magmom": 0.0 },
        "label": "Rb",
        "xyz": [3.9900159439742526, 0.522676263366065, 2.3429541765697177]
      },
      {
        "species": [{ "element": "Rb", "occu": 1 }],
        "abc": [0.12482326, 0.87516542, 0.750066599999999],
        "properties": { "magmom": 0.0 },
        "label": "Rb",
        "xyz": [-1.6215154339742526, 3.6787981666339347, 8.09363477343027]
      },
      {
        "species": [{ "element": "C", "occu": 1 }],
        "abc": [0.83325858, 0.41657336, 0.5000446],
        "properties": { "magmom": -0.029 },
        "label": "C",
        "xyz": [3.038109809401145, 1.7490376218265729, 5.086173563673244]
      },
      {
        "species": [{ "element": "C", "occu": 1 }],
        "abc": [0.58344377, 0.16675402, 0.99995286],
        "properties": { "magmom": 0.029 },
        "label": "C",
        "xyz": [2.4403392622480453, 0.6899029571178344, 11.09882334353239]
      },
      {
        "species": [{ "element": "C", "occu": 1 }],
        "abc": [0.16680217, 0.08349544, 0.50005574],
        "properties": { "magmom": -0.029 },
        "label": "C",
        "xyz": [0.6046497265311237, 0.3454868313064969, 5.6165551285693835]
      },
      {
        "species": [{ "element": "C", "occu": 1 }],
        "abc": [0.83319783, 0.91650456, 0.49994426000000003],
        "properties": { "magmom": -0.029 },
        "label": "C",
        "xyz": [1.7638507834688761, 3.855987598693503, 4.820033821430616]
      },
      {
        "species": [{ "element": "C", "occu": 1 }],
        "abc": [0.66569397, 0.58232259, 0.49765282],
        "properties": { "magmom": -0.029 },
        "label": "C",
        "xyz": [1.7905157067037334, 2.4476643254679917, 5.059734915738976]
      },
      {
        "species": [{ "element": "C", "occu": 1 }],
        "abc": [0.08468374000000001, 0.6680467800000001, 0.0023561],
        "properties": { "magmom": 0.028 },
        "label": "C",
        "xyz": [-1.2853248293593829, 2.815412797579513, -0.37199031971173946]
      },
      {
        "species": [{ "element": "C", "occu": 1 }],
        "abc": [0.41655623, 0.83324598, 4.7140000000000006e-5],
        "properties": { "magmom": 0.029 },
        "label": "C",
        "xyz": [-0.07183875224804472, 3.5115714728821654, -0.6622343935323896]
      },
      {
        "species": [{ "element": "C", "occu": 1 }],
        "abc": [0.33430603000000003, 0.41767741, 0.50234718],
        "properties": { "magmom": -0.029 },
        "label": "C",
        "xyz": [0.5779848032962668, 1.7538101045320083, 5.376854034261024]
      },
      {
        "species": [{ "element": "C", "occu": 1 }],
        "abc": [0.66802015, 0.08464549, 0.5023396],
        "properties": { "magmom": -0.029 },
        "label": "C",
        "xyz": [3.070150405811811, 0.35015525696284666, 5.376209593320878]
      },
      {
        "species": [{ "element": "C", "occu": 1 }],
        "abc": [0.91531626, 0.33195322, 0.997643899999999],
        "properties": { "magmom": 0.028 },
        "label": "C",
        "xyz": [3.6538253393593823, 1.3860616324204869, 10.808579269711727]
      },
      {
        "species": [{ "element": "C", "occu": 1 }],
        "abc": [0.08348179, 0.16678464, 5.204e-5],
        "properties": { "magmom": 0.029 },
        "label": "C",
        "xyz": [-0.013873332408457142, 0.7028845280218927, -0.13211925890005552]
      },
      {
        "species": [{ "element": "C", "occu": 1 }],
        "abc": [0.16674142, 0.58342664, 0.4999554],
        "properties": { "magmom": -0.029 },
        "label": "C",
        "xyz": [-0.6696092994011459, 2.4524368081734265, 5.350415386326756]
      },
      {
        "species": [{ "element": "C", "occu": 1 }],
        "abc": [0.91651821, 0.8332153600000001, 0.99994796],
        "properties": { "magmom": 0.029 },
        "label": "C",
        "xyz": [2.382373842408457, 3.4985899019781073, 10.568708208900055]
      },
      {
        "species": [{ "element": "C", "occu": 1 }],
        "abc": [0.33197985, 0.91535451, 0.4976604],
        "properties": { "magmom": -0.029 },
        "label": "C",
        "xyz": [-0.701649895811811, 3.8513191730371528, 5.060379356679122]
      },
      {
        "species": [{ "element": "C", "occu": 1 }],
        "abc": [0.58229234, 0.6656665700000001, 0.9976417200000001],
        "properties": { "magmom": 0.028 },
        "label": "C",
        "xyz": [1.1633225152306237, 2.7925882694852997, 10.808383977187233]
      },
      {
        "species": [{ "element": "C", "occu": 1 }],
        "abc": [0.41770766000000004, 0.33433243, 0.00235828],
        "properties": { "magmom": 0.028 },
        "label": "C",
        "xyz": [1.205180543041326, 1.4088819460374205, -0.37179449707762374]
      }
    ]
  },
  "task_ids": null,
  "uncorrected_energy_per_atom": null,
  "energy_per_atom": -8.346549915,
  "formation_energy_per_atom": -0.034343469166666,
  "energy_above_hull": 0.0,
  "is_stable": true,
  "equilibrium_reaction_energy_per_atom": null,
  "decomposes_to": null,
  "xas": null,
  "grain_boundaries": null,
  "band_gap": 0.0,
  "cbm": null,
  "vbm": null,
  "efermi": 4.13407378,
  "is_gap_direct": null,
  "is_metal": null,
  "es_source_calc_id": null,
  "bandstructure": null,
  "dos": null,
  "dos_energy_up": null,
  "dos_energy_down": null,
  "is_magnetic": null,
  "ordering": null,
  "total_magnetization": 0.0009282,
  "total_magnetization_normalized_vol": null,
  "total_magnetization_normalized_formula_units": null,
  "num_magnetic_sites": null,
  "num_unique_magnetic_sites": null,
  "types_of_magnetic_species": null,
  "bulk_modulus": null,
  "shear_modulus": null,
  "universal_anisotropy": null,
  "homogeneous_poisson": null,
  "e_total": null,
  "e_ionic": null,
  "e_electronic": null,
  "n": null,
  "e_ij_max": null,
  "weighted_surface_energy_EV_PER_ANG2": null,
  "weighted_surface_energy": null,
  "weighted_work_function": null,
  "surface_anisotropy": null,
  "shape_factor": null,
  "has_reconstructed": null,
  "possible_species": null,
  "has_props": null,
  "theoretical": null,
  "database_IDs": null,
  "fields_not_requested": [
    "builder_meta",
    "nsites",
    "elements",
    "nelements",
    "composition",
    "composition_reduced",
    "chemsys",
    "symmetry",
    "property_name",
    "deprecated",
    "deprecation_reasons",
    "last_updated",
    "origins",
    "warnings",
    "task_ids",
    "uncorrected_energy_per_atom",
    "equilibrium_reaction_energy_per_atom",
    "decomposes_to",
    "xas",
    "grain_boundaries",
    "cbm",
    "vbm",
    "is_gap_direct",
    "is_metal",
    "es_source_calc_id",
    "bandstructure",
    "dos",
    "dos_energy_up",
    "dos_energy_down",
    "is_magnetic",
    "ordering",
    "total_magnetization_normalized_vol",
    "total_magnetization_normalized_formula_units",
    "num_magnetic_sites",
    "num_unique_magnetic_sites",
    "types_of_magnetic_species",
    "bulk_modulus",
    "shear_modulus",
    "universal_anisotropy",
    "homogeneous_poisson",
    "e_total",
    "e_ionic",
    "e_electronic",
    "n",
    "e_ij_max",
    "weighted_surface_energy_EV_PER_ANG2",
    "weighted_surface_energy",
    "weighted_work_function",
    "surface_anisotropy",
    "shape_factor",
    "has_reconstructed",
    "possible_species",
    "has_props",
    "theoretical",
    "database_IDs"
  ]
}
