{"builder_meta": null, "nsites": null, "elements": null, "nelements": null, "composition": null, "composition_reduced": null, "formula_pretty": "RbF3", "formula_anonymous": "AB3", "chemsys": null, "volume": 308.9702442472475, "density": 3.062630106178171, "density_atomic": 19.310640265452967, "symmetry": null, "property_name": null, "material_id": "mp-726170", "deprecated": null, "deprecation_reasons": null, "last_updated": null, "origins": null, "warnings": null, "structure": {"@module": "pymatgen.core.structure", "@class": "Structure", "charge": 0, "lattice": {"matrix": [[6.887774, 0.0, 0.0], [0.0, 4.642842, 0.0], [0.0, 0.183014999999999, 9.661707]], "pbc": [true, true, true], "a": 6.887774, "b": 4.642842, "c": 9.663440207507572, "alpha": 88.91481565366112, "beta": 90.0, "gamma": 90.0, "volume": 308.9702442472475}, "properties": {}, "sites": [{"species": [{"element": "Rb", "occu": 1}], "abc": [0.232246999999999, 0.071299, 0.370724999999999], "properties": {"magmom": 0.0}, "label": "Rb", "xyz": [1.5996648481779931, 0.39887822763299946, 3.5818363275749907]}, {"species": [{"element": "Rb", "occu": 1}], "abc": [0.263071, 0.396673999999999, 0.876108999999999], "properties": {"magmom": -0.0}, "label": "Rb", "xyz": [1.811973593954, 2.0020357961429944, 8.46470845806299]}, {"species": [{"element": "Rb", "occu": 1}], "abc": [0.732247, 0.928701, 0.629274999999999], "properties": {"magmom": 0.0}, "label": "Rb", "xyz": [5.043551848178, 4.426978772366999, 6.079870672424991]}, {"species": [{"element": "Rb", "occu": 1}], "abc": [0.7630709999999991, 0.603325999999999, 0.123891], "properties": {"magmom": -0.0}, "label": "Rb", "xyz": [5.255860593953994, 2.8238212038569954, 1.196998541937]}, {"species": [{"element": "F", "occu": 1}], "abc": [0.042905, 0.036050000000000006, 0.071968999999999], "properties": {"magmom": -0.0}, "label": "F", "xyz": [0.29551994347, 0.18054586063499975, 0.6953433910829904]}, {"species": [{"element": "F", "occu": 1}], "abc": [0.462677, 0.479846999999999, 0.590260999999999], "properties": {"magmom": -0.0}, "label": "F", "xyz": [3.1868146109980002, 2.335880422088995, 5.702928835526991]}, {"species": [{"element": "F", "occu": 1}], "abc": [0.542905, 0.9639500000000001, 0.928030999999999], "properties": {"magmom": -0.0}, "label": "F", "xyz": [3.73940694347, 4.645311139364999, 8.966363608916991]}, {"species": [{"element": "F", "occu": 1}], "abc": [0.962677, 0.520153, 0.409738999999999], "properties": {"magmom": -0.0}, "label": "F", "xyz": [6.630701610998, 2.4899765779109995, 3.9587781644729905]}, {"species": [{"element": "F", "occu": 1}], "abc": [0.633236, 0.982430999999999, 0.331906], "properties": {"magmom": -0.0}, "label": "F", "xyz": [4.361586456664, 4.622015685491996, 3.206778523542]}, {"species": [{"element": "F", "occu": 1}], "abc": [0.863088, 0.508899, 0.830010999999999], "properties": {"magmom": -0.0}, "label": "F", "xyz": [5.944755086112, 2.514642114122999, 8.019323088776991]}, {"species": [{"element": "F", "occu": 1}], "abc": [0.133236, 0.017568999999999002, 0.668094], "properties": {"magmom": -0.0}, "label": "F", "xyz": [0.917699456664, 0.2038413145079947, 6.454928476458]}, {"species": [{"element": "F", "occu": 1}], "abc": [0.363087999999999, 0.491100999999999, 0.169989], "properties": {"magmom": -0.0}, "label": "F", "xyz": [2.500868086111993, 2.3112148858769954, 1.642383911223]}, {"species": [{"element": "F", "occu": 1}], "abc": [0.202014, 0.7620600000000001, 0.119429], "properties": {"magmom": -0.0}, "label": "F", "xyz": [1.391426776836, 3.559981472955, 1.1538880053029998]}, {"species": [{"element": "F", "occu": 1}], "abc": [0.29955000000000004, 0.750258, 0.629232999999999], "properties": {"magmom": -0.0}, "label": "F", "xyz": [2.0632327017000005, 3.598488430730999, 6.079464880730991]}, {"species": [{"element": "F", "occu": 1}], "abc": [0.702013999999999, 0.23794, 0.880571], "properties": {"magmom": -0.0}, "label": "F", "xyz": [4.835313776835993, 1.2658755270449993, 8.507818994697]}, {"species": [{"element": "F", "occu": 1}], "abc": [0.7995500000000001, 0.249742, 0.370766999999999], "properties": {"magmom": -0.0}, "label": "F", "xyz": [5.507119701700001, 1.2273685692689995, 3.5822421192689906]}]}, "task_ids": null, "uncorrected_energy_per_atom": null, "energy_per_atom": -3.494283715, "formation_energy_per_atom": -1.8137609156249992, "energy_above_hull": 0.0, "is_stable": true, "equilibrium_reaction_energy_per_atom": null, "decomposes_to": null, "xas": null, "grain_boundaries": null, "band_gap": 2.1173, "cbm": null, "vbm": null, "efermi": -4.36661626, "is_gap_direct": null, "is_metal": null, "es_source_calc_id": null, "bandstructure": null, "dos": null, "dos_energy_up": null, "dos_energy_down": null, "is_magnetic": null, "ordering": null, "total_magnetization": 0.004580199999999, "total_magnetization_normalized_vol": null, "total_magnetization_normalized_formula_units": null, "num_magnetic_sites": null, "num_unique_magnetic_sites": null, "types_of_magnetic_species": null, "bulk_modulus": null, "shear_modulus": null, "universal_anisotropy": null, "homogeneous_poisson": null, "e_total": null, "e_ionic": null, "e_electronic": null, "n": null, "e_ij_max": null, "weighted_surface_energy_EV_PER_ANG2": null, "weighted_surface_energy": null, "weighted_work_function": null, "surface_anisotropy": null, "shape_factor": null, "has_reconstructed": null, "possible_species": null, "has_props": null, "theoretical": null, "database_IDs": null, "fields_not_requested": ["builder_meta", "nsites", "elements", "nelements", "composition", "composition_reduced", "chemsys", "symmetry", "property_name", "deprecated", "deprecation_reasons", "last_updated", "origins", "warnings", "task_ids", "uncorrected_energy_per_atom", "equilibrium_reaction_energy_per_atom", "decomposes_to", "xas", "grain_boundaries", "cbm", "vbm", "is_gap_direct", "is_metal", "es_source_calc_id", "bandstructure", "dos", "dos_energy_up", "dos_energy_down", "is_magnetic", "ordering", "total_magnetization_normalized_vol", "total_magnetization_normalized_formula_units", "num_magnetic_sites", "num_unique_magnetic_sites", "types_of_magnetic_species", "bulk_modulus", "shear_modulus", "universal_anisotropy", "homogeneous_poisson", "e_total", "e_ionic", "e_electronic", "n", "e_ij_max", "weighted_surface_energy_EV_PER_ANG2", "weighted_surface_energy", "weighted_work_function", "surface_anisotropy", "shape_factor", "has_reconstructed", "possible_species", "has_props", "theoretical", "database_IDs"]}