{"builder_meta": null, "nsites": null, "elements": null, "nelements": null, "composition": null, "composition_reduced": null, "formula_pretty": "RbGa3", "formula_anonymous": "AB3", "chemsys": null, "volume": 297.47879792633404, "density": 4.93402474665607, "density_atomic": 24.789899827194503, "symmetry": null, "property_name": null, "material_id": "mp-31493", "deprecated": null, "deprecation_reasons": null, "last_updated": null, "origins": null, "warnings": null, "structure": {"@module": "pymatgen.core.structure", "@class": "Structure", "charge": 0, "lattice": {"matrix": [[5.88718812, -0.0, -2.28432179], [-0.88635305, 5.82008329, -2.2843218], [-0.01330656, -0.01548821, 8.69413981]], "pbc": [true, true, true], "a": 6.314832539389936, "b": 6.314833118755932, "c": 8.694163788715672, "alpha": 111.29470437153904, "beta": 111.29469496534121, "gamma": 90.00000155602599, "volume": 297.47879792633404}, "properties": {}, "sites": [{"species": [{"element": "Rb", "occu": 1}], "abc": [0.0, 0.0, -0.0], "properties": {"magmom": -0.0}, "label": "Rb", "xyz": [0.0, 0.0, 0.0]}, {"species": [{"element": "Rb", "occu": 1}], "abc": [0.37185235, 0.87185235, 0.74370471], "properties": {"magmom": 0.0}, "label": "Rb", "xyz": [1.4064995963960172, 5.062734638855763, 3.6248509708415684]}, {"species": [{"element": "Rb", "occu": 1}], "abc": [0.12814765, 0.6281476500000001, 0.25629529], "properties": {"magmom": 0.0}, "label": "Rb", "xyz": [0.19425832860398304, 3.651902086144238, 0.5006452441584313]}, {"species": [{"element": "Ga", "occu": 1}], "abc": [0.5, 0.5, -0.0], "properties": {"magmom": -0.0}, "label": "Ga", "xyz": [2.500417535, 2.910041645, -2.284321795]}, {"species": [{"element": "Ga", "occu": 1}], "abc": [0.43063896, 0.22269158, 0.44538315], "properties": {"magmom": 0.0}, "label": "Ga", "xyz": [2.331942690570372, 1.2891853558240367, 2.379806184296819]}, {"species": [{"element": "Ga", "occu": 1}], "abc": [0.77730842, 0.56936104, 0.55461685], "properties": {"magmom": 0.0}, "label": "Ga", "xyz": [4.064125959053263, 3.305138652638683, 1.745690037782655]}, {"species": [{"element": "Ga", "occu": 1}], "abc": [0.77730842, 0.98525781, 0.55461685], "properties": {"magmom": 0.0}, "label": "Ga", "xyz": [3.6954945884786143, 5.725692494080657, 0.7956479795220686]}, {"species": [{"element": "Ga", "occu": 1}], "abc": [0.01474219, 0.22269158, 0.44538315], "properties": {"magmom": 0.0}, "label": "Ga", "xyz": [-0.1165198329200002, 1.2891853558240367, 3.329848238398437]}, {"species": [{"element": "Ga", "occu": 1}], "abc": [0.69705898, 0.39078659, 0.78157517], "properties": {"magmom": -0.0}, "label": "Ga", "xyz": [3.7469423831556026, 2.2623053020513355, 4.310134456390681]}, {"species": [{"element": "Ga", "occu": 1}], "abc": [0.6092134100000001, 0.30294102, 0.21842483000000001], "properties": {"magmom": -0.0}, "label": "Ga", "xyz": [3.3151347697436937, 1.7597589587213016, -0.18463823332795748]}, {"species": [{"element": "Ga", "occu": 1}], "abc": [0.6092134100000001, 0.9154838, 0.21842483000000001], "properties": {"magmom": -0.0}, "label": "Ga", "xyz": [2.7722056084352147, 5.324808957009449, -1.5838830591145614]}, {"species": [{"element": "Ga", "occu": 1}], "abc": [0.0845162, 0.39078659, 0.78157517], "properties": {"magmom": -0.0}, "label": "Ga", "xyz": [0.14078780574782934, 2.2623053020513355, 5.709379276051857]}]}, "task_ids": null, "uncorrected_energy_per_atom": null, "energy_per_atom": -2.685012384166666, "formation_energy_per_atom": -0.16880684916666602, "energy_above_hull": 0.0, "is_stable": true, "equilibrium_reaction_energy_per_atom": null, "decomposes_to": null, "xas": null, "grain_boundaries": null, "band_gap": 0.147199999999999, "cbm": null, "vbm": null, "efermi": 2.3851439, "is_gap_direct": null, "is_metal": null, "es_source_calc_id": null, "bandstructure": null, "dos": null, "dos_energy_up": null, "dos_energy_down": null, "is_magnetic": null, "ordering": null, "total_magnetization": 0.0, "total_magnetization_normalized_vol": null, "total_magnetization_normalized_formula_units": null, "num_magnetic_sites": null, "num_unique_magnetic_sites": null, "types_of_magnetic_species": null, "bulk_modulus": null, "shear_modulus": null, "universal_anisotropy": null, "homogeneous_poisson": null, "e_total": null, "e_ionic": null, "e_electronic": null, "n": null, "e_ij_max": null, "weighted_surface_energy_EV_PER_ANG2": null, "weighted_surface_energy": null, "weighted_work_function": null, "surface_anisotropy": null, "shape_factor": null, "has_reconstructed": null, "possible_species": null, "has_props": null, "theoretical": null, "database_IDs": null, "fields_not_requested": ["builder_meta", "nsites", "elements", "nelements", "composition", "composition_reduced", "chemsys", "symmetry", "property_name", "deprecated", "deprecation_reasons", "last_updated", "origins", "warnings", "task_ids", "uncorrected_energy_per_atom", "equilibrium_reaction_energy_per_atom", "decomposes_to", "xas", "grain_boundaries", "cbm", "vbm", "is_gap_direct", "is_metal", "es_source_calc_id", "bandstructure", "dos", "dos_energy_up", "dos_energy_down", "is_magnetic", "ordering", "total_magnetization_normalized_vol", "total_magnetization_normalized_formula_units", "num_magnetic_sites", "num_unique_magnetic_sites", "types_of_magnetic_species", "bulk_modulus", "shear_modulus", "universal_anisotropy", "homogeneous_poisson", "e_total", "e_ionic", "e_electronic", "n", "e_ij_max", "weighted_surface_energy_EV_PER_ANG2", "weighted_surface_energy", "weighted_work_function", "surface_anisotropy", "shape_factor", "has_reconstructed", "possible_species", "has_props", "theoretical", "database_IDs"]}