{
  "builder_meta": null,
  "nsites": null,
  "elements": null,
  "nelements": null,
  "composition": null,
  "composition_reduced": null,
  "formula_pretty": "RbGa7",
  "formula_anonymous": "AB7",
  "chemsys": null,
  "volume": 360.2027268178768,
  "density": 5.287949853315503,
  "density_atomic": 22.5126704261173,
  "symmetry": null,
  "property_name": null,
  "material_id": "mp-1460",
  "deprecated": null,
  "deprecation_reasons": null,
  "last_updated": null,
  "origins": null,
  "warnings": null,
  "structure": {
    "@module": "pymatgen.core.structure",
    "@class": "Structure",
    "charge": 0,
    "lattice": {
      "matrix": [
        [6.24709762, -0.01659773, 8.08324996],
        [2.74773086, 5.61039099, 8.08324996],
        [-0.02669078, -0.01659773, 10.21589177]
      ],
      "pbc": [true, true, true],
      "a": 10.215940195316866,
      "b": 10.21594057615399,
      "c": 10.21594012016182,
      "alpha": 37.84809680186926,
      "beta": 37.848099053652064,
      "gamma": 37.84809271810144,
      "volume": 360.20272681787674
    },
    "properties": {},
    "sites": [
      {
        "species": [{ "element": "Rb", "occu": 1 }],
        "abc": [0.19538159, 0.19538159, 0.19538159],
        "properties": { "magmom": -0.0 },
        "label": "Rb",
        "xyz": [1.7522090031649429, 1.0896813303922928, 5.154633636394987]
      },
      {
        "species": [{ "element": "Rb", "occu": 1 }],
        "abc": [0.80461841, 0.80461841, 0.80461841],
        "properties": { "magmom": -0.0 },
        "label": "Rb",
        "xyz": [7.215928696835057, 4.487514199607706, 21.227758053605015]
      },
      {
        "species": [{ "element": "Ga", "occu": 1 }],
        "abc": [0.45547478, 0.45547478, 0.45547478],
        "properties": { "magmom": 0.0 },
        "label": "Ga",
        "xyz": [4.084760545917206, 2.540271907043733, 12.01651405087658]
      },
      {
        "species": [{ "element": "Ga", "occu": 1 }],
        "abc": [0.54452522, 0.54452522, 0.54452522],
        "properties": { "magmom": 0.0 },
        "label": "Ga",
        "xyz": [4.883377154082794, 3.0369236229562664, 14.365877639123422]
      },
      {
        "species": [{ "element": "Ga", "occu": 1 }],
        "abc": [0.18182774000000002, 0.58030271, 0.18182774000000002],
        "properties": { "magmom": 0.0 },
        "label": "Ga",
        "xyz": [2.725558182006372, 3.2496892401865223, 8.018023442100983]
      },
      {
        "species": [{ "element": "Ga", "occu": 1 }],
        "abc": [0.18182774000000002, 0.18182774000000002, 0.58030271],
        "properties": { "magmom": 0.0 },
        "label": "Ga",
        "xyz": [1.6200206022400216, 1.0074750787941842, 8.867827823361477]
      },
      {
        "species": [{ "element": "Ga", "occu": 1 }],
        "abc": [0.58030271, 0.18182774000000002, 0.18182774000000002],
        "properties": { "magmom": 0.0 },
        "label": "Ga",
        "xyz": [4.119968246716369, 1.0074750787941842, 8.018023442100983]
      },
      {
        "species": [{ "element": "Ga", "occu": 1 }],
        "abc": [0.41969729, 0.81817226, 0.81817226],
        "properties": { "magmom": 0.0 },
        "label": "Ga",
        "xyz": [4.848169453283631, 4.569720451205816, 18.364368247899016]
      },
      {
        "species": [{ "element": "Ga", "occu": 1 }],
        "abc": [0.81817226, 0.41969729, 0.81817226],
        "properties": { "magmom": 0.0 },
        "label": "Ga",
        "xyz": [6.242579517993628, 2.327506289813477, 18.364368247899016]
      },
      {
        "species": [{ "element": "Ga", "occu": 1 }],
        "abc": [0.81817226, 0.81817226, 0.41969729],
        "properties": { "magmom": 0.0 },
        "label": "Ga",
        "xyz": [7.348117097759978, 4.569720451205816, 17.51456386663852]
      },
      {
        "species": [{ "element": "Ga", "occu": 1 }],
        "abc": [0.21600095, 0.79849612, 0.21600095],
        "properties": { "magmom": -0.0 },
        "label": "Ga",
        "xyz": [3.537666217340761, 4.472705186302272, 10.4070757279148]
      },
      {
        "species": [{ "element": "Ga", "occu": 1 }],
        "abc": [0.21600095, 0.21600095, 0.79849612],
        "properties": { "magmom": -0.0 },
        "label": "Ga",
        "xyz": [1.9215790124972822, 1.1950114352577896, 11.649329281579856]
      },
      {
        "species": [{ "element": "Ga", "occu": 1 }],
        "abc": [0.79849612, 0.21600095, 0.21600095],
        "properties": { "magmom": -0.0 },
        "label": "Ga",
        "xyz": [5.57603045309931, 1.1950114352577896, 10.4070757279148]
      },
      {
        "species": [{ "element": "Ga", "occu": 1 }],
        "abc": [0.20150388, 0.78399905, 0.78399905],
        "properties": { "magmom": -0.0 },
        "label": "Ga",
        "xyz": [3.3921072469006894, 4.38218409474221, 15.975315962085201]
      },
      {
        "species": [{ "element": "Ga", "occu": 1 }],
        "abc": [0.78399905, 0.20150388, 0.78399905],
        "properties": { "magmom": -0.0 },
        "label": "Ga",
        "xyz": [5.430471482659239, 1.104490343697728, 15.975315962085201]
      },
      {
        "species": [{ "element": "Ga", "occu": 1 }],
        "abc": [0.78399905, 0.78399905, 0.20150388],
        "properties": { "magmom": -0.0 },
        "label": "Ga",
        "xyz": [7.046558687502717, 4.38218409474221, 14.733062408420144]
      }
    ]
  },
  "task_ids": null,
  "uncorrected_energy_per_atom": null,
  "energy_per_atom": -2.875677025625,
  "formation_energy_per_atom": -0.103526246874999,
  "energy_above_hull": 0.0,
  "is_stable": true,
  "equilibrium_reaction_energy_per_atom": null,
  "decomposes_to": null,
  "xas": null,
  "grain_boundaries": null,
  "band_gap": 0.0,
  "cbm": null,
  "vbm": null,
  "efermi": 2.64033863,
  "is_gap_direct": null,
  "is_metal": null,
  "es_source_calc_id": null,
  "bandstructure": null,
  "dos": null,
  "dos_energy_up": null,
  "dos_energy_down": null,
  "is_magnetic": null,
  "ordering": null,
  "total_magnetization": 3e-7,
  "total_magnetization_normalized_vol": null,
  "total_magnetization_normalized_formula_units": null,
  "num_magnetic_sites": null,
  "num_unique_magnetic_sites": null,
  "types_of_magnetic_species": null,
  "bulk_modulus": null,
  "shear_modulus": null,
  "universal_anisotropy": null,
  "homogeneous_poisson": null,
  "e_total": null,
  "e_ionic": null,
  "e_electronic": null,
  "n": null,
  "e_ij_max": null,
  "weighted_surface_energy_EV_PER_ANG2": null,
  "weighted_surface_energy": null,
  "weighted_work_function": null,
  "surface_anisotropy": null,
  "shape_factor": null,
  "has_reconstructed": null,
  "possible_species": null,
  "has_props": null,
  "theoretical": null,
  "database_IDs": null,
  "fields_not_requested": [
    "builder_meta",
    "nsites",
    "elements",
    "nelements",
    "composition",
    "composition_reduced",
    "chemsys",
    "symmetry",
    "property_name",
    "deprecated",
    "deprecation_reasons",
    "last_updated",
    "origins",
    "warnings",
    "task_ids",
    "uncorrected_energy_per_atom",
    "equilibrium_reaction_energy_per_atom",
    "decomposes_to",
    "xas",
    "grain_boundaries",
    "cbm",
    "vbm",
    "is_gap_direct",
    "is_metal",
    "es_source_calc_id",
    "bandstructure",
    "dos",
    "dos_energy_up",
    "dos_energy_down",
    "is_magnetic",
    "ordering",
    "total_magnetization_normalized_vol",
    "total_magnetization_normalized_formula_units",
    "num_magnetic_sites",
    "num_unique_magnetic_sites",
    "types_of_magnetic_species",
    "bulk_modulus",
    "shear_modulus",
    "universal_anisotropy",
    "homogeneous_poisson",
    "e_total",
    "e_ionic",
    "e_electronic",
    "n",
    "e_ij_max",
    "weighted_surface_energy_EV_PER_ANG2",
    "weighted_surface_energy",
    "weighted_work_function",
    "surface_anisotropy",
    "shape_factor",
    "has_reconstructed",
    "possible_species",
    "has_props",
    "theoretical",
    "database_IDs"
  ]
}
