{
  "builder_meta": null,
  "nsites": null,
  "elements": null,
  "nelements": null,
  "composition": null,
  "composition_reduced": null,
  "formula_pretty": "RbGe3",
  "formula_anonymous": "AB3",
  "chemsys": null,
  "volume": 241.8557992672068,
  "density": 4.166013763211308,
  "density_atomic": 30.23197490840085,
  "symmetry": null,
  "property_name": null,
  "material_id": "mp-862769",
  "deprecated": null,
  "deprecation_reasons": null,
  "last_updated": null,
  "origins": null,
  "warnings": null,
  "structure": {
    "@module": "pymatgen.core.structure",
    "@class": "Structure",
    "charge": 0,
    "lattice": {
      "matrix": [
        [3.756457, -6.506374, 0.0],
        [3.756457, 6.506374, 0.0],
        [0.0, 0.0, 4.947765]
      ],
      "pbc": [true, true, true],
      "a": 7.512913670522576,
      "b": 7.512913670522576,
      "c": 4.947765,
      "alpha": 90.0,
      "beta": 90.0,
      "gamma": 119.9999970985889,
      "volume": 241.8557992672068
    },
    "properties": {},
    "sites": [
      {
        "species": [{ "element": "Rb", "occu": 1 }],
        "abc": [0.333333, 0.666667, 0.75],
        "properties": { "magmom": -0.0 },
        "label": "Rb",
        "xyz": [3.756457, 2.1687956709160003, 3.7108237500000003]
      },
      {
        "species": [{ "element": "Rb", "occu": 1 }],
        "abc": [0.666667, 0.333333, 0.25],
        "properties": { "magmom": -0.0 },
        "label": "Rb",
        "xyz": [3.756457, -2.1687956709160003, 1.23694125]
      },
      {
        "species": [{ "element": "Ge", "occu": 1 }],
        "abc": [0.117581999999999, 0.235163999999999, 0.25],
        "properties": { "magmom": 0.0 },
        "label": "Ge",
        "xyz": [1.3250751809219925, 0.765032467668, 1.23694125]
      },
      {
        "species": [{ "element": "Ge", "occu": 1 }],
        "abc": [0.764836, 0.882417999999999, 0.25],
        "properties": { "magmom": 0.0 },
        "label": "Ge",
        "xyz": [6.187838819077996, 0.7650324676679938, 1.23694125]
      },
      {
        "species": [{ "element": "Ge", "occu": 1 }],
        "abc": [0.117581999999999, 0.882417999999999, 0.25],
        "properties": { "magmom": 0.0 },
        "label": "Ge",
        "xyz": [3.7564569999999926, 4.976309064664, 1.23694125]
      },
      {
        "species": [{ "element": "Ge", "occu": 1 }],
        "abc": [0.882417999999999, 0.764836, 0.75],
        "properties": { "magmom": 0.0 },
        "label": "Ge",
        "xyz": [6.187838819077996, -0.7650324676679938, 3.7108237500000003]
      },
      {
        "species": [{ "element": "Ge", "occu": 1 }],
        "abc": [0.235163999999999, 0.117581999999999, 0.75],
        "properties": { "magmom": 0.0 },
        "label": "Ge",
        "xyz": [1.3250751809219925, -0.765032467668, 3.7108237500000003]
      },
      {
        "species": [{ "element": "Ge", "occu": 1 }],
        "abc": [0.882417999999999, 0.117581999999999, 0.75],
        "properties": { "magmom": 0.0 },
        "label": "Ge",
        "xyz": [3.7564569999999926, -4.976309064664, 3.7108237500000003]
      }
    ]
  },
  "task_ids": null,
  "uncorrected_energy_per_atom": null,
  "energy_per_atom": -3.7097242775,
  "formation_energy_per_atom": 0.002680131875,
  "energy_above_hull": 0.11748070798108501,
  "is_stable": false,
  "equilibrium_reaction_energy_per_atom": null,
  "decomposes_to": null,
  "xas": null,
  "grain_boundaries": null,
  "band_gap": 0.0,
  "cbm": null,
  "vbm": null,
  "efermi": 1.8551183,
  "is_gap_direct": null,
  "is_metal": null,
  "es_source_calc_id": null,
  "bandstructure": null,
  "dos": null,
  "dos_energy_up": null,
  "dos_energy_down": null,
  "is_magnetic": null,
  "ordering": null,
  "total_magnetization": 0.0006378,
  "total_magnetization_normalized_vol": null,
  "total_magnetization_normalized_formula_units": null,
  "num_magnetic_sites": null,
  "num_unique_magnetic_sites": null,
  "types_of_magnetic_species": null,
  "bulk_modulus": null,
  "shear_modulus": null,
  "universal_anisotropy": null,
  "homogeneous_poisson": null,
  "e_total": null,
  "e_ionic": null,
  "e_electronic": null,
  "n": null,
  "e_ij_max": null,
  "weighted_surface_energy_EV_PER_ANG2": null,
  "weighted_surface_energy": null,
  "weighted_work_function": null,
  "surface_anisotropy": null,
  "shape_factor": null,
  "has_reconstructed": null,
  "possible_species": null,
  "has_props": null,
  "theoretical": null,
  "database_IDs": null,
  "fields_not_requested": [
    "builder_meta",
    "nsites",
    "elements",
    "nelements",
    "composition",
    "composition_reduced",
    "chemsys",
    "symmetry",
    "property_name",
    "deprecated",
    "deprecation_reasons",
    "last_updated",
    "origins",
    "warnings",
    "task_ids",
    "uncorrected_energy_per_atom",
    "equilibrium_reaction_energy_per_atom",
    "decomposes_to",
    "xas",
    "grain_boundaries",
    "cbm",
    "vbm",
    "is_gap_direct",
    "is_metal",
    "es_source_calc_id",
    "bandstructure",
    "dos",
    "dos_energy_up",
    "dos_energy_down",
    "is_magnetic",
    "ordering",
    "total_magnetization_normalized_vol",
    "total_magnetization_normalized_formula_units",
    "num_magnetic_sites",
    "num_unique_magnetic_sites",
    "types_of_magnetic_species",
    "bulk_modulus",
    "shear_modulus",
    "universal_anisotropy",
    "homogeneous_poisson",
    "e_total",
    "e_ionic",
    "e_electronic",
    "n",
    "e_ij_max",
    "weighted_surface_energy_EV_PER_ANG2",
    "weighted_surface_energy",
    "weighted_work_function",
    "surface_anisotropy",
    "shape_factor",
    "has_reconstructed",
    "possible_species",
    "has_props",
    "theoretical",
    "database_IDs"
  ]
}
