{
  "builder_meta": null,
  "nsites": null,
  "elements": null,
  "nelements": null,
  "composition": null,
  "composition_reduced": null,
  "formula_pretty": "RbGe",
  "formula_anonymous": "AB",
  "chemsys": null,
  "volume": 2306.617201504555,
  "density": 3.642309487163144,
  "density_atomic": 36.04089377350867,
  "symmetry": null,
  "property_name": null,
  "material_id": "mp-1888",
  "deprecated": null,
  "deprecation_reasons": null,
  "last_updated": null,
  "origins": null,
  "warnings": null,
  "structure": {
    "@module": "pymatgen.core.structure",
    "@class": "Structure",
    "charge": 0,
    "lattice": {
      "matrix": [
        [13.21270815, 0.0, -0.0],
        [0.0, 13.21270815, 0.0],
        [-0.0, 0.0, 13.21270815]
      ],
      "pbc": [true, true, true],
      "a": 13.21270815,
      "b": 13.21270815,
      "c": 13.21270815,
      "alpha": 90.0,
      "beta": 90.0,
      "gamma": 90.0,
      "volume": 2306.617201504555
    },
    "properties": {},
    "sites": [
      {
        "species": [{ "element": "Rb", "occu": 1 }],
        "abc": [0.33369036, 0.33369036, 0.33369036],
        "properties": { "magmom": -0.0 },
        "label": "Rb",
        "xyz": [4.408953339148434, 4.408953339148434, 4.408953339148434]
      },
      {
        "species": [{ "element": "Rb", "occu": 1 }],
        "abc": [0.16630964, 0.83369036, 0.16630964],
        "properties": { "magmom": -0.0 },
        "label": "Rb",
        "xyz": [2.197400735851566, 11.015307414148433, 2.197400735851566]
      },
      {
        "species": [{ "element": "Rb", "occu": 1 }],
        "abc": [0.16630964, 0.16630964, 0.83369036],
        "properties": { "magmom": -0.0 },
        "label": "Rb",
        "xyz": [2.197400735851566, 2.197400735851566, 11.015307414148433]
      },
      {
        "species": [{ "element": "Rb", "occu": 1 }],
        "abc": [0.83369036, 0.16630964, 0.16630964],
        "properties": { "magmom": -0.0 },
        "label": "Rb",
        "xyz": [11.015307414148433, 2.197400735851566, 2.197400735851566]
      },
      {
        "species": [{ "element": "Rb", "occu": 1 }],
        "abc": [0.66630964, 0.66630964, 0.33369036],
        "properties": { "magmom": -0.0 },
        "label": "Rb",
        "xyz": [8.803754810851565, 8.803754810851565, 4.408953339148434]
      },
      {
        "species": [{ "element": "Rb", "occu": 1 }],
        "abc": [0.33369036, 0.66630964, 0.66630964],
        "properties": { "magmom": -0.0 },
        "label": "Rb",
        "xyz": [4.408953339148434, 8.803754810851565, 8.803754810851565]
      },
      {
        "species": [{ "element": "Rb", "occu": 1 }],
        "abc": [0.66630964, 0.33369036, 0.66630964],
        "properties": { "magmom": -0.0 },
        "label": "Rb",
        "xyz": [8.803754810851565, 4.408953339148434, 8.803754810851565]
      },
      {
        "species": [{ "element": "Rb", "occu": 1 }],
        "abc": [0.83369036, 0.83369036, 0.83369036],
        "properties": { "magmom": -0.0 },
        "label": "Rb",
        "xyz": [11.015307414148433, 11.015307414148433, 11.015307414148433]
      },
      {
        "species": [{ "element": "Rb", "occu": 1 }],
        "abc": [0.33690308, 0.13930973, 0.06534645],
        "properties": { "magmom": 0.0 },
        "label": "Rb",
        "xyz": [4.451402070876102, 1.8406588049452992, 0.8634035724885675]
      },
      {
        "species": [{ "element": "Rb", "occu": 1 }],
        "abc": [0.16309692, 0.5653464500000001, 0.36069027000000004],
        "properties": { "magmom": 0.0 },
        "label": "Rb",
        "xyz": [2.154952004123898, 7.469757647488568, 4.7656952700547]
      },
      {
        "species": [{ "element": "Rb", "occu": 1 }],
        "abc": [0.16309692, 0.43465355, 0.63930973],
        "properties": { "magmom": 0.0 },
        "label": "Rb",
        "xyz": [2.154952004123898, 5.742950502511432, 8.4470128799453]
      },
      {
        "species": [{ "element": "Rb", "occu": 1 }],
        "abc": [0.43465355, 0.36069027000000004, 0.83690308],
        "properties": { "magmom": 0.0 },
        "label": "Rb",
        "xyz": [5.742950502511432, 4.7656952700547, 11.057756145876102]
      },
      {
        "species": [{ "element": "Rb", "occu": 1 }],
        "abc": [0.5653464500000001, 0.36069027000000004, 0.16309692],
        "properties": { "magmom": 0.0 },
        "label": "Rb",
        "xyz": [7.469757647488568, 4.7656952700547, 2.154952004123898]
      },
      {
        "species": [{ "element": "Rb", "occu": 1 }],
        "abc": [0.63930973, 0.16309692, 0.43465355],
        "properties": { "magmom": 0.0 },
        "label": "Rb",
        "xyz": [8.4470128799453, 2.154952004123898, 5.742950502511432]
      },
      {
        "species": [{ "element": "Rb", "occu": 1 }],
        "abc": [0.36069027000000004, 0.83690308, 0.43465355],
        "properties": { "magmom": 0.0 },
        "label": "Rb",
        "xyz": [4.7656952700547, 11.057756145876102, 5.742950502511432]
      },
      {
        "species": [{ "element": "Rb", "occu": 1 }],
        "abc": [0.06534645, 0.33690308, 0.13930973],
        "properties": { "magmom": 0.0 },
        "label": "Rb",
        "xyz": [0.8634035724885675, 4.451402070876102, 1.8406588049452992]
      },
      {
        "species": [{ "element": "Rb", "occu": 1 }],
        "abc": [0.13930973, 0.06534645, 0.33690308],
        "properties": { "magmom": 0.0 },
        "label": "Rb",
        "xyz": [1.8406588049452992, 0.8634035724885675, 4.451402070876102]
      },
      {
        "species": [{ "element": "Rb", "occu": 1 }],
        "abc": [0.86069027, 0.93465355, 0.33690308],
        "properties": { "magmom": 0.0 },
        "label": "Rb",
        "xyz": [11.3720493450547, 12.349304577511433, 4.451402070876102]
      },
      {
        "species": [{ "element": "Rb", "occu": 1 }],
        "abc": [0.06534645, 0.66309692, 0.86069027],
        "properties": { "magmom": 0.0 },
        "label": "Rb",
        "xyz": [0.8634035724885675, 8.761306079123898, 11.3720493450547]
      },
      {
        "species": [{ "element": "Rb", "occu": 1 }],
        "abc": [0.86069027, 0.06534645, 0.66309692],
        "properties": { "magmom": 0.0 },
        "label": "Rb",
        "xyz": [11.3720493450547, 0.8634035724885675, 8.761306079123898]
      },
      {
        "species": [{ "element": "Rb", "occu": 1 }],
        "abc": [0.93465355, 0.66309692, 0.13930973],
        "properties": { "magmom": 0.0 },
        "label": "Rb",
        "xyz": [12.349304577511433, 8.761306079123898, 1.8406588049452992]
      },
      {
        "species": [{ "element": "Rb", "occu": 1 }],
        "abc": [0.93465355, 0.33690308, 0.86069027],
        "properties": { "magmom": 0.0 },
        "label": "Rb",
        "xyz": [12.349304577511433, 4.451402070876102, 11.3720493450547]
      },
      {
        "species": [{ "element": "Rb", "occu": 1 }],
        "abc": [0.13930973, 0.93465355, 0.66309692],
        "properties": { "magmom": 0.0 },
        "label": "Rb",
        "xyz": [1.8406588049452992, 12.349304577511433, 8.761306079123898]
      },
      {
        "species": [{ "element": "Rb", "occu": 1 }],
        "abc": [0.33690308, 0.86069027, 0.93465355],
        "properties": { "magmom": 0.0 },
        "label": "Rb",
        "xyz": [4.451402070876102, 11.3720493450547, 12.349304577511433]
      },
      {
        "species": [{ "element": "Rb", "occu": 1 }],
        "abc": [0.66309692, 0.13930973, 0.93465355],
        "properties": { "magmom": 0.0 },
        "label": "Rb",
        "xyz": [8.761306079123898, 1.8406588049452992, 12.349304577511433]
      },
      {
        "species": [{ "element": "Rb", "occu": 1 }],
        "abc": [0.66309692, 0.86069027, 0.06534645],
        "properties": { "magmom": 0.0 },
        "label": "Rb",
        "xyz": [8.761306079123898, 11.3720493450547, 0.8634035724885675]
      },
      {
        "species": [{ "element": "Rb", "occu": 1 }],
        "abc": [0.36069027000000004, 0.16309692, 0.5653464500000001],
        "properties": { "magmom": 0.0 },
        "label": "Rb",
        "xyz": [4.7656952700547, 2.154952004123898, 7.469757647488568]
      },
      {
        "species": [{ "element": "Rb", "occu": 1 }],
        "abc": [0.63930973, 0.83690308, 0.5653464500000001],
        "properties": { "magmom": 0.0 },
        "label": "Rb",
        "xyz": [8.4470128799453, 11.057756145876102, 7.469757647488568]
      },
      {
        "species": [{ "element": "Rb", "occu": 1 }],
        "abc": [0.43465355, 0.63930973, 0.16309692],
        "properties": { "magmom": 0.0 },
        "label": "Rb",
        "xyz": [5.742950502511432, 8.4470128799453, 2.154952004123898]
      },
      {
        "species": [{ "element": "Rb", "occu": 1 }],
        "abc": [0.5653464500000001, 0.63930973, 0.83690308],
        "properties": { "magmom": 0.0 },
        "label": "Rb",
        "xyz": [7.469757647488568, 8.4470128799453, 11.057756145876102]
      },
      {
        "species": [{ "element": "Rb", "occu": 1 }],
        "abc": [0.83690308, 0.43465355, 0.36069027000000004],
        "properties": { "magmom": 0.0 },
        "label": "Rb",
        "xyz": [11.057756145876102, 5.742950502511432, 4.7656952700547]
      },
      {
        "species": [{ "element": "Rb", "occu": 1 }],
        "abc": [0.83690308, 0.5653464500000001, 0.63930973],
        "properties": { "magmom": 0.0 },
        "label": "Rb",
        "xyz": [11.057756145876102, 7.469757647488568, 8.4470128799453]
      },
      {
        "species": [{ "element": "Ge", "occu": 1 }],
        "abc": [0.06847233, 0.06847233, 0.06847233],
        "properties": { "magmom": 0.0 },
        "label": "Ge",
        "xyz": [0.9047049126404895, 0.9047049126404895, 0.9047049126404895]
      },
      {
        "species": [{ "element": "Ge", "occu": 1 }],
        "abc": [0.43152767000000003, 0.56847233, 0.43152767000000003],
        "properties": { "magmom": 0.0 },
        "label": "Ge",
        "xyz": [5.7016491623595105, 7.511058987640489, 5.7016491623595105]
      },
      {
        "species": [{ "element": "Ge", "occu": 1 }],
        "abc": [0.43152767000000003, 0.43152767000000003, 0.56847233],
        "properties": { "magmom": 0.0 },
        "label": "Ge",
        "xyz": [5.7016491623595105, 5.7016491623595105, 7.511058987640489]
      },
      {
        "species": [{ "element": "Ge", "occu": 1 }],
        "abc": [0.56847233, 0.43152767000000003, 0.43152767000000003],
        "properties": { "magmom": 0.0 },
        "label": "Ge",
        "xyz": [7.511058987640489, 5.7016491623595105, 5.7016491623595105]
      },
      {
        "species": [{ "element": "Ge", "occu": 1 }],
        "abc": [0.93152767, 0.93152767, 0.06847233],
        "properties": { "magmom": 0.0 },
        "label": "Ge",
        "xyz": [12.308003237359511, 12.308003237359511, 0.9047049126404895]
      },
      {
        "species": [{ "element": "Ge", "occu": 1 }],
        "abc": [0.06847233, 0.93152767, 0.93152767],
        "properties": { "magmom": 0.0 },
        "label": "Ge",
        "xyz": [0.9047049126404895, 12.308003237359511, 12.308003237359511]
      },
      {
        "species": [{ "element": "Ge", "occu": 1 }],
        "abc": [0.93152767, 0.06847233, 0.93152767],
        "properties": { "magmom": 0.0 },
        "label": "Ge",
        "xyz": [12.308003237359511, 0.9047049126404895, 12.308003237359511]
      },
      {
        "species": [{ "element": "Ge", "occu": 1 }],
        "abc": [0.56847233, 0.56847233, 0.56847233],
        "properties": { "magmom": 0.0 },
        "label": "Ge",
        "xyz": [7.511058987640489, 7.511058987640489, 7.511058987640489]
      },
      {
        "species": [{ "element": "Ge", "occu": 1 }],
        "abc": [0.06273005, 0.31745112000000003, 0.42518889],
        "properties": { "magmom": -0.0 },
        "label": "Ge",
        "xyz": [0.8288338428849074, 4.194389000450628, 5.617896712192453]
      },
      {
        "species": [{ "element": "Ge", "occu": 1 }],
        "abc": [0.43726995, 0.92518889, 0.18254888],
        "properties": { "magmom": -0.0 },
        "label": "Ge",
        "xyz": [5.7775202321150925, 12.224250787192453, 2.411965074549372]
      },
      {
        "species": [{ "element": "Ge", "occu": 1 }],
        "abc": [0.43726995, 0.07481111, 0.81745112],
        "properties": { "magmom": -0.0 },
        "label": "Ge",
        "xyz": [5.7775202321150925, 0.9884573628075465, 10.800743075450628]
      },
      {
        "species": [{ "element": "Ge", "occu": 1 }],
        "abc": [0.07481111, 0.18254888, 0.56273005],
        "properties": { "magmom": -0.0 },
        "label": "Ge",
        "xyz": [0.9884573628075465, 2.411965074549372, 7.435187917884907]
      },
      {
        "species": [{ "element": "Ge", "occu": 1 }],
        "abc": [0.92518889, 0.18254888, 0.43726995],
        "properties": { "magmom": -0.0 },
        "label": "Ge",
        "xyz": [12.224250787192453, 2.411965074549372, 5.7775202321150925]
      },
      {
        "species": [{ "element": "Ge", "occu": 1 }],
        "abc": [0.81745112, 0.43726995, 0.07481111],
        "properties": { "magmom": -0.0 },
        "label": "Ge",
        "xyz": [10.800743075450628, 5.7775202321150925, 0.9884573628075465]
      },
      {
        "species": [{ "element": "Ge", "occu": 1 }],
        "abc": [0.18254888, 0.56273005, 0.07481111],
        "properties": { "magmom": -0.0 },
        "label": "Ge",
        "xyz": [2.411965074549372, 7.435187917884907, 0.9884573628075465]
      },
      {
        "species": [{ "element": "Ge", "occu": 1 }],
        "abc": [0.42518889, 0.06273005, 0.31745112000000003],
        "properties": { "magmom": -0.0 },
        "label": "Ge",
        "xyz": [5.617896712192453, 0.8288338428849074, 4.194389000450628]
      },
      {
        "species": [{ "element": "Ge", "occu": 1 }],
        "abc": [0.31745112000000003, 0.42518889, 0.06273005],
        "properties": { "magmom": -0.0 },
        "label": "Ge",
        "xyz": [4.194389000450628, 5.617896712192453, 0.8288338428849074]
      },
      {
        "species": [{ "element": "Ge", "occu": 1 }],
        "abc": [0.68254888, 0.57481111, 0.06273005],
        "properties": { "magmom": -0.0 },
        "label": "Ge",
        "xyz": [9.018319149549372, 7.594811437807546, 0.8288338428849074]
      },
      {
        "species": [{ "element": "Ge", "occu": 1 }],
        "abc": [0.42518889, 0.93726995, 0.68254888],
        "properties": { "magmom": -0.0 },
        "label": "Ge",
        "xyz": [5.617896712192453, 12.383874307115091, 9.018319149549372]
      },
      {
        "species": [{ "element": "Ge", "occu": 1 }],
        "abc": [0.68254888, 0.42518889, 0.93726995],
        "properties": { "magmom": -0.0 },
        "label": "Ge",
        "xyz": [9.018319149549372, 5.617896712192453, 12.383874307115091]
      },
      {
        "species": [{ "element": "Ge", "occu": 1 }],
        "abc": [0.57481111, 0.93726995, 0.31745112000000003],
        "properties": { "magmom": -0.0 },
        "label": "Ge",
        "xyz": [7.594811437807546, 12.383874307115091, 4.194389000450628]
      },
      {
        "species": [{ "element": "Ge", "occu": 1 }],
        "abc": [0.57481111, 0.06273005, 0.68254888],
        "properties": { "magmom": -0.0 },
        "label": "Ge",
        "xyz": [7.594811437807546, 0.8288338428849074, 9.018319149549372]
      },
      {
        "species": [{ "element": "Ge", "occu": 1 }],
        "abc": [0.31745112000000003, 0.57481111, 0.93726995],
        "properties": { "magmom": -0.0 },
        "label": "Ge",
        "xyz": [4.194389000450628, 7.594811437807546, 12.383874307115091]
      },
      {
        "species": [{ "element": "Ge", "occu": 1 }],
        "abc": [0.06273005, 0.68254888, 0.57481111],
        "properties": { "magmom": -0.0 },
        "label": "Ge",
        "xyz": [0.8288338428849074, 9.018319149549372, 7.594811437807546]
      },
      {
        "species": [{ "element": "Ge", "occu": 1 }],
        "abc": [0.93726995, 0.31745112000000003, 0.57481111],
        "properties": { "magmom": -0.0 },
        "label": "Ge",
        "xyz": [12.383874307115091, 4.194389000450628, 7.594811437807546]
      },
      {
        "species": [{ "element": "Ge", "occu": 1 }],
        "abc": [0.93726995, 0.68254888, 0.42518889],
        "properties": { "magmom": -0.0 },
        "label": "Ge",
        "xyz": [12.383874307115091, 9.018319149549372, 5.617896712192453]
      },
      {
        "species": [{ "element": "Ge", "occu": 1 }],
        "abc": [0.18254888, 0.43726995, 0.92518889],
        "properties": { "magmom": -0.0 },
        "label": "Ge",
        "xyz": [2.411965074549372, 5.7775202321150925, 12.224250787192453]
      },
      {
        "species": [{ "element": "Ge", "occu": 1 }],
        "abc": [0.81745112, 0.56273005, 0.92518889],
        "properties": { "magmom": -0.0 },
        "label": "Ge",
        "xyz": [10.800743075450628, 7.435187917884907, 12.224250787192453]
      },
      {
        "species": [{ "element": "Ge", "occu": 1 }],
        "abc": [0.07481111, 0.81745112, 0.43726995],
        "properties": { "magmom": -0.0 },
        "label": "Ge",
        "xyz": [0.9884573628075465, 10.800743075450628, 5.7775202321150925]
      },
      {
        "species": [{ "element": "Ge", "occu": 1 }],
        "abc": [0.92518889, 0.81745112, 0.56273005],
        "properties": { "magmom": -0.0 },
        "label": "Ge",
        "xyz": [12.224250787192453, 10.800743075450628, 7.435187917884907]
      },
      {
        "species": [{ "element": "Ge", "occu": 1 }],
        "abc": [0.56273005, 0.07481111, 0.18254888],
        "properties": { "magmom": -0.0 },
        "label": "Ge",
        "xyz": [7.435187917884907, 0.9884573628075465, 2.411965074549372]
      },
      {
        "species": [{ "element": "Ge", "occu": 1 }],
        "abc": [0.56273005, 0.92518889, 0.81745112],
        "properties": { "magmom": -0.0 },
        "label": "Ge",
        "xyz": [7.435187917884907, 12.224250787192453, 10.800743075450628]
      }
    ]
  },
  "task_ids": null,
  "uncorrected_energy_per_atom": null,
  "energy_per_atom": -2.99349908484375,
  "formation_energy_per_atom": -0.19171812109374903,
  "energy_above_hull": 0.0,
  "is_stable": true,
  "equilibrium_reaction_energy_per_atom": null,
  "decomposes_to": null,
  "xas": null,
  "grain_boundaries": null,
  "band_gap": 1.004399999999999,
  "cbm": null,
  "vbm": null,
  "efermi": 1.66637758,
  "is_gap_direct": null,
  "is_metal": null,
  "es_source_calc_id": null,
  "bandstructure": null,
  "dos": null,
  "dos_energy_up": null,
  "dos_energy_down": null,
  "is_magnetic": null,
  "ordering": null,
  "total_magnetization": 0.0,
  "total_magnetization_normalized_vol": null,
  "total_magnetization_normalized_formula_units": null,
  "num_magnetic_sites": null,
  "num_unique_magnetic_sites": null,
  "types_of_magnetic_species": null,
  "bulk_modulus": null,
  "shear_modulus": null,
  "universal_anisotropy": null,
  "homogeneous_poisson": null,
  "e_total": null,
  "e_ionic": null,
  "e_electronic": null,
  "n": null,
  "e_ij_max": null,
  "weighted_surface_energy_EV_PER_ANG2": null,
  "weighted_surface_energy": null,
  "weighted_work_function": null,
  "surface_anisotropy": null,
  "shape_factor": null,
  "has_reconstructed": null,
  "possible_species": null,
  "has_props": null,
  "theoretical": null,
  "database_IDs": null,
  "fields_not_requested": [
    "builder_meta",
    "nsites",
    "elements",
    "nelements",
    "composition",
    "composition_reduced",
    "chemsys",
    "symmetry",
    "property_name",
    "deprecated",
    "deprecation_reasons",
    "last_updated",
    "origins",
    "warnings",
    "task_ids",
    "uncorrected_energy_per_atom",
    "equilibrium_reaction_energy_per_atom",
    "decomposes_to",
    "xas",
    "grain_boundaries",
    "cbm",
    "vbm",
    "is_gap_direct",
    "is_metal",
    "es_source_calc_id",
    "bandstructure",
    "dos",
    "dos_energy_up",
    "dos_energy_down",
    "is_magnetic",
    "ordering",
    "total_magnetization_normalized_vol",
    "total_magnetization_normalized_formula_units",
    "num_magnetic_sites",
    "num_unique_magnetic_sites",
    "types_of_magnetic_species",
    "bulk_modulus",
    "shear_modulus",
    "universal_anisotropy",
    "homogeneous_poisson",
    "e_total",
    "e_ionic",
    "e_electronic",
    "n",
    "e_ij_max",
    "weighted_surface_energy_EV_PER_ANG2",
    "weighted_surface_energy",
    "weighted_work_function",
    "surface_anisotropy",
    "shape_factor",
    "has_reconstructed",
    "possible_species",
    "has_props",
    "theoretical",
    "database_IDs"
  ]
}
