{"builder_meta": null, "nsites": null, "elements": null, "nelements": null, "composition": null, "composition_reduced": null, "formula_pretty": "RbHg3", "formula_anonymous": "AB3", "chemsys": null, "volume": 264.0056155773186, "density": 8.645158645195723, "density_atomic": 33.00070194716483, "symmetry": null, "property_name": null, "material_id": "mp-975170", "deprecated": null, "deprecation_reasons": null, "last_updated": null, "origins": null, "warnings": null, "structure": {"@module": "pymatgen.core.structure", "@class": "Structure", "charge": 0, "lattice": {"matrix": [[7.42878092, 0.0, 0.0], [-3.71439046, 6.433514029999999, 0.0], [0.0, -0.0, 5.52391976]], "pbc": [true, true, true], "a": 7.42878092, "b": 7.428781815583618, "c": 5.52391976, "alpha": 90.0, "beta": 90.0, "gamma": 119.9999960120424, "volume": 264.00561557731857}, "properties": {}, "sites": [{"species": [{"element": "Rb", "occu": 1}], "abc": [0.333333, 0.666667, 0.750000999999999], "properties": {"magmom": -0.0}, "label": "Rb", "xyz": [-3.714390460096695e-06, 4.289011497838009, 4.142945343919755]}, {"species": [{"element": "Rb", "occu": 1}], "abc": [0.666667, 0.333333, 0.250001], "properties": {"magmom": -0.0}, "label": "Rb", "xyz": [3.7143941743904603, 2.1445025321619893, 1.3809854639197598]}, {"species": [{"element": "Hg", "occu": 1}], "abc": [0.14639051, 0.29278103, 0.250001], "properties": {"magmom": -0.0}, "label": "Hg", "xyz": [-3.7143904618730517e-08, 1.8836108642228504, 1.3809854639197598]}, {"species": [{"element": "Hg", "occu": 1}], "abc": [0.70721897, 0.85360949, 0.250001], "properties": {"magmom": -0.0}, "label": "Hg", "xyz": [2.0831358443765873, 5.491708630056143, 1.3809854639197598]}, {"species": [{"element": "Hg", "occu": 1}], "abc": [0.14639051, 0.85360949, 0.250001], "properties": {"magmom": -0.0}, "label": "Hg", "xyz": [-2.0831359186643965, 5.491708630056143, 1.3809854639197598]}, {"species": [{"element": "Hg", "occu": 1}], "abc": [0.85360949, 0.70721897, 0.750000999999999], "properties": {"magmom": -0.0}, "label": "Hg", "xyz": [3.7143904971439046, 4.549903165777148, 4.142945343919755]}, {"species": [{"element": "Hg", "occu": 1}], "abc": [0.29278103, 0.14639051, 0.750000999999999], "properties": {"magmom": -0.0}, "label": "Hg", "xyz": [1.631254615623413, 0.9418053999438551, 4.142945343919755]}, {"species": [{"element": "Hg", "occu": 1}], "abc": [0.85360949, 0.14639051, 0.750000999999999], "properties": {"magmom": -0.0}, "label": "Hg", "xyz": [5.797526378664396, 0.9418053999438551, 4.142945343919755]}]}, "task_ids": null, "uncorrected_energy_per_atom": null, "energy_per_atom": -0.689877332500003, "formation_energy_per_atom": -0.21248978625000803, "energy_above_hull": 0.015551881111107, "is_stable": false, "equilibrium_reaction_energy_per_atom": null, "decomposes_to": null, "xas": null, "grain_boundaries": null, "band_gap": 0.0, "cbm": null, "vbm": null, "efermi": 1.44336574, "is_gap_direct": null, "is_metal": null, "es_source_calc_id": null, "bandstructure": null, "dos": null, "dos_energy_up": null, "dos_energy_down": null, "is_magnetic": null, "ordering": null, "total_magnetization": 6e-07, "total_magnetization_normalized_vol": null, "total_magnetization_normalized_formula_units": null, "num_magnetic_sites": null, "num_unique_magnetic_sites": null, "types_of_magnetic_species": null, "bulk_modulus": null, "shear_modulus": null, "universal_anisotropy": null, "homogeneous_poisson": null, "e_total": null, "e_ionic": null, "e_electronic": null, "n": null, "e_ij_max": null, "weighted_surface_energy_EV_PER_ANG2": null, "weighted_surface_energy": null, "weighted_work_function": null, "surface_anisotropy": null, "shape_factor": null, "has_reconstructed": null, "possible_species": null, "has_props": null, "theoretical": null, "database_IDs": null, "fields_not_requested": ["builder_meta", "nsites", "elements", "nelements", "composition", "composition_reduced", "chemsys", "symmetry", "property_name", "deprecated", "deprecation_reasons", "last_updated", "origins", "warnings", "task_ids", "uncorrected_energy_per_atom", "equilibrium_reaction_energy_per_atom", "decomposes_to", "xas", "grain_boundaries", "cbm", "vbm", "is_gap_direct", "is_metal", "es_source_calc_id", "bandstructure", "dos", "dos_energy_up", "dos_energy_down", "is_magnetic", "ordering", "total_magnetization_normalized_vol", "total_magnetization_normalized_formula_units", "num_magnetic_sites", "num_unique_magnetic_sites", "types_of_magnetic_species", "bulk_modulus", "shear_modulus", "universal_anisotropy", "homogeneous_poisson", "e_total", "e_ionic", "e_electronic", "n", "e_ij_max", "weighted_surface_energy_EV_PER_ANG2", "weighted_surface_energy", "weighted_work_function", "surface_anisotropy", "shape_factor", "has_reconstructed", "possible_species", "has_props", "theoretical", "database_IDs"]}