{
  "builder_meta": null,
  "nsites": null,
  "elements": null,
  "nelements": null,
  "composition": null,
  "composition_reduced": null,
  "formula_pretty": "RbI3",
  "formula_anonymous": "AB3",
  "chemsys": null,
  "volume": 731.6882299311791,
  "density": 4.231923268152993,
  "density_atomic": 45.73051437069869,
  "symmetry": null,
  "property_name": null,
  "material_id": "mp-28328",
  "deprecated": null,
  "deprecation_reasons": null,
  "last_updated": null,
  "origins": null,
  "warnings": null,
  "structure": {
    "@module": "pymatgen.core.structure",
    "@class": "Structure",
    "charge": 0,
    "lattice": {
      "matrix": [
        [6.76047314, 0.0, 0.0],
        [-0.0, 9.94751423, 0.0],
        [0.0, 0.0, 10.88013811]
      ],
      "pbc": [true, true, true],
      "a": 6.76047314,
      "b": 9.94751423,
      "c": 10.88013811,
      "alpha": 90.0,
      "beta": 90.0,
      "gamma": 90.0,
      "volume": 731.6882299311791
    },
    "properties": {},
    "sites": [
      {
        "species": [{ "element": "Rb", "occu": 1 }],
        "abc": [0.25, 0.47447218, 0.82703771],
        "properties": { "magmom": -0.0 },
        "label": "Rb",
        "xyz": [1.690118285, 4.719818762289122, 8.998284506978129]
      },
      {
        "species": [{ "element": "Rb", "occu": 1 }],
        "abc": [0.75, 0.52552782, 0.17296229],
        "properties": { "magmom": -0.0 },
        "label": "Rb",
        "xyz": [5.070354855, 5.227695467710878, 1.881853603021872]
      },
      {
        "species": [{ "element": "Rb", "occu": 1 }],
        "abc": [0.75, 0.97447218, 0.67296229],
        "properties": { "magmom": -0.0 },
        "label": "Rb",
        "xyz": [5.070354855, 9.69357587728912, 7.321922658021872]
      },
      {
        "species": [{ "element": "Rb", "occu": 1 }],
        "abc": [0.25, 0.02552782, 0.32703771],
        "properties": { "magmom": -0.0 },
        "label": "Rb",
        "xyz": [1.690118285, 0.25393835271087856, 3.558215451978128]
      },
      {
        "species": [{ "element": "I", "occu": 1 }],
        "abc": [0.25, 0.54496586, 0.37339014],
        "properties": { "magmom": -0.0 },
        "label": "I",
        "xyz": [1.690118285, 5.421055647214188, 4.062536292112235]
      },
      {
        "species": [{ "element": "I", "occu": 1 }],
        "abc": [0.75, 0.45503414000000003, 0.62660986],
        "properties": { "magmom": -0.0 },
        "label": "I",
        "xyz": [5.070354855, 4.526458582785812, 6.817601817887764]
      },
      {
        "species": [{ "element": "I", "occu": 1 }],
        "abc": [0.75, 0.04496586, 0.12660986],
        "properties": { "magmom": -0.0 },
        "label": "I",
        "xyz": [5.070354855, 0.4472985322141878, 1.3775327628877645]
      },
      {
        "species": [{ "element": "I", "occu": 1 }],
        "abc": [0.25, 0.95503414, 0.87339014],
        "properties": { "magmom": -0.0 },
        "label": "I",
        "xyz": [1.690118285, 9.500215697785812, 9.502605347112237]
      },
      {
        "species": [{ "element": "I", "occu": 1 }],
        "abc": [0.25, 0.73569714, 0.5729743700000001],
        "properties": { "magmom": 0.0 },
        "label": "I",
        "xyz": [1.690118285, 7.3183577691203014, 6.234040279090242]
      },
      {
        "species": [{ "element": "I", "occu": 1 }],
        "abc": [0.75, 0.26430286000000003, 0.42702563],
        "properties": { "magmom": 0.0 },
        "label": "I",
        "xyz": [5.070354855, 2.629156460879698, 4.64609783090976]
      },
      {
        "species": [{ "element": "I", "occu": 1 }],
        "abc": [0.75, 0.23569714, 0.92702563],
        "properties": { "magmom": 0.0 },
        "label": "I",
        "xyz": [5.070354855, 2.344600654120302, 10.08616688590976]
      },
      {
        "species": [{ "element": "I", "occu": 1 }],
        "abc": [0.25, 0.76430286, 0.07297437],
        "properties": { "magmom": 0.0 },
        "label": "I",
        "xyz": [1.690118285, 7.602913575879698, 0.7939712240902407]
      },
      {
        "species": [{ "element": "I", "occu": 1 }],
        "abc": [0.25, 0.14884089, 0.6592019],
        "properties": { "magmom": -0.0 },
        "label": "I",
        "xyz": [1.690118285, 1.4805968712808646, 7.17220771437441]
      },
      {
        "species": [{ "element": "I", "occu": 1 }],
        "abc": [0.75, 0.85115911, 0.3407981],
        "properties": { "magmom": -0.0 },
        "label": "I",
        "xyz": [5.070354855, 8.466917358719135, 3.707930395625591]
      },
      {
        "species": [{ "element": "I", "occu": 1 }],
        "abc": [0.75, 0.64884089, 0.8407981],
        "properties": { "magmom": -0.0 },
        "label": "I",
        "xyz": [5.070354855, 6.454353986280864, 9.147999450625592]
      },
      {
        "species": [{ "element": "I", "occu": 1 }],
        "abc": [0.25, 0.35115911, 0.159201899999999],
        "properties": { "magmom": -0.0 },
        "label": "I",
        "xyz": [1.690118285, 3.493160243719135, 1.7321386593743984]
      }
    ]
  },
  "task_ids": null,
  "uncorrected_energy_per_atom": null,
  "energy_per_atom": -2.462255811249999,
  "formation_energy_per_atom": -1.074112831874999,
  "energy_above_hull": 0.0,
  "is_stable": true,
  "equilibrium_reaction_energy_per_atom": null,
  "decomposes_to": null,
  "xas": null,
  "grain_boundaries": null,
  "band_gap": 1.6271,
  "cbm": null,
  "vbm": null,
  "efermi": 0.7756884900000001,
  "is_gap_direct": null,
  "is_metal": null,
  "es_source_calc_id": null,
  "bandstructure": null,
  "dos": null,
  "dos_energy_up": null,
  "dos_energy_down": null,
  "is_magnetic": null,
  "ordering": null,
  "total_magnetization": 0.0,
  "total_magnetization_normalized_vol": null,
  "total_magnetization_normalized_formula_units": null,
  "num_magnetic_sites": null,
  "num_unique_magnetic_sites": null,
  "types_of_magnetic_species": null,
  "bulk_modulus": null,
  "shear_modulus": null,
  "universal_anisotropy": null,
  "homogeneous_poisson": null,
  "e_total": null,
  "e_ionic": null,
  "e_electronic": null,
  "n": null,
  "e_ij_max": null,
  "weighted_surface_energy_EV_PER_ANG2": null,
  "weighted_surface_energy": null,
  "weighted_work_function": null,
  "surface_anisotropy": null,
  "shape_factor": null,
  "has_reconstructed": null,
  "possible_species": null,
  "has_props": null,
  "theoretical": null,
  "database_IDs": null,
  "fields_not_requested": [
    "builder_meta",
    "nsites",
    "elements",
    "nelements",
    "composition",
    "composition_reduced",
    "chemsys",
    "symmetry",
    "property_name",
    "deprecated",
    "deprecation_reasons",
    "last_updated",
    "origins",
    "warnings",
    "task_ids",
    "uncorrected_energy_per_atom",
    "equilibrium_reaction_energy_per_atom",
    "decomposes_to",
    "xas",
    "grain_boundaries",
    "cbm",
    "vbm",
    "is_gap_direct",
    "is_metal",
    "es_source_calc_id",
    "bandstructure",
    "dos",
    "dos_energy_up",
    "dos_energy_down",
    "is_magnetic",
    "ordering",
    "total_magnetization_normalized_vol",
    "total_magnetization_normalized_formula_units",
    "num_magnetic_sites",
    "num_unique_magnetic_sites",
    "types_of_magnetic_species",
    "bulk_modulus",
    "shear_modulus",
    "universal_anisotropy",
    "homogeneous_poisson",
    "e_total",
    "e_ionic",
    "e_electronic",
    "n",
    "e_ij_max",
    "weighted_surface_energy_EV_PER_ANG2",
    "weighted_surface_energy",
    "weighted_work_function",
    "surface_anisotropy",
    "shape_factor",
    "has_reconstructed",
    "possible_species",
    "has_props",
    "theoretical",
    "database_IDs"
  ]
}
