{"builder_meta": null, "nsites": null, "elements": null, "nelements": null, "composition": null, "composition_reduced": null, "formula_pretty": "RbIn4", "formula_anonymous": "AB4", "chemsys": null, "volume": 155.28890144231022, "density": 5.825024909252223, "density_atomic": 31.057780288462045, "symmetry": null, "property_name": null, "material_id": "mp-21477", "deprecated": null, "deprecation_reasons": null, "last_updated": null, "origins": null, "warnings": null, "structure": {"@module": "pymatgen.core.structure", "@class": "Structure", "charge": 0, "lattice": {"matrix": [[4.63929066, 2e-08, -1.6927437300000001], [-0.61763161, 4.59799245, -1.69274374], [0.02121803, 0.02425761, 7.26195783]], "pbc": [true, true, true], "a": 4.938461214125059, "b": 4.93845975434015, "c": 7.262029341798221, "alpha": 109.8780646078392, "beta": 109.87804948062548, "gamma": 89.99997912701444, "volume": 155.2889014423102}, "properties": {}, "sites": [{"species": [{"element": "Rb", "occu": 1}], "abc": [-0.0, 0.0, 0.0], "properties": {"magmom": -0.0}, "label": "Rb", "xyz": [0.0, 0.0, 0.0]}, {"species": [{"element": "In", "occu": 1}], "abc": [0.38604128, 0.38604128, 0.77208155], "properties": {"magmom": -0.0}, "label": "In", "xyz": [1.5689084568759306, 1.793743751677257, 4.299885741078274]}, {"species": [{"element": "In", "occu": 1}], "abc": [0.61395872, 0.61395872, 0.22791845], "properties": {"magmom": -0.0}, "label": "In", "xyz": [2.4739686231240694, 2.8285063283227427, -0.4234153810782746]}, {"species": [{"element": "In", "occu": 1}], "abc": [0.25, 0.75, 0.5], "properties": {"magmom": -0.0}, "label": "In", "xyz": [0.7072079725000001, 3.4606231474999998, 1.9382351775]}, {"species": [{"element": "In", "occu": 1}], "abc": [0.75, 0.25, 0.5], "properties": {"magmom": -0.0}, "label": "In", "xyz": [3.3356691075000002, 1.1616269324999997, 1.9382351825]}]}, "task_ids": null, "uncorrected_energy_per_atom": null, "energy_per_atom": -2.51002221, "formation_energy_per_atom": -0.106576400833331, "energy_above_hull": 0.0, "is_stable": true, "equilibrium_reaction_energy_per_atom": null, "decomposes_to": null, "xas": null, "grain_boundaries": null, "band_gap": 0.0, "cbm": null, "vbm": null, "efermi": 4.62995235, "is_gap_direct": null, "is_metal": null, "es_source_calc_id": null, "bandstructure": null, "dos": null, "dos_energy_up": null, "dos_energy_down": null, "is_magnetic": null, "ordering": null, "total_magnetization": 0.0, "total_magnetization_normalized_vol": null, "total_magnetization_normalized_formula_units": null, "num_magnetic_sites": null, "num_unique_magnetic_sites": null, "types_of_magnetic_species": null, "bulk_modulus": null, "shear_modulus": null, "universal_anisotropy": null, "homogeneous_poisson": null, "e_total": null, "e_ionic": null, "e_electronic": null, "n": null, "e_ij_max": null, "weighted_surface_energy_EV_PER_ANG2": null, "weighted_surface_energy": null, "weighted_work_function": null, "surface_anisotropy": null, "shape_factor": null, "has_reconstructed": null, "possible_species": null, "has_props": null, "theoretical": null, "database_IDs": null, "fields_not_requested": ["builder_meta", "nsites", "elements", "nelements", "composition", "composition_reduced", "chemsys", "symmetry", "property_name", "deprecated", "deprecation_reasons", "last_updated", "origins", "warnings", "task_ids", "uncorrected_energy_per_atom", "equilibrium_reaction_energy_per_atom", "decomposes_to", "xas", "grain_boundaries", "cbm", "vbm", "is_gap_direct", "is_metal", "es_source_calc_id", "bandstructure", "dos", "dos_energy_up", "dos_energy_down", "is_magnetic", "ordering", "total_magnetization_normalized_vol", "total_magnetization_normalized_formula_units", "num_magnetic_sites", "num_unique_magnetic_sites", "types_of_magnetic_species", "bulk_modulus", "shear_modulus", "universal_anisotropy", "homogeneous_poisson", "e_total", "e_ionic", "e_electronic", "n", "e_ij_max", "weighted_surface_energy_EV_PER_ANG2", "weighted_surface_energy", "weighted_work_function", "surface_anisotropy", "shape_factor", "has_reconstructed", "possible_species", "has_props", "theoretical", "database_IDs"]}