{
  "builder_meta": null,
  "nsites": null,
  "elements": null,
  "nelements": null,
  "composition": null,
  "composition_reduced": null,
  "formula_pretty": "RbMg2",
  "formula_anonymous": "AB2",
  "chemsys": null,
  "volume": 253.1615054199488,
  "density": 1.7588884573463082,
  "density_atomic": 42.19358423665813,
  "symmetry": null,
  "property_name": null,
  "material_id": "mp-1186892",
  "deprecated": null,
  "deprecation_reasons": null,
  "last_updated": null,
  "origins": null,
  "warnings": null,
  "structure": {
    "@module": "pymatgen.core.structure",
    "@class": "Structure",
    "charge": 0,
    "lattice": {
      "matrix": [
        [1.922502999999999, -13.625189, 0.0],
        [1.922502999999999, 13.625189, 0.0],
        [0.0, 0.0, 4.832347]
      ],
      "pbc": [true, true, true],
      "a": 13.76015236364518,
      "b": 13.76015236364518,
      "c": 4.832347,
      "alpha": 90.0,
      "beta": 90.0,
      "gamma": 163.93726240707494,
      "volume": 253.16150541994867
    },
    "properties": {},
    "sites": [
      {
        "species": [{ "element": "Rb", "occu": 1 }],
        "abc": [0.32715299999999903, 0.672847, 0.75],
        "properties": { "magmom": 0.0 },
        "label": "Rb",
        "xyz": [1.922502999999997, 4.710146086166014, 3.6242602500000003]
      },
      {
        "species": [{ "element": "Rb", "occu": 1 }],
        "abc": [0.672847, 0.32715299999999903, 0.25],
        "properties": { "magmom": 0.0 },
        "label": "Rb",
        "xyz": [1.922502999999997, -4.710146086166014, 1.20808675]
      },
      {
        "species": [{ "element": "Mg", "occu": 1 }],
        "abc": [0.548775999999999, 0.451223999999999, 0.75],
        "properties": { "magmom": 0.0 },
        "label": "Mg",
        "xyz": [1.9225029999999952, -1.329164437328, 3.6242602500000003]
      },
      {
        "species": [{ "element": "Mg", "occu": 1 }],
        "abc": [0.957499, 0.042501, 0.75],
        "properties": { "magmom": -0.0 },
        "label": "Mg",
        "xyz": [1.922502999999999, -12.467020684622002, 3.6242602500000003]
      },
      {
        "species": [{ "element": "Mg", "occu": 1 }],
        "abc": [0.042501, 0.957499, 0.25],
        "properties": { "magmom": -0.0 },
        "label": "Mg",
        "xyz": [1.922502999999999, 12.467020684622002, 1.20808675]
      },
      {
        "species": [{ "element": "Mg", "occu": 1 }],
        "abc": [0.451223999999999, 0.548775999999999, 0.25],
        "properties": { "magmom": 0.0 },
        "label": "Mg",
        "xyz": [1.9225029999999952, 1.329164437328, 1.20808675]
      }
    ]
  },
  "task_ids": null,
  "uncorrected_energy_per_atom": null,
  "energy_per_atom": -1.212962271666666,
  "formation_energy_per_atom": 0.20086242916666602,
  "energy_above_hull": 0.20086242916666602,
  "is_stable": false,
  "equilibrium_reaction_energy_per_atom": null,
  "decomposes_to": null,
  "xas": null,
  "grain_boundaries": null,
  "band_gap": 0.0,
  "cbm": null,
  "vbm": null,
  "efermi": 1.32346823,
  "is_gap_direct": null,
  "is_metal": null,
  "es_source_calc_id": null,
  "bandstructure": null,
  "dos": null,
  "dos_energy_up": null,
  "dos_energy_down": null,
  "is_magnetic": null,
  "ordering": null,
  "total_magnetization": 0.0018313,
  "total_magnetization_normalized_vol": null,
  "total_magnetization_normalized_formula_units": null,
  "num_magnetic_sites": null,
  "num_unique_magnetic_sites": null,
  "types_of_magnetic_species": null,
  "bulk_modulus": null,
  "shear_modulus": null,
  "universal_anisotropy": null,
  "homogeneous_poisson": null,
  "e_total": null,
  "e_ionic": null,
  "e_electronic": null,
  "n": null,
  "e_ij_max": null,
  "weighted_surface_energy_EV_PER_ANG2": null,
  "weighted_surface_energy": null,
  "weighted_work_function": null,
  "surface_anisotropy": null,
  "shape_factor": null,
  "has_reconstructed": null,
  "possible_species": null,
  "has_props": null,
  "theoretical": null,
  "database_IDs": null,
  "fields_not_requested": [
    "builder_meta",
    "nsites",
    "elements",
    "nelements",
    "composition",
    "composition_reduced",
    "chemsys",
    "symmetry",
    "property_name",
    "deprecated",
    "deprecation_reasons",
    "last_updated",
    "origins",
    "warnings",
    "task_ids",
    "uncorrected_energy_per_atom",
    "equilibrium_reaction_energy_per_atom",
    "decomposes_to",
    "xas",
    "grain_boundaries",
    "cbm",
    "vbm",
    "is_gap_direct",
    "is_metal",
    "es_source_calc_id",
    "bandstructure",
    "dos",
    "dos_energy_up",
    "dos_energy_down",
    "is_magnetic",
    "ordering",
    "total_magnetization_normalized_vol",
    "total_magnetization_normalized_formula_units",
    "num_magnetic_sites",
    "num_unique_magnetic_sites",
    "types_of_magnetic_species",
    "bulk_modulus",
    "shear_modulus",
    "universal_anisotropy",
    "homogeneous_poisson",
    "e_total",
    "e_ionic",
    "e_electronic",
    "n",
    "e_ij_max",
    "weighted_surface_energy_EV_PER_ANG2",
    "weighted_surface_energy",
    "weighted_work_function",
    "surface_anisotropy",
    "shape_factor",
    "has_reconstructed",
    "possible_species",
    "has_props",
    "theoretical",
    "database_IDs"
  ]
}
