{
  "builder_meta": null,
  "nsites": null,
  "elements": null,
  "nelements": null,
  "composition": null,
  "composition_reduced": null,
  "formula_pretty": "RbMg",
  "formula_anonymous": "AB",
  "chemsys": null,
  "volume": 321.70160543042687,
  "density": 1.699854956640773,
  "density_atomic": 53.616934238404475,
  "symmetry": null,
  "property_name": null,
  "material_id": "mp-1186894",
  "deprecated": null,
  "deprecation_reasons": null,
  "last_updated": null,
  "origins": null,
  "warnings": null,
  "structure": {
    "@module": "pymatgen.core.structure",
    "@class": "Structure",
    "charge": 0,
    "lattice": {
      "matrix": [
        [2.100575, -15.543725, 0.0],
        [2.100575, 15.543725, 0.0],
        [0.0, 0.0, 4.926403]
      ],
      "pbc": [true, true, true],
      "a": 15.685018399933423,
      "b": 15.685018399933423,
      "c": 4.926403,
      "alpha": 90.0,
      "beta": 90.0,
      "gamma": 164.60737801618257,
      "volume": 321.70160543042687
    },
    "properties": {},
    "sites": [
      {
        "species": [{ "element": "Rb", "occu": 1 }],
        "abc": [0.9616079999999991, 0.038391999999999, 0.0],
        "properties": { "magmom": 0.0 },
        "label": "Rb",
        "xyz": [2.100574999999996, -14.350215619600002, 0.0]
      },
      {
        "species": [{ "element": "Rb", "occu": 1 }],
        "abc": [0.722178, 0.277822, 0.0],
        "properties": { "magmom": -0.0 },
        "label": "Rb",
        "xyz": [2.100575, -6.906947466099999, 0.0]
      },
      {
        "species": [{ "element": "Rb", "occu": 1 }],
        "abc": [0.093332, 0.906667999999999, 0.5],
        "properties": { "magmom": -0.0 },
        "label": "Rb",
        "xyz": [2.1005749999999983, 12.642271116599986, 2.4632015]
      },
      {
        "species": [{ "element": "Mg", "occu": 1 }],
        "abc": [0.334406, 0.665594, 0.0],
        "properties": { "magmom": 0.0 },
        "label": "Mg",
        "xyz": [2.100575, 5.1478951953, 0.0]
      },
      {
        "species": [{ "element": "Mg", "occu": 1 }],
        "abc": [0.396927, 0.603073, 0.5],
        "properties": { "magmom": 0.001 },
        "label": "Mg",
        "xyz": [2.100575, 3.2042767338500004, 2.4632015]
      },
      {
        "species": [{ "element": "Mg", "occu": 1 }],
        "abc": [0.824882999999999, 0.175117, 0.5],
        "properties": { "magmom": 0.0 },
        "label": "Mg",
        "xyz": [2.100574999999998, -10.099784018349986, 2.4632015]
      }
    ]
  },
  "task_ids": null,
  "uncorrected_energy_per_atom": null,
  "energy_per_atom": -1.122126873333333,
  "formation_energy_per_atom": 0.183375170416666,
  "energy_above_hull": 0.183375170416666,
  "is_stable": false,
  "equilibrium_reaction_energy_per_atom": null,
  "decomposes_to": null,
  "xas": null,
  "grain_boundaries": null,
  "band_gap": 0.0,
  "cbm": null,
  "vbm": null,
  "efermi": 0.75864296,
  "is_gap_direct": null,
  "is_metal": null,
  "es_source_calc_id": null,
  "bandstructure": null,
  "dos": null,
  "dos_energy_up": null,
  "dos_energy_down": null,
  "is_magnetic": null,
  "ordering": null,
  "total_magnetization": 0.0044434,
  "total_magnetization_normalized_vol": null,
  "total_magnetization_normalized_formula_units": null,
  "num_magnetic_sites": null,
  "num_unique_magnetic_sites": null,
  "types_of_magnetic_species": null,
  "bulk_modulus": null,
  "shear_modulus": null,
  "universal_anisotropy": null,
  "homogeneous_poisson": null,
  "e_total": null,
  "e_ionic": null,
  "e_electronic": null,
  "n": null,
  "e_ij_max": null,
  "weighted_surface_energy_EV_PER_ANG2": null,
  "weighted_surface_energy": null,
  "weighted_work_function": null,
  "surface_anisotropy": null,
  "shape_factor": null,
  "has_reconstructed": null,
  "possible_species": null,
  "has_props": null,
  "theoretical": null,
  "database_IDs": null,
  "fields_not_requested": [
    "builder_meta",
    "nsites",
    "elements",
    "nelements",
    "composition",
    "composition_reduced",
    "chemsys",
    "symmetry",
    "property_name",
    "deprecated",
    "deprecation_reasons",
    "last_updated",
    "origins",
    "warnings",
    "task_ids",
    "uncorrected_energy_per_atom",
    "equilibrium_reaction_energy_per_atom",
    "decomposes_to",
    "xas",
    "grain_boundaries",
    "cbm",
    "vbm",
    "is_gap_direct",
    "is_metal",
    "es_source_calc_id",
    "bandstructure",
    "dos",
    "dos_energy_up",
    "dos_energy_down",
    "is_magnetic",
    "ordering",
    "total_magnetization_normalized_vol",
    "total_magnetization_normalized_formula_units",
    "num_magnetic_sites",
    "num_unique_magnetic_sites",
    "types_of_magnetic_species",
    "bulk_modulus",
    "shear_modulus",
    "universal_anisotropy",
    "homogeneous_poisson",
    "e_total",
    "e_ionic",
    "e_electronic",
    "n",
    "e_ij_max",
    "weighted_surface_energy_EV_PER_ANG2",
    "weighted_surface_energy",
    "weighted_work_function",
    "surface_anisotropy",
    "shape_factor",
    "has_reconstructed",
    "possible_species",
    "has_props",
    "theoretical",
    "database_IDs"
  ]
}
