{
  "builder_meta": null,
  "nsites": null,
  "elements": null,
  "nelements": null,
  "composition": null,
  "composition_reduced": null,
  "formula_pretty": "RbMg7",
  "formula_anonymous": "AB7",
  "chemsys": null,
  "volume": 224.64033171466144,
  "density": 1.889413319917408,
  "density_atomic": 28.08004146433268,
  "symmetry": null,
  "property_name": null,
  "material_id": "mp-1016325",
  "deprecated": null,
  "deprecation_reasons": null,
  "last_updated": null,
  "origins": null,
  "warnings": null,
  "structure": {
    "@module": "pymatgen.core.structure",
    "@class": "Structure",
    "charge": 0,
    "lattice": {
      "matrix": [
        [3.462617, -5.997428, 0.0],
        [3.462617, 5.997428, 0.0],
        [0.0, 0.0, 5.408642]
      ],
      "pbc": [true, true, true],
      "a": 6.925233505368104,
      "b": 6.925233505368104,
      "c": 5.408642,
      "alpha": 90.0,
      "beta": 90.0,
      "gamma": 119.99999527458777,
      "volume": 224.64033171466144
    },
    "properties": {},
    "sites": [
      {
        "species": [{ "element": "Rb", "occu": 1 }],
        "abc": [0.666667, 0.333333, 0.5],
        "properties": { "magmom": 0.0 },
        "label": "Rb",
        "xyz": [3.462617, -1.999146664952, 2.704321]
      },
      {
        "species": [{ "element": "Mg", "occu": 1 }],
        "abc": [0.162890999999999, 0.325783, 0.5],
        "properties": { "magmom": 0.0 },
        "label": "Mg",
        "xyz": [1.6920908998579964, 0.976933041776006, 2.704321]
      },
      {
        "species": [{ "element": "Mg", "occu": 1 }],
        "abc": [0.674217, 0.837109, 0.5],
        "properties": { "magmom": -0.0 },
        "label": "Mg",
        "xyz": [5.233143100142, 0.9769330417760003, 2.704321]
      },
      {
        "species": [{ "element": "Mg", "occu": 1 }],
        "abc": [0.162890999999999, 0.837109, 0.5],
        "properties": { "magmom": 0.0 },
        "label": "Mg",
        "xyz": [3.4626169999999963, 4.043573911304007, 2.704321]
      },
      {
        "species": [{ "element": "Mg", "occu": 1 }],
        "abc": [0.847814, 0.152186, 0.0],
        "properties": { "magmom": 0.0 },
        "label": "Mg",
        "xyz": [3.462617, -4.171978844784, 0.0]
      },
      {
        "species": [{ "element": "Mg", "occu": 1 }],
        "abc": [0.304371, 0.152186, 0.0],
        "properties": { "magmom": 0.0 },
        "label": "Mg",
        "xyz": [1.580882029669, -0.9127185801800002, 0.0]
      },
      {
        "species": [{ "element": "Mg", "occu": 1 }],
        "abc": [0.847814, 0.695628999999999, 0.0],
        "properties": { "magmom": 0.0 },
        "label": "Mg",
        "xyz": [5.3443519703309965, -0.9127185801800053, 0.0]
      },
      {
        "species": [{ "element": "Mg", "occu": 1 }],
        "abc": [0.333333, 0.666667, 0.0],
        "properties": { "magmom": 0.0 },
        "label": "Mg",
        "xyz": [3.462617, 1.999146664952, 0.0]
      }
    ]
  },
  "task_ids": null,
  "uncorrected_energy_per_atom": null,
  "energy_per_atom": -1.2851113275000001,
  "formation_energy_per_atom": 0.26411669468750004,
  "energy_above_hull": 0.26411669468750004,
  "is_stable": false,
  "equilibrium_reaction_energy_per_atom": null,
  "decomposes_to": null,
  "xas": null,
  "grain_boundaries": null,
  "band_gap": 0.0,
  "cbm": null,
  "vbm": null,
  "efermi": 2.50974742,
  "is_gap_direct": null,
  "is_metal": null,
  "es_source_calc_id": null,
  "bandstructure": null,
  "dos": null,
  "dos_energy_up": null,
  "dos_energy_down": null,
  "is_magnetic": null,
  "ordering": null,
  "total_magnetization": 0.001759299999999,
  "total_magnetization_normalized_vol": null,
  "total_magnetization_normalized_formula_units": null,
  "num_magnetic_sites": null,
  "num_unique_magnetic_sites": null,
  "types_of_magnetic_species": null,
  "bulk_modulus": null,
  "shear_modulus": null,
  "universal_anisotropy": null,
  "homogeneous_poisson": null,
  "e_total": null,
  "e_ionic": null,
  "e_electronic": null,
  "n": null,
  "e_ij_max": null,
  "weighted_surface_energy_EV_PER_ANG2": null,
  "weighted_surface_energy": null,
  "weighted_work_function": null,
  "surface_anisotropy": null,
  "shape_factor": null,
  "has_reconstructed": null,
  "possible_species": null,
  "has_props": null,
  "theoretical": null,
  "database_IDs": null,
  "fields_not_requested": [
    "builder_meta",
    "nsites",
    "elements",
    "nelements",
    "composition",
    "composition_reduced",
    "chemsys",
    "symmetry",
    "property_name",
    "deprecated",
    "deprecation_reasons",
    "last_updated",
    "origins",
    "warnings",
    "task_ids",
    "uncorrected_energy_per_atom",
    "equilibrium_reaction_energy_per_atom",
    "decomposes_to",
    "xas",
    "grain_boundaries",
    "cbm",
    "vbm",
    "is_gap_direct",
    "is_metal",
    "es_source_calc_id",
    "bandstructure",
    "dos",
    "dos_energy_up",
    "dos_energy_down",
    "is_magnetic",
    "ordering",
    "total_magnetization_normalized_vol",
    "total_magnetization_normalized_formula_units",
    "num_magnetic_sites",
    "num_unique_magnetic_sites",
    "types_of_magnetic_species",
    "bulk_modulus",
    "shear_modulus",
    "universal_anisotropy",
    "homogeneous_poisson",
    "e_total",
    "e_ionic",
    "e_electronic",
    "n",
    "e_ij_max",
    "weighted_surface_energy_EV_PER_ANG2",
    "weighted_surface_energy",
    "weighted_work_function",
    "surface_anisotropy",
    "shape_factor",
    "has_reconstructed",
    "possible_species",
    "has_props",
    "theoretical",
    "database_IDs"
  ]
}
