{
  "builder_meta": null,
  "nsites": null,
  "elements": null,
  "nelements": null,
  "composition": null,
  "composition_reduced": null,
  "formula_pretty": "RbN3",
  "formula_anonymous": "AB3",
  "chemsys": null,
  "volume": 149.35040345180363,
  "density": 2.834925565328127,
  "density_atomic": 18.668800431475454,
  "symmetry": null,
  "property_name": null,
  "material_id": "mp-743",
  "deprecated": null,
  "deprecation_reasons": null,
  "last_updated": null,
  "origins": null,
  "warnings": null,
  "structure": {
    "@module": "pymatgen.core.structure",
    "@class": "Structure",
    "charge": 0,
    "lattice": {
      "matrix": [
        [5.31115135, -0.03132479, -2.40389994],
        [-3.09334413, 4.83564458, -1.02292869],
        [-0.01962927, 0.030675360000000002, 5.83071946]
      ],
      "pbc": [true, true, true],
      "a": 5.82992665705216,
      "b": 5.830833518075607,
      "c": 5.830833191506557,
      "alpha": 99.7460773760362,
      "beta": 114.54608736398022,
      "gamma": 114.54607682527629,
      "volume": 149.35040345180363
    },
    "properties": {},
    "sites": [
      {
        "species": [{ "element": "Rb", "occu": 1 }],
        "abc": [-0.0, 0.750000999999999, 0.749999],
        "properties": { "magmom": -0.0 },
        "label": "Rb",
        "xyz": [-2.3347331237148574, 3.6497447599692157, 3.605836223851851]
      },
      {
        "species": [{ "element": "Rb", "occu": 1 }],
        "abc": [-0.0, 0.249999, 0.250001],
        "properties": { "magmom": -0.0 },
        "label": "Rb",
        "xyz": [-0.7782402762851401, 1.21657518003078, 1.20195454614815]
      },
      {
        "species": [{ "element": "N", "occu": 1 }],
        "abc": [0.5, -0.0, 0.5],
        "properties": { "magmom": 0.0 },
        "label": "N",
        "xyz": [2.64576104, -0.000324714999999998, 1.71340976]
      },
      {
        "species": [{ "element": "N", "occu": 1 }],
        "abc": [0.5, 0.5, -0.0],
        "properties": { "magmom": 0.0 },
        "label": "N",
        "xyz": [1.10890361, 2.402159895, -1.713414315]
      },
      {
        "species": [{ "element": "N", "occu": 1 }],
        "abc": [0.76537664, 0.63268732, 0.13268732],
        "properties": { "magmom": 0.0 },
        "label": "N",
        "xyz": [2.105307012117176, 3.039545978582255, -1.7134203315813652]
      },
      {
        "species": [{ "element": "N", "occu": 1 }],
        "abc": [0.5, 0.13263898, 0.36736102],
        "properties": { "magmom": -0.0 },
        "label": "N",
        "xyz": [2.2380666361587576, 0.6370015012721956, 0.8043488601051128]
      },
      {
        "species": [{ "element": "N", "occu": 1 }],
        "abc": [0.5, 0.86736102, 0.63263898],
        "properties": { "magmom": -0.0 },
        "label": "N",
        "xyz": [-0.039888686158757514, 4.197993648727805, 1.599541969894887]
      },
      {
        "species": [{ "element": "N", "occu": 1 }],
        "abc": [0.23462336, 0.36731268, 0.8673126800000001],
        "properties": { "magmom": 0.0 },
        "label": "N",
        "xyz": [0.09287093788282393, 1.7954491714177447, 4.117311161581366]
      }
    ]
  },
  "task_ids": null,
  "uncorrected_energy_per_atom": null,
  "energy_per_atom": -6.63904613625,
  "formation_energy_per_atom": -0.140204309375,
  "energy_above_hull": 0.0,
  "is_stable": true,
  "equilibrium_reaction_energy_per_atom": null,
  "decomposes_to": null,
  "xas": null,
  "grain_boundaries": null,
  "band_gap": 4.1608,
  "cbm": null,
  "vbm": null,
  "efermi": -0.40067465,
  "is_gap_direct": null,
  "is_metal": null,
  "es_source_calc_id": null,
  "bandstructure": null,
  "dos": null,
  "dos_energy_up": null,
  "dos_energy_down": null,
  "is_magnetic": null,
  "ordering": null,
  "total_magnetization": 0.0,
  "total_magnetization_normalized_vol": null,
  "total_magnetization_normalized_formula_units": null,
  "num_magnetic_sites": null,
  "num_unique_magnetic_sites": null,
  "types_of_magnetic_species": null,
  "bulk_modulus": null,
  "shear_modulus": null,
  "universal_anisotropy": null,
  "homogeneous_poisson": null,
  "e_total": null,
  "e_ionic": null,
  "e_electronic": null,
  "n": null,
  "e_ij_max": null,
  "weighted_surface_energy_EV_PER_ANG2": null,
  "weighted_surface_energy": null,
  "weighted_work_function": null,
  "surface_anisotropy": null,
  "shape_factor": null,
  "has_reconstructed": null,
  "possible_species": null,
  "has_props": null,
  "theoretical": null,
  "database_IDs": null,
  "fields_not_requested": [
    "builder_meta",
    "nsites",
    "elements",
    "nelements",
    "composition",
    "composition_reduced",
    "chemsys",
    "symmetry",
    "property_name",
    "deprecated",
    "deprecation_reasons",
    "last_updated",
    "origins",
    "warnings",
    "task_ids",
    "uncorrected_energy_per_atom",
    "equilibrium_reaction_energy_per_atom",
    "decomposes_to",
    "xas",
    "grain_boundaries",
    "cbm",
    "vbm",
    "is_gap_direct",
    "is_metal",
    "es_source_calc_id",
    "bandstructure",
    "dos",
    "dos_energy_up",
    "dos_energy_down",
    "is_magnetic",
    "ordering",
    "total_magnetization_normalized_vol",
    "total_magnetization_normalized_formula_units",
    "num_magnetic_sites",
    "num_unique_magnetic_sites",
    "types_of_magnetic_species",
    "bulk_modulus",
    "shear_modulus",
    "universal_anisotropy",
    "homogeneous_poisson",
    "e_total",
    "e_ionic",
    "e_electronic",
    "n",
    "e_ij_max",
    "weighted_surface_energy_EV_PER_ANG2",
    "weighted_surface_energy",
    "weighted_work_function",
    "surface_anisotropy",
    "shape_factor",
    "has_reconstructed",
    "possible_species",
    "has_props",
    "theoretical",
    "database_IDs"
  ]
}
