{"builder_meta": null, "nsites": null, "elements": null, "nelements": null, "composition": null, "composition_reduced": null, "formula_pretty": "RbNa3", "formula_anonymous": "AB3", "chemsys": null, "volume": 411.06337184205006, "density": 1.247733894420429, "density_atomic": 51.38292148025626, "symmetry": null, "property_name": null, "material_id": "mp-975109", "deprecated": null, "deprecation_reasons": null, "last_updated": null, "origins": null, "warnings": null, "structure": {"@module": "pymatgen.core.structure", "@class": "Structure", "charge": 0, "lattice": {"matrix": [[8.63217047, 2e-08, 0.0], [-4.3160842, 7.47567793, 0.0], [0.0, 0.0, 6.36998176]], "pbc": [true, true, true], "a": 8.63217047, "b": 8.632169097890674, "c": 6.36998176, "alpha": 90.0, "beta": 90.0, "gamma": 119.99999719283154, "volume": 411.06337184205006}, "properties": {}, "sites": [{"species": [{"element": "Rb", "occu": 1}], "abc": [0.333333, 0.666667, 0.75], "properties": {"magmom": 0.001}, "label": "Rb", "xyz": [-3.6260848896851883e-06, 4.98378778522597, 4.7774863199999995]}, {"species": [{"element": "Rb", "occu": 1}], "abc": [0.666666, 0.333333, 0.250001], "properties": {"magmom": 0.001}, "label": "Rb", "xyz": [4.31608126391442, 2.4918901647740097, 1.5925018099817598]}, {"species": [{"element": "Na", "occu": 1}], "abc": [0.14303089, 0.28606177, 0.250001], "properties": {"magmom": 0.002}, "label": "Na", "xyz": [3.3923478448549815e-07, 2.1385056634663537, 1.5925018099817598]}, {"species": [{"element": "Na", "occu": 1}], "abc": [0.71393823, 0.8569681100000001, 0.250001], "properties": {"magmom": 0.002}, "label": "Na", "xyz": [2.464089986935206, 6.4064176009195775, 1.5925018099817598]}, {"species": [{"element": "Na", "occu": 1}], "abc": [0.14302989, 0.8569681100000001, 0.250001], "properties": {"magmom": 0.002}, "label": "Na", "xyz": [-2.464088126689514, 6.406417589501411, 1.5925018099817598]}, {"species": [{"element": "Na", "occu": 1}], "abc": [0.85696911, 0.71393723, 0.75], "properties": {"magmom": 0.002}, "label": "Na", "xyz": [4.316090246849416, 5.337164810855716, 4.7774863199999995]}, {"species": [{"element": "Na", "occu": 1}], "abc": [0.28606177, 0.14303089, 0.75], "properties": {"magmom": 0.002}, "label": "Na", "xyz": [1.8520005991489943, 1.069252873402493, 4.7774863199999995]}, {"species": [{"element": "Na", "occu": 1}], "abc": [0.8569681100000001, 0.14303089, 0.75], "properties": {"magmom": 0.002}, "label": "Na", "xyz": [6.780161448432774, 1.0692528848206198, 4.7774863199999995]}]}, "task_ids": null, "uncorrected_energy_per_atom": null, "energy_per_atom": -1.18511284625, "formation_energy_per_atom": 0.066311255840517, "energy_above_hull": 0.066311255840517, "is_stable": false, "equilibrium_reaction_energy_per_atom": null, "decomposes_to": null, "xas": null, "grain_boundaries": null, "band_gap": 0.0, "cbm": null, "vbm": null, "efermi": 0.36048138, "is_gap_direct": null, "is_metal": null, "es_source_calc_id": null, "bandstructure": null, "dos": null, "dos_energy_up": null, "dos_energy_down": null, "is_magnetic": null, "ordering": null, "total_magnetization": 0.0715063, "total_magnetization_normalized_vol": null, "total_magnetization_normalized_formula_units": null, "num_magnetic_sites": null, "num_unique_magnetic_sites": null, "types_of_magnetic_species": null, "bulk_modulus": null, "shear_modulus": null, "universal_anisotropy": null, "homogeneous_poisson": null, "e_total": null, "e_ionic": null, "e_electronic": null, "n": null, "e_ij_max": null, "weighted_surface_energy_EV_PER_ANG2": null, "weighted_surface_energy": null, "weighted_work_function": null, "surface_anisotropy": null, "shape_factor": null, "has_reconstructed": null, "possible_species": null, "has_props": null, "theoretical": null, "database_IDs": null, "fields_not_requested": ["builder_meta", "nsites", "elements", "nelements", "composition", "composition_reduced", "chemsys", "symmetry", "property_name", "deprecated", "deprecation_reasons", "last_updated", "origins", "warnings", "task_ids", "uncorrected_energy_per_atom", "equilibrium_reaction_energy_per_atom", "decomposes_to", "xas", "grain_boundaries", "cbm", "vbm", "is_gap_direct", "is_metal", "es_source_calc_id", "bandstructure", "dos", "dos_energy_up", "dos_energy_down", "is_magnetic", "ordering", "total_magnetization_normalized_vol", "total_magnetization_normalized_formula_units", "num_magnetic_sites", "num_unique_magnetic_sites", "types_of_magnetic_species", "bulk_modulus", "shear_modulus", "universal_anisotropy", "homogeneous_poisson", "e_total", "e_ionic", "e_electronic", "n", "e_ij_max", "weighted_surface_energy_EV_PER_ANG2", "weighted_surface_energy", "weighted_work_function", "surface_anisotropy", "shape_factor", "has_reconstructed", "possible_species", "has_props", "theoretical", "database_IDs"]}