{
  "builder_meta": null,
  "nsites": null,
  "elements": null,
  "nelements": null,
  "composition": null,
  "composition_reduced": null,
  "formula_pretty": "RbO3",
  "formula_anonymous": "AB3",
  "chemsys": null,
  "volume": 307.77511089530907,
  "density": 2.880356457910235,
  "density_atomic": 19.235944430956817,
  "symmetry": null,
  "property_name": null,
  "material_id": "mp-1806",
  "deprecated": null,
  "deprecation_reasons": null,
  "last_updated": null,
  "origins": null,
  "warnings": null,
  "structure": {
    "@module": "pymatgen.core.structure",
    "@class": "Structure",
    "charge": 0,
    "lattice": {
      "matrix": [
        [6.176114, 0.0, 0.0],
        [0.0, 6.656225, 0.0],
        [0.0, 5.027069, 7.486696]
      ],
      "pbc": [true, true, true],
      "a": 6.176114,
      "b": 6.656225,
      "c": 9.017873348366399,
      "alpha": 56.11994419542687,
      "beta": 90.0,
      "gamma": 90.0,
      "volume": 307.77511089530907
    },
    "properties": {},
    "sites": [
      {
        "species": [{ "element": "Rb", "occu": 1 }],
        "abc": [0.7433200000000001, 0.22347000000000003, 0.414581],
        "properties": { "magmom": 0.006 },
        "label": "Rb",
        "xyz": [4.590829058480001, 3.571593893839, 3.103841914376]
      },
      {
        "species": [{ "element": "Rb", "occu": 1 }],
        "abc": [0.24332, 0.77653, 0.085419],
        "properties": { "magmom": 0.006 },
        "label": "Rb",
        "xyz": [1.5027720584800002, 5.598165606161, 0.639506085624]
      },
      {
        "species": [{ "element": "Rb", "occu": 1 }],
        "abc": [0.25668, 0.77653, 0.585419],
        "properties": { "magmom": 0.006 },
        "label": "Rb",
        "xyz": [1.58528494152, 8.111700106161, 4.382854085624]
      },
      {
        "species": [{ "element": "Rb", "occu": 1 }],
        "abc": [0.75668, 0.22347000000000003, 0.914581],
        "properties": { "magmom": 0.006 },
        "label": "Rb",
        "xyz": [4.67334194152, 6.085128393839001, 6.847189914376]
      },
      {
        "species": [{ "element": "O", "occu": 1 }],
        "abc": [0.437411, 0.107335, 0.202714999999999],
        "properties": { "magmom": 0.248 },
        "label": "O",
        "xyz": [2.701500200854, 1.733508202709995, 1.5176655796399927]
      },
      {
        "species": [{ "element": "O", "occu": 1 }],
        "abc": [0.937411, 0.892664999999999, 0.297284999999999],
        "properties": { "magmom": 0.248 },
        "label": "O",
        "xyz": [5.789557200854, 7.436251297289989, 2.2256824203599925]
      },
      {
        "species": [{ "element": "O", "occu": 1 }],
        "abc": [0.562589, 0.892664999999999, 0.797284999999999],
        "properties": { "magmom": 0.248 },
        "label": "O",
        "xyz": [3.474613799146, 9.949785797289989, 5.969030420359993]
      },
      {
        "species": [{ "element": "O", "occu": 1 }],
        "abc": [0.062588999999999, 0.107335, 0.702715],
        "properties": { "magmom": 0.248 },
        "label": "O",
        "xyz": [0.3865567991459939, 4.24704270271, 5.26101357964]
      },
      {
        "species": [{ "element": "O", "occu": 1 }],
        "abc": [0.205809, 0.29048, 0.5998800000000001],
        "properties": { "magmom": 0.334 },
        "label": "O",
        "xyz": [1.271099846226, 4.949138389720001, 4.491119196480001]
      },
      {
        "species": [{ "element": "O", "occu": 1 }],
        "abc": [0.705809, 0.70952, 0.90012],
        "properties": { "magmom": 0.334 },
        "label": "O",
        "xyz": [4.359156846226, 9.24769011028, 6.738924803520001]
      },
      {
        "species": [{ "element": "O", "occu": 1 }],
        "abc": [0.794191, 0.70952, 0.40012000000000003],
        "properties": { "magmom": 0.334 },
        "label": "O",
        "xyz": [4.905014153774, 6.73415561028, 2.99557680352]
      },
      {
        "species": [{ "element": "O", "occu": 1 }],
        "abc": [0.294191, 0.29048, 0.09988000000000001],
        "properties": { "magmom": 0.334 },
        "label": "O",
        "xyz": [1.816957153774, 2.4356038897200003, 0.7477711964800001]
      },
      {
        "species": [{ "element": "O", "occu": 1 }],
        "abc": [0.257136, 0.314791999999999, 0.442588],
        "properties": { "magmom": 0.234 },
        "label": "O",
        "xyz": [1.588101249504, 4.320246794771993, 3.313521809248]
      },
      {
        "species": [{ "element": "O", "occu": 1 }],
        "abc": [0.757135999999999, 0.685207999999999, 0.057412],
        "properties": { "magmom": 0.234 },
        "label": "O",
        "xyz": [4.676158249503994, 4.849512705227993, 0.429826190752]
      },
      {
        "species": [{ "element": "O", "occu": 1 }],
        "abc": [0.742864, 0.685207999999999, 0.557412],
        "properties": { "magmom": 0.234 },
        "label": "O",
        "xyz": [4.5880127504959995, 7.363047205227994, 4.173174190752]
      },
      {
        "species": [{ "element": "O", "occu": 1 }],
        "abc": [0.242864, 0.314791999999999, 0.942588],
        "properties": { "magmom": 0.234 },
        "label": "O",
        "xyz": [1.499955750496, 6.833781294771994, 7.056869809248]
      }
    ]
  },
  "task_ids": null,
  "uncorrected_energy_per_atom": null,
  "energy_per_atom": -4.602539651875,
  "formation_energy_per_atom": -0.64643538,
  "energy_above_hull": 0.082759841874999,
  "is_stable": false,
  "equilibrium_reaction_energy_per_atom": null,
  "decomposes_to": null,
  "xas": null,
  "grain_boundaries": null,
  "band_gap": 0.8986000000000001,
  "cbm": null,
  "vbm": null,
  "efermi": -0.24134234000000002,
  "is_gap_direct": null,
  "is_metal": null,
  "es_source_calc_id": null,
  "bandstructure": null,
  "dos": null,
  "dos_energy_up": null,
  "dos_energy_down": null,
  "is_magnetic": null,
  "ordering": null,
  "total_magnetization": 3.9993257,
  "total_magnetization_normalized_vol": null,
  "total_magnetization_normalized_formula_units": null,
  "num_magnetic_sites": null,
  "num_unique_magnetic_sites": null,
  "types_of_magnetic_species": null,
  "bulk_modulus": null,
  "shear_modulus": null,
  "universal_anisotropy": null,
  "homogeneous_poisson": null,
  "e_total": null,
  "e_ionic": null,
  "e_electronic": null,
  "n": null,
  "e_ij_max": null,
  "weighted_surface_energy_EV_PER_ANG2": null,
  "weighted_surface_energy": null,
  "weighted_work_function": null,
  "surface_anisotropy": null,
  "shape_factor": null,
  "has_reconstructed": null,
  "possible_species": null,
  "has_props": null,
  "theoretical": null,
  "database_IDs": null,
  "fields_not_requested": [
    "builder_meta",
    "nsites",
    "elements",
    "nelements",
    "composition",
    "composition_reduced",
    "chemsys",
    "symmetry",
    "property_name",
    "deprecated",
    "deprecation_reasons",
    "last_updated",
    "origins",
    "warnings",
    "task_ids",
    "uncorrected_energy_per_atom",
    "equilibrium_reaction_energy_per_atom",
    "decomposes_to",
    "xas",
    "grain_boundaries",
    "cbm",
    "vbm",
    "is_gap_direct",
    "is_metal",
    "es_source_calc_id",
    "bandstructure",
    "dos",
    "dos_energy_up",
    "dos_energy_down",
    "is_magnetic",
    "ordering",
    "total_magnetization_normalized_vol",
    "total_magnetization_normalized_formula_units",
    "num_magnetic_sites",
    "num_unique_magnetic_sites",
    "types_of_magnetic_species",
    "bulk_modulus",
    "shear_modulus",
    "universal_anisotropy",
    "homogeneous_poisson",
    "e_total",
    "e_ionic",
    "e_electronic",
    "n",
    "e_ij_max",
    "weighted_surface_energy_EV_PER_ANG2",
    "weighted_surface_energy",
    "weighted_work_function",
    "surface_anisotropy",
    "shape_factor",
    "has_reconstructed",
    "possible_species",
    "has_props",
    "theoretical",
    "database_IDs"
  ]
}
