{
  "builder_meta": null,
  "nsites": null,
  "elements": null,
  "nelements": null,
  "composition": null,
  "composition_reduced": null,
  "formula_pretty": "RbPb",
  "formula_anonymous": "AB",
  "chemsys": null,
  "volume": 1417.8657768204687,
  "density": 5.484144672996493,
  "density_atomic": 44.308305525639646,
  "symmetry": null,
  "property_name": null,
  "material_id": "mp-21525",
  "deprecated": null,
  "deprecation_reasons": null,
  "last_updated": null,
  "origins": null,
  "warnings": null,
  "structure": {
    "@module": "pymatgen.core.structure",
    "@class": "Structure",
    "charge": 0,
    "lattice": {
      "matrix": [
        [10.65330957, 0.0, -5.5615429899999995],
        [-2.903393679999999, 10.25003861, -5.5615429800000005],
        [0.00010356, 0.00013831, 12.98434568]
      ],
      "pbc": [true, true, true],
      "a": 12.017643913174982,
      "b": 12.017643141895253,
      "c": 12.984345681149629,
      "alpha": 117.56627642151236,
      "beta": 117.56628025126449,
      "gamma": 89.99999654957571,
      "volume": 1417.8657768204687
    },
    "properties": {},
    "sites": [
      {
        "species": [{ "element": "Rb", "occu": 1 }],
        "abc": [0.1138327, 0.25, 0.5],
        "properties": { "magmom": -0.0 },
        "label": "Rb",
        "xyz": [0.48689835228893924, 2.5625788075, 4.4687016402822275]
      },
      {
        "species": [{ "element": "Rb", "occu": 1 }],
        "abc": [0.75, 0.1138327, -0.0],
        "properties": { "magmom": -0.0 },
        "label": "Rb",
        "xyz": [7.659481035742664, 1.166789570080547, -4.804242696079446]
      },
      {
        "species": [{ "element": "Rb", "occu": 1 }],
        "abc": [0.25, 0.3861673, 0.0],
        "properties": { "magmom": -0.0 },
        "label": "Rb",
        "xyz": [1.5421316942573362, 3.958229734919453, -3.538071783920554]
      },
      {
        "species": [{ "element": "Rb", "occu": 1 }],
        "abc": [0.3861673, 0.75, 0.5],
        "properties": { "magmom": -0.0 },
        "label": "Rb",
        "xyz": [1.9364663127110615, 7.687598112500001, 0.17332956471777283]
      },
      {
        "species": [{ "element": "Rb", "occu": 1 }],
        "abc": [0.8861673, 0.75, 0.5],
        "properties": { "magmom": -0.0 },
        "label": "Rb",
        "xyz": [7.2631210977110605, 7.687598112500001, -2.607441930282226]
      },
      {
        "species": [{ "element": "Rb", "occu": 1 }],
        "abc": [0.25, 0.8861673, 0.0],
        "properties": { "magmom": -0.0 },
        "label": "Rb",
        "xyz": [0.090434854257337, 9.083249039919453, -6.318843273920554]
      },
      {
        "species": [{ "element": "Rb", "occu": 1 }],
        "abc": [0.75, 0.6138327, -0.0],
        "properties": { "magmom": -0.0 },
        "label": "Rb",
        "xyz": [6.207784195742665, 6.291808875080547, -7.585014186079446]
      },
      {
        "species": [{ "element": "Rb", "occu": 1 }],
        "abc": [0.6138327, 0.25, 0.5],
        "properties": { "magmom": -0.0 },
        "label": "Rb",
        "xyz": [5.813553137288938, 2.5625788075, 1.6879301452822268]
      },
      {
        "species": [{ "element": "Rb", "occu": 1 }],
        "abc": [0.50374674, 0.75374674, 0.25],
        "properties": { "magmom": -0.0 },
        "label": "Rb",
        "xyz": [3.178172334861699, 7.725967764661632, -3.747517621127238]
      },
      {
        "species": [{ "element": "Rb", "occu": 1 }],
        "abc": [0.99625326, 0.50374674, 0.75],
        "properties": { "magmom": -0.0 },
        "label": "Rb",
        "xyz": [9.150896957665095, 5.163527267161632, 1.3959447800374676]
      },
      {
        "species": [{ "element": "Rb", "occu": 1 }],
        "abc": [0.75374674, 0.74625326, 0.75],
        "properties": { "magmom": -0.0 },
        "label": "Rb",
        "xyz": [5.863308029834904, 7.64922846033837, 1.3959447824625322]
      },
      {
        "species": [{ "element": "Rb", "occu": 1 }],
        "abc": [0.74625326, 0.99625326, 0.25],
        "properties": { "magmom": -0.0 },
        "label": "Rb",
        "xyz": [5.057577467638302, 10.211668957838368, -6.4449384913727625]
      },
      {
        "species": [{ "element": "Rb", "occu": 1 }],
        "abc": [0.49625326000000003, 0.24625326, 0.75],
        "properties": { "magmom": -0.0 },
        "label": "Rb",
        "xyz": [4.5718471151383016, 2.5242091553383688, 5.6087773311272375]
      },
      {
        "species": [{ "element": "Rb", "occu": 1 }],
        "abc": [0.00374674, 0.49625326000000003, 0.25],
        "properties": { "magmom": -0.0 },
        "label": "Rb",
        "xyz": [-1.4008775076650943, 5.08664965283837, 0.46531492996253254]
      },
      {
        "species": [{ "element": "Rb", "occu": 1 }],
        "abc": [0.24625326, 0.25374674, 0.25],
        "properties": { "magmom": -0.0 },
        "label": "Rb",
        "xyz": [1.886711420165095, 2.600948459661632, 0.4653149275374675]
      },
      {
        "species": [{ "element": "Rb", "occu": 1 }],
        "abc": [0.25374674, 0.00374674, 0.75],
        "properties": { "magmom": -0.0 },
        "label": "Rb",
        "xyz": [2.6924419823616987, 0.03850796216163141, 8.306198201372762]
      },
      {
        "species": [{ "element": "Pb", "occu": 1 }],
        "abc": [0.99249542, 0.06761316, 0.86302333],
        "properties": { "magmom": 0.0 },
        "label": "Pb",
        "xyz": [10.377142709334395, 0.69315686530088, 5.3099538055629925]
      },
      {
        "species": [{ "element": "Pb", "occu": 1 }],
        "abc": [0.29541117, 0.99249542, 0.36302333000000003],
        "properties": { "magmom": 0.0 },
        "label": "Pb",
        "xyz": [0.2655393092850068, 10.173166585004939, -2.4491274508396357]
      },
      {
        "species": [{ "element": "Pb", "occu": 1 }],
        "abc": [0.06761316, 0.87052891, 0.36302333000000003],
        "properties": { "magmom": 0.0 },
        "label": "Pb",
        "xyz": [-1.807146616369292, 8.923005148377987, -0.5038970377025853]
      },
      {
        "species": [{ "element": "Pb", "occu": 1 }],
        "abc": [0.62947109, 0.43238684, 0.13697667],
        "properties": { "magmom": 0.0 },
        "label": "Pb",
        "xyz": [5.450575353868105, 4.43200074969912, -4.127016089268257]
      },
      {
        "species": [{ "element": "Pb", "occu": 1 }],
        "abc": [0.50750458, 0.20458883, 0.13697667],
        "properties": { "magmom": 0.0 },
        "label": "Pb",
        "xyz": [4.812615668216181, 2.097062351917954, -2.181785677189522]
      },
      {
        "species": [{ "element": "Pb", "occu": 1 }],
        "abc": [0.20458883, 0.62947109, 0.63697667],
        "properties": { "magmom": 0.0 },
        "label": "Pb",
        "xyz": [0.3520117214093377, 6.452191076622014, 3.6320651783540354]
      },
      {
        "species": [{ "element": "Pb", "occu": 1 }],
        "abc": [0.43238684, 0.50750458, 0.63697667],
        "properties": { "magmom": 0.0 },
        "label": "Pb",
        "xyz": [3.1329312356749495, 5.202029639995062, 3.0434787401881858]
      },
      {
        "species": [{ "element": "Pb", "occu": 1 }],
        "abc": [0.87052891, 0.29541117, 0.86302333],
        "properties": { "magmom": 0.0 },
        "label": "Pb",
        "xyz": [8.416408418581318, 3.028095263082046, 4.721367370894788]
      },
      {
        "species": [{ "element": "Pb", "occu": 1 }],
        "abc": [0.00750458, 0.93238684, 0.13697667],
        "properties": { "magmom": 0.0 },
        "label": "Pb",
        "xyz": [-2.6271232593343945, 9.557020054699121, -3.448694095562993]
      },
      {
        "species": [{ "element": "Pb", "occu": 1 }],
        "abc": [0.70458883, 0.00750458, 0.63697667],
        "properties": { "magmom": 0.0 },
        "label": "Pb",
        "xyz": [7.484480140714995, 0.0770103349950615, 4.310387160839635]
      },
      {
        "species": [{ "element": "Pb", "occu": 1 }],
        "abc": [0.93238684, 0.12947109, 0.63697667],
        "properties": { "magmom": 0.0 },
        "label": "Pb",
        "xyz": [9.557166066369291, 1.3271717716220128, 2.365156747702586]
      },
      {
        "species": [{ "element": "Pb", "occu": 1 }],
        "abc": [0.37052891, 0.5676131600000001, 0.86302333],
        "properties": { "magmom": 0.0 },
        "label": "Pb",
        "xyz": [2.2994440961318947, 5.81817617030088, 5.988275799268257]
      },
      {
        "species": [{ "element": "Pb", "occu": 1 }],
        "abc": [0.49249542, 0.7954111700000001, 0.86302333],
        "properties": { "magmom": 0.0 },
        "label": "Pb",
        "xyz": [2.937403781783819, 8.153114568082048, 4.043045387189522]
      },
      {
        "species": [{ "element": "Pb", "occu": 1 }],
        "abc": [0.7954111700000001, 0.37052891, 0.36302333000000003],
        "properties": { "magmom": 0.0 },
        "label": "Pb",
        "xyz": [7.398007728590664, 3.7979858433779876, -1.7708054683540357]
      },
      {
        "species": [{ "element": "Pb", "occu": 1 }],
        "abc": [0.5676131600000001, 0.49249542, 0.36302333000000003],
        "properties": { "magmom": 0.0 },
        "label": "Pb",
        "xyz": [4.617088214325051, 5.048147280004939, -1.182219030188186]
      },
      {
        "species": [{ "element": "Pb", "occu": 1 }],
        "abc": [0.12947109, 0.70458883, 0.13697667],
        "properties": { "magmom": 0.0 },
        "label": "Pb",
        "xyz": [-0.6663889685813175, 7.222081656917955, -2.860107660894788]
      }
    ]
  },
  "task_ids": null,
  "uncorrected_energy_per_atom": null,
  "energy_per_atom": -2.563732597812503,
  "formation_energy_per_atom": -0.217142026562501,
  "energy_above_hull": 0.0,
  "is_stable": true,
  "equilibrium_reaction_energy_per_atom": null,
  "decomposes_to": null,
  "xas": null,
  "grain_boundaries": null,
  "band_gap": 0.5688,
  "cbm": null,
  "vbm": null,
  "efermi": 2.63393394,
  "is_gap_direct": null,
  "is_metal": null,
  "es_source_calc_id": null,
  "bandstructure": null,
  "dos": null,
  "dos_energy_up": null,
  "dos_energy_down": null,
  "is_magnetic": null,
  "ordering": null,
  "total_magnetization": 7e-7,
  "total_magnetization_normalized_vol": null,
  "total_magnetization_normalized_formula_units": null,
  "num_magnetic_sites": null,
  "num_unique_magnetic_sites": null,
  "types_of_magnetic_species": null,
  "bulk_modulus": null,
  "shear_modulus": null,
  "universal_anisotropy": null,
  "homogeneous_poisson": null,
  "e_total": null,
  "e_ionic": null,
  "e_electronic": null,
  "n": null,
  "e_ij_max": null,
  "weighted_surface_energy_EV_PER_ANG2": null,
  "weighted_surface_energy": null,
  "weighted_work_function": null,
  "surface_anisotropy": null,
  "shape_factor": null,
  "has_reconstructed": null,
  "possible_species": null,
  "has_props": null,
  "theoretical": null,
  "database_IDs": null,
  "fields_not_requested": [
    "builder_meta",
    "nsites",
    "elements",
    "nelements",
    "composition",
    "composition_reduced",
    "chemsys",
    "symmetry",
    "property_name",
    "deprecated",
    "deprecation_reasons",
    "last_updated",
    "origins",
    "warnings",
    "task_ids",
    "uncorrected_energy_per_atom",
    "equilibrium_reaction_energy_per_atom",
    "decomposes_to",
    "xas",
    "grain_boundaries",
    "cbm",
    "vbm",
    "is_gap_direct",
    "is_metal",
    "es_source_calc_id",
    "bandstructure",
    "dos",
    "dos_energy_up",
    "dos_energy_down",
    "is_magnetic",
    "ordering",
    "total_magnetization_normalized_vol",
    "total_magnetization_normalized_formula_units",
    "num_magnetic_sites",
    "num_unique_magnetic_sites",
    "types_of_magnetic_species",
    "bulk_modulus",
    "shear_modulus",
    "universal_anisotropy",
    "homogeneous_poisson",
    "e_total",
    "e_ionic",
    "e_electronic",
    "n",
    "e_ij_max",
    "weighted_surface_energy_EV_PER_ANG2",
    "weighted_surface_energy",
    "weighted_work_function",
    "surface_anisotropy",
    "shape_factor",
    "has_reconstructed",
    "possible_species",
    "has_props",
    "theoretical",
    "database_IDs"
  ]
}
