{
  "builder_meta": null,
  "nsites": null,
  "elements": null,
  "nelements": null,
  "composition": null,
  "composition_reduced": null,
  "formula_pretty": "RbS",
  "formula_anonymous": "AB",
  "chemsys": null,
  "volume": 418.74230969876413,
  "density": 2.796485592496512,
  "density_atomic": 34.89519247489701,
  "symmetry": null,
  "property_name": null,
  "material_id": "mp-9062",
  "deprecated": null,
  "deprecation_reasons": null,
  "last_updated": null,
  "origins": null,
  "warnings": null,
  "structure": {
    "@module": "pymatgen.core.structure",
    "@class": "Structure",
    "charge": 0,
    "lattice": {
      "matrix": [
        [8.91022901, -1e-8, -0.0],
        [-4.45511502, 7.71648454, -0.0],
        [-0.0, -0.0, 6.09029722]
      ],
      "pbc": [true, true, true],
      "a": 8.91022901,
      "b": 8.910229149549894,
      "c": 6.09029722,
      "alpha": 90.0,
      "beta": 90.0,
      "gamma": 120.00000337015022,
      "volume": 418.74230969876413
    },
    "properties": {},
    "sites": [
      {
        "species": [{ "element": "Rb", "occu": 1 }],
        "abc": [-0.0, 0.304016499999999, 0.5],
        "properties": { "magmom": -0.0 },
        "label": "Rb",
        "xyz": [-1.3544284754778257, 2.3459386221549026, 3.04514861]
      },
      {
        "species": [{ "element": "Rb", "occu": 1 }],
        "abc": [0.6959835, 0.6959835, 0.5],
        "properties": { "magmom": -0.0 },
        "label": "Rb",
        "xyz": [3.1006858276591647, 5.370545910885254, 3.04514861]
      },
      {
        "species": [{ "element": "Rb", "occu": 1 }],
        "abc": [0.304016499999999, -0.0, 0.5],
        "properties": { "magmom": -0.0 },
        "label": "Rb",
        "xyz": [2.7088566378186565, -3.0401649999999904e-9, 3.04514861]
      },
      {
        "species": [{ "element": "Rb", "occu": 1 }],
        "abc": [-0.0, 0.63998306, -0.0],
        "properties": { "magmom": -0.0 },
        "label": "Rb",
        "xyz": [-2.8511981431515614, 4.9384193883518925, 0.0]
      },
      {
        "species": [{ "element": "Rb", "occu": 1 }],
        "abc": [0.36001694, 0.36001694, -0.0],
        "properties": { "magmom": -0.0 },
        "label": "Rb",
        "xyz": [1.6039165060309906, 2.778065148047938, 0.0]
      },
      {
        "species": [{ "element": "Rb", "occu": 1 }],
        "abc": [0.63998306, -0.0, -0.0],
        "properties": { "magmom": -0.0 },
        "label": "Rb",
        "xyz": [5.702395627120571, -6.399830600000001e-9, 0.0]
      },
      {
        "species": [{ "element": "S", "occu": 1 }],
        "abc": [0.666667, 0.333333, 0.32512246],
        "properties": { "magmom": 0.0 },
        "label": "S",
        "xyz": [4.455118788448011, 2.57215893450515, 1.9800924142975613]
      },
      {
        "species": [{ "element": "S", "occu": 1 }],
        "abc": [0.666667, 0.333333, 0.67487754],
        "properties": { "magmom": 0.0 },
        "label": "S",
        "xyz": [4.455118788448011, 2.57215893450515, 4.1102048057024385]
      },
      {
        "species": [{ "element": "S", "occu": 1 }],
        "abc": [0.333333, 0.666667, 0.67487754],
        "properties": { "magmom": 0.0 },
        "label": "S",
        "xyz": [-4.79844801004603e-6, 5.14432559549485, 4.1102048057024385]
      },
      {
        "species": [{ "element": "S", "occu": 1 }],
        "abc": [0.333333, 0.666667, 0.32512246],
        "properties": { "magmom": 0.0 },
        "label": "S",
        "xyz": [-4.79844801004603e-6, 5.14432559549485, 1.9800924142975613]
      },
      {
        "species": [{ "element": "S", "occu": 1 }],
        "abc": [0.0, 0.0, 0.82644764],
        "properties": { "magmom": 0.0 },
        "label": "S",
        "xyz": [0.0, 0.0, 5.033311764367561]
      },
      {
        "species": [{ "element": "S", "occu": 1 }],
        "abc": [0.0, 0.0, 0.17355236000000002],
        "properties": { "magmom": 0.0 },
        "label": "S",
        "xyz": [0.0, 0.0, 1.0569854556324394]
      }
    ]
  },
  "task_ids": null,
  "uncorrected_energy_per_atom": null,
  "energy_per_atom": -3.718430895833331,
  "formation_energy_per_atom": -1.15898407583333,
  "energy_above_hull": 0.0,
  "is_stable": true,
  "equilibrium_reaction_energy_per_atom": null,
  "decomposes_to": null,
  "xas": null,
  "grain_boundaries": null,
  "band_gap": 1.5781,
  "cbm": null,
  "vbm": null,
  "efermi": 0.80819312,
  "is_gap_direct": null,
  "is_metal": null,
  "es_source_calc_id": null,
  "bandstructure": null,
  "dos": null,
  "dos_energy_up": null,
  "dos_energy_down": null,
  "is_magnetic": null,
  "ordering": null,
  "total_magnetization": 0.0,
  "total_magnetization_normalized_vol": null,
  "total_magnetization_normalized_formula_units": null,
  "num_magnetic_sites": null,
  "num_unique_magnetic_sites": null,
  "types_of_magnetic_species": null,
  "bulk_modulus": null,
  "shear_modulus": null,
  "universal_anisotropy": null,
  "homogeneous_poisson": null,
  "e_total": null,
  "e_ionic": null,
  "e_electronic": null,
  "n": null,
  "e_ij_max": null,
  "weighted_surface_energy_EV_PER_ANG2": null,
  "weighted_surface_energy": null,
  "weighted_work_function": null,
  "surface_anisotropy": null,
  "shape_factor": null,
  "has_reconstructed": null,
  "possible_species": null,
  "has_props": null,
  "theoretical": null,
  "database_IDs": null,
  "fields_not_requested": [
    "builder_meta",
    "nsites",
    "elements",
    "nelements",
    "composition",
    "composition_reduced",
    "chemsys",
    "symmetry",
    "property_name",
    "deprecated",
    "deprecation_reasons",
    "last_updated",
    "origins",
    "warnings",
    "task_ids",
    "uncorrected_energy_per_atom",
    "equilibrium_reaction_energy_per_atom",
    "decomposes_to",
    "xas",
    "grain_boundaries",
    "cbm",
    "vbm",
    "is_gap_direct",
    "is_metal",
    "es_source_calc_id",
    "bandstructure",
    "dos",
    "dos_energy_up",
    "dos_energy_down",
    "is_magnetic",
    "ordering",
    "total_magnetization_normalized_vol",
    "total_magnetization_normalized_formula_units",
    "num_magnetic_sites",
    "num_unique_magnetic_sites",
    "types_of_magnetic_species",
    "bulk_modulus",
    "shear_modulus",
    "universal_anisotropy",
    "homogeneous_poisson",
    "e_total",
    "e_ionic",
    "e_electronic",
    "n",
    "e_ij_max",
    "weighted_surface_energy_EV_PER_ANG2",
    "weighted_surface_energy",
    "weighted_work_function",
    "surface_anisotropy",
    "shape_factor",
    "has_reconstructed",
    "possible_species",
    "has_props",
    "theoretical",
    "database_IDs"
  ]
}
