{
  "builder_meta": null,
  "nsites": null,
  "elements": null,
  "nelements": null,
  "composition": null,
  "composition_reduced": null,
  "formula_pretty": "RbSb3",
  "formula_anonymous": "AB3",
  "chemsys": null,
  "volume": 281.9579702940386,
  "density": 5.3091908010505975,
  "density_atomic": 35.244746286754825,
  "symmetry": null,
  "property_name": null,
  "material_id": "mp-1206035",
  "deprecated": null,
  "deprecation_reasons": null,
  "last_updated": null,
  "origins": null,
  "warnings": null,
  "structure": {
    "@module": "pymatgen.core.structure",
    "@class": "Structure",
    "charge": 0,
    "lattice": {
      "matrix": [
        [2.858224, -4.950589, 0.0],
        [2.858224, 4.950589, 0.0],
        [0.0, 0.0, 9.963255]
      ],
      "pbc": [true, true, true],
      "a": 5.716447837695801,
      "b": 5.716447837695801,
      "c": 9.963255,
      "alpha": 90.0,
      "beta": 90.0,
      "gamma": 119.99999812156786,
      "volume": 281.9579702940386
    },
    "properties": {},
    "sites": [
      {
        "species": [{ "element": "Rb", "occu": 1 }],
        "abc": [0.333333, 0.666667, 0.25],
        "properties": { "magmom": 0.011 },
        "label": "Rb",
        "xyz": [2.858224, 1.650199633726, 2.49081375]
      },
      {
        "species": [{ "element": "Rb", "occu": 1 }],
        "abc": [0.666667, 0.333333, 0.75],
        "properties": { "magmom": 0.011 },
        "label": "Rb",
        "xyz": [2.858224, -1.650199633726, 7.47244125]
      },
      {
        "species": [{ "element": "Sb", "occu": 1 }],
        "abc": [0.333333, 0.666667, 0.604169],
        "properties": { "magmom": 0.006 },
        "label": "Sb",
        "xyz": [2.858224, 1.650199633726, 6.019489810095]
      },
      {
        "species": [{ "element": "Sb", "occu": 1 }],
        "abc": [0.666667, 0.333333, 0.395831],
        "properties": { "magmom": 0.006 },
        "label": "Sb",
        "xyz": [2.858224, -1.650199633726, 3.943765189905]
      },
      {
        "species": [{ "element": "Sb", "occu": 1 }],
        "abc": [0.666667, 0.333333, 0.104169],
        "properties": { "magmom": 0.006 },
        "label": "Sb",
        "xyz": [2.858224, -1.650199633726, 1.037862310095]
      },
      {
        "species": [{ "element": "Sb", "occu": 1 }],
        "abc": [0.333333, 0.666667, 0.895830999999999],
        "properties": { "magmom": 0.006 },
        "label": "Sb",
        "xyz": [2.858224, 1.650199633726, 8.92539268990499]
      },
      {
        "species": [{ "element": "Sb", "occu": 1 }],
        "abc": [0.0, 0.0, 0.25],
        "properties": { "magmom": 0.10300000000000001 },
        "label": "Sb",
        "xyz": [0.0, 0.0, 2.49081375]
      },
      {
        "species": [{ "element": "Sb", "occu": 1 }],
        "abc": [0.0, 0.0, 0.75],
        "properties": { "magmom": 0.10300000000000001 },
        "label": "Sb",
        "xyz": [0.0, 0.0, 7.47244125]
      }
    ]
  },
  "task_ids": null,
  "uncorrected_energy_per_atom": null,
  "energy_per_atom": -2.97875296375,
  "formation_energy_per_atom": 0.36313148437500004,
  "energy_above_hull": 0.669956490000003,
  "is_stable": false,
  "equilibrium_reaction_energy_per_atom": null,
  "decomposes_to": null,
  "xas": null,
  "grain_boundaries": null,
  "band_gap": 0.0,
  "cbm": null,
  "vbm": null,
  "efermi": 4.34268411,
  "is_gap_direct": null,
  "is_metal": null,
  "es_source_calc_id": null,
  "bandstructure": null,
  "dos": null,
  "dos_energy_up": null,
  "dos_energy_down": null,
  "is_magnetic": null,
  "ordering": null,
  "total_magnetization": 0.6004619,
  "total_magnetization_normalized_vol": null,
  "total_magnetization_normalized_formula_units": null,
  "num_magnetic_sites": null,
  "num_unique_magnetic_sites": null,
  "types_of_magnetic_species": null,
  "bulk_modulus": null,
  "shear_modulus": null,
  "universal_anisotropy": null,
  "homogeneous_poisson": null,
  "e_total": null,
  "e_ionic": null,
  "e_electronic": null,
  "n": null,
  "e_ij_max": null,
  "weighted_surface_energy_EV_PER_ANG2": null,
  "weighted_surface_energy": null,
  "weighted_work_function": null,
  "surface_anisotropy": null,
  "shape_factor": null,
  "has_reconstructed": null,
  "possible_species": null,
  "has_props": null,
  "theoretical": null,
  "database_IDs": null,
  "fields_not_requested": [
    "builder_meta",
    "nsites",
    "elements",
    "nelements",
    "composition",
    "composition_reduced",
    "chemsys",
    "symmetry",
    "property_name",
    "deprecated",
    "deprecation_reasons",
    "last_updated",
    "origins",
    "warnings",
    "task_ids",
    "uncorrected_energy_per_atom",
    "equilibrium_reaction_energy_per_atom",
    "decomposes_to",
    "xas",
    "grain_boundaries",
    "cbm",
    "vbm",
    "is_gap_direct",
    "is_metal",
    "es_source_calc_id",
    "bandstructure",
    "dos",
    "dos_energy_up",
    "dos_energy_down",
    "is_magnetic",
    "ordering",
    "total_magnetization_normalized_vol",
    "total_magnetization_normalized_formula_units",
    "num_magnetic_sites",
    "num_unique_magnetic_sites",
    "types_of_magnetic_species",
    "bulk_modulus",
    "shear_modulus",
    "universal_anisotropy",
    "homogeneous_poisson",
    "e_total",
    "e_ionic",
    "e_electronic",
    "n",
    "e_ij_max",
    "weighted_surface_energy_EV_PER_ANG2",
    "weighted_surface_energy",
    "weighted_work_function",
    "surface_anisotropy",
    "shape_factor",
    "has_reconstructed",
    "possible_species",
    "has_props",
    "theoretical",
    "database_IDs"
  ]
}
