{
  "builder_meta": null,
  "nsites": null,
  "elements": null,
  "nelements": null,
  "composition": null,
  "composition_reduced": null,
  "formula_pretty": "RbSb",
  "formula_anonymous": "AB",
  "chemsys": null,
  "volume": 686.7533728171279,
  "density": 4.008540721674215,
  "density_atomic": 42.922085801070494,
  "symmetry": null,
  "property_name": null,
  "material_id": "mp-10487",
  "deprecated": null,
  "deprecation_reasons": null,
  "last_updated": null,
  "origins": null,
  "warnings": null,
  "structure": {
    "@module": "pymatgen.core.structure",
    "@class": "Structure",
    "charge": 0,
    "lattice": {
      "matrix": [
        [7.22173281, 0.0, 0.0],
        [0.0, 7.39234247, -1.00502035],
        [0.0, -0.02359199, 12.86724519]
      ],
      "pbc": [true, true, true],
      "a": 7.22173281,
      "b": 7.46034805472773,
      "c": 12.867266817843262,
      "alpha": 97.84718788245668,
      "beta": 90.0,
      "gamma": 90.0,
      "volume": 686.7533728171279
    },
    "properties": {},
    "sites": [
      {
        "species": [{ "element": "Rb", "occu": 1 }],
        "abc": [0.16955362000000002, 0.7863143300000001, 0.53142131],
        "properties": { "magmom": 0.0 },
        "label": "Rb",
        "xyz": [1.2244709406082723, 5.800167530197289, 6.047666391814384]
      },
      {
        "species": [{ "element": "Rb", "occu": 1 }],
        "abc": [0.66955362, 0.71368567, 0.9685786900000001],
        "properties": { "magmom": 0.0 },
        "label": "Rb",
        "xyz": [4.835337345608272, 5.252958189802713, 11.745670868185618]
      },
      {
        "species": [{ "element": "Rb", "occu": 1 }],
        "abc": [0.83044638, 0.21368567, 0.46857869],
        "properties": { "magmom": 0.0 },
        "label": "Rb",
        "xyz": [5.997261869391728, 1.568582949802712, 5.814558448185617]
      },
      {
        "species": [{ "element": "Rb", "occu": 1 }],
        "abc": [0.33044638, 0.28631433, 0.03142131],
        "properties": { "magmom": 0.0 },
        "label": "Rb",
        "xyz": [2.3863954643917276, 2.1157922901972883, 0.11655397181438343]
      },
      {
        "species": [{ "element": "Rb", "occu": 1 }],
        "abc": [0.40248462, 0.38221684, 0.66780057],
        "properties": { "magmom": 0.0 },
        "label": "Rb",
        "xyz": [2.9066363857743824, 2.8097230347117605, 8.208617969899064]
      },
      {
        "species": [{ "element": "Rb", "occu": 1 }],
        "abc": [0.9024846200000001, 0.11778316, 0.83219943],
        "properties": { "magmom": 0.0 },
        "label": "Rb",
        "xyz": [6.517502790774382, 0.8510602152882395, 10.589739640100936]
      },
      {
        "species": [{ "element": "Rb", "occu": 1 }],
        "abc": [0.59751538, 0.61778316, 0.33219943],
        "properties": { "magmom": 0.0 },
        "label": "Rb",
        "xyz": [4.315096424225618, 4.5590274452882396, 3.653606870100936]
      },
      {
        "species": [{ "element": "Rb", "occu": 1 }],
        "abc": [0.09751538, 0.88221684, 0.16780057],
        "properties": { "magmom": 0.0 },
        "label": "Rb",
        "xyz": [0.7042300192256178, 6.517690264711761, 1.2724851998990647]
      },
      {
        "species": [{ "element": "Sb", "occu": 1 }],
        "abc": [0.16990407, 0.7023751500000001, 0.8705563],
        "properties": { "magmom": -0.0 },
        "label": "Sb",
        "xyz": [1.2270017968715365, 5.171659495693584, 10.495760044714894]
      },
      {
        "species": [{ "element": "Sb", "occu": 1 }],
        "abc": [0.66990407, 0.79762485, 0.629443699999999],
        "properties": { "magmom": -0.0 },
        "label": "Sb",
        "xyz": [4.837868201871537, 5.881466224306417, 7.297577215285093]
      },
      {
        "species": [{ "element": "Sb", "occu": 1 }],
        "abc": [0.83009593, 0.29762485, 0.1294437],
        "properties": { "magmom": -0.0 },
        "label": "Sb",
        "xyz": [5.9947310131284635, 2.1970909843064166, 1.3664647952851054]
      },
      {
        "species": [{ "element": "Sb", "occu": 1 }],
        "abc": [0.33009593, 0.20237515, 0.3705563],
        "properties": { "magmom": -0.0 },
        "label": "Sb",
        "xyz": [2.383864608128463, 1.4872842556935835, 4.564647624714895]
      },
      {
        "species": [{ "element": "Sb", "occu": 1 }],
        "abc": [0.90377059, 0.54531903, 0.71630891],
        "properties": { "magmom": -0.0 },
        "label": "Sb",
        "xyz": [6.526789722516058, 4.014285872526573, 8.668865654359383]
      },
      {
        "species": [{ "element": "Sb", "occu": 1 }],
        "abc": [0.40377059, 0.9546809700000001, 0.78369109],
        "properties": { "magmom": -0.0 },
        "label": "Sb",
        "xyz": [2.9159233175160577, 7.038839847473427, 9.124471605640618]
      },
      {
        "species": [{ "element": "Sb", "occu": 1 }],
        "abc": [0.09622941, 0.45468097, 0.28369109],
        "properties": { "magmom": -0.0 },
        "label": "Sb",
        "xyz": [0.6949430874839421, 3.3544646074734272, 3.193359185640617]
      },
      {
        "species": [{ "element": "Sb", "occu": 1 }],
        "abc": [0.59622941, 0.04531903, 0.21630891],
        "properties": { "magmom": -0.0 },
        "label": "Sb",
        "xyz": [4.305809492483942, 0.32991063252657327, 2.7377532343593822]
      }
    ]
  },
  "task_ids": null,
  "uncorrected_energy_per_atom": null,
  "energy_per_atom": -3.069903603124999,
  "formation_energy_per_atom": -0.5151359468749981,
  "energy_above_hull": 0.0,
  "is_stable": true,
  "equilibrium_reaction_energy_per_atom": null,
  "decomposes_to": null,
  "xas": null,
  "grain_boundaries": null,
  "band_gap": 0.7347,
  "cbm": null,
  "vbm": null,
  "efermi": 2.31061394,
  "is_gap_direct": null,
  "is_metal": null,
  "es_source_calc_id": null,
  "bandstructure": null,
  "dos": null,
  "dos_energy_up": null,
  "dos_energy_down": null,
  "is_magnetic": null,
  "ordering": null,
  "total_magnetization": 0.0,
  "total_magnetization_normalized_vol": null,
  "total_magnetization_normalized_formula_units": null,
  "num_magnetic_sites": null,
  "num_unique_magnetic_sites": null,
  "types_of_magnetic_species": null,
  "bulk_modulus": null,
  "shear_modulus": null,
  "universal_anisotropy": null,
  "homogeneous_poisson": null,
  "e_total": null,
  "e_ionic": null,
  "e_electronic": null,
  "n": null,
  "e_ij_max": null,
  "weighted_surface_energy_EV_PER_ANG2": null,
  "weighted_surface_energy": null,
  "weighted_work_function": null,
  "surface_anisotropy": null,
  "shape_factor": null,
  "has_reconstructed": null,
  "possible_species": null,
  "has_props": null,
  "theoretical": null,
  "database_IDs": null,
  "fields_not_requested": [
    "builder_meta",
    "nsites",
    "elements",
    "nelements",
    "composition",
    "composition_reduced",
    "chemsys",
    "symmetry",
    "property_name",
    "deprecated",
    "deprecation_reasons",
    "last_updated",
    "origins",
    "warnings",
    "task_ids",
    "uncorrected_energy_per_atom",
    "equilibrium_reaction_energy_per_atom",
    "decomposes_to",
    "xas",
    "grain_boundaries",
    "cbm",
    "vbm",
    "is_gap_direct",
    "is_metal",
    "es_source_calc_id",
    "bandstructure",
    "dos",
    "dos_energy_up",
    "dos_energy_down",
    "is_magnetic",
    "ordering",
    "total_magnetization_normalized_vol",
    "total_magnetization_normalized_formula_units",
    "num_magnetic_sites",
    "num_unique_magnetic_sites",
    "types_of_magnetic_species",
    "bulk_modulus",
    "shear_modulus",
    "universal_anisotropy",
    "homogeneous_poisson",
    "e_total",
    "e_ionic",
    "e_electronic",
    "n",
    "e_ij_max",
    "weighted_surface_energy_EV_PER_ANG2",
    "weighted_surface_energy",
    "weighted_work_function",
    "surface_anisotropy",
    "shape_factor",
    "has_reconstructed",
    "possible_species",
    "has_props",
    "theoretical",
    "database_IDs"
  ]
}
