{
  "builder_meta": null,
  "nsites": null,
  "elements": null,
  "nelements": null,
  "composition": null,
  "composition_reduced": null,
  "formula_pretty": "RbSb2",
  "formula_anonymous": "AB2",
  "chemsys": null,
  "volume": 249.76683744463685,
  "density": 4.374456592588111,
  "density_atomic": 41.627806240772806,
  "symmetry": null,
  "property_name": null,
  "material_id": "mp-568018",
  "deprecated": null,
  "deprecation_reasons": null,
  "last_updated": null,
  "origins": null,
  "warnings": null,
  "structure": {
    "@module": "pymatgen.core.structure",
    "@class": "Structure",
    "charge": 0,
    "lattice": {
      "matrix": [
        [4.20236439, -0.0, 0.0],
        [-2.10118271, 6.82440991, -1.84742424],
        [0.0, -0.04893226, 8.72240021]
      ],
      "pbc": [true, true, true],
      "a": 4.20236439,
      "b": 7.375670527013034,
      "c": 8.722537462772904,
      "alpha": 104.81281940495454,
      "beta": 90.0,
      "gamma": 106.55168944329182,
      "volume": 249.76683744463685
    },
    "properties": {},
    "sites": [
      {
        "species": [{ "element": "Rb", "occu": 1 }],
        "abc": [0.83349037, 0.66697973, 0.30050652],
        "properties": { "magmom": -0.0 },
        "label": "Rb",
        "xyz": [2.101183973699456, 4.537038616012789, 1.3889436123637138]
      },
      {
        "species": [{ "element": "Rb", "occu": 1 }],
        "abc": [0.16650963, 0.33302027, 0.69949348],
        "properties": { "magmom": -0.0 },
        "label": "Rb",
        "xyz": [-2.293699456035192e-6, 2.238439033987211, 5.486032357636286]
      },
      {
        "species": [{ "element": "Sb", "occu": 1 }],
        "abc": [0.56322128, 0.12644456, 0.31313777],
        "properties": { "magmom": 0.0 },
        "label": "Sb",
        "xyz": [2.1011779275166615, 0.8475869695521295, 2.497716205646797]
      },
      {
        "species": [{ "element": "Sb", "occu": 1 }],
        "abc": [0.9054102900000001, 0.81082058, 0.88859418],
        "properties": { "magmom": 0.0 },
        "label": "Sb",
        "xyz": [2.101181777427401, 5.4898910799337015, 6.252744468453918]
      },
      {
        "species": [{ "element": "Sb", "occu": 1 }],
        "abc": [0.09458971000000001, 0.18917942000000001, 0.11140582],
        "properties": { "magmom": 0.0 },
        "label": "Sb",
        "xyz": [-9.742740131324368e-8, 1.2855865700662992, 0.6222315015460813]
      },
      {
        "species": [{ "element": "Sb", "occu": 1 }],
        "abc": [0.43677872, 0.8735554400000001, 0.68686223],
        "properties": { "magmom": 0.0 },
        "label": "Sb",
        "xyz": [3.75248333828182e-6, 5.927890680447871, 4.3772597643532025]
      }
    ]
  },
  "task_ids": null,
  "uncorrected_energy_per_atom": null,
  "energy_per_atom": -3.48861219166667,
  "formation_energy_per_atom": -0.409100007500003,
  "energy_above_hull": 0.0,
  "is_stable": true,
  "equilibrium_reaction_energy_per_atom": null,
  "decomposes_to": null,
  "xas": null,
  "grain_boundaries": null,
  "band_gap": 0.267599999999999,
  "cbm": null,
  "vbm": null,
  "efermi": 3.25886014,
  "is_gap_direct": null,
  "is_metal": null,
  "es_source_calc_id": null,
  "bandstructure": null,
  "dos": null,
  "dos_energy_up": null,
  "dos_energy_down": null,
  "is_magnetic": null,
  "ordering": null,
  "total_magnetization": 0.0,
  "total_magnetization_normalized_vol": null,
  "total_magnetization_normalized_formula_units": null,
  "num_magnetic_sites": null,
  "num_unique_magnetic_sites": null,
  "types_of_magnetic_species": null,
  "bulk_modulus": null,
  "shear_modulus": null,
  "universal_anisotropy": null,
  "homogeneous_poisson": null,
  "e_total": null,
  "e_ionic": null,
  "e_electronic": null,
  "n": null,
  "e_ij_max": null,
  "weighted_surface_energy_EV_PER_ANG2": null,
  "weighted_surface_energy": null,
  "weighted_work_function": null,
  "surface_anisotropy": null,
  "shape_factor": null,
  "has_reconstructed": null,
  "possible_species": null,
  "has_props": null,
  "theoretical": null,
  "database_IDs": null,
  "fields_not_requested": [
    "builder_meta",
    "nsites",
    "elements",
    "nelements",
    "composition",
    "composition_reduced",
    "chemsys",
    "symmetry",
    "property_name",
    "deprecated",
    "deprecation_reasons",
    "last_updated",
    "origins",
    "warnings",
    "task_ids",
    "uncorrected_energy_per_atom",
    "equilibrium_reaction_energy_per_atom",
    "decomposes_to",
    "xas",
    "grain_boundaries",
    "cbm",
    "vbm",
    "is_gap_direct",
    "is_metal",
    "es_source_calc_id",
    "bandstructure",
    "dos",
    "dos_energy_up",
    "dos_energy_down",
    "is_magnetic",
    "ordering",
    "total_magnetization_normalized_vol",
    "total_magnetization_normalized_formula_units",
    "num_magnetic_sites",
    "num_unique_magnetic_sites",
    "types_of_magnetic_species",
    "bulk_modulus",
    "shear_modulus",
    "universal_anisotropy",
    "homogeneous_poisson",
    "e_total",
    "e_ionic",
    "e_electronic",
    "n",
    "e_ij_max",
    "weighted_surface_energy_EV_PER_ANG2",
    "weighted_surface_energy",
    "weighted_work_function",
    "surface_anisotropy",
    "shape_factor",
    "has_reconstructed",
    "possible_species",
    "has_props",
    "theoretical",
    "database_IDs"
  ]
}
