{"builder_meta": null, "nsites": null, "elements": null, "nelements": null, "composition": null, "composition_reduced": null, "formula_pretty": "RbSe", "formula_anonymous": "AB", "chemsys": null, "volume": 473.2466674527814, "density": 3.461688852513694, "density_atomic": 39.437222287731785, "symmetry": null, "property_name": null, "material_id": "mp-9063", "deprecated": null, "deprecation_reasons": null, "last_updated": null, "origins": null, "warnings": null, "structure": {"@module": "pymatgen.core.structure", "@class": "Structure", "charge": 0, "lattice": {"matrix": [[9.35622876, 0.0, 0.0], [-4.67811438, 8.10273224, -0.0], [-0.0, 0.0, 6.24245248]], "pbc": [true, true, true], "a": 9.35622876, "b": 9.356229149903191, "c": 6.24245248, "alpha": 90.0, "beta": 90.0, "gamma": 119.99999862146454, "volume": 473.2466674527814}, "properties": {}, "sites": [{"species": [{"element": "Rb", "occu": 1}], "abc": [0.0, 0.31390539, 0.5], "properties": {"magmom": -0.0}, "label": "Rb", "xyz": [-1.4684853189185083, 2.5434913238627734, 3.12122624]}, {"species": [{"element": "Rb", "occu": 1}], "abc": [0.68609461, 0.68609461, 0.5], "properties": {"magmom": -0.0}, "label": "Rb", "xyz": [3.2096290610814924, 5.5592409161372265, 3.12122624]}, {"species": [{"element": "Rb", "occu": 1}], "abc": [0.31390539, 0.0, 0.5], "properties": {"magmom": -0.0}, "label": "Rb", "xyz": [2.9369706378370166, 0.0, 3.12122624]}, {"species": [{"element": "Rb", "occu": 1}], "abc": [0.0, 0.64854206, -0.0], "properties": {"magmom": 0.0}, "label": "Rb", "xyz": [-3.033953936920823, 5.254962658558014, 0.0]}, {"species": [{"element": "Rb", "occu": 1}], "abc": [0.35145794, 0.35145794, -0.0], "properties": {"magmom": 0.0}, "label": "Rb", "xyz": [1.6441604430791774, 2.8477695814419857, 0.0]}, {"species": [{"element": "Rb", "occu": 1}], "abc": [0.64854206, 0.0, -0.0], "properties": {"magmom": 0.0}, "label": "Rb", "xyz": [6.067907873841646, 0.0, 0.0]}, {"species": [{"element": "Se", "occu": 1}], "abc": [0.666667, 0.333333, 0.30598002], "properties": {"magmom": -0.0}, "label": "Se", "xyz": [4.678119058114381, 2.70090804575592, 1.9100657346794496]}, {"species": [{"element": "Se", "occu": 1}], "abc": [0.666667, 0.333333, 0.6940189800000001], "properties": {"magmom": -0.0}, "label": "Se", "xyz": [4.678119058114381, 2.70090804575592, 4.33238050286807]}, {"species": [{"element": "Se", "occu": 1}], "abc": [0.333333, 0.666667, 0.6940189800000001], "properties": {"magmom": -0.0}, "label": "Se", "xyz": [-4.678114380318732e-06, 5.40182419424408, 4.33238050286807]}, {"species": [{"element": "Se", "occu": 1}], "abc": [0.333333, 0.666667, 0.30598002], "properties": {"magmom": -0.0}, "label": "Se", "xyz": [-4.678114380318732e-06, 5.40182419424408, 1.9100657346794496]}, {"species": [{"element": "Se", "occu": 1}], "abc": [0.0, 0.0, 0.8072929600000001], "properties": {"magmom": -0.0}, "label": "Se", "xyz": [0.0, 0.0, 5.039487940238541]}, {"species": [{"element": "Se", "occu": 1}], "abc": [0.0, 0.0, 0.19270804], "properties": {"magmom": -0.0}, "label": "Se", "xyz": [0.0, 0.0, 1.202970782213939]}]}, "task_ids": null, "uncorrected_energy_per_atom": null, "energy_per_atom": -3.402452095833332, "formation_energy_per_atom": -1.164229320755207, "energy_above_hull": 0.0, "is_stable": true, "equilibrium_reaction_energy_per_atom": null, "decomposes_to": null, "xas": null, "grain_boundaries": null, "band_gap": 0.9245000000000001, "cbm": null, "vbm": null, "efermi": 0.34982075, "is_gap_direct": null, "is_metal": null, "es_source_calc_id": null, "bandstructure": null, "dos": null, "dos_energy_up": null, "dos_energy_down": null, "is_magnetic": null, "ordering": null, "total_magnetization": 0.0, "total_magnetization_normalized_vol": null, "total_magnetization_normalized_formula_units": null, "num_magnetic_sites": null, "num_unique_magnetic_sites": null, "types_of_magnetic_species": null, "bulk_modulus": null, "shear_modulus": null, "universal_anisotropy": null, "homogeneous_poisson": null, "e_total": null, "e_ionic": null, "e_electronic": null, "n": null, "e_ij_max": null, "weighted_surface_energy_EV_PER_ANG2": null, "weighted_surface_energy": null, "weighted_work_function": null, "surface_anisotropy": null, "shape_factor": null, "has_reconstructed": null, "possible_species": null, "has_props": null, "theoretical": null, "database_IDs": null, "fields_not_requested": ["builder_meta", "nsites", "elements", "nelements", "composition", "composition_reduced", "chemsys", "symmetry", "property_name", "deprecated", "deprecation_reasons", "last_updated", "origins", "warnings", "task_ids", "uncorrected_energy_per_atom", "equilibrium_reaction_energy_per_atom", "decomposes_to", "xas", "grain_boundaries", "cbm", "vbm", "is_gap_direct", "is_metal", "es_source_calc_id", "bandstructure", "dos", "dos_energy_up", "dos_energy_down", "is_magnetic", "ordering", "total_magnetization_normalized_vol", "total_magnetization_normalized_formula_units", "num_magnetic_sites", "num_unique_magnetic_sites", "types_of_magnetic_species", "bulk_modulus", "shear_modulus", "universal_anisotropy", "homogeneous_poisson", "e_total", "e_ionic", "e_electronic", "n", "e_ij_max", "weighted_surface_energy_EV_PER_ANG2", "weighted_surface_energy", "weighted_work_function", "surface_anisotropy", "shape_factor", "has_reconstructed", "possible_species", "has_props", "theoretical", "database_IDs"]}