{
  "builder_meta": null,
  "nsites": null,
  "elements": null,
  "nelements": null,
  "composition": null,
  "composition_reduced": null,
  "formula_pretty": "RbSi",
  "formula_anonymous": "AB",
  "chemsys": null,
  "volume": 2247.7077668818056,
  "density": 2.684472685563524,
  "density_atomic": 35.12043385752821,
  "symmetry": null,
  "property_name": null,
  "material_id": "mp-1074",
  "deprecated": null,
  "deprecation_reasons": null,
  "last_updated": null,
  "origins": null,
  "warnings": null,
  "structure": {
    "@module": "pymatgen.core.structure",
    "@class": "Structure",
    "charge": 0,
    "lattice": {
      "matrix": [
        [13.09925557, -0.0, -0.0],
        [0.0, 13.09925557, -0.0],
        [-0.0, 0.0, 13.09925557]
      ],
      "pbc": [true, true, true],
      "a": 13.09925557,
      "b": 13.09925557,
      "c": 13.09925557,
      "alpha": 90.0,
      "beta": 90.0,
      "gamma": 90.0,
      "volume": 2247.7077668818056
    },
    "properties": {},
    "sites": [
      {
        "species": [{ "element": "Rb", "occu": 1 }],
        "abc": [0.0651192, 0.33637415, 0.14073226],
        "properties": { "magmom": 0.0 },
        "label": "Rb",
        "xyz": [0.853013043313944, 4.4062509579915154, 1.8434878406836883]
      },
      {
        "species": [{ "element": "Rb", "occu": 1 }],
        "abc": [0.8363751500000001, 0.434880799999999, 0.35926774],
        "properties": { "magmom": 0.0 },
        "label": "Rb",
        "xyz": [10.955891842247087, 5.6966147416860435, 4.706139944316312]
      },
      {
        "species": [{ "element": "Rb", "occu": 1 }],
        "abc": [0.565119199999999, 0.64073226, 0.8363751500000001],
        "properties": { "magmom": 0.0 },
        "label": "Rb",
        "xyz": [7.402640828313932, 8.39311562568369, 10.955891842247087]
      },
      {
        "species": [{ "element": "Rb", "occu": 1 }],
        "abc": [0.434880799999999, 0.64073226, 0.16362485000000002],
        "properties": { "magmom": 0.0 },
        "label": "Rb",
        "xyz": [5.6966147416860435, 8.39311562568369, 2.1433637277529147]
      },
      {
        "species": [{ "element": "Rb", "occu": 1 }],
        "abc": [0.64073226, 0.8363751500000001, 0.565119199999999],
        "properties": { "magmom": 0.0 },
        "label": "Rb",
        "xyz": [8.39311562568369, 10.955891842247087, 7.402640828313932]
      },
      {
        "species": [{ "element": "Rb", "occu": 1 }],
        "abc": [0.35926774, 0.16362485000000002, 0.565119199999999],
        "properties": { "magmom": 0.0 },
        "label": "Rb",
        "xyz": [4.706139944316312, 2.1433637277529147, 7.402640828313932]
      },
      {
        "species": [{ "element": "Rb", "occu": 1 }],
        "abc": [0.66362485, 0.8592677400000001, 0.0651192],
        "properties": { "magmom": 0.0 },
        "label": "Rb",
        "xyz": [8.692991512752915, 11.255767729316313, 0.853013043313944]
      },
      {
        "species": [{ "element": "Rb", "occu": 1 }],
        "abc": [0.66362485, 0.14073226, 0.9348808],
        "properties": { "magmom": 0.0 },
        "label": "Rb",
        "xyz": [8.692991512752915, 1.8434878406836883, 12.246242526686055]
      },
      {
        "species": [{ "element": "Rb", "occu": 1 }],
        "abc": [0.33637415, 0.8592677400000001, 0.9348808],
        "properties": { "magmom": 0.0 },
        "label": "Rb",
        "xyz": [4.4062509579915154, 11.255767729316313, 12.246242526686055]
      },
      {
        "species": [{ "element": "Rb", "occu": 1 }],
        "abc": [0.14073226, 0.9348808, 0.66362485],
        "properties": { "magmom": 0.0 },
        "label": "Rb",
        "xyz": [1.8434878406836883, 12.246242526686055, 8.692991512752915]
      },
      {
        "species": [{ "element": "Rb", "occu": 1 }],
        "abc": [0.9348808, 0.33637415, 0.8592677400000001],
        "properties": { "magmom": 0.0 },
        "label": "Rb",
        "xyz": [12.246242526686055, 4.4062509579915154, 11.255767729316313]
      },
      {
        "species": [{ "element": "Rb", "occu": 1 }],
        "abc": [0.9348808, 0.66362485, 0.14073226],
        "properties": { "magmom": 0.0 },
        "label": "Rb",
        "xyz": [12.246242526686055, 8.692991512752915, 1.8434878406836883]
      },
      {
        "species": [{ "element": "Rb", "occu": 1 }],
        "abc": [0.8592677400000001, 0.0651192, 0.66362485],
        "properties": { "magmom": 0.0 },
        "label": "Rb",
        "xyz": [11.255767729316313, 0.853013043313944, 8.692991512752915]
      },
      {
        "species": [{ "element": "Rb", "occu": 1 }],
        "abc": [0.0651192, 0.66362485, 0.8592677400000001],
        "properties": { "magmom": 0.0 },
        "label": "Rb",
        "xyz": [0.853013043313944, 8.692991512752915, 11.255767729316313]
      },
      {
        "species": [{ "element": "Rb", "occu": 1 }],
        "abc": [0.8592677400000001, 0.9348808, 0.33637415],
        "properties": { "magmom": 0.0 },
        "label": "Rb",
        "xyz": [11.255767729316313, 12.246242526686055, 4.4062509579915154]
      },
      {
        "species": [{ "element": "Rb", "occu": 1 }],
        "abc": [0.14073226, 0.0651192, 0.33637415],
        "properties": { "magmom": 0.0 },
        "label": "Rb",
        "xyz": [1.8434878406836883, 0.853013043313944, 4.4062509579915154]
      },
      {
        "species": [{ "element": "Rb", "occu": 1 }],
        "abc": [0.8363751500000001, 0.565119199999999, 0.64073226],
        "properties": { "magmom": 0.0 },
        "label": "Rb",
        "xyz": [10.955891842247087, 7.402640828313932, 8.39311562568369]
      },
      {
        "species": [{ "element": "Rb", "occu": 1 }],
        "abc": [0.35926774, 0.8363751500000001, 0.434880799999999],
        "properties": { "magmom": 0.0 },
        "label": "Rb",
        "xyz": [4.706139944316312, 10.955891842247087, 5.6966147416860435]
      },
      {
        "species": [{ "element": "Rb", "occu": 1 }],
        "abc": [0.64073226, 0.16362485000000002, 0.434880799999999],
        "properties": { "magmom": 0.0 },
        "label": "Rb",
        "xyz": [8.39311562568369, 2.1433637277529147, 5.6966147416860435]
      },
      {
        "species": [{ "element": "Rb", "occu": 1 }],
        "abc": [0.565119199999999, 0.35926774, 0.16362485000000002],
        "properties": { "magmom": 0.0 },
        "label": "Rb",
        "xyz": [7.402640828313932, 4.706139944316312, 2.1433637277529147]
      },
      {
        "species": [{ "element": "Rb", "occu": 1 }],
        "abc": [0.434880799999999, 0.35926774, 0.8363751500000001],
        "properties": { "magmom": 0.0 },
        "label": "Rb",
        "xyz": [5.6966147416860435, 4.706139944316312, 10.955891842247087]
      },
      {
        "species": [{ "element": "Rb", "occu": 1 }],
        "abc": [0.16362485000000002, 0.434880799999999, 0.64073226],
        "properties": { "magmom": 0.0 },
        "label": "Rb",
        "xyz": [2.1433637277529147, 5.6966147416860435, 8.39311562568369]
      },
      {
        "species": [{ "element": "Rb", "occu": 1 }],
        "abc": [0.16362485000000002, 0.565119199999999, 0.35926774],
        "properties": { "magmom": 0.0 },
        "label": "Rb",
        "xyz": [2.1433637277529147, 7.402640828313932, 4.706139944316312]
      },
      {
        "species": [{ "element": "Rb", "occu": 1 }],
        "abc": [0.33637415, 0.14073226, 0.0651192],
        "properties": { "magmom": 0.0 },
        "label": "Rb",
        "xyz": [4.4062509579915154, 1.8434878406836883, 0.853013043313944]
      },
      {
        "species": [{ "element": "Rb", "occu": 1 }],
        "abc": [0.8332341600000001, 0.8332341600000001, 0.8332341600000001],
        "properties": { "magmom": -0.0 },
        "label": "Rb",
        "xyz": [10.914747211494273, 10.914747211494273, 10.914747211494273]
      },
      {
        "species": [{ "element": "Rb", "occu": 1 }],
        "abc": [0.66676584, 0.33323416, 0.66676584],
        "properties": { "magmom": -0.0 },
        "label": "Rb",
        "xyz": [8.73413614350573, 4.365119426494271, 8.73413614350573]
      },
      {
        "species": [{ "element": "Rb", "occu": 1 }],
        "abc": [0.33323416, 0.66676584, 0.66676584],
        "properties": { "magmom": -0.0 },
        "label": "Rb",
        "xyz": [4.365119426494271, 8.73413614350573, 8.73413614350573]
      },
      {
        "species": [{ "element": "Rb", "occu": 1 }],
        "abc": [0.66676584, 0.66676584, 0.33323416],
        "properties": { "magmom": -0.0 },
        "label": "Rb",
        "xyz": [8.73413614350573, 8.73413614350573, 4.365119426494271]
      },
      {
        "species": [{ "element": "Rb", "occu": 1 }],
        "abc": [0.8332341600000001, 0.16676584, 0.16676584],
        "properties": { "magmom": -0.0 },
        "label": "Rb",
        "xyz": [10.914747211494273, 2.1845083585057288, 2.1845083585057288]
      },
      {
        "species": [{ "element": "Rb", "occu": 1 }],
        "abc": [0.16676584, 0.16676584, 0.8332341600000001],
        "properties": { "magmom": -0.0 },
        "label": "Rb",
        "xyz": [2.1845083585057288, 2.1845083585057288, 10.914747211494273]
      },
      {
        "species": [{ "element": "Rb", "occu": 1 }],
        "abc": [0.16676584, 0.8332341600000001, 0.16676584],
        "properties": { "magmom": -0.0 },
        "label": "Rb",
        "xyz": [2.1845083585057288, 10.914747211494273, 2.1845083585057288]
      },
      {
        "species": [{ "element": "Rb", "occu": 1 }],
        "abc": [0.33323416, 0.33323416, 0.33323416],
        "properties": { "magmom": -0.0 },
        "label": "Rb",
        "xyz": [4.365119426494271, 4.365119426494271, 4.365119426494271]
      },
      {
        "species": [{ "element": "Si", "occu": 1 }],
        "abc": [0.5601264, 0.92948374, 0.81429945],
        "properties": { "magmom": -0.0 },
        "label": "Si",
        "xyz": [7.337238865104048, 12.175545058419432, 10.666716606060437]
      },
      {
        "species": [{ "element": "Si", "occu": 1 }],
        "abc": [0.5601264, 0.07051626, 0.18570055],
        "properties": { "magmom": -0.0 },
        "label": "Si",
        "xyz": [7.337238865104048, 0.9237105115805682, 2.4325389639395634]
      },
      {
        "species": [{ "element": "Si", "occu": 1 }],
        "abc": [0.92948374, 0.81429945, 0.5601264],
        "properties": { "magmom": -0.0 },
        "label": "Si",
        "xyz": [12.175545058419432, 10.666716606060437, 7.337238865104048]
      },
      {
        "species": [{ "element": "Si", "occu": 1 }],
        "abc": [0.07051626, 0.81429945, 0.4398736],
        "properties": { "magmom": -0.0 },
        "label": "Si",
        "xyz": [0.9237105115805682, 10.666716606060437, 5.762016704895952]
      },
      {
        "species": [{ "element": "Si", "occu": 1 }],
        "abc": [0.81429945, 0.5601264, 0.92948374],
        "properties": { "magmom": -0.0 },
        "label": "Si",
        "xyz": [10.666716606060437, 7.337238865104048, 12.175545058419432]
      },
      {
        "species": [{ "element": "Si", "occu": 1 }],
        "abc": [0.18570055, 0.4398736, 0.92948374],
        "properties": { "magmom": -0.0 },
        "label": "Si",
        "xyz": [2.4325389639395634, 5.762016704895952, 12.175545058419432]
      },
      {
        "species": [{ "element": "Si", "occu": 1 }],
        "abc": [0.9398736, 0.68570055, 0.42948374],
        "properties": { "magmom": -0.0 },
        "label": "Si",
        "xyz": [12.311644489895953, 8.982166748939564, 5.625917273419432]
      },
      {
        "species": [{ "element": "Si", "occu": 1 }],
        "abc": [0.9398736, 0.31429945, 0.57051626],
        "properties": { "magmom": -0.0 },
        "label": "Si",
        "xyz": [12.311644489895953, 4.117088821060436, 7.473338296580568]
      },
      {
        "species": [{ "element": "Si", "occu": 1 }],
        "abc": [0.060126399999999004, 0.68570055, 0.57051626],
        "properties": { "magmom": -0.0 },
        "label": "Si",
        "xyz": [0.787611080104035, 8.982166748939564, 7.473338296580568]
      },
      {
        "species": [{ "element": "Si", "occu": 1 }],
        "abc": [0.31429945, 0.57051626, 0.9398736],
        "properties": { "magmom": -0.0 },
        "label": "Si",
        "xyz": [4.117088821060436, 7.473338296580568, 12.311644489895953]
      },
      {
        "species": [{ "element": "Si", "occu": 1 }],
        "abc": [0.57051626, 0.060126399999999004, 0.68570055],
        "properties": { "magmom": -0.0 },
        "label": "Si",
        "xyz": [7.473338296580568, 0.787611080104035, 8.982166748939564]
      },
      {
        "species": [{ "element": "Si", "occu": 1 }],
        "abc": [0.57051626, 0.9398736, 0.31429945],
        "properties": { "magmom": -0.0 },
        "label": "Si",
        "xyz": [7.473338296580568, 12.311644489895953, 4.117088821060436]
      },
      {
        "species": [{ "element": "Si", "occu": 1 }],
        "abc": [0.68570055, 0.42948374, 0.9398736],
        "properties": { "magmom": -0.0 },
        "label": "Si",
        "xyz": [8.982166748939564, 5.625917273419432, 12.311644489895953]
      },
      {
        "species": [{ "element": "Si", "occu": 1 }],
        "abc": [0.42948374, 0.9398736, 0.68570055],
        "properties": { "magmom": -0.0 },
        "label": "Si",
        "xyz": [5.625917273419432, 12.311644489895953, 8.982166748939564]
      },
      {
        "species": [{ "element": "Si", "occu": 1 }],
        "abc": [0.68570055, 0.57051626, 0.060126399999999004],
        "properties": { "magmom": -0.0 },
        "label": "Si",
        "xyz": [8.982166748939564, 7.473338296580568, 0.787611080104035]
      },
      {
        "species": [{ "element": "Si", "occu": 1 }],
        "abc": [0.06512344, 0.06512344, 0.06512344],
        "properties": { "magmom": -0.0 },
        "label": "Si",
        "xyz": [0.8530685841575609, 0.8530685841575609, 0.8530685841575609]
      },
      {
        "species": [{ "element": "Si", "occu": 1 }],
        "abc": [0.42948374, 0.060126399999999004, 0.31429945],
        "properties": { "magmom": -0.0 },
        "label": "Si",
        "xyz": [5.625917273419432, 0.787611080104035, 4.117088821060436]
      },
      {
        "species": [{ "element": "Si", "occu": 1 }],
        "abc": [0.18570055, 0.5601264, 0.07051626],
        "properties": { "magmom": -0.0 },
        "label": "Si",
        "xyz": [2.4325389639395634, 7.337238865104048, 0.9237105115805682]
      },
      {
        "species": [{ "element": "Si", "occu": 1 }],
        "abc": [0.81429945, 0.4398736, 0.07051626],
        "properties": { "magmom": -0.0 },
        "label": "Si",
        "xyz": [10.666716606060437, 5.762016704895952, 0.9237105115805682]
      },
      {
        "species": [{ "element": "Si", "occu": 1 }],
        "abc": [0.92948374, 0.18570055, 0.4398736],
        "properties": { "magmom": -0.0 },
        "label": "Si",
        "xyz": [12.175545058419432, 2.4325389639395634, 5.762016704895952]
      },
      {
        "species": [{ "element": "Si", "occu": 1 }],
        "abc": [0.07051626, 0.18570055, 0.5601264],
        "properties": { "magmom": -0.0 },
        "label": "Si",
        "xyz": [0.9237105115805682, 2.4325389639395634, 7.337238865104048]
      },
      {
        "species": [{ "element": "Si", "occu": 1 }],
        "abc": [0.4398736, 0.07051626, 0.81429945],
        "properties": { "magmom": -0.0 },
        "label": "Si",
        "xyz": [5.762016704895952, 0.9237105115805682, 10.666716606060437]
      },
      {
        "species": [{ "element": "Si", "occu": 1 }],
        "abc": [0.4398736, 0.92948374, 0.18570055],
        "properties": { "magmom": -0.0 },
        "label": "Si",
        "xyz": [5.762016704895952, 12.175545058419432, 2.4325389639395634]
      },
      {
        "species": [{ "element": "Si", "occu": 1 }],
        "abc": [0.060126399999999004, 0.31429945, 0.42948374],
        "properties": { "magmom": -0.0 },
        "label": "Si",
        "xyz": [0.787611080104035, 4.117088821060436, 5.625917273419432]
      },
      {
        "species": [{ "element": "Si", "occu": 1 }],
        "abc": [0.56512344, 0.56512344, 0.56512344],
        "properties": { "magmom": -0.0 },
        "label": "Si",
        "xyz": [7.402696369157561, 7.402696369157561, 7.402696369157561]
      },
      {
        "species": [{ "element": "Si", "occu": 1 }],
        "abc": [0.93487656, 0.06512344, 0.93487656],
        "properties": { "magmom": -0.0 },
        "label": "Si",
        "xyz": [12.246186985842439, 0.8530685841575609, 12.246186985842439]
      },
      {
        "species": [{ "element": "Si", "occu": 1 }],
        "abc": [0.06512344, 0.93487656, 0.93487656],
        "properties": { "magmom": -0.0 },
        "label": "Si",
        "xyz": [0.8530685841575609, 12.246186985842439, 12.246186985842439]
      },
      {
        "species": [{ "element": "Si", "occu": 1 }],
        "abc": [0.93487656, 0.93487656, 0.06512344],
        "properties": { "magmom": -0.0 },
        "label": "Si",
        "xyz": [12.246186985842439, 12.246186985842439, 0.8530685841575609]
      },
      {
        "species": [{ "element": "Si", "occu": 1 }],
        "abc": [0.56512344, 0.43487656, 0.43487656],
        "properties": { "magmom": -0.0 },
        "label": "Si",
        "xyz": [7.402696369157561, 5.696559200842439, 5.696559200842439]
      },
      {
        "species": [{ "element": "Si", "occu": 1 }],
        "abc": [0.43487656, 0.43487656, 0.56512344],
        "properties": { "magmom": -0.0 },
        "label": "Si",
        "xyz": [5.696559200842439, 5.696559200842439, 7.402696369157561]
      },
      {
        "species": [{ "element": "Si", "occu": 1 }],
        "abc": [0.43487656, 0.56512344, 0.43487656],
        "properties": { "magmom": -0.0 },
        "label": "Si",
        "xyz": [5.696559200842439, 7.402696369157561, 5.696559200842439]
      },
      {
        "species": [{ "element": "Si", "occu": 1 }],
        "abc": [0.31429945, 0.42948374, 0.060126399999999004],
        "properties": { "magmom": -0.0 },
        "label": "Si",
        "xyz": [4.117088821060436, 5.625917273419432, 0.787611080104035]
      }
    ]
  },
  "task_ids": null,
  "uncorrected_energy_per_atom": null,
  "energy_per_atom": -3.208539375624999,
  "formation_energy_per_atom": -0.005613324374999001,
  "energy_above_hull": 0.0,
  "is_stable": true,
  "equilibrium_reaction_energy_per_atom": null,
  "decomposes_to": null,
  "xas": null,
  "grain_boundaries": null,
  "band_gap": 1.412499999999999,
  "cbm": null,
  "vbm": null,
  "efermi": 1.99835135,
  "is_gap_direct": null,
  "is_metal": null,
  "es_source_calc_id": null,
  "bandstructure": null,
  "dos": null,
  "dos_energy_up": null,
  "dos_energy_down": null,
  "is_magnetic": null,
  "ordering": null,
  "total_magnetization": 0.0,
  "total_magnetization_normalized_vol": null,
  "total_magnetization_normalized_formula_units": null,
  "num_magnetic_sites": null,
  "num_unique_magnetic_sites": null,
  "types_of_magnetic_species": null,
  "bulk_modulus": null,
  "shear_modulus": null,
  "universal_anisotropy": null,
  "homogeneous_poisson": null,
  "e_total": null,
  "e_ionic": null,
  "e_electronic": null,
  "n": null,
  "e_ij_max": null,
  "weighted_surface_energy_EV_PER_ANG2": null,
  "weighted_surface_energy": null,
  "weighted_work_function": null,
  "surface_anisotropy": null,
  "shape_factor": null,
  "has_reconstructed": null,
  "possible_species": null,
  "has_props": null,
  "theoretical": null,
  "database_IDs": null,
  "fields_not_requested": [
    "builder_meta",
    "nsites",
    "elements",
    "nelements",
    "composition",
    "composition_reduced",
    "chemsys",
    "symmetry",
    "property_name",
    "deprecated",
    "deprecation_reasons",
    "last_updated",
    "origins",
    "warnings",
    "task_ids",
    "uncorrected_energy_per_atom",
    "equilibrium_reaction_energy_per_atom",
    "decomposes_to",
    "xas",
    "grain_boundaries",
    "cbm",
    "vbm",
    "is_gap_direct",
    "is_metal",
    "es_source_calc_id",
    "bandstructure",
    "dos",
    "dos_energy_up",
    "dos_energy_down",
    "is_magnetic",
    "ordering",
    "total_magnetization_normalized_vol",
    "total_magnetization_normalized_formula_units",
    "num_magnetic_sites",
    "num_unique_magnetic_sites",
    "types_of_magnetic_species",
    "bulk_modulus",
    "shear_modulus",
    "universal_anisotropy",
    "homogeneous_poisson",
    "e_total",
    "e_ionic",
    "e_electronic",
    "n",
    "e_ij_max",
    "weighted_surface_energy_EV_PER_ANG2",
    "weighted_surface_energy",
    "weighted_work_function",
    "surface_anisotropy",
    "shape_factor",
    "has_reconstructed",
    "possible_species",
    "has_props",
    "theoretical",
    "database_IDs"
  ]
}
