{"builder_meta": null, "nsites": null, "elements": null, "nelements": null, "composition": null, "composition_reduced": null, "formula_pretty": "RbSn3", "formula_anonymous": "AB3", "chemsys": null, "volume": 293.9367928244485, "density": 4.989442740926724, "density_atomic": 36.74209910305606, "symmetry": null, "property_name": null, "material_id": "mp-867229", "deprecated": null, "deprecation_reasons": null, "last_updated": null, "origins": null, "warnings": null, "structure": {"@module": "pymatgen.core.structure", "@class": "Structure", "charge": 0, "lattice": {"matrix": [[7.88443896, -0.0, 0.0], [-3.94221948, 6.8281243, -0.0], [0.0, 0.0, 5.4598629]], "pbc": [true, true, true], "a": 7.88443896, "b": 7.884438843997837, "c": 5.4598629, "alpha": 90.0, "beta": 90.0, "gamma": 120.00000048669547, "volume": 293.9367928244485}, "properties": {}, "sites": [{"species": [{"element": "Rb", "occu": 1}], "abc": [0.333333, 0.666666, 0.75], "properties": {"magmom": 0.0}, "label": "Rb", "xyz": [0.0, 4.5520783145838, 4.094897175]}, {"species": [{"element": "Rb", "occu": 1}], "abc": [0.666667999999999, 0.333333, 0.250001], "properties": {"magmom": 0.0}, "label": "Rb", "xyz": [3.9422313066584325, 2.2760391572919, 1.3649711848628998]}, {"species": [{"element": "Sn", "occu": 1}], "abc": [0.12798769000000002, 0.25597538000000003, 0.250001], "properties": {"magmom": 0.0}, "label": "Sn", "xyz": [0.0, 1.7478317123797342, 1.3649711848628998]}, {"species": [{"element": "Sn", "occu": 1}], "abc": [0.74402362, 0.87201131, 0.250001], "properties": {"magmom": 0.0}, "label": "Sn", "xyz": [2.428548843625916, 5.954201615685832, 1.3649711848628998]}, {"species": [{"element": "Sn", "occu": 1}], "abc": [0.12798869000000002, 0.87201131, 0.250001], "properties": {"magmom": 0.0}, "label": "Sn", "xyz": [-2.4285409591869564, 5.954201615685832, 1.3649711848628998]}, {"species": [{"element": "Sn", "occu": 1}], "abc": [0.87201131, 0.74402362, 0.75], "properties": {"magmom": 0.0}, "label": "Sn", "xyz": [3.94221553778052, 5.080285759495966, 4.094897175]}, {"species": [{"element": "Sn", "occu": 1}], "abc": [0.25597638, 0.12798869000000002, 0.75], "properties": {"magmom": 0.0}, "label": "Sn", "xyz": [1.5136706363740835, 0.8739226843141671, 4.094897175]}, {"species": [{"element": "Sn", "occu": 1}], "abc": [0.87201231, 0.12798869000000002, 0.75], "properties": {"magmom": 0.0}, "label": "Sn", "xyz": [6.370768323625916, 0.8739226843141671, 4.094897175]}]}, "task_ids": null, "uncorrected_energy_per_atom": null, "energy_per_atom": -3.375551053750001, "formation_energy_per_atom": -0.12323864437500101, "energy_above_hull": 0.016086287812498, "is_stable": false, "equilibrium_reaction_energy_per_atom": null, "decomposes_to": null, "xas": null, "grain_boundaries": null, "band_gap": 0.0, "cbm": null, "vbm": null, "efermi": 4.37310325, "is_gap_direct": null, "is_metal": null, "es_source_calc_id": null, "bandstructure": null, "dos": null, "dos_energy_up": null, "dos_energy_down": null, "is_magnetic": null, "ordering": null, "total_magnetization": 1e-07, "total_magnetization_normalized_vol": null, "total_magnetization_normalized_formula_units": null, "num_magnetic_sites": null, "num_unique_magnetic_sites": null, "types_of_magnetic_species": null, "bulk_modulus": null, "shear_modulus": null, "universal_anisotropy": null, "homogeneous_poisson": null, "e_total": null, "e_ionic": null, "e_electronic": null, "n": null, "e_ij_max": null, "weighted_surface_energy_EV_PER_ANG2": null, "weighted_surface_energy": null, "weighted_work_function": null, "surface_anisotropy": null, "shape_factor": null, "has_reconstructed": null, "possible_species": null, "has_props": null, "theoretical": null, "database_IDs": null, "fields_not_requested": ["builder_meta", "nsites", "elements", "nelements", "composition", "composition_reduced", "chemsys", "symmetry", "property_name", "deprecated", "deprecation_reasons", "last_updated", "origins", "warnings", "task_ids", "uncorrected_energy_per_atom", "equilibrium_reaction_energy_per_atom", "decomposes_to", "xas", "grain_boundaries", "cbm", "vbm", "is_gap_direct", "is_metal", "es_source_calc_id", "bandstructure", "dos", "dos_energy_up", "dos_energy_down", "is_magnetic", "ordering", "total_magnetization_normalized_vol", "total_magnetization_normalized_formula_units", "num_magnetic_sites", "num_unique_magnetic_sites", "types_of_magnetic_species", "bulk_modulus", "shear_modulus", "universal_anisotropy", "homogeneous_poisson", "e_total", "e_ionic", "e_electronic", "n", "e_ij_max", "weighted_surface_energy_EV_PER_ANG2", "weighted_surface_energy", "weighted_work_function", "surface_anisotropy", "shape_factor", "has_reconstructed", "possible_species", "has_props", "theoretical", "database_IDs"]}