{"builder_meta": null, "nsites": null, "elements": null, "nelements": null, "composition": null, "composition_reduced": null, "formula_pretty": "RbTe6", "formula_anonymous": "AB6", "chemsys": null, "volume": 529.2655803745624, "density": 5.340348523042697, "density_atomic": 37.804684312468744, "symmetry": null, "property_name": null, "material_id": "mp-28878", "deprecated": null, "deprecation_reasons": null, "last_updated": null, "origins": null, "warnings": null, "structure": {"@module": "pymatgen.core.structure", "@class": "Structure", "charge": 0, "lattice": {"matrix": [[6.79489969, -0.12780029, -1.80045447], [-3.10331069, 6.29485097, -0.41584869], [-0.14522515, 0.00261971, 12.52816954]], "pbc": [true, true, true], "a": 7.030549836949395, "b": 7.030548777026792, "c": 12.529011502511155, "alpha": 93.08637037424971, "beta": 105.50243488582663, "gamma": 115.32403104975083, "volume": 529.2655803745624}, "properties": {}, "sites": [{"species": [{"element": "Rb", "occu": 1}], "abc": [0.8811945, 0.6311945, 0.25], "properties": {"magmom": 0.0}, "label": "Rb", "xyz": [3.9925293080605004, 3.8613133254372594, 1.2830104025753801]}, {"species": [{"element": "Rb", "occu": 1}], "abc": [0.1188055, 0.3688055, 0.75], "properties": {"magmom": 0.0}, "label": "Rb", "xyz": [-0.44616545806050006, 2.30835706456274, 9.02885597742462]}, {"species": [{"element": "Te", "occu": 1}], "abc": [0.15226235, 0.22942512, 0.35245185], "properties": {"magmom": 0.0}, "label": "Te", "xyz": [0.27144509457911126, 1.4256610883242482, 4.046028967211352]}, {"species": [{"element": "Te", "occu": 1}], "abc": [0.37697326000000003, 0.7998105, 0.14754815000000002], "properties": {"magmom": 0.0}, "label": "Te", "xyz": [0.05800731067207205, 4.986897143154976, 0.837184898802634]}, {"species": [{"element": "Te", "occu": 1}], "abc": [0.54886823, 0.77095453, 0.40642983], "properties": {"magmom": -0.0}, "label": "Te", "xyz": [1.2779692983986985, 4.783963080320556, 3.7830091268588246]}, {"species": [{"element": "Te", "occu": 1}], "abc": [0.864524699999999, 0.1424384, 0.09357017000000001], "properties": {"magmom": -0.0}, "label": "Te", "xyz": [5.418739264667066, 0.7863871197431357, -0.44350722893948125]}, {"species": [{"element": "Te", "occu": 1}], "abc": [0.45113177, 0.22904547, 0.59357017], "properties": {"magmom": -0.0}, "label": "Te", "xyz": [2.2683945516013013, 1.3857073096794432, 6.528857253141176]}, {"species": [{"element": "Te", "occu": 1}], "abc": [0.1354753, 0.857561599999999, 0.90642983], "properties": {"magmom": -0.0}, "label": "Te", "xyz": [-1.8723754146670684, 5.383283270256858, 10.755373608939484]}, {"species": [{"element": "Te", "occu": 1}], "abc": [0.8183380100000001, 0.21333742, 0.43669449], "properties": {"magmom": 0.0}, "label": "Te", "xyz": [4.835053371586774, 1.2394874431506724, 3.9088861931934504]}, {"species": [{"element": "Te", "occu": 1}], "abc": [0.27664392, 0.38164551, 0.06330551], "properties": {"magmom": 0.0}, "label": "Te", "xyz": [0.6862095430893064, 2.3672122776945104, 0.13631059435596105]}, {"species": [{"element": "Te", "occu": 1}], "abc": [0.18166199, 0.78666258, 0.5633055100000001], "properties": {"magmom": 0.0}, "label": "Te", "xyz": [-1.2886895215867733, 4.930182946849327, 6.402980186806551]}, {"species": [{"element": "Te", "occu": 1}], "abc": [0.7233560800000001, 0.61835449, 0.93669449], "properties": {"magmom": 0.0}, "label": "Te", "xyz": [2.8601543069106943, 3.80245811230549, 10.17555578564404]}, {"species": [{"element": "Te", "occu": 1}], "abc": [0.62302674, 0.2001895, 0.85245185], "properties": {"magmom": 0.0}, "label": "Te", "xyz": [3.488356539327929, 1.1827732468450238, 9.474681481197367]}, {"species": [{"element": "Te", "occu": 1}], "abc": [0.84773765, 0.77057488, 0.64754815], "properties": {"magmom": 0.0}, "label": "Te", "xyz": [3.274918755420889, 4.744009301675751, 6.265837412788647]}]}, "task_ids": null, "uncorrected_energy_per_atom": null, "energy_per_atom": -3.096234102857145, "formation_energy_per_atom": -0.26189561250000104, "energy_above_hull": 0.08047325196428401, "is_stable": false, "equilibrium_reaction_energy_per_atom": null, "decomposes_to": null, "xas": null, "grain_boundaries": null, "band_gap": 0.0, "cbm": null, "vbm": null, "efermi": 4.02805495, "is_gap_direct": null, "is_metal": null, "es_source_calc_id": null, "bandstructure": null, "dos": null, "dos_energy_up": null, "dos_energy_down": null, "is_magnetic": null, "ordering": null, "total_magnetization": 0.0, "total_magnetization_normalized_vol": null, "total_magnetization_normalized_formula_units": null, "num_magnetic_sites": null, "num_unique_magnetic_sites": null, "types_of_magnetic_species": null, "bulk_modulus": null, "shear_modulus": null, "universal_anisotropy": null, "homogeneous_poisson": null, "e_total": null, "e_ionic": null, "e_electronic": null, "n": null, "e_ij_max": null, "weighted_surface_energy_EV_PER_ANG2": null, "weighted_surface_energy": null, "weighted_work_function": null, "surface_anisotropy": null, "shape_factor": null, "has_reconstructed": null, "possible_species": null, "has_props": null, "theoretical": null, "database_IDs": null, "fields_not_requested": ["builder_meta", "nsites", "elements", "nelements", "composition", "composition_reduced", "chemsys", "symmetry", "property_name", "deprecated", "deprecation_reasons", "last_updated", "origins", "warnings", "task_ids", "uncorrected_energy_per_atom", "equilibrium_reaction_energy_per_atom", "decomposes_to", "xas", "grain_boundaries", "cbm", "vbm", "is_gap_direct", "is_metal", "es_source_calc_id", "bandstructure", "dos", "dos_energy_up", "dos_energy_down", "is_magnetic", "ordering", "total_magnetization_normalized_vol", "total_magnetization_normalized_formula_units", "num_magnetic_sites", "num_unique_magnetic_sites", "types_of_magnetic_species", "bulk_modulus", "shear_modulus", "universal_anisotropy", "homogeneous_poisson", "e_total", "e_ionic", "e_electronic", "n", "e_ij_max", "weighted_surface_energy_EV_PER_ANG2", "weighted_surface_energy", "weighted_work_function", "surface_anisotropy", "shape_factor", "has_reconstructed", "possible_species", "has_props", "theoretical", "database_IDs"]}