{"builder_meta": null, "nsites": null, "elements": null, "nelements": null, "composition": null, "composition_reduced": null, "formula_pretty": "RbTe", "formula_anonymous": "AB", "chemsys": null, "volume": 322.43639110788814, "density": 4.389174615419019, "density_atomic": 40.30454888848602, "symmetry": null, "property_name": null, "material_id": "mp-8360", "deprecated": null, "deprecation_reasons": null, "last_updated": null, "origins": null, "warnings": null, "structure": {"@module": "pymatgen.core.structure", "@class": "Structure", "charge": 0, "lattice": {"matrix": [[4.89739134, 0.0, 0.0], [0.0, 5.88326355, -0.0], [0.0, 0.0, 11.19079497]], "pbc": [true, true, true], "a": 4.89739134, "b": 5.88326355, "c": 11.19079497, "alpha": 90.0, "beta": 90.0, "gamma": 90.0, "volume": 322.43639110788814}, "properties": {}, "sites": [{"species": [{"element": "Rb", "occu": 1}], "abc": [0.5, 0.671505599999999, 0.86596194], "properties": {"magmom": 0.0}, "label": "Rb", "xyz": [2.44869567, 3.950644420100874, 9.690802522363443]}, {"species": [{"element": "Rb", "occu": 1}], "abc": [0.5, 0.328494399999999, 0.13403806000000001], "properties": {"magmom": 0.0}, "label": "Rb", "xyz": [2.44869567, 1.9326191298991142, 1.4999924476365585]}, {"species": [{"element": "Rb", "occu": 1}], "abc": [0.5, 0.171505599999999, 0.63403806], "properties": {"magmom": 0.0}, "label": "Rb", "xyz": [2.44869567, 1.009012645100874, 7.095389932636558]}, {"species": [{"element": "Rb", "occu": 1}], "abc": [0.5, 0.8284944, 0.36596194], "properties": {"magmom": 0.0}, "label": "Rb", "xyz": [2.44869567, 4.874250904899119, 4.095405037363442]}, {"species": [{"element": "Te", "occu": 1}], "abc": [-0.0, 0.14027223, 0.89685779], "properties": {"magmom": 0.0}, "label": "Te", "xyz": [0.0, 0.8252584978362164, 10.036551645137317]}, {"species": [{"element": "Te", "occu": 1}], "abc": [-0.0, 0.85972777, 0.10314221], "properties": {"magmom": 0.0}, "label": "Te", "xyz": [0.0, 5.058005052163783, 1.1542433248626838]}, {"species": [{"element": "Te", "occu": 1}], "abc": [0.0, 0.64027223, 0.60314221], "properties": {"magmom": 0.0}, "label": "Te", "xyz": [0.0, 3.7668902728362164, 6.749640809862684]}, {"species": [{"element": "Te", "occu": 1}], "abc": [0.0, 0.35972777, 0.39685779], "properties": {"magmom": 0.0}, "label": "Te", "xyz": [0.0, 2.1163732771637833, 4.441154160137317]}]}, "task_ids": null, "uncorrected_energy_per_atom": null, "energy_per_atom": -3.110644263333331, "formation_energy_per_atom": -1.048724280416663, "energy_above_hull": 0.0, "is_stable": true, "equilibrium_reaction_energy_per_atom": null, "decomposes_to": null, "xas": null, "grain_boundaries": null, "band_gap": 0.8245999999999991, "cbm": null, "vbm": null, "efermi": 2.26910384, "is_gap_direct": null, "is_metal": null, "es_source_calc_id": null, "bandstructure": null, "dos": null, "dos_energy_up": null, "dos_energy_down": null, "is_magnetic": null, "ordering": null, "total_magnetization": 0.0, "total_magnetization_normalized_vol": null, "total_magnetization_normalized_formula_units": null, "num_magnetic_sites": null, "num_unique_magnetic_sites": null, "types_of_magnetic_species": null, "bulk_modulus": null, "shear_modulus": null, "universal_anisotropy": null, "homogeneous_poisson": null, "e_total": null, "e_ionic": null, "e_electronic": null, "n": null, "e_ij_max": null, "weighted_surface_energy_EV_PER_ANG2": null, "weighted_surface_energy": null, "weighted_work_function": null, "surface_anisotropy": null, "shape_factor": null, "has_reconstructed": null, "possible_species": null, "has_props": null, "theoretical": null, "database_IDs": null, "fields_not_requested": ["builder_meta", "nsites", "elements", "nelements", "composition", "composition_reduced", "chemsys", "symmetry", "property_name", "deprecated", "deprecation_reasons", "last_updated", "origins", "warnings", "task_ids", "uncorrected_energy_per_atom", "equilibrium_reaction_energy_per_atom", "decomposes_to", "xas", "grain_boundaries", "cbm", "vbm", "is_gap_direct", "is_metal", "es_source_calc_id", "bandstructure", "dos", "dos_energy_up", "dos_energy_down", "is_magnetic", "ordering", "total_magnetization_normalized_vol", "total_magnetization_normalized_formula_units", "num_magnetic_sites", "num_unique_magnetic_sites", "types_of_magnetic_species", "bulk_modulus", "shear_modulus", "universal_anisotropy", "homogeneous_poisson", "e_total", "e_ionic", "e_electronic", "n", "e_ij_max", "weighted_surface_energy_EV_PER_ANG2", "weighted_surface_energy", "weighted_work_function", "surface_anisotropy", "shape_factor", "has_reconstructed", "possible_species", "has_props", "theoretical", "database_IDs"]}