{
  "builder_meta": null,
  "nsites": null,
  "elements": null,
  "nelements": null,
  "composition": null,
  "composition_reduced": null,
  "formula_pretty": "RbTl3",
  "formula_anonymous": "AB3",
  "chemsys": null,
  "volume": 307.2796854559981,
  "density": 7.550658493721743,
  "density_atomic": 38.40996068199976,
  "symmetry": null,
  "property_name": null,
  "material_id": "mp-867797",
  "deprecated": null,
  "deprecation_reasons": null,
  "last_updated": null,
  "origins": null,
  "warnings": null,
  "structure": {
    "@module": "pymatgen.core.structure",
    "@class": "Structure",
    "charge": 0,
    "lattice": {
      "matrix": [
        [8.2632071, 1e-8, 0.0],
        [-4.13160303, 7.15614687, 0.0],
        [0.0, -0.0, 5.19644059]
      ],
      "pbc": [true, true, true],
      "a": 8.2632071,
      "b": 8.2632064976325,
      "c": 5.19644059,
      "alpha": 90.0,
      "beta": 90.0,
      "gamma": 119.99999817870652,
      "volume": 307.2796854559981
    },
    "properties": {},
    "sites": [
      {
        "species": [{ "element": "Rb", "occu": 1 }],
        "abc": [0.333333, 0.666666, 0.750000999999999],
        "properties": { "magmom": 0.001 },
        "label": "Rb",
        "xyz": [3.4666632009461296e-7, 4.77075981256875, 3.897335638940585]
      },
      {
        "species": [{ "element": "Rb", "occu": 1 }],
        "abc": [0.666667, 0.333333, 0.250002],
        "properties": { "magmom": 0.001 },
        "label": "Rb",
        "xyz": [4.131607854936711, 2.38537991128438, 1.29912054038118]
      },
      {
        "species": [{ "element": "Tl", "occu": 1 }],
        "abc": [0.13581068, 0.27162236, 0.250002],
        "properties": { "magmom": 0.003 },
        "label": "Tl",
        "xyz": [-3.990359922712017e-6, 1.94376950269412, 1.29912054038118]
      },
      {
        "species": [{ "element": "Tl", "occu": 1 }],
        "abc": [0.72837864, 0.86418832, 0.250002],
        "properties": { "magmom": 0.003 },
        "label": "Tl",
        "xyz": [2.4482604681337348, 6.184258548542344, 1.29912054038118]
      },
      {
        "species": [{ "element": "Tl", "occu": 1 }],
        "abc": [0.13580968000000002, 0.86418832, 0.250002],
        "properties": { "magmom": 0.003 },
        "label": "Tl",
        "xyz": [-2.448259569377881, 6.1842585426166545, 1.29912054038118]
      },
      {
        "species": [{ "element": "Tl", "occu": 1 }],
        "abc": [0.86418932, 0.72837864, 0.750000999999999],
        "properties": { "magmom": 0.003 },
        "label": "Tl",
        "xyz": [4.131603928756894, 5.21238453345275, 3.897335638940585]
      },
      {
        "species": [{ "element": "Tl", "occu": 1 }],
        "abc": [0.27162136, 0.13580968000000002, 0.750000999999999],
        "properties": { "magmom": 0.003 },
        "label": "Tl",
        "xyz": [1.6833518650723256, 0.9718740191639152, 3.897335638940585]
      },
      {
        "species": [{ "element": "Tl", "occu": 1 }],
        "abc": [0.86418932, 0.13580968000000002, 0.750000999999999],
        "properties": { "magmom": 0.003 },
        "label": "Tl",
        "xyz": [6.579863639376843, 0.9718740250895949, 3.897335638940585]
      }
    ]
  },
  "task_ids": null,
  "uncorrected_energy_per_atom": null,
  "energy_per_atom": -2.087261914999999,
  "formation_energy_per_atom": -0.063524309375004,
  "energy_above_hull": 0.015386987999999002,
  "is_stable": false,
  "equilibrium_reaction_energy_per_atom": null,
  "decomposes_to": null,
  "xas": null,
  "grain_boundaries": null,
  "band_gap": 0.0,
  "cbm": null,
  "vbm": null,
  "efermi": 3.08958681,
  "is_gap_direct": null,
  "is_metal": null,
  "es_source_calc_id": null,
  "bandstructure": null,
  "dos": null,
  "dos_energy_up": null,
  "dos_energy_down": null,
  "is_magnetic": null,
  "ordering": null,
  "total_magnetization": 0.0690721,
  "total_magnetization_normalized_vol": null,
  "total_magnetization_normalized_formula_units": null,
  "num_magnetic_sites": null,
  "num_unique_magnetic_sites": null,
  "types_of_magnetic_species": null,
  "bulk_modulus": null,
  "shear_modulus": null,
  "universal_anisotropy": null,
  "homogeneous_poisson": null,
  "e_total": null,
  "e_ionic": null,
  "e_electronic": null,
  "n": null,
  "e_ij_max": null,
  "weighted_surface_energy_EV_PER_ANG2": null,
  "weighted_surface_energy": null,
  "weighted_work_function": null,
  "surface_anisotropy": null,
  "shape_factor": null,
  "has_reconstructed": null,
  "possible_species": null,
  "has_props": null,
  "theoretical": null,
  "database_IDs": null,
  "fields_not_requested": [
    "builder_meta",
    "nsites",
    "elements",
    "nelements",
    "composition",
    "composition_reduced",
    "chemsys",
    "symmetry",
    "property_name",
    "deprecated",
    "deprecation_reasons",
    "last_updated",
    "origins",
    "warnings",
    "task_ids",
    "uncorrected_energy_per_atom",
    "equilibrium_reaction_energy_per_atom",
    "decomposes_to",
    "xas",
    "grain_boundaries",
    "cbm",
    "vbm",
    "is_gap_direct",
    "is_metal",
    "es_source_calc_id",
    "bandstructure",
    "dos",
    "dos_energy_up",
    "dos_energy_down",
    "is_magnetic",
    "ordering",
    "total_magnetization_normalized_vol",
    "total_magnetization_normalized_formula_units",
    "num_magnetic_sites",
    "num_unique_magnetic_sites",
    "types_of_magnetic_species",
    "bulk_modulus",
    "shear_modulus",
    "universal_anisotropy",
    "homogeneous_poisson",
    "e_total",
    "e_ionic",
    "e_electronic",
    "n",
    "e_ij_max",
    "weighted_surface_energy_EV_PER_ANG2",
    "weighted_surface_energy",
    "weighted_work_function",
    "surface_anisotropy",
    "shape_factor",
    "has_reconstructed",
    "possible_species",
    "has_props",
    "theoretical",
    "database_IDs"
  ]
}
