{"builder_meta": null, "nsites": null, "elements": null, "nelements": null, "composition": null, "composition_reduced": null, "formula_pretty": "Re2C", "formula_anonymous": "AB2", "chemsys": null, "volume": 69.65985272408962, "density": 18.327694003155173, "density_atomic": 11.609975454014936, "symmetry": null, "property_name": null, "material_id": "mp-974437", "deprecated": null, "deprecation_reasons": null, "last_updated": null, "origins": null, "warnings": null, "structure": {"@module": "pymatgen.core.structure", "@class": "Structure", "charge": 0, "lattice": {"matrix": [[2.85578466, 1.3610000000000002e-05, -1.009999999999998e-06], [-1.4278803500000001, 2.47316473, 1.009999999999998e-06], [-1.02e-06, -1e-06, 9.86285972]], "pbc": [true, true, true], "a": 2.8557846600326093, "b": 2.855763658924372, "c": 9.862859720000102, "alpha": 89.99998180440421, "beta": 90.0000261891495, "gamma": 119.99969266706732, "volume": 69.65985272408962}, "properties": {}, "sites": [{"species": [{"element": "Re", "occu": 1}], "abc": [0.33337219, 0.6666980100000001, 0.60834981], "properties": {"magmom": -0.0}, "label": "Re", "xyz": [7.357789269553562e-05, 1.6488579327388835, 6.000069173377732]}, {"species": [{"element": "Re", "occu": 1}], "abc": [0.66659181, 0.33330399, 0.10835081], "properties": {"magmom": -0.0}, "label": "Re", "xyz": [1.4277243370642119, 0.8243246363999968, 1.0686485029576749]}, {"species": [{"element": "Re", "occu": 1}], "abc": [0.6665911, 0.33330225, 0.39164975], "properties": {"magmom": -0.0}, "label": "Re", "xyz": [1.4277245050039933, 0.8243200497847637, 3.8627862070013315]}, {"species": [{"element": "Re", "occu": 1}], "abc": [0.3333749, 0.66669875, 0.89165075], "properties": {"magmom": -0.0}, "label": "Re", "xyz": [7.99714707063407e-05, 1.6488594796167266, 8.794226603139878]}, {"species": [{"element": "C", "occu": 1}], "abc": [0.33319729, 0.66660412, 0.25000144], "properties": {"magmom": -0.0}, "label": "C", "xyz": [-0.0002914696429395495, 1.6486260832703648, 2.465729469258895]}, {"species": [{"element": "C", "occu": 1}], "abc": [0.66676471, 0.33339488, 0.74999844], "properties": {"magmom": -0.0}, "label": "C", "xyz": [1.4280876677063319, 0.8245487830478455, 7.3971290672353085]}]}, "task_ids": null, "uncorrected_energy_per_atom": null, "energy_per_atom": -11.401687795, "formation_energy_per_atom": -0.026723159166669, "energy_above_hull": 0.0, "is_stable": true, "equilibrium_reaction_energy_per_atom": null, "decomposes_to": null, "xas": null, "grain_boundaries": null, "band_gap": 0.0, "cbm": null, "vbm": null, "efermi": 8.01269316, "is_gap_direct": null, "is_metal": null, "es_source_calc_id": null, "bandstructure": null, "dos": null, "dos_energy_up": null, "dos_energy_down": null, "is_magnetic": null, "ordering": null, "total_magnetization": 1e-07, "total_magnetization_normalized_vol": null, "total_magnetization_normalized_formula_units": null, "num_magnetic_sites": null, "num_unique_magnetic_sites": null, "types_of_magnetic_species": null, "bulk_modulus": null, "shear_modulus": null, "universal_anisotropy": null, "homogeneous_poisson": null, "e_total": null, "e_ionic": null, "e_electronic": null, "n": null, "e_ij_max": null, "weighted_surface_energy_EV_PER_ANG2": null, "weighted_surface_energy": null, "weighted_work_function": null, "surface_anisotropy": null, "shape_factor": null, "has_reconstructed": null, "possible_species": null, "has_props": null, "theoretical": null, "database_IDs": null, "fields_not_requested": ["builder_meta", "nsites", "elements", "nelements", "composition", "composition_reduced", "chemsys", "symmetry", "property_name", "deprecated", "deprecation_reasons", "last_updated", "origins", "warnings", "task_ids", "uncorrected_energy_per_atom", "equilibrium_reaction_energy_per_atom", "decomposes_to", "xas", "grain_boundaries", "cbm", "vbm", "is_gap_direct", "is_metal", "es_source_calc_id", "bandstructure", "dos", "dos_energy_up", "dos_energy_down", "is_magnetic", "ordering", "total_magnetization_normalized_vol", "total_magnetization_normalized_formula_units", "num_magnetic_sites", "num_unique_magnetic_sites", "types_of_magnetic_species", "bulk_modulus", "shear_modulus", "universal_anisotropy", "homogeneous_poisson", "e_total", "e_ionic", "e_electronic", "n", "e_ij_max", "weighted_surface_energy_EV_PER_ANG2", "weighted_surface_energy", "weighted_work_function", "surface_anisotropy", "shape_factor", "has_reconstructed", "possible_species", "has_props", "theoretical", "database_IDs"]}