{"builder_meta": null, "nsites": null, "elements": null, "nelements": null, "composition": null, "composition_reduced": null, "formula_pretty": "Re2N", "formula_anonymous": "AB2", "chemsys": null, "volume": 69.20609371485716, "density": 18.54364649265461, "density_atomic": 11.534348952476194, "symmetry": null, "property_name": null, "material_id": "mp-1018948", "deprecated": null, "deprecation_reasons": null, "last_updated": null, "origins": null, "warnings": null, "structure": {"@module": "pymatgen.core.structure", "@class": "Structure", "charge": 0, "lattice": {"matrix": [[2.85052394, 8.199999999999999e-07, 2e-08], [-1.42526076, 2.46862823, 1e-08], [7e-08, 1e-07, 9.83476259]], "pbc": [true, true, true], "a": 2.850523940000118, "b": 2.85052513968018, "c": 9.83476259, "alpha": 89.99999949837046, "beta": 89.9999991901891, "gamma": 119.99994151232424, "volume": 69.20609371485716}, "properties": {}, "sites": [{"species": [{"element": "Re", "occu": 1}], "abc": [0.33333136, 0.6666635, 0.39449921], "properties": {"magmom": -0.0}, "label": "Re", "xyz": [-2.774265568026786e-07, 1.6457446487922414, 3.879806085625816]}, {"species": [{"element": "Re", "occu": 1}], "abc": [0.66666865, 0.33333649, 0.60549421], "properties": {"magmom": 0.0}, "label": "Re", "xyz": [1.4252635701839433, 0.8228844765208267, 5.954891821636343]}, {"species": [{"element": "Re", "occu": 1}], "abc": [0.66666863, 0.33333656, 0.8945027600000001], "properties": {"magmom": 0.0}, "label": "Re", "xyz": [1.4252634336358099, 0.8228846782256415, 8.797222297366487]}, {"species": [{"element": "Re", "occu": 1}], "abc": [0.33333136, 0.66666345, 0.10549285], "properties": {"magmom": -0.0}, "label": "Re", "xyz": [-2.2639396419854183e-07, 1.645744496460194, 1.037497148025743]}, {"species": [{"element": "N", "occu": 1}], "abc": [0.33333704000000003, 0.6666742, 0.75000571], "properties": {"magmom": -0.0}, "label": "N", "xyz": [6.881447454145033e-07, 1.6457710986696101, 7.376128112327873]}, {"species": [{"element": "N", "occu": 1}], "abc": [0.66666296, 0.33332581, 0.25000525], "properties": {"magmom": 0.0}, "label": "N", "xyz": [1.4252625476034144, 0.8228580760177686, 2.458742296670115]}]}, "task_ids": null, "uncorrected_energy_per_atom": null, "energy_per_atom": -38.00842485333333, "formation_energy_per_atom": -0.025098157916663002, "energy_above_hull": 0.053988794583339, "is_stable": false, "equilibrium_reaction_energy_per_atom": null, "decomposes_to": null, "xas": null, "grain_boundaries": null, "band_gap": 0.0, "cbm": null, "vbm": null, "efermi": 8.69702089, "is_gap_direct": null, "is_metal": null, "es_source_calc_id": null, "bandstructure": null, "dos": null, "dos_energy_up": null, "dos_energy_down": null, "is_magnetic": null, "ordering": null, "total_magnetization": 0.0, "total_magnetization_normalized_vol": null, "total_magnetization_normalized_formula_units": null, "num_magnetic_sites": null, "num_unique_magnetic_sites": null, "types_of_magnetic_species": null, "bulk_modulus": null, "shear_modulus": null, "universal_anisotropy": null, "homogeneous_poisson": null, "e_total": null, "e_ionic": null, "e_electronic": null, "n": null, "e_ij_max": null, "weighted_surface_energy_EV_PER_ANG2": null, "weighted_surface_energy": null, "weighted_work_function": null, "surface_anisotropy": null, "shape_factor": null, "has_reconstructed": null, "possible_species": null, "has_props": null, "theoretical": null, "database_IDs": null, "fields_not_requested": ["builder_meta", "nsites", "elements", "nelements", "composition", "composition_reduced", "chemsys", "symmetry", "property_name", "deprecated", "deprecation_reasons", "last_updated", "origins", "warnings", "task_ids", "uncorrected_energy_per_atom", "equilibrium_reaction_energy_per_atom", "decomposes_to", "xas", "grain_boundaries", "cbm", "vbm", "is_gap_direct", "is_metal", "es_source_calc_id", "bandstructure", "dos", "dos_energy_up", "dos_energy_down", "is_magnetic", "ordering", "total_magnetization_normalized_vol", "total_magnetization_normalized_formula_units", "num_magnetic_sites", "num_unique_magnetic_sites", "types_of_magnetic_species", "bulk_modulus", "shear_modulus", "universal_anisotropy", "homogeneous_poisson", "e_total", "e_ionic", "e_electronic", "n", "e_ij_max", "weighted_surface_energy_EV_PER_ANG2", "weighted_surface_energy", "weighted_work_function", "surface_anisotropy", "shape_factor", "has_reconstructed", "possible_species", "has_props", "theoretical", "database_IDs"]}