{
  "builder_meta": null,
  "nsites": null,
  "elements": null,
  "nelements": null,
  "composition": null,
  "composition_reduced": null,
  "formula_pretty": "Re2P",
  "formula_anonymous": "AB2",
  "chemsys": null,
  "volume": 164.77066714238228,
  "density": 16.261174380280128,
  "density_atomic": 13.730888928531856,
  "symmetry": null,
  "property_name": null,
  "material_id": "mp-1637",
  "deprecated": null,
  "deprecation_reasons": null,
  "last_updated": null,
  "origins": null,
  "warnings": null,
  "structure": {
    "@module": "pymatgen.core.structure",
    "@class": "Structure",
    "charge": 0,
    "lattice": {
      "matrix": [
        [2.94754709, -0.0, 0.0],
        [0.0, 5.5385085499999995, 0.0],
        [0.0, 0.0, 10.09314047]
      ],
      "pbc": [true, true, true],
      "a": 2.94754709,
      "b": 5.5385085499999995,
      "c": 10.09314047,
      "alpha": 90.0,
      "beta": 90.0,
      "gamma": 90.0,
      "volume": 164.77066714238225
    },
    "properties": {},
    "sites": [
      {
        "species": [{ "element": "Re", "occu": 1 }],
        "abc": [0.75, 0.14791012, 0.2126362],
        "properties": { "magmom": -0.0 },
        "label": "Re",
        "xyz": [2.2106603175, 0.819201464251526, 2.146167035607014]
      },
      {
        "species": [{ "element": "Re", "occu": 1 }],
        "abc": [0.25, 0.85208988, 0.7873638],
        "properties": { "magmom": -0.0 },
        "label": "Re",
        "xyz": [0.7368867725, 4.719307085748474, 7.946973434392985]
      },
      {
        "species": [{ "element": "Re", "occu": 1 }],
        "abc": [0.75, 0.64791012, 0.2873638],
        "properties": { "magmom": -0.0 },
        "label": "Re",
        "xyz": [2.2106603175, 3.588455739251526, 2.900403199392986]
      },
      {
        "species": [{ "element": "Re", "occu": 1 }],
        "abc": [0.25, 0.35208988, 0.712636199999999],
        "properties": { "magmom": -0.0 },
        "label": "Re",
        "xyz": [0.7368867725, 1.950052810748474, 7.1927372706070045]
      },
      {
        "species": [{ "element": "Re", "occu": 1 }],
        "abc": [0.25, 0.32512043, 0.43540652],
        "properties": { "magmom": 0.0 },
        "label": "Re",
        "xyz": [0.7368867725, 1.8006822813346763, 4.394619167913865]
      },
      {
        "species": [{ "element": "Re", "occu": 1 }],
        "abc": [0.75, 0.67487957, 0.56459348],
        "properties": { "magmom": 0.0 },
        "label": "Re",
        "xyz": [2.2106603175, 3.737826268665323, 5.698521302086135]
      },
      {
        "species": [{ "element": "Re", "occu": 1 }],
        "abc": [0.25, 0.82512043, 0.06459348],
        "properties": { "magmom": 0.0 },
        "label": "Re",
        "xyz": [0.7368867725, 4.569936556334676, 0.6519510670861355]
      },
      {
        "species": [{ "element": "Re", "occu": 1 }],
        "abc": [0.75, 0.17487957, 0.93540652],
        "properties": { "magmom": 0.0 },
        "label": "Re",
        "xyz": [2.2106603175, 0.9685719936653235, 9.441189402913864]
      },
      {
        "species": [{ "element": "P", "occu": 1 }],
        "abc": [0.25, 0.90216501, 0.39791555],
        "properties": { "magmom": 0.0 },
        "label": "P",
        "xyz": [0.7368867725, 4.996648621395836, 4.0162175413473085]
      },
      {
        "species": [{ "element": "P", "occu": 1 }],
        "abc": [0.75, 0.09783499, 0.60208445],
        "properties": { "magmom": 0.0 },
        "label": "P",
        "xyz": [2.2106603175, 0.5418599286041644, 6.076922928652691]
      },
      {
        "species": [{ "element": "P", "occu": 1 }],
        "abc": [0.25, 0.40216501, 0.10208445000000001],
        "properties": { "magmom": 0.0 },
        "label": "P",
        "xyz": [0.7368867725, 2.2273943463958354, 1.0303526936526914]
      },
      {
        "species": [{ "element": "P", "occu": 1 }],
        "abc": [0.75, 0.5978349900000001, 0.89791555],
        "properties": { "magmom": 0.0 },
        "label": "P",
        "xyz": [2.2106603175, 3.3111142036041645, 9.062787776347308]
      }
    ]
  },
  "task_ids": null,
  "uncorrected_energy_per_atom": null,
  "energy_per_atom": -38.23466018166666,
  "formation_energy_per_atom": -0.293558272658728,
  "energy_above_hull": 0.0,
  "is_stable": true,
  "equilibrium_reaction_energy_per_atom": null,
  "decomposes_to": null,
  "xas": null,
  "grain_boundaries": null,
  "band_gap": 0.0,
  "cbm": null,
  "vbm": null,
  "efermi": 9.1311655,
  "is_gap_direct": null,
  "is_metal": null,
  "es_source_calc_id": null,
  "bandstructure": null,
  "dos": null,
  "dos_energy_up": null,
  "dos_energy_down": null,
  "is_magnetic": null,
  "ordering": null,
  "total_magnetization": 1e-7,
  "total_magnetization_normalized_vol": null,
  "total_magnetization_normalized_formula_units": null,
  "num_magnetic_sites": null,
  "num_unique_magnetic_sites": null,
  "types_of_magnetic_species": null,
  "bulk_modulus": null,
  "shear_modulus": null,
  "universal_anisotropy": null,
  "homogeneous_poisson": null,
  "e_total": null,
  "e_ionic": null,
  "e_electronic": null,
  "n": null,
  "e_ij_max": null,
  "weighted_surface_energy_EV_PER_ANG2": null,
  "weighted_surface_energy": null,
  "weighted_work_function": null,
  "surface_anisotropy": null,
  "shape_factor": null,
  "has_reconstructed": null,
  "possible_species": null,
  "has_props": null,
  "theoretical": null,
  "database_IDs": null,
  "fields_not_requested": [
    "builder_meta",
    "nsites",
    "elements",
    "nelements",
    "composition",
    "composition_reduced",
    "chemsys",
    "symmetry",
    "property_name",
    "deprecated",
    "deprecation_reasons",
    "last_updated",
    "origins",
    "warnings",
    "task_ids",
    "uncorrected_energy_per_atom",
    "equilibrium_reaction_energy_per_atom",
    "decomposes_to",
    "xas",
    "grain_boundaries",
    "cbm",
    "vbm",
    "is_gap_direct",
    "is_metal",
    "es_source_calc_id",
    "bandstructure",
    "dos",
    "dos_energy_up",
    "dos_energy_down",
    "is_magnetic",
    "ordering",
    "total_magnetization_normalized_vol",
    "total_magnetization_normalized_formula_units",
    "num_magnetic_sites",
    "num_unique_magnetic_sites",
    "types_of_magnetic_species",
    "bulk_modulus",
    "shear_modulus",
    "universal_anisotropy",
    "homogeneous_poisson",
    "e_total",
    "e_ionic",
    "e_electronic",
    "n",
    "e_ij_max",
    "weighted_surface_energy_EV_PER_ANG2",
    "weighted_surface_energy",
    "weighted_work_function",
    "surface_anisotropy",
    "shape_factor",
    "has_reconstructed",
    "possible_species",
    "has_props",
    "theoretical",
    "database_IDs"
  ]
}
