{"builder_meta": null, "nsites": null, "elements": null, "nelements": null, "composition": null, "composition_reduced": null, "formula_pretty": "Re2P5", "formula_anonymous": "A2B5", "chemsys": null, "volume": 438.8836763124049, "density": 7.9800070260838485, "density_atomic": 15.674417011157317, "symmetry": null, "property_name": null, "material_id": "mp-27736", "deprecated": null, "deprecation_reasons": null, "last_updated": null, "origins": null, "warnings": null, "structure": {"@module": "pymatgen.core.structure", "@class": "Structure", "charge": 0, "lattice": {"matrix": [[6.8044179, 0.00728365, 2.77481243], [-0.7151313300000001, 7.70481734, 2.85013031], [-0.01621039, 0.00029489, 8.36404676]], "pbc": [true, true, true], "a": 7.348451539683734, "b": 8.246142482754767, "c": 8.364062473892133, "alpha": 69.76738795811907, "beta": 67.9256300312316, "gamma": 87.06885658298215, "volume": 438.8836763124049}, "properties": {}, "sites": [{"species": [{"element": "Re", "occu": 1}], "abc": [0.57436088, 0.42139585, 0.14262356], "properties": {"magmom": 0.0}, "label": "Re", "xyz": [3.6045260947339828, 3.2510035539692597, 3.987686918640618]}, {"species": [{"element": "Re", "occu": 1}], "abc": [0.42564012, 0.57860515, 0.85737544], "properties": {"magmom": 0.0}, "label": "Re", "xyz": [2.468556190762977, 4.461400037836841, 10.001299842255364]}, {"species": [{"element": "Re", "occu": 1}], "abc": [0.05701791, 0.08803675, 0.0979284], "properties": {"magmom": 0.0}, "label": "Re", "xyz": [0.3234283917521355, 0.6787512545632925, 1.2282079317014978]}, {"species": [{"element": "Re", "occu": 1}], "abc": [0.94298109, 0.91196325, 0.9020726], "properties": {"magmom": 0.0}, "label": "Re", "xyz": [5.749640967619574, 7.033644618447947, 12.760787157532832]}, {"species": [{"element": "Re", "occu": 1}], "abc": [0.17826221, 0.52062589, 0.25036867], "properties": {"magmom": 0.0}, "label": "Re", "xyz": [0.836596113684944, 4.012699615687896, 4.072591088486005]}, {"species": [{"element": "Re", "occu": 1}], "abc": [0.82173779, 0.47937411, 0.74963133], "properties": {"magmom": 0.0}, "label": "Re", "xyz": [5.236480066315056, 3.6996962643121045, 9.916398411513995]}, {"species": [{"element": "Re", "occu": 1}], "abc": [0.69575073, 0.85785086, 0.29001873], "properties": {"magmom": 0.0}, "label": "Re", "xyz": [4.116001377976017, 6.614737309689766, 6.801294730326955]}, {"species": [{"element": "Re", "occu": 1}], "abc": [0.30424927, 0.14214914, 0.70998127], "properties": {"magmom": 0.0}, "label": "Re", "xyz": [1.9570748020239817, 1.0976585703102333, 7.187694769673046]}, {"species": [{"element": "P", "occu": 1}], "abc": [0.022378930000000002, 0.78237221, 0.16809194], "properties": {"magmom": -0.0}, "label": "P", "xyz": [-0.4099481231207489, 6.028247538867802, 3.6978889286958996]}, {"species": [{"element": "P", "occu": 1}], "abc": [0.97762107, 0.21762679000000001, 0.8319080600000001], "properties": {"magmom": -0.0}, "label": "P", "xyz": [6.483025018252078, 1.6841406363148574, 10.291097721173792]}, {"species": [{"element": "P", "occu": 1}], "abc": [0.72998669, 0.15587572, 0.26034233], "properties": {"magmom": -0.0}, "label": "P", "xyz": [4.851442638536635, 1.206387690245297, 4.647357677038981]}, {"species": [{"element": "P", "occu": 1}], "abc": [0.27001331, 0.84412228, 0.73965867], "properties": {"magmom": -0.0}, "label": "P", "xyz": [1.2216349555156354, 6.505992780414913, 9.341634486747159]}, {"species": [{"element": "P", "occu": 1}], "abc": [0.53498819, 0.30828671, 0.94391671], "properties": {"magmom": -0.0}, "label": "P", "xyz": [3.4045164733843594, 2.3794678072282567, 10.258112675841742]}, {"species": [{"element": "P", "occu": 1}], "abc": [0.46501181, 0.69171329, 0.05608229], "properties": {"magmom": -0.0}, "label": "P", "xyz": [2.6685597228260303, 5.332928072476854, 3.7308684601114983]}, {"species": [{"element": "P", "occu": 1}], "abc": [0.71902917, 0.74717669, 0.59660401], "properties": {"magmom": -0.0}, "label": "P", "xyz": [4.348574311227781, 5.762273006526383, 9.114745846386565]}, {"species": [{"element": "P", "occu": 1}], "abc": [0.28096983000000003, 0.25282231, 0.40339599], "properties": {"magmom": -0.0}, "label": "P", "xyz": [1.7244957794856486, 1.9501151613726257, 4.874238028670696]}, {"species": [{"element": "P", "occu": 1}], "abc": [0.86363382, 0.95982422, 0.63158021], "properties": {"magmom": 0.0}, "label": "P", "xyz": [5.1798868913181835, 7.401746946769144, 10.414612369529111]}, {"species": [{"element": "P", "occu": 1}], "abc": [0.13636518, 0.04017478, 0.36842079], "properties": {"magmom": 0.0}, "label": "P", "xyz": [0.8931831831848565, 0.3106412214247553, 3.57437986957491]}, {"species": [{"element": "P", "occu": 1}], "abc": [0.6820044, 0.16476004, 0.53467131], "properties": {"magmom": -0.0}, "label": "P", "xyz": [4.514150650245795, 1.2745711637017596, 6.83403770838596]}, {"species": [{"element": "P", "occu": 1}], "abc": [0.317994599999999, 0.83523996, 0.46532969], "properties": {"magmom": -0.0}, "label": "P", "xyz": [1.5589187091259074, 6.4378247093094805, 7.1549573808483675]}, {"species": [{"element": "P", "occu": 1}], "abc": [0.600851199999999, 0.91394699, 0.04668077], "properties": {"magmom": 0.0}, "label": "P", "xyz": [3.4340938205210763, 7.046184771927952, 4.662557539345485]}, {"species": [{"element": "P", "occu": 1}], "abc": [0.3991508, 0.08605401, 0.95331623], "properties": {"magmom": 0.0}, "label": "P", "xyz": [2.6389953018145564, 0.6662188265720181, 9.326415268269402]}, {"species": [{"element": "P", "occu": 1}], "abc": [0.16105647, 0.5839410700000001, 0.52098066], "properties": {"magmom": 0.0}, "label": "P", "xyz": [0.6698556736670322, 4.500485992618697, 6.468716239044416]}, {"species": [{"element": "P", "occu": 1}], "abc": [0.83894253, 0.41605893, 0.47902034], "properties": {"magmom": 0.0}, "label": "P", "xyz": [5.403213685704676, 3.211909880392543, 7.520278850189914]}, {"species": [{"element": "P", "occu": 1}], "abc": [0.37572679000000003, 0.45197685, 0.63538927], "properties": {"magmom": -0.0}, "label": "P", "xyz": [2.2230793816473153, 3.485323103534393, 7.645189851861589]}, {"species": [{"element": "P", "occu": 1}], "abc": [0.62427321, 0.54802215, 0.36461173], "properties": {"magmom": -0.0}, "label": "P", "xyz": [3.8499974972736246, 4.227065071943158, 6.343805162054863]}, {"species": [{"element": "P", "occu": 1}], "abc": [0.89212611, 0.58380198, 0.95227342], "properties": {"magmom": 0.0}, "label": "P", "xyz": [5.637467062002501, 4.5048663688802595, 12.104253750576682]}, {"species": [{"element": "P", "occu": 1}], "abc": [0.10787489, 0.41619802, 0.047725580000000004], "properties": {"magmom": 0.0}, "label": "P", "xyz": [0.4356159386257881, 3.2075295181085015, 1.8847301601889899]}]}, "task_ids": null, "uncorrected_energy_per_atom": null, "energy_per_atom": -21.836671652142858, "formation_energy_per_atom": -0.43215579855442204, "energy_above_hull": 0.0, "is_stable": true, "equilibrium_reaction_energy_per_atom": null, "decomposes_to": null, "xas": null, "grain_boundaries": null, "band_gap": 0.485199999999999, "cbm": null, "vbm": null, "efermi": 8.00029126, "is_gap_direct": null, "is_metal": null, "es_source_calc_id": null, "bandstructure": null, "dos": null, "dos_energy_up": null, "dos_energy_down": null, "is_magnetic": null, "ordering": null, "total_magnetization": 0.0, "total_magnetization_normalized_vol": null, "total_magnetization_normalized_formula_units": null, "num_magnetic_sites": null, "num_unique_magnetic_sites": null, "types_of_magnetic_species": null, "bulk_modulus": null, "shear_modulus": null, "universal_anisotropy": null, "homogeneous_poisson": null, "e_total": null, "e_ionic": null, "e_electronic": null, "n": null, "e_ij_max": null, "weighted_surface_energy_EV_PER_ANG2": null, "weighted_surface_energy": null, "weighted_work_function": null, "surface_anisotropy": null, "shape_factor": null, "has_reconstructed": null, "possible_species": null, "has_props": null, "theoretical": null, "database_IDs": null, "fields_not_requested": ["builder_meta", "nsites", "elements", "nelements", "composition", "composition_reduced", "chemsys", "symmetry", "property_name", "deprecated", "deprecation_reasons", "last_updated", "origins", "warnings", "task_ids", "uncorrected_energy_per_atom", "equilibrium_reaction_energy_per_atom", "decomposes_to", "xas", "grain_boundaries", "cbm", "vbm", "is_gap_direct", "is_metal", "es_source_calc_id", "bandstructure", "dos", "dos_energy_up", "dos_energy_down", "is_magnetic", "ordering", "total_magnetization_normalized_vol", "total_magnetization_normalized_formula_units", "num_magnetic_sites", "num_unique_magnetic_sites", "types_of_magnetic_species", "bulk_modulus", "shear_modulus", "universal_anisotropy", "homogeneous_poisson", "e_total", "e_ionic", "e_electronic", "n", "e_ij_max", "weighted_surface_energy_EV_PER_ANG2", "weighted_surface_energy", "weighted_work_function", "surface_anisotropy", "shape_factor", "has_reconstructed", "possible_species", "has_props", "theoretical", "database_IDs"]}