{
  "builder_meta": null,
  "nsites": null,
  "elements": null,
  "nelements": null,
  "composition": null,
  "composition_reduced": null,
  "formula_pretty": "Re2Si",
  "formula_anonymous": "AB2",
  "chemsys": null,
  "volume": 350.0839852963796,
  "density": 15.197383344245065,
  "density_atomic": 14.586832720682482,
  "symmetry": null,
  "property_name": null,
  "material_id": "mp-669547",
  "deprecated": null,
  "deprecation_reasons": null,
  "last_updated": null,
  "origins": null,
  "warnings": null,
  "structure": {
    "@module": "pymatgen.core.structure",
    "@class": "Structure",
    "charge": 0,
    "lattice": {
      "matrix": [
        [10.027594, 0.0, 0.0],
        [0.0, 5.858511, 0.0],
        [0.0, 0.404684, 5.959204]
      ],
      "pbc": [true, true, true],
      "a": 10.027594,
      "b": 5.858511,
      "c": 5.972929051434647,
      "alpha": 86.11506156847813,
      "beta": 90.0,
      "gamma": 90.0,
      "volume": 350.0839852963796
    },
    "properties": {},
    "sites": [
      {
        "species": [{ "element": "Re", "occu": 1 }],
        "abc": [0.069586, 0.424052, 0.809662999999999],
        "properties": { "magmom": -0.0 },
        "label": "Re",
        "xyz": [0.697780156084, 2.8119709680639997, 4.824946988251994]
      },
      {
        "species": [{ "element": "Re", "occu": 1 }],
        "abc": [0.569585999999999, 0.575948, 0.690337],
        "properties": { "magmom": -0.0 },
        "label": "Re",
        "xyz": [5.71157715608399, 3.653566031936, 4.113859011748]
      },
      {
        "species": [{ "element": "Re", "occu": 1 }],
        "abc": [0.169388999999999, 0.388152, 0.401926],
        "properties": { "magmom": 0.0 },
        "label": "Re",
        "xyz": [1.6985641200659902, 2.436645783056, 2.395159026904]
      },
      {
        "species": [{ "element": "Re", "occu": 1 }],
        "abc": [0.531702, 0.883606999999999, 0.325150999999999],
        "properties": { "magmom": 0.0 },
        "label": "Re",
        "xyz": [5.331691784988, 5.3082047364609934, 1.937641139803994]
      },
      {
        "species": [{ "element": "Re", "occu": 1 }],
        "abc": [0.690458999999999, 0.262457, 0.416701],
        "properties": { "magmom": 0.0 },
        "label": "Re",
        "xyz": [6.923642525645991, 1.706239449011, 2.4832062660039997]
      },
      {
        "species": [{ "element": "Re", "occu": 1 }],
        "abc": [0.468298, 0.116393, 0.674848999999999],
        "properties": { "magmom": 0.0 },
        "label": "Re",
        "xyz": [4.6959022150120004, 0.9549902635389996, 4.021562860195994]
      },
      {
        "species": [{ "element": "Re", "occu": 1 }],
        "abc": [0.430413999999999, 0.424052, 0.309662999999999],
        "properties": { "magmom": -0.0 },
        "label": "Re",
        "xyz": [4.316016843915991, 2.6096289680639995, 1.8453449882519941]
      },
      {
        "species": [{ "element": "Re", "occu": 1 }],
        "abc": [0.309541, 0.737543, 0.583299],
        "properties": { "magmom": 0.0 },
        "label": "Re",
        "xyz": [3.1039514743540004, 4.556955550989, 3.475997733996]
      },
      {
        "species": [{ "element": "Re", "occu": 1 }],
        "abc": [0.809541, 0.262457, 0.916701],
        "properties": { "magmom": 0.0 },
        "label": "Re",
        "xyz": [8.117748474354, 1.908581449011, 5.462808266004]
      },
      {
        "species": [{ "element": "Re", "occu": 1 }],
        "abc": [0.669389, 0.611848, 0.098074],
        "properties": { "magmom": 0.0 },
        "label": "Re",
        "xyz": [6.712361120066, 3.624207216944, 0.5844429730959999]
      },
      {
        "species": [{ "element": "Re", "occu": 1 }],
        "abc": [0.968298, 0.883606999999999, 0.825151],
        "properties": { "magmom": 0.0 },
        "label": "Re",
        "xyz": [9.709699215012, 5.510546736460994, 4.9172431398039995]
      },
      {
        "species": [{ "element": "Re", "occu": 1 }],
        "abc": [0.031702, 0.116393, 0.174849],
        "properties": { "magmom": 0.0 },
        "label": "Re",
        "xyz": [0.317894784988, 0.752648263539, 1.041960860196]
      },
      {
        "species": [{ "element": "Re", "occu": 1 }],
        "abc": [0.190459, 0.737543, 0.083299],
        "properties": { "magmom": 0.0 },
        "label": "Re",
        "xyz": [1.909845525646, 4.354613550988999, 0.49639573399599995]
      },
      {
        "species": [{ "element": "Re", "occu": 1 }],
        "abc": [0.830611, 0.611848, 0.598074],
        "properties": { "magmom": 0.0 },
        "label": "Re",
        "xyz": [8.329029879934, 3.8265492169439996, 3.5640449730959998]
      },
      {
        "species": [{ "element": "Re", "occu": 1 }],
        "abc": [0.930414, 0.575948, 0.190336999999999],
        "properties": { "magmom": -0.0 },
        "label": "Re",
        "xyz": [9.329813843916, 3.4512240319359995, 1.134257011747994]
      },
      {
        "species": [{ "element": "Re", "occu": 1 }],
        "abc": [0.330611, 0.388152, 0.901926],
        "properties": { "magmom": 0.0 },
        "label": "Re",
        "xyz": [3.3152328799340003, 2.638987783056, 5.374761026903999]
      },
      {
        "species": [{ "element": "Si", "occu": 1 }],
        "abc": [0.296838, 0.05824000000000001, 0.265792],
        "properties": { "magmom": 0.0 },
        "label": "Si",
        "xyz": [2.976570947772, 0.448761450368, 1.5839087495679998]
      },
      {
        "species": [{ "element": "Si", "occu": 1 }],
        "abc": [0.065203, 0.785312999999999, 0.47240000000000004],
        "properties": { "magmom": 0.0 },
        "label": "Si",
        "xyz": [0.653829211582, 4.791937570542994, 2.8151279696000002]
      },
      {
        "species": [{ "element": "Si", "occu": 1 }],
        "abc": [0.934797, 0.214687, 0.5276000000000001],
        "properties": { "magmom": 0.0 },
        "label": "Si",
        "xyz": [9.373764788418, 1.471257429457, 3.1440760304000004]
      },
      {
        "species": [{ "element": "Si", "occu": 1 }],
        "abc": [0.434797, 0.785312999999999, 0.9724],
        "properties": { "magmom": 0.0 },
        "label": "Si",
        "xyz": [4.359967788418, 4.994279570542994, 5.7947299696]
      },
      {
        "species": [{ "element": "Si", "occu": 1 }],
        "abc": [0.796837999999999, 0.94176, 0.234208],
        "properties": { "magmom": 0.0 },
        "label": "Si",
        "xyz": [7.990367947771991, 5.612091549632, 1.3956932504319999]
      },
      {
        "species": [{ "element": "Si", "occu": 1 }],
        "abc": [0.703162, 0.94176, 0.734208],
        "properties": { "magmom": 0.0 },
        "label": "Si",
        "xyz": [7.0510230522279995, 5.814433549632, 4.375295250432]
      },
      {
        "species": [{ "element": "Si", "occu": 1 }],
        "abc": [0.203161999999999, 0.05824000000000001, 0.765791999999999],
        "properties": { "magmom": 0.0 },
        "label": "Si",
        "xyz": [2.0372260522279904, 0.6511034503679997, 4.563510749567994]
      },
      {
        "species": [{ "element": "Si", "occu": 1 }],
        "abc": [0.565203, 0.214687, 0.027600000000000003],
        "properties": { "magmom": 0.0 },
        "label": "Si",
        "xyz": [5.667626211582, 1.268915429457, 0.1644740304]
      }
    ]
  },
  "task_ids": null,
  "uncorrected_energy_per_atom": null,
  "energy_per_atom": -9.971991135833333,
  "formation_energy_per_atom": 0.135191012499999,
  "energy_above_hull": 0.332372851785713,
  "is_stable": false,
  "equilibrium_reaction_energy_per_atom": null,
  "decomposes_to": null,
  "xas": null,
  "grain_boundaries": null,
  "band_gap": 0.0,
  "cbm": null,
  "vbm": null,
  "efermi": 8.59423859,
  "is_gap_direct": null,
  "is_metal": null,
  "es_source_calc_id": null,
  "bandstructure": null,
  "dos": null,
  "dos_energy_up": null,
  "dos_energy_down": null,
  "is_magnetic": null,
  "ordering": null,
  "total_magnetization": 0.0112374,
  "total_magnetization_normalized_vol": null,
  "total_magnetization_normalized_formula_units": null,
  "num_magnetic_sites": null,
  "num_unique_magnetic_sites": null,
  "types_of_magnetic_species": null,
  "bulk_modulus": null,
  "shear_modulus": null,
  "universal_anisotropy": null,
  "homogeneous_poisson": null,
  "e_total": null,
  "e_ionic": null,
  "e_electronic": null,
  "n": null,
  "e_ij_max": null,
  "weighted_surface_energy_EV_PER_ANG2": null,
  "weighted_surface_energy": null,
  "weighted_work_function": null,
  "surface_anisotropy": null,
  "shape_factor": null,
  "has_reconstructed": null,
  "possible_species": null,
  "has_props": null,
  "theoretical": null,
  "database_IDs": null,
  "fields_not_requested": [
    "builder_meta",
    "nsites",
    "elements",
    "nelements",
    "composition",
    "composition_reduced",
    "chemsys",
    "symmetry",
    "property_name",
    "deprecated",
    "deprecation_reasons",
    "last_updated",
    "origins",
    "warnings",
    "task_ids",
    "uncorrected_energy_per_atom",
    "equilibrium_reaction_energy_per_atom",
    "decomposes_to",
    "xas",
    "grain_boundaries",
    "cbm",
    "vbm",
    "is_gap_direct",
    "is_metal",
    "es_source_calc_id",
    "bandstructure",
    "dos",
    "dos_energy_up",
    "dos_energy_down",
    "is_magnetic",
    "ordering",
    "total_magnetization_normalized_vol",
    "total_magnetization_normalized_formula_units",
    "num_magnetic_sites",
    "num_unique_magnetic_sites",
    "types_of_magnetic_species",
    "bulk_modulus",
    "shear_modulus",
    "universal_anisotropy",
    "homogeneous_poisson",
    "e_total",
    "e_ionic",
    "e_electronic",
    "n",
    "e_ij_max",
    "weighted_surface_energy_EV_PER_ANG2",
    "weighted_surface_energy",
    "weighted_work_function",
    "surface_anisotropy",
    "shape_factor",
    "has_reconstructed",
    "possible_species",
    "has_props",
    "theoretical",
    "database_IDs"
  ]
}
