{"builder_meta": null, "nsites": null, "elements": null, "nelements": null, "composition": null, "composition_reduced": null, "formula_pretty": "Re2W", "formula_anonymous": "AB2", "chemsys": null, "volume": 191.41635960923583, "density": 19.30203875652327, "density_atomic": 15.951363300769652, "symmetry": null, "property_name": null, "material_id": "mp-1102921", "deprecated": null, "deprecation_reasons": null, "last_updated": null, "origins": null, "warnings": null, "structure": {"@module": "pymatgen.core.structure", "@class": "Structure", "charge": 0, "lattice": {"matrix": [[2.567644999999999, -4.447292, 0.0], [2.567644999999999, 4.447292, 0.0], [0.0, 0.0, 8.381436]], "pbc": [true, true, true], "a": 5.135290350047307, "b": 5.135290350047307, "c": 8.381436, "alpha": 90.0, "beta": 90.0, "gamma": 120.00000450976319, "volume": 191.41635960923574}, "properties": {}, "sites": [{"species": [{"element": "Re", "occu": 1}], "abc": [0.0, 0.0, 0.5], "properties": {"magmom": -0.0}, "label": "Re", "xyz": [0.0, 0.0, 4.190718]}, {"species": [{"element": "Re", "occu": 1}], "abc": [0.0, 0.0, 0.0], "properties": {"magmom": -0.0}, "label": "Re", "xyz": [0.0, 0.0, 0.0]}, {"species": [{"element": "Re", "occu": 1}], "abc": [0.827604999999999, 0.172395, 0.25], "properties": {"magmom": 0.0}, "label": "Re", "xyz": [2.567644999999996, -2.913910191319996, 2.095359]}, {"species": [{"element": "Re", "occu": 1}], "abc": [0.827604999999999, 0.6552100000000001, 0.25], "properties": {"magmom": 0.0}, "label": "Re", "xyz": [3.807342520674996, -0.7666909043399954, 2.095359]}, {"species": [{"element": "Re", "occu": 1}], "abc": [0.34479000000000004, 0.172395, 0.25], "properties": {"magmom": 0.0}, "label": "Re", "xyz": [1.3279474793249995, -0.7666909043400002, 2.095359]}, {"species": [{"element": "Re", "occu": 1}], "abc": [0.172395, 0.827604999999999, 0.75], "properties": {"magmom": 0.0}, "label": "Re", "xyz": [2.567644999999996, 2.913910191319996, 6.286077000000001]}, {"species": [{"element": "Re", "occu": 1}], "abc": [0.172395, 0.34479000000000004, 0.75], "properties": {"magmom": 0.0}, "label": "Re", "xyz": [1.3279474793249995, 0.7666909043400002, 6.286077000000001]}, {"species": [{"element": "Re", "occu": 1}], "abc": [0.6552100000000001, 0.827604999999999, 0.75], "properties": {"magmom": 0.0}, "label": "Re", "xyz": [3.807342520674996, 0.7666909043399954, 6.286077000000001]}, {"species": [{"element": "W", "occu": 1}], "abc": [0.333333, 0.666667, 0.433351], "properties": {"magmom": -0.0}, "label": "W", "xyz": [2.567644999999999, 1.482433631528, 3.632103672036]}, {"species": [{"element": "W", "occu": 1}], "abc": [0.666667, 0.333333, 0.566649], "properties": {"magmom": -0.0}, "label": "W", "xyz": [2.567644999999999, -1.482433631528, 4.749332327964]}, {"species": [{"element": "W", "occu": 1}], "abc": [0.666667, 0.333333, 0.933350999999999], "properties": {"magmom": -0.0}, "label": "W", "xyz": [2.567644999999999, -1.482433631528, 7.822821672035992]}, {"species": [{"element": "W", "occu": 1}], "abc": [0.333333, 0.666667, 0.066649], "properties": {"magmom": -0.0}, "label": "W", "xyz": [2.567644999999999, 1.482433631528, 0.558614327964]}]}, "task_ids": null, "uncorrected_energy_per_atom": null, "energy_per_atom": -51.869282535, "formation_energy_per_atom": 0.19372539666665903, "energy_above_hull": 0.19372539666667102, "is_stable": false, "equilibrium_reaction_energy_per_atom": null, "decomposes_to": null, "xas": null, "grain_boundaries": null, "band_gap": 0.0, "cbm": null, "vbm": null, "efermi": 7.05731282, "is_gap_direct": null, "is_metal": null, "es_source_calc_id": null, "bandstructure": null, "dos": null, "dos_energy_up": null, "dos_energy_down": null, "is_magnetic": null, "ordering": null, "total_magnetization": 0.00015879999999900002, "total_magnetization_normalized_vol": null, "total_magnetization_normalized_formula_units": null, "num_magnetic_sites": null, "num_unique_magnetic_sites": null, "types_of_magnetic_species": null, "bulk_modulus": null, "shear_modulus": null, "universal_anisotropy": null, "homogeneous_poisson": null, "e_total": null, "e_ionic": null, "e_electronic": null, "n": null, "e_ij_max": null, "weighted_surface_energy_EV_PER_ANG2": null, "weighted_surface_energy": null, "weighted_work_function": null, "surface_anisotropy": null, "shape_factor": null, "has_reconstructed": null, "possible_species": null, "has_props": null, "theoretical": null, "database_IDs": null, "fields_not_requested": ["builder_meta", "nsites", "elements", "nelements", "composition", "composition_reduced", "chemsys", "symmetry", "property_name", "deprecated", "deprecation_reasons", "last_updated", "origins", "warnings", "task_ids", "uncorrected_energy_per_atom", "equilibrium_reaction_energy_per_atom", "decomposes_to", "xas", "grain_boundaries", "cbm", "vbm", "is_gap_direct", "is_metal", "es_source_calc_id", "bandstructure", "dos", "dos_energy_up", "dos_energy_down", "is_magnetic", "ordering", "total_magnetization_normalized_vol", "total_magnetization_normalized_formula_units", "num_magnetic_sites", "num_unique_magnetic_sites", "types_of_magnetic_species", "bulk_modulus", "shear_modulus", "universal_anisotropy", "homogeneous_poisson", "e_total", "e_ionic", "e_electronic", "n", "e_ij_max", "weighted_surface_energy_EV_PER_ANG2", "weighted_surface_energy", "weighted_work_function", "surface_anisotropy", "shape_factor", "has_reconstructed", "possible_species", "has_props", "theoretical", "database_IDs"]}