{
  "builder_meta": null,
  "nsites": null,
  "elements": null,
  "nelements": null,
  "composition": null,
  "composition_reduced": null,
  "formula_pretty": "Re3As7",
  "formula_anonymous": "A3B7",
  "chemsys": null,
  "volume": 340.76172499676426,
  "density": 10.555667307209964,
  "density_atomic": 17.038086249838212,
  "symmetry": null,
  "property_name": null,
  "material_id": "mp-2473",
  "deprecated": null,
  "deprecation_reasons": null,
  "last_updated": null,
  "origins": null,
  "warnings": null,
  "structure": {
    "@module": "pymatgen.core.structure",
    "@class": "Structure",
    "charge": 0,
    "lattice": {
      "matrix": [
        [7.18535139, 1.009999999999998e-6, -2.5404033200000002],
        [-3.5926757, 6.22269616, -2.54040636],
        [1.02e-6, -2.019999999999999e-6, 7.62121503]
      ],
      "pbc": [true, true, true],
      "a": 7.62121536410322,
      "b": 7.621215825508268,
      "c": 7.621215030000336,
      "alpha": 109.47124627069891,
      "beta": 109.47119860214733,
      "gamma": 109.47121915360675,
      "volume": 340.76172499676426
    },
    "properties": {},
    "sites": [
      {
        "species": [{ "element": "Re", "occu": 1 }],
        "abc": [-0.0, 0.34031207, 0.34031207],
        "properties": { "magmom": 0.069 },
        "label": "Re",
        "xyz": [-1.2226305571873877, 2.11765792376027, 1.7290605157616468]
      },
      {
        "species": [{ "element": "Re", "occu": 1 }],
        "abc": [0.34031307, -0.0, 0.34031307],
        "properties": { "magmom": 0.069 },
        "label": "Re",
        "xyz": [2.4452693376789987, -3.4371620070000035e-7, 1.7290666311220497]
      },
      {
        "species": [{ "element": "Re", "occu": 1 }],
        "abc": [0.65968693, 0.0, 0.65968693],
        "properties": { "magmom": 0.069 },
        "label": "Re",
        "xyz": [4.740083072321001, -6.662837993000007e-7, 3.35174507887795]
      },
      {
        "species": [{ "element": "Re", "occu": 1 }],
        "abc": [0.65968693, 0.65968693, -0.0],
        "properties": { "magmom": 0.069 },
        "label": "Re",
        "xyz": [2.3700411964217314, 4.105031992396989, -3.3517437397134824]
      },
      {
        "species": [{ "element": "Re", "occu": 1 }],
        "abc": [0.34031307, 0.34031307, 0.0],
        "properties": { "magmom": 0.069 },
        "label": "Re",
        "xyz": [1.2226344935782683, 2.117665177603012, -1.7290659402865176]
      },
      {
        "species": [{ "element": "Re", "occu": 1 }],
        "abc": [0.0, 0.65968793, 0.65968793],
        "properties": { "magmom": 0.069 },
        "label": "Re",
        "xyz": [-2.3700441228126126, 4.105036216239731, 3.3517481542383534]
      },
      {
        "species": [{ "element": "As", "occu": 1 }],
        "abc": [0.5, 0.75, 0.25],
        "properties": { "magmom": 0.005 },
        "label": "As",
        "xyz": [0.8981691750000003, 4.66702212, -1.2702026725]
      },
      {
        "species": [{ "element": "As", "occu": 1 }],
        "abc": [0.75, 0.5, 0.25],
        "properties": { "magmom": 0.005 },
        "label": "As",
        "xyz": [3.5926759474999996, 3.1113483325, -1.2702019125000001]
      },
      {
        "species": [{ "element": "As", "occu": 1 }],
        "abc": [0.25, 0.5, 0.75],
        "properties": { "magmom": 0.005 },
        "label": "As",
        "xyz": [7.625000000151937e-7, 3.1113468175, 3.8106072624999996]
      },
      {
        "species": [{ "element": "As", "occu": 1 }],
        "abc": [0.75, 0.25, 0.5],
        "properties": { "magmom": 0.005 },
        "label": "As",
        "xyz": [4.490845127499999, 1.5556737875, 1.270203435]
      },
      {
        "species": [{ "element": "As", "occu": 1 }],
        "abc": [0.25, 0.75, 0.5],
        "properties": { "magmom": 0.005 },
        "label": "As",
        "xyz": [-0.8981684174999998, 4.6670213625, 1.2702019150000003]
      },
      {
        "species": [{ "element": "As", "occu": 1 }],
        "abc": [0.5, 0.25, 0.75],
        "properties": { "magmom": 0.005 },
        "label": "As",
        "xyz": [2.694507535, 1.5556730300000001, 3.8106080224999994]
      },
      {
        "species": [{ "element": "As", "occu": 1 }],
        "abc": [0.33186991, 0.33186991, 0.33186991],
        "properties": { "magmom": 0.004 },
        "label": "As",
        "xyz": [1.192301296406796, 2.0651252793879364, 0.8430840948680183]
      },
      {
        "species": [{ "element": "As", "occu": 1 }],
        "abc": [0.33186991, -0.0, -0.0],
        "properties": { "magmom": 0.004 },
        "label": "As",
        "xyz": [2.384601919117675, 3.351886090999993e-7, -0.8430834211721012]
      },
      {
        "species": [{ "element": "As", "occu": 1 }],
        "abc": [0.0, 0.33186991, 0.0],
        "properties": { "magmom": 0.004 },
        "label": "As",
        "xyz": [-1.192300961218187, 2.0651256145765453, -0.8430844300566276]
      },
      {
        "species": [{ "element": "As", "occu": 1 }],
        "abc": [-0.0, 0.0, 0.33186991],
        "properties": { "magmom": 0.004 },
        "label": "As",
        "xyz": [3.385073082e-7, -6.703772181999996e-7, 2.529251946096747]
      },
      {
        "species": [{ "element": "As", "occu": 1 }],
        "abc": [-0.0, 0.66813009, -0.0],
        "properties": { "magmom": 0.004 },
        "label": "As",
        "xyz": [-2.400374738781813, 4.157570545423455, -1.6973219299433724]
      },
      {
        "species": [{ "element": "As", "occu": 1 }],
        "abc": [0.0, -0.0, 0.66813009],
        "properties": { "magmom": 0.004 },
        "label": "As",
        "xyz": [6.814926918e-7, -1.3496227817999992e-6, 5.091963083903253]
      },
      {
        "species": [{ "element": "As", "occu": 1 }],
        "abc": [0.66813009, 0.0, 0.0],
        "properties": { "magmom": 0.004 },
        "label": "As",
        "xyz": [4.800749470882325, 6.748113908999987e-7, -1.697319898827899]
      },
      {
        "species": [{ "element": "As", "occu": 1 }],
        "abc": [0.66813009, 0.66813009, 0.66813009],
        "properties": { "magmom": 0.004 },
        "label": "As",
        "xyz": [2.4003754135932036, 4.157569870612064, 1.6973212551319818]
      }
    ]
  },
  "task_ids": null,
  "uncorrected_energy_per_atom": null,
  "energy_per_atom": -26.103632682,
  "formation_energy_per_atom": -0.085176578499999,
  "energy_above_hull": 0.0,
  "is_stable": true,
  "equilibrium_reaction_energy_per_atom": null,
  "decomposes_to": null,
  "xas": null,
  "grain_boundaries": null,
  "band_gap": 0.0,
  "cbm": null,
  "vbm": null,
  "efermi": 7.50851808,
  "is_gap_direct": null,
  "is_metal": null,
  "es_source_calc_id": null,
  "bandstructure": null,
  "dos": null,
  "dos_energy_up": null,
  "dos_energy_down": null,
  "is_magnetic": null,
  "ordering": null,
  "total_magnetization": 0.5324013,
  "total_magnetization_normalized_vol": null,
  "total_magnetization_normalized_formula_units": null,
  "num_magnetic_sites": null,
  "num_unique_magnetic_sites": null,
  "types_of_magnetic_species": null,
  "bulk_modulus": null,
  "shear_modulus": null,
  "universal_anisotropy": null,
  "homogeneous_poisson": null,
  "e_total": null,
  "e_ionic": null,
  "e_electronic": null,
  "n": null,
  "e_ij_max": null,
  "weighted_surface_energy_EV_PER_ANG2": null,
  "weighted_surface_energy": null,
  "weighted_work_function": null,
  "surface_anisotropy": null,
  "shape_factor": null,
  "has_reconstructed": null,
  "possible_species": null,
  "has_props": null,
  "theoretical": null,
  "database_IDs": null,
  "fields_not_requested": [
    "builder_meta",
    "nsites",
    "elements",
    "nelements",
    "composition",
    "composition_reduced",
    "chemsys",
    "symmetry",
    "property_name",
    "deprecated",
    "deprecation_reasons",
    "last_updated",
    "origins",
    "warnings",
    "task_ids",
    "uncorrected_energy_per_atom",
    "equilibrium_reaction_energy_per_atom",
    "decomposes_to",
    "xas",
    "grain_boundaries",
    "cbm",
    "vbm",
    "is_gap_direct",
    "is_metal",
    "es_source_calc_id",
    "bandstructure",
    "dos",
    "dos_energy_up",
    "dos_energy_down",
    "is_magnetic",
    "ordering",
    "total_magnetization_normalized_vol",
    "total_magnetization_normalized_formula_units",
    "num_magnetic_sites",
    "num_unique_magnetic_sites",
    "types_of_magnetic_species",
    "bulk_modulus",
    "shear_modulus",
    "universal_anisotropy",
    "homogeneous_poisson",
    "e_total",
    "e_ionic",
    "e_electronic",
    "n",
    "e_ij_max",
    "weighted_surface_energy_EV_PER_ANG2",
    "weighted_surface_energy",
    "weighted_work_function",
    "surface_anisotropy",
    "shape_factor",
    "has_reconstructed",
    "possible_species",
    "has_props",
    "theoretical",
    "database_IDs"
  ]
}
