{
  "builder_meta": null,
  "nsites": null,
  "elements": null,
  "nelements": null,
  "composition": null,
  "composition_reduced": null,
  "formula_pretty": "Re3Br7",
  "formula_anonymous": "A3B7",
  "chemsys": null,
  "volume": 1559.0756066869023,
  "density": 4.7628170975269715,
  "density_atomic": 38.976890167172556,
  "symmetry": null,
  "property_name": null,
  "material_id": "mp-1210365",
  "deprecated": null,
  "deprecation_reasons": null,
  "last_updated": null,
  "origins": null,
  "warnings": null,
  "structure": {
    "@module": "pymatgen.core.structure",
    "@class": "Structure",
    "charge": 0,
    "lattice": {
      "matrix": [
        [10.187002, 0.0, 0.0],
        [-2.148747, 10.549581, 0.0],
        [-3.139759, -1.392265, 14.507266]
      ],
      "pbc": [true, true, true],
      "a": 10.187002,
      "b": 10.766186555395091,
      "c": 14.908294845590557,
      "alpha": 92.83595786927066,
      "beta": 102.15779956039492,
      "gamma": 101.51257066758465,
      "volume": 1559.0756066869023
    },
    "properties": {},
    "sites": [
      {
        "species": [{ "element": "Re", "occu": 1 }],
        "abc": [0.323123, 0.245677999999999, 0.117043],
        "properties": { "magmom": -0.0 },
        "label": "Re",
        "xyz": [2.396267969143002, 2.4288450885229897, 1.6979739344379998]
      },
      {
        "species": [{ "element": "Re", "occu": 1 }],
        "abc": [0.676877, 0.754321999999999, 0.882957],
        "properties": { "magmom": -0.0 },
        "label": "Re",
        "xyz": [2.5022280308570015, 6.72847091147699, 12.809292065562]
      },
      {
        "species": [{ "element": "Re", "occu": 1 }],
        "abc": [0.565523, 0.134471999999999, 0.284141],
        "properties": { "magmom": -0.0 },
        "label": "Re",
        "xyz": [4.579903363443003, 1.0230236868669895, 4.122109068505999]
      },
      {
        "species": [{ "element": "Re", "occu": 1 }],
        "abc": [0.434477, 0.865528, 0.715859],
        "properties": { "magmom": -0.0 },
        "label": "Re",
        "xyz": [0.3185926365569993, 8.134292313132999, 10.385156931494]
      },
      {
        "species": [{ "element": "Re", "occu": 1 }],
        "abc": [0.321112, 0.042379, 0.161295],
        "properties": { "magmom": -0.0 },
        "label": "Re",
        "xyz": [2.6736794092059997, 0.22251531002400002, 2.33994946947]
      },
      {
        "species": [{ "element": "Re", "occu": 1 }],
        "abc": [0.678887999999999, 0.95762, 0.838704999999999],
        "properties": { "magmom": -0.0 },
        "label": "Re",
        "xyz": [2.224818739540993, 8.934790140395002, 12.167316530529986]
      },
      {
        "species": [{ "element": "Re", "occu": 1 }],
        "abc": [0.332055, 0.176692, 0.317316],
        "properties": { "magmom": -0.0 },
        "label": "Re",
        "xyz": [2.006682777342, 1.422238605312, 4.603387618056]
      },
      {
        "species": [{ "element": "Re", "occu": 1 }],
        "abc": [0.667945, 0.823307999999999, 0.682684],
        "properties": { "magmom": -0.0 },
        "label": "Re",
        "xyz": [2.8918132226580022, 7.73507739468799, 9.903878381943999]
      },
      {
        "species": [{ "element": "Re", "occu": 1 }],
        "abc": [0.331387, 0.389057, 0.27276],
        "properties": { "magmom": -0.0 },
        "label": "Re",
        "xyz": [1.6834543053549993, 3.724634133717, 3.95700187416]
      },
      {
        "species": [{ "element": "Re", "occu": 1 }],
        "abc": [0.668613, 0.610943, 0.7272400000000001],
        "properties": { "magmom": -0.0 },
        "label": "Re",
        "xyz": [3.215041694644999, 5.432681866283, 10.550264125840002]
      },
      {
        "species": [{ "element": "Re", "occu": 1 }],
        "abc": [0.566112, 0.336405, 0.238842],
        "properties": { "magmom": 0.0 },
        "label": "Re",
        "xyz": [4.294228522610999, 3.216400439175, 3.464944425972]
      },
      {
        "species": [{ "element": "Re", "occu": 1 }],
        "abc": [0.433888, 0.663594999999999, 0.761158],
        "properties": { "magmom": 0.0 },
        "label": "Re",
        "xyz": [0.6042674773890022, 5.9409155608249895, 11.042321574028]
      },
      {
        "species": [{ "element": "Br", "occu": 1 }],
        "abc": [0.217326, 0.142222, 0.448967],
        "properties": { "magmom": 0.0 },
        "label": "Br",
        "xyz": [0.49865312186499966, 0.8753014687269998, 6.513283694222]
      },
      {
        "species": [{ "element": "Br", "occu": 1 }],
        "abc": [0.782674, 0.857777999999999, 0.551033],
        "properties": { "magmom": 0.0 },
        "label": "Br",
        "xyz": [4.399842878135002, 8.282014531272988, 7.993982305777999]
      },
      {
        "species": [{ "element": "Br", "occu": 1 }],
        "abc": [0.110320999999999, 0.316278, 0.147292999999999],
        "properties": { "magmom": 0.0 },
        "label": "Br",
        "xyz": [-0.01822567841100725, 3.1315294908730014, 2.1368187309379856]
      },
      {
        "species": [{ "element": "Br", "occu": 1 }],
        "abc": [0.889679, 0.683721999999999, 0.852707],
        "properties": { "magmom": 0.0 },
        "label": "Br",
        "xyz": [4.916721678411001, 6.02578650912699, 12.370447269062]
      },
      {
        "species": [{ "element": "Br", "occu": 1 }],
        "abc": [0.547978, 0.29285, 0.069782],
        "properties": { "magmom": -0.0 },
        "label": "Br",
        "xyz": [4.733893760467999, 2.9922897596199998, 1.012346036012]
      },
      {
        "species": [{ "element": "Br", "occu": 1 }],
        "abc": [0.452022, 0.7071500000000001, 0.930218],
        "properties": { "magmom": 0.0 },
        "label": "Br",
        "xyz": [0.16460223953199993, 6.1650262403800005, 13.494919963988]
      },
      {
        "species": [{ "element": "Br", "occu": 1 }],
        "abc": [0.566883, 0.483693, 0.378723],
        "properties": { "magmom": -0.0 },
        "label": "Br",
        "xyz": [3.546405424338, 4.575475705038, 5.494235301318]
      },
      {
        "species": [{ "element": "Br", "occu": 1 }],
        "abc": [0.433117, 0.516307, 0.621277],
        "properties": { "magmom": -0.0 },
        "label": "Br",
        "xyz": [1.3520905756619996, 4.581840294962, 9.013030698682]
      },
      {
        "species": [{ "element": "Br", "occu": 1 }],
        "abc": [0.549748, 0.007711999999999001, 0.133084],
        "properties": { "magmom": 0.0 },
        "label": "Br",
        "xyz": [5.165861151876001, -0.10392982658801055, 1.930684988344]
      },
      {
        "species": [{ "element": "Br", "occu": 1 }],
        "abc": [0.450252, 0.992288, 0.866915999999999],
        "properties": { "magmom": 0.0 },
        "label": "Br",
        "xyz": [-0.2673651518759974, 9.261245826588, 12.576581011655986]
      },
      {
        "species": [{ "element": "Br", "occu": 1 }],
        "abc": [0.605412, 0.106133999999999, 0.696865],
        "properties": { "magmom": -0.0 },
        "label": "Br",
        "xyz": [3.7512899851910015, 0.1494484806289894, 10.10960592109]
      },
      {
        "species": [{ "element": "Br", "occu": 1 }],
        "abc": [0.394588, 0.893865999999999, 0.303135],
        "properties": { "magmom": -0.0 },
        "label": "Br",
        "xyz": [1.1472060148090013, 9.00786751937099, 4.3976600789099995]
      },
      {
        "species": [{ "element": "Br", "occu": 1 }],
        "abc": [0.195049, 0.546733, 0.752257],
        "properties": { "magmom": 0.0 },
        "label": "Br",
        "xyz": [-1.549732026516, 4.720462976768001, 10.913192399361998]
      },
      {
        "species": [{ "element": "Br", "occu": 1 }],
        "abc": [0.804951, 0.453267, 0.247743],
        "properties": { "magmom": 0.0 },
        "label": "Br",
        "xyz": [6.4482280265159995, 4.436853023232, 3.5940736006379996]
      },
      {
        "species": [{ "element": "Br", "occu": 1 }],
        "abc": [0.217957999999999, 0.235982, 0.94993],
        "properties": { "magmom": 0.0 },
        "label": "Br",
        "xyz": [-1.2692782995080103, 1.1669569320919997, 13.78088719138]
      },
      {
        "species": [{ "element": "Br", "occu": 1 }],
        "abc": [0.782042, 0.764018, 0.05007],
        "properties": { "magmom": -0.0 },
        "label": "Br",
        "xyz": [6.167774299507999, 7.990359067908001, 0.72637880862]
      },
      {
        "species": [{ "element": "Br", "occu": 1 }],
        "abc": [0.21325000000000002, 0.486821, 0.374094],
        "properties": { "magmom": 0.0 },
        "label": "Br",
        "xyz": [-0.04824199013300001, 4.614919589091, 5.427081167003999]
      },
      {
        "species": [{ "element": "Br", "occu": 1 }],
        "abc": [0.7867500000000001, 0.513178999999999, 0.625906],
        "properties": { "magmom": 0.0 },
        "label": "Br",
        "xyz": [4.946737990133004, 4.54239641090899, 9.080184832995998]
      },
      {
        "species": [{ "element": "Br", "occu": 1 }],
        "abc": [0.109094, 0.033123, 0.226649],
        "properties": { "magmom": 0.0 },
        "label": "Br",
        "xyz": [0.3285446117159999, 0.03387830147799997, 3.2880573316339996]
      },
      {
        "species": [{ "element": "Br", "occu": 1 }],
        "abc": [0.890906, 0.966877, 0.773351],
        "properties": { "magmom": 0.0 },
        "label": "Br",
        "xyz": [4.569951388283998, 9.123437698522, 11.219208668365999]
      },
      {
        "species": [{ "element": "Br", "occu": 1 }],
        "abc": [0.804473, 0.107041, 0.339464],
        "properties": { "magmom": 0.0 },
        "label": "Br",
        "xyz": [6.899328883142998, 0.6566138538609998, 4.924694545424]
      },
      {
        "species": [{ "element": "Br", "occu": 1 }],
        "abc": [0.195526999999999, 0.892959, 0.660536],
        "properties": { "magmom": 0.0 },
        "label": "Br",
        "xyz": [-2.0008328831430107, 8.500702146138998, 9.582571454576]
      },
      {
        "species": [{ "element": "Br", "occu": 1 }],
        "abc": [0.544590999999999, 0.191656, 0.445729],
        "properties": { "magmom": -0.0 },
        "label": "Br",
        "xyz": [3.7364477118389896, 1.4013176099509996, 6.466309166914]
      },
      {
        "species": [{ "element": "Br", "occu": 1 }],
        "abc": [0.455408999999999, 0.808344, 0.554271],
        "properties": { "magmom": -0.0 },
        "label": "Br",
        "xyz": [1.1620482881609895, 7.755998390048999, 8.040956833086]
      },
      {
        "species": [{ "element": "Br", "occu": 1 }],
        "abc": [0.406900999999999, 0.549261, 0.161031999999999],
        "properties": { "magmom": -0.0 },
        "label": "Br",
        "xyz": [2.459276703546993, 5.570274192161001, 2.3361340585119854]
      },
      {
        "species": [{ "element": "Br", "occu": 1 }],
        "abc": [0.593098999999999, 0.450739, 0.838967999999999],
        "properties": { "magmom": -0.0 },
        "label": "Br",
        "xyz": [2.4392192964529924, 3.587041807839001, 12.171131941487985]
      },
      {
        "species": [{ "element": "Br", "occu": 1 }],
        "abc": [0.19635000000000002, 0.884205999999999, 0.028494],
        "properties": { "magmom": -0.0 },
        "label": "Br",
        "xyz": [0.010818559872001976, 9.28833161877599, 0.41337003740399997]
      },
      {
        "species": [{ "element": "Br", "occu": 1 }],
        "abc": [0.8036500000000001, 0.115794, 0.971506],
        "properties": { "magmom": -0.0 },
        "label": "Br",
        "xyz": [4.887677440128, -0.1310156187760001, 14.093895962596]
      }
    ]
  },
  "task_ids": null,
  "uncorrected_energy_per_atom": null,
  "energy_per_atom": -5.531095494000001,
  "formation_energy_per_atom": -0.6507986572500001,
  "energy_above_hull": 0.0,
  "is_stable": true,
  "equilibrium_reaction_energy_per_atom": null,
  "decomposes_to": null,
  "xas": null,
  "grain_boundaries": null,
  "band_gap": 0.35990000000000005,
  "cbm": null,
  "vbm": null,
  "efermi": -0.61016711,
  "is_gap_direct": null,
  "is_metal": null,
  "es_source_calc_id": null,
  "bandstructure": null,
  "dos": null,
  "dos_energy_up": null,
  "dos_energy_down": null,
  "is_magnetic": null,
  "ordering": null,
  "total_magnetization": 0.000103799999999,
  "total_magnetization_normalized_vol": null,
  "total_magnetization_normalized_formula_units": null,
  "num_magnetic_sites": null,
  "num_unique_magnetic_sites": null,
  "types_of_magnetic_species": null,
  "bulk_modulus": null,
  "shear_modulus": null,
  "universal_anisotropy": null,
  "homogeneous_poisson": null,
  "e_total": null,
  "e_ionic": null,
  "e_electronic": null,
  "n": null,
  "e_ij_max": null,
  "weighted_surface_energy_EV_PER_ANG2": null,
  "weighted_surface_energy": null,
  "weighted_work_function": null,
  "surface_anisotropy": null,
  "shape_factor": null,
  "has_reconstructed": null,
  "possible_species": null,
  "has_props": null,
  "theoretical": null,
  "database_IDs": null,
  "fields_not_requested": [
    "builder_meta",
    "nsites",
    "elements",
    "nelements",
    "composition",
    "composition_reduced",
    "chemsys",
    "symmetry",
    "property_name",
    "deprecated",
    "deprecation_reasons",
    "last_updated",
    "origins",
    "warnings",
    "task_ids",
    "uncorrected_energy_per_atom",
    "equilibrium_reaction_energy_per_atom",
    "decomposes_to",
    "xas",
    "grain_boundaries",
    "cbm",
    "vbm",
    "is_gap_direct",
    "is_metal",
    "es_source_calc_id",
    "bandstructure",
    "dos",
    "dos_energy_up",
    "dos_energy_down",
    "is_magnetic",
    "ordering",
    "total_magnetization_normalized_vol",
    "total_magnetization_normalized_formula_units",
    "num_magnetic_sites",
    "num_unique_magnetic_sites",
    "types_of_magnetic_species",
    "bulk_modulus",
    "shear_modulus",
    "universal_anisotropy",
    "homogeneous_poisson",
    "e_total",
    "e_ionic",
    "e_electronic",
    "n",
    "e_ij_max",
    "weighted_surface_energy_EV_PER_ANG2",
    "weighted_surface_energy",
    "weighted_work_function",
    "surface_anisotropy",
    "shape_factor",
    "has_reconstructed",
    "possible_species",
    "has_props",
    "theoretical",
    "database_IDs"
  ]
}
