{"builder_meta": null, "nsites": null, "elements": null, "nelements": null, "composition": null, "composition_reduced": null, "formula_pretty": "Re3B", "formula_anonymous": "AB3", "chemsys": null, "volume": 99.23564323918896, "density": 19.05694468051294, "density_atomic": 12.40445540489862, "symmetry": null, "property_name": null, "material_id": "mp-15671", "deprecated": null, "deprecation_reasons": null, "last_updated": null, "origins": null, "warnings": null, "structure": {"@module": "pymatgen.core.structure", "@class": "Structure", "charge": 0, "lattice": {"matrix": [[2.90480153, -0.0, 0.0], [-1.45240177, 4.67663774, -0.0], [0.0, -0.0, 7.30495415]], "pbc": [true, true, true], "a": 2.90480153, "b": 4.896979829720707, "c": 7.30495415, "alpha": 90.0, "beta": 90.0, "gamma": 107.25298515757007, "volume": 99.23564323918896}, "properties": {}, "sites": [{"species": [{"element": "Re", "occu": 1}], "abc": [0.86631057, 0.73262014, 0.43520266], "properties": {"magmom": -0.0}, "label": "Re", "xyz": [1.452401481117524, 3.426198995808084, 3.1791354772580394]}, {"species": [{"element": "Re", "occu": 1}], "abc": [0.13368943, 0.26737986, 0.56479734], "properties": {"magmom": -0.0}, "label": "Re", "xyz": [-1.721117524389193e-06, 1.2504387441919167, 4.1258186727419615]}, {"species": [{"element": "Re", "occu": 1}], "abc": [0.42393002, 0.8478610400000001, 0.75], "properties": {"magmom": -0.0}, "label": "Re", "xyz": [-2.3045011103839386e-06, 3.96513893793965, 5.4787156125]}, {"species": [{"element": "Re", "occu": 1}], "abc": [0.57606998, 0.15213896, 0.25], "properties": {"magmom": -0.0}, "label": "Re", "xyz": [1.45240206450111, 0.7114988020603504, 1.8262385375]}, {"species": [{"element": "Re", "occu": 1}], "abc": [0.86631057, 0.73262014, 0.06479734], "properties": {"magmom": -0.0}, "label": "Re", "xyz": [1.452401481117524, 3.426198995808084, 0.473341597741961]}, {"species": [{"element": "Re", "occu": 1}], "abc": [0.13368943, 0.26737986, 0.9352026600000001], "properties": {"magmom": -0.0}, "label": "Re", "xyz": [-1.721117524389193e-06, 1.2504387441919167, 6.83161255225804]}, {"species": [{"element": "B", "occu": 1}], "abc": [0.25479144, 0.50958389, 0.25], "properties": {"magmom": 0.0}, "label": "B", "xyz": [-1.9790565822797035e-06, 2.3831392516700087, 1.8262385375]}, {"species": [{"element": "B", "occu": 1}], "abc": [0.74520856, 0.49041611, 0.75], "properties": {"magmom": 0.0}, "label": "B", "xyz": [1.4524017390565822, 2.2934984883299916, 5.4787156125]}]}, "task_ids": null, "uncorrected_energy_per_atom": null, "energy_per_atom": -41.35745210125, "formation_energy_per_atom": -0.212902521249993, "energy_above_hull": 0.0, "is_stable": true, "equilibrium_reaction_energy_per_atom": null, "decomposes_to": null, "xas": null, "grain_boundaries": null, "band_gap": 0.0, "cbm": null, "vbm": null, "efermi": 8.08525993, "is_gap_direct": null, "is_metal": null, "es_source_calc_id": null, "bandstructure": null, "dos": null, "dos_energy_up": null, "dos_energy_down": null, "is_magnetic": null, "ordering": null, "total_magnetization": 2e-07, "total_magnetization_normalized_vol": null, "total_magnetization_normalized_formula_units": null, "num_magnetic_sites": null, "num_unique_magnetic_sites": null, "types_of_magnetic_species": null, "bulk_modulus": null, "shear_modulus": null, "universal_anisotropy": null, "homogeneous_poisson": null, "e_total": null, "e_ionic": null, "e_electronic": null, "n": null, "e_ij_max": null, "weighted_surface_energy_EV_PER_ANG2": null, "weighted_surface_energy": null, "weighted_work_function": null, "surface_anisotropy": null, "shape_factor": null, "has_reconstructed": null, "possible_species": null, "has_props": null, "theoretical": null, "database_IDs": null, "fields_not_requested": ["builder_meta", "nsites", "elements", "nelements", "composition", "composition_reduced", "chemsys", "symmetry", "property_name", "deprecated", "deprecation_reasons", "last_updated", "origins", "warnings", "task_ids", "uncorrected_energy_per_atom", "equilibrium_reaction_energy_per_atom", "decomposes_to", "xas", "grain_boundaries", "cbm", "vbm", "is_gap_direct", "is_metal", "es_source_calc_id", "bandstructure", "dos", "dos_energy_up", "dos_energy_down", "is_magnetic", "ordering", "total_magnetization_normalized_vol", "total_magnetization_normalized_formula_units", "num_magnetic_sites", "num_unique_magnetic_sites", "types_of_magnetic_species", "bulk_modulus", "shear_modulus", "universal_anisotropy", "homogeneous_poisson", "e_total", "e_ionic", "e_electronic", "n", "e_ij_max", "weighted_surface_energy_EV_PER_ANG2", "weighted_surface_energy", "weighted_work_function", "surface_anisotropy", "shape_factor", "has_reconstructed", "possible_species", "has_props", "theoretical", "database_IDs"]}