{"builder_meta": null, "nsites": null, "elements": null, "nelements": null, "composition": null, "composition_reduced": null, "formula_pretty": "Re3Bi", "formula_anonymous": "AB3", "chemsys": null, "volume": 157.25996643029538, "density": 16.210509784660637, "density_atomic": 19.657495803786922, "symmetry": null, "property_name": null, "material_id": "mp-974568", "deprecated": null, "deprecation_reasons": null, "last_updated": null, "origins": null, "warnings": null, "structure": {"@module": "pymatgen.core.structure", "@class": "Structure", "charge": 0, "lattice": {"matrix": [[3.24926, -5.627883, 0.0], [3.24926, 5.627883, 0.0], [0.0, 0.0, 4.299903]], "pbc": [true, true, true], "a": 6.498519647526581, "b": 6.498519647526581, "c": 4.299903, "alpha": 90.0, "beta": 90.0, "gamma": 119.99999641157446, "volume": 157.25996643029538}, "properties": {}, "sites": [{"species": [{"element": "Re", "occu": 1}], "abc": [0.136313, 0.272627, 0.25], "properties": {"magmom": -0.0}, "label": "Re", "xyz": [1.3287523844, 0.767159243262, 1.07497575]}, {"species": [{"element": "Re", "occu": 1}], "abc": [0.727372999999999, 0.863687, 0.25], "properties": {"magmom": -0.0}, "label": "Re", "xyz": [5.169767615599997, 0.7671592432620056, 1.07497575]}, {"species": [{"element": "Re", "occu": 1}], "abc": [0.136313, 0.863687, 0.25], "properties": {"magmom": -0.0}, "label": "Re", "xyz": [3.24926, 4.093575769242, 1.07497575]}, {"species": [{"element": "Re", "occu": 1}], "abc": [0.863687, 0.727372999999999, 0.75], "properties": {"magmom": -0.0}, "label": "Re", "xyz": [5.169767615599997, -0.7671592432620056, 3.2249272499999995]}, {"species": [{"element": "Re", "occu": 1}], "abc": [0.272627, 0.136313, 0.75], "properties": {"magmom": -0.0}, "label": "Re", "xyz": [1.3287523844, -0.767159243262, 3.2249272499999995]}, {"species": [{"element": "Re", "occu": 1}], "abc": [0.863687, 0.136313, 0.75], "properties": {"magmom": -0.0}, "label": "Re", "xyz": [3.24926, -4.093575769242, 3.2249272499999995]}, {"species": [{"element": "Bi", "occu": 1}], "abc": [0.333333, 0.666667, 0.75], "properties": {"magmom": -0.0}, "label": "Bi", "xyz": [3.24926, 1.875964751922, 3.2249272499999995]}, {"species": [{"element": "Bi", "occu": 1}], "abc": [0.666667, 0.333333, 0.25], "properties": {"magmom": -0.0}, "label": "Bi", "xyz": [3.24926, -1.875964751922, 1.07497575]}]}, "task_ids": null, "uncorrected_energy_per_atom": null, "energy_per_atom": -52.944459295625, "formation_energy_per_atom": 0.9890701712499991, "energy_above_hull": 0.9890701712499991, "is_stable": false, "equilibrium_reaction_energy_per_atom": null, "decomposes_to": null, "xas": null, "grain_boundaries": null, "band_gap": 0.0, "cbm": null, "vbm": null, "efermi": 7.25029783, "is_gap_direct": null, "is_metal": null, "es_source_calc_id": null, "bandstructure": null, "dos": null, "dos_energy_up": null, "dos_energy_down": null, "is_magnetic": null, "ordering": null, "total_magnetization": 0.0002074, "total_magnetization_normalized_vol": null, "total_magnetization_normalized_formula_units": null, "num_magnetic_sites": null, "num_unique_magnetic_sites": null, "types_of_magnetic_species": null, "bulk_modulus": null, "shear_modulus": null, "universal_anisotropy": null, "homogeneous_poisson": null, "e_total": null, "e_ionic": null, "e_electronic": null, "n": null, "e_ij_max": null, "weighted_surface_energy_EV_PER_ANG2": null, "weighted_surface_energy": null, "weighted_work_function": null, "surface_anisotropy": null, "shape_factor": null, "has_reconstructed": null, "possible_species": null, "has_props": null, "theoretical": null, "database_IDs": null, "fields_not_requested": ["builder_meta", "nsites", "elements", "nelements", "composition", "composition_reduced", "chemsys", "symmetry", "property_name", "deprecated", "deprecation_reasons", "last_updated", "origins", "warnings", "task_ids", "uncorrected_energy_per_atom", "equilibrium_reaction_energy_per_atom", "decomposes_to", "xas", "grain_boundaries", "cbm", "vbm", "is_gap_direct", "is_metal", "es_source_calc_id", "bandstructure", "dos", "dos_energy_up", "dos_energy_down", "is_magnetic", "ordering", "total_magnetization_normalized_vol", "total_magnetization_normalized_formula_units", "num_magnetic_sites", "num_unique_magnetic_sites", "types_of_magnetic_species", "bulk_modulus", "shear_modulus", "universal_anisotropy", "homogeneous_poisson", "e_total", "e_ionic", "e_electronic", "n", "e_ij_max", "weighted_surface_energy_EV_PER_ANG2", "weighted_surface_energy", "weighted_work_function", "surface_anisotropy", "shape_factor", "has_reconstructed", "possible_species", "has_props", "theoretical", "database_IDs"]}