{
  "builder_meta": null,
  "nsites": null,
  "elements": null,
  "nelements": null,
  "composition": null,
  "composition_reduced": null,
  "formula_pretty": "Re3Ge7",
  "formula_anonymous": "A3B7",
  "chemsys": null,
  "volume": 323.17382590585106,
  "density": 10.966005019380162,
  "density_atomic": 16.158691295292552,
  "symmetry": null,
  "property_name": null,
  "material_id": "mp-29141",
  "deprecated": null,
  "deprecation_reasons": null,
  "last_updated": null,
  "origins": null,
  "warnings": null,
  "structure": {
    "@module": "pymatgen.core.structure",
    "@class": "Structure",
    "charge": 0,
    "lattice": {
      "matrix": [
        [3.25184241, 0.0, -0.0],
        [-1.6259222100000001, 4.51265383, -0.0],
        [-0.0, 0.0, 22.02290824]
      ],
      "pbc": [true, true, true],
      "a": 3.25184241,
      "b": 4.796630861592848,
      "c": 22.02290824,
      "alpha": 90.0,
      "beta": 90.0,
      "gamma": 109.81423804046706,
      "volume": 323.17382590585106
    },
    "properties": {},
    "sites": [
      {
        "species": [{ "element": "Re", "occu": 1 }],
        "abc": [0.51851992, 0.03704184, 0.25],
        "properties": { "magmom": 0.0 },
        "label": "Re",
        "xyz": [1.6259179159305408, 0.16715700114624718, 5.50572706]
      },
      {
        "species": [{ "element": "Re", "occu": 1 }],
        "abc": [0.48148008000000003, 0.96295816, 0.75],
        "properties": { "magmom": 0.0 },
        "label": "Re",
        "xyz": [2.2840694593462274e-6, 4.3454968288537525, 16.51718118]
      },
      {
        "species": [{ "element": "Re", "occu": 1 }],
        "abc": [0.07414605, 0.148292099999999, 0.05958539],
        "properties": { "magmom": 0.0 },
        "label": "Re",
        "xyz": [-1.490335588827385e-7, 0.6691909130237385, 1.3122435764146136]
      },
      {
        "species": [{ "element": "Re", "occu": 1 }],
        "abc": [0.92585395, 0.8517079, 0.94041461],
        "properties": { "magmom": 0.0 },
        "label": "Re",
        "xyz": [1.6259203490335605, 3.8434629169762564, 20.710664663585387]
      },
      {
        "species": [{ "element": "Re", "occu": 1 }],
        "abc": [0.92585395, 0.8517079, 0.55958539],
        "properties": { "magmom": 0.0 },
        "label": "Re",
        "xyz": [1.6259203490335605, 3.8434629169762564, 12.323697696414612]
      },
      {
        "species": [{ "element": "Re", "occu": 1 }],
        "abc": [0.07414605, 0.148292099999999, 0.44041461],
        "properties": { "magmom": 0.0 },
        "label": "Re",
        "xyz": [-1.490335588827385e-7, 0.6691909130237385, 9.699210543585385]
      },
      {
        "species": [{ "element": "Ge", "occu": 1 }],
        "abc": [0.23552446000000002, 0.47104792, 0.25],
        "properties": { "magmom": 0.0 },
        "label": "Ge",
        "xyz": [1.1525180454441397e-6, 2.1256762003015335, 5.50572706]
      },
      {
        "species": [{ "element": "Ge", "occu": 1 }],
        "abc": [0.7644755400000001, 0.52895208, 0.75],
        "properties": { "magmom": 0.0 },
        "label": "Ge",
        "xyz": [1.6259190474819547, 2.3869776296984666, 16.51718118]
      },
      {
        "species": [{ "element": "Ge", "occu": 1 }],
        "abc": [0.35486155, 0.7097211, 0.031188920000000002],
        "properties": { "magmom": -0.0 },
        "label": "Ge",
        "xyz": [2.5385727044913153e-6, 3.202725640146813, 0.6868707232647008]
      },
      {
        "species": [{ "element": "Ge", "occu": 1 }],
        "abc": [0.64513845, 0.2902789, 0.96881108],
        "properties": { "magmom": -0.0 },
        "label": "Ge",
        "xyz": [1.6259176614272954, 1.309928189853187, 21.3360375167353]
      },
      {
        "species": [{ "element": "Ge", "occu": 1 }],
        "abc": [0.64513845, 0.2902789, 0.5311889200000001],
        "properties": { "magmom": -0.0 },
        "label": "Ge",
        "xyz": [1.6259176614272954, 1.309928189853187, 11.698324843264702]
      },
      {
        "species": [{ "element": "Ge", "occu": 1 }],
        "abc": [0.35486155, 0.7097211, 0.46881108],
        "properties": { "magmom": -0.0 },
        "label": "Ge",
        "xyz": [2.5385727044913153e-6, 3.202725640146813, 10.3245833967353]
      },
      {
        "species": [{ "element": "Ge", "occu": 1 }],
        "abc": [0.05909636, 0.11819173000000001, 0.83775382],
        "properties": { "magmom": 0.0 },
        "label": "Ge",
        "xyz": [1.490879304288928e-6, 0.5333583630588259, 18.449775505569477]
      },
      {
        "species": [{ "element": "Ge", "occu": 1 }],
        "abc": [0.94090364, 0.8818082700000001, 0.16224618],
        "properties": { "magmom": 0.0 },
        "label": "Ge",
        "xyz": [1.625918709120696, 3.979295466941174, 3.573132734430523]
      },
      {
        "species": [{ "element": "Ge", "occu": 1 }],
        "abc": [0.94090364, 0.8818082700000001, 0.33775382],
        "properties": { "magmom": 0.0 },
        "label": "Ge",
        "xyz": [1.625918709120696, 3.979295466941174, 7.438321385569476]
      },
      {
        "species": [{ "element": "Ge", "occu": 1 }],
        "abc": [0.05909636, 0.11819173000000001, 0.66224618],
        "properties": { "magmom": 0.0 },
        "label": "Ge",
        "xyz": [1.490879304288928e-6, 0.5333583630588259, 14.584586854430523]
      },
      {
        "species": [{ "element": "Ge", "occu": 1 }],
        "abc": [0.3241834, 0.64836781, 0.86361091],
        "properties": { "magmom": 0.0 },
        "label": "Ge",
        "xyz": [-2.2937900661101907e-6, 2.925859481045212, 19.0192238259929]
      },
      {
        "species": [{ "element": "Ge", "occu": 1 }],
        "abc": [0.6758166, 0.35163219, 0.13638909],
        "properties": { "magmom": 0.0 },
        "label": "Ge",
        "xyz": [1.6259224937900663, 1.5867943489547875, 3.0036844140071013]
      },
      {
        "species": [{ "element": "Ge", "occu": 1 }],
        "abc": [0.6758166, 0.35163219, 0.36361091],
        "properties": { "magmom": 0.0 },
        "label": "Ge",
        "xyz": [1.6259224937900663, 1.5867943489547875, 8.007769705992898]
      },
      {
        "species": [{ "element": "Ge", "occu": 1 }],
        "abc": [0.3241834, 0.64836781, 0.63638909],
        "properties": { "magmom": 0.0 },
        "label": "Ge",
        "xyz": [-2.2937900661101907e-6, 2.925859481045212, 14.015138534007102]
      }
    ]
  },
  "task_ids": null,
  "uncorrected_energy_per_atom": null,
  "energy_per_atom": -25.420952077499997,
  "formation_energy_per_atom": 0.012616640750002002,
  "energy_above_hull": 0.012616640750003,
  "is_stable": false,
  "equilibrium_reaction_energy_per_atom": null,
  "decomposes_to": null,
  "xas": null,
  "grain_boundaries": null,
  "band_gap": 0.0,
  "cbm": null,
  "vbm": null,
  "efermi": 7.51942085,
  "is_gap_direct": null,
  "is_metal": null,
  "es_source_calc_id": null,
  "bandstructure": null,
  "dos": null,
  "dos_energy_up": null,
  "dos_energy_down": null,
  "is_magnetic": null,
  "ordering": null,
  "total_magnetization": 0.0,
  "total_magnetization_normalized_vol": null,
  "total_magnetization_normalized_formula_units": null,
  "num_magnetic_sites": null,
  "num_unique_magnetic_sites": null,
  "types_of_magnetic_species": null,
  "bulk_modulus": null,
  "shear_modulus": null,
  "universal_anisotropy": null,
  "homogeneous_poisson": null,
  "e_total": null,
  "e_ionic": null,
  "e_electronic": null,
  "n": null,
  "e_ij_max": null,
  "weighted_surface_energy_EV_PER_ANG2": null,
  "weighted_surface_energy": null,
  "weighted_work_function": null,
  "surface_anisotropy": null,
  "shape_factor": null,
  "has_reconstructed": null,
  "possible_species": null,
  "has_props": null,
  "theoretical": null,
  "database_IDs": null,
  "fields_not_requested": [
    "builder_meta",
    "nsites",
    "elements",
    "nelements",
    "composition",
    "composition_reduced",
    "chemsys",
    "symmetry",
    "property_name",
    "deprecated",
    "deprecation_reasons",
    "last_updated",
    "origins",
    "warnings",
    "task_ids",
    "uncorrected_energy_per_atom",
    "equilibrium_reaction_energy_per_atom",
    "decomposes_to",
    "xas",
    "grain_boundaries",
    "cbm",
    "vbm",
    "is_gap_direct",
    "is_metal",
    "es_source_calc_id",
    "bandstructure",
    "dos",
    "dos_energy_up",
    "dos_energy_down",
    "is_magnetic",
    "ordering",
    "total_magnetization_normalized_vol",
    "total_magnetization_normalized_formula_units",
    "num_magnetic_sites",
    "num_unique_magnetic_sites",
    "types_of_magnetic_species",
    "bulk_modulus",
    "shear_modulus",
    "universal_anisotropy",
    "homogeneous_poisson",
    "e_total",
    "e_ionic",
    "e_electronic",
    "n",
    "e_ij_max",
    "weighted_surface_energy_EV_PER_ANG2",
    "weighted_surface_energy",
    "weighted_work_function",
    "surface_anisotropy",
    "shape_factor",
    "has_reconstructed",
    "possible_species",
    "has_props",
    "theoretical",
    "database_IDs"
  ]
}
