{
  "builder_meta": null,
  "nsites": null,
  "elements": null,
  "nelements": null,
  "composition": null,
  "composition_reduced": null,
  "formula_pretty": "Re3Mo2",
  "formula_anonymous": "A2B3",
  "chemsys": null,
  "volume": 467.9567466318837,
  "density": 15.97886435862475,
  "density_atomic": 15.59855822106279,
  "symmetry": null,
  "property_name": null,
  "material_id": "mp-1219297",
  "deprecated": null,
  "deprecation_reasons": null,
  "last_updated": null,
  "origins": null,
  "warnings": null,
  "structure": {
    "@module": "pymatgen.core.structure",
    "@class": "Structure",
    "charge": 0,
    "lattice": {
      "matrix": [
        [6.799819, -6.80351, 0.0],
        [6.799819, 6.80351, 0.0],
        [0.0, 0.0, 5.05761]
      ],
      "pbc": [true, true, true],
      "a": 9.619006536688756,
      "b": 9.619006536688756,
      "c": 5.05761,
      "alpha": 90.0,
      "beta": 90.0,
      "gamma": 90.03109220059194,
      "volume": 467.9567466318837
    },
    "properties": {},
    "sites": [
      {
        "species": [{ "element": "Re", "occu": 1 }],
        "abc": [0.09991000000000001, 0.09991000000000001, 0.499426],
        "properties": { "magmom": 0.0 },
        "label": "Re",
        "xyz": [1.3587398325800002, 0.0, 2.52590193186]
      },
      {
        "species": [{ "element": "Re", "occu": 1 }],
        "abc": [0.9000900000000001, 0.9000900000000001, 0.499426],
        "properties": { "magmom": 0.0 },
        "label": "Re",
        "xyz": [12.240898167420001, 0.0, 2.52590193186]
      },
      {
        "species": [{ "element": "Re", "occu": 1 }],
        "abc": [0.599636, 0.400364, 0.001614],
        "properties": { "magmom": -0.0 },
        "label": "Re",
        "xyz": [6.799818999999999, -1.3557490447199996, 0.00816298254]
      },
      {
        "species": [{ "element": "Re", "occu": 1 }],
        "abc": [0.400364, 0.599636, 0.001614],
        "properties": { "magmom": -0.0 },
        "label": "Re",
        "xyz": [6.799818999999999, 1.3557490447199996, 0.00816298254]
      },
      {
        "species": [{ "element": "Re", "occu": 1 }],
        "abc": [0.762436999999999, 0.432449, 0.500858999999999],
        "properties": { "magmom": -0.0 },
        "label": "Re",
        "xyz": [8.125008525633993, -2.245076657879993, 2.5331494869899953]
      },
      {
        "species": [{ "element": "Re", "occu": 1 }],
        "abc": [0.237563, 0.567551, 0.500858999999999],
        "properties": { "magmom": -0.0 },
        "label": "Re",
        "xyz": [5.474629474366001, 2.2450766578800003, 2.5331494869899953]
      },
      {
        "species": [{ "element": "Re", "occu": 1 }],
        "abc": [0.261868999999999, 0.066551, 0.9986029999999991],
        "properties": { "magmom": 0.0 },
        "label": "Re",
        "xyz": [2.2331965559799936, -1.3288479661799935, 5.050544518829996]
      },
      {
        "species": [{ "element": "Re", "occu": 1 }],
        "abc": [0.738131, 0.933449, 0.9986029999999991],
        "properties": { "magmom": 0.0 },
        "label": "Re",
        "xyz": [11.366441444020001, 1.3288479661799997, 5.050544518829996]
      },
      {
        "species": [{ "element": "Re", "occu": 1 }],
        "abc": [0.567551, 0.237563, 0.500858999999999],
        "properties": { "magmom": -0.0 },
        "label": "Re",
        "xyz": [5.474629474366001, -2.2450766578800003, 2.5331494869899953]
      },
      {
        "species": [{ "element": "Re", "occu": 1 }],
        "abc": [0.432449, 0.762436999999999, 0.500858999999999],
        "properties": { "magmom": -0.0 },
        "label": "Re",
        "xyz": [8.125008525633993, 2.245076657879993, 2.5331494869899953]
      },
      {
        "species": [{ "element": "Re", "occu": 1 }],
        "abc": [0.933449, 0.738131, 0.9986029999999991],
        "properties": { "magmom": 0.0 },
        "label": "Re",
        "xyz": [11.366441444020001, -1.3288479661799997, 5.050544518829996]
      },
      {
        "species": [{ "element": "Re", "occu": 1 }],
        "abc": [0.066551, 0.261868999999999, 0.9986029999999991],
        "properties": { "magmom": 0.0 },
        "label": "Re",
        "xyz": [2.2331965559799936, 1.3288479661799935, 5.050544518829996]
      },
      {
        "species": [{ "element": "Re", "occu": 1 }],
        "abc": [0.817191, 0.182809, 0.748911],
        "properties": { "magmom": 0.0 },
        "label": "Re",
        "xyz": [6.799819000000001, -4.31602428082, 3.7876997627100004]
      },
      {
        "species": [{ "element": "Re", "occu": 1 }],
        "abc": [0.182809, 0.817191, 0.748911],
        "properties": { "magmom": 0.0 },
        "label": "Re",
        "xyz": [6.799819000000001, 4.31602428082, 3.7876997627100004]
      },
      {
        "species": [{ "element": "Re", "occu": 1 }],
        "abc": [0.683389, 0.683389, 0.749834],
        "properties": { "magmom": -0.0 },
        "label": "Re",
        "xyz": [9.293843013182, 0.0, 3.7923679367400003]
      },
      {
        "species": [{ "element": "Re", "occu": 1 }],
        "abc": [0.316611, 0.316611, 0.749834],
        "properties": { "magmom": -0.0 },
        "label": "Re",
        "xyz": [4.305794986817999, 0.0, 3.7923679367400003]
      },
      {
        "species": [{ "element": "Re", "occu": 1 }],
        "abc": [0.182548, 0.817452, 0.251137],
        "properties": { "magmom": 0.0 },
        "label": "Re",
        "xyz": [6.799818999999999, 4.31957571304, 1.27015300257]
      },
      {
        "species": [{ "element": "Re", "occu": 1 }],
        "abc": [0.817452, 0.182548, 0.251137],
        "properties": { "magmom": 0.0 },
        "label": "Re",
        "xyz": [6.799818999999999, -4.31957571304, 1.27015300257]
      },
      {
        "species": [{ "element": "Mo", "occu": 1 }],
        "abc": [0.03636, 0.366755, 0.499600999999999],
        "properties": { "magmom": -0.0 },
        "label": "Mo",
        "xyz": [2.741109036185, 2.2478456864500003, 2.526787013609995]
      },
      {
        "species": [{ "element": "Mo", "occu": 1 }],
        "abc": [0.96364, 0.633245, 0.499600999999999],
        "properties": { "magmom": -0.0 },
        "label": "Mo",
        "xyz": [10.858528963815, -2.2478456864500007, 2.526787013609995]
      },
      {
        "species": [{ "element": "Mo", "occu": 1 }],
        "abc": [0.537748999999999, 0.132692, 4e-6],
        "properties": { "magmom": -0.0 },
        "label": "Mo",
        "xyz": [4.5588774501789935, -2.7558093500699936, 2.023044e-5]
      },
      {
        "species": [{ "element": "Mo", "occu": 1 }],
        "abc": [0.462250999999999, 0.867308, 4e-6],
        "properties": { "magmom": -0.0 },
        "label": "Mo",
        "xyz": [9.040760549820993, 2.755809350070007, 2.023044e-5]
      },
      {
        "species": [{ "element": "Mo", "occu": 1 }],
        "abc": [0.633245, 0.96364, 0.499600999999999],
        "properties": { "magmom": -0.0 },
        "label": "Mo",
        "xyz": [10.858528963815, 2.2478456864500007, 2.526787013609995]
      },
      {
        "species": [{ "element": "Mo", "occu": 1 }],
        "abc": [0.366755, 0.03636, 0.499600999999999],
        "properties": { "magmom": -0.0 },
        "label": "Mo",
        "xyz": [2.741109036185, -2.2478456864500003, 2.526787013609995]
      },
      {
        "species": [{ "element": "Mo", "occu": 1 }],
        "abc": [0.867308, 0.462250999999999, 4e-6],
        "properties": { "magmom": -0.0 },
        "label": "Mo",
        "xyz": [9.040760549820993, -2.755809350070007, 2.023044e-5]
      },
      {
        "species": [{ "element": "Mo", "occu": 1 }],
        "abc": [0.132692, 0.537748999999999, 4e-6],
        "properties": { "magmom": -0.0 },
        "label": "Mo",
        "xyz": [4.5588774501789935, 2.7558093500699936, 2.023044e-5]
      },
      {
        "species": [{ "element": "Mo", "occu": 1 }],
        "abc": [0.5, 0.5, 0.505082],
        "properties": { "magmom": 0.0 },
        "label": "Mo",
        "xyz": [6.799819, 0.0, 2.55450777402]
      },
      {
        "species": [{ "element": "Mo", "occu": 1 }],
        "abc": [0.0, 0.0, 0.0004919999999990001],
        "properties": { "magmom": -0.0 },
        "label": "Mo",
        "xyz": [0.0, 0.0, 0.0024883441199949428]
      },
      {
        "species": [{ "element": "Mo", "occu": 1 }],
        "abc": [0.316974, 0.316974, 0.248156],
        "properties": { "magmom": -0.0 },
        "label": "Mo",
        "xyz": [4.310731655412, 0.0, 1.25507626716]
      },
      {
        "species": [{ "element": "Mo", "occu": 1 }],
        "abc": [0.683026, 0.683026, 0.248156],
        "properties": { "magmom": -0.0 },
        "label": "Mo",
        "xyz": [9.288906344588, 0.0, 1.25507626716]
      }
    ]
  },
  "task_ids": null,
  "uncorrected_energy_per_atom": null,
  "energy_per_atom": -41.81927832175,
  "formation_energy_per_atom": 0.055882278750004004,
  "energy_above_hull": 0.07697495949999901,
  "is_stable": false,
  "equilibrium_reaction_energy_per_atom": null,
  "decomposes_to": null,
  "xas": null,
  "grain_boundaries": null,
  "band_gap": 0.0,
  "cbm": null,
  "vbm": null,
  "efermi": 7.77397948,
  "is_gap_direct": null,
  "is_metal": null,
  "es_source_calc_id": null,
  "bandstructure": null,
  "dos": null,
  "dos_energy_up": null,
  "dos_energy_down": null,
  "is_magnetic": null,
  "ordering": null,
  "total_magnetization": 0.000187,
  "total_magnetization_normalized_vol": null,
  "total_magnetization_normalized_formula_units": null,
  "num_magnetic_sites": null,
  "num_unique_magnetic_sites": null,
  "types_of_magnetic_species": null,
  "bulk_modulus": null,
  "shear_modulus": null,
  "universal_anisotropy": null,
  "homogeneous_poisson": null,
  "e_total": null,
  "e_ionic": null,
  "e_electronic": null,
  "n": null,
  "e_ij_max": null,
  "weighted_surface_energy_EV_PER_ANG2": null,
  "weighted_surface_energy": null,
  "weighted_work_function": null,
  "surface_anisotropy": null,
  "shape_factor": null,
  "has_reconstructed": null,
  "possible_species": null,
  "has_props": null,
  "theoretical": null,
  "database_IDs": null,
  "fields_not_requested": [
    "builder_meta",
    "nsites",
    "elements",
    "nelements",
    "composition",
    "composition_reduced",
    "chemsys",
    "symmetry",
    "property_name",
    "deprecated",
    "deprecation_reasons",
    "last_updated",
    "origins",
    "warnings",
    "task_ids",
    "uncorrected_energy_per_atom",
    "equilibrium_reaction_energy_per_atom",
    "decomposes_to",
    "xas",
    "grain_boundaries",
    "cbm",
    "vbm",
    "is_gap_direct",
    "is_metal",
    "es_source_calc_id",
    "bandstructure",
    "dos",
    "dos_energy_up",
    "dos_energy_down",
    "is_magnetic",
    "ordering",
    "total_magnetization_normalized_vol",
    "total_magnetization_normalized_formula_units",
    "num_magnetic_sites",
    "num_unique_magnetic_sites",
    "types_of_magnetic_species",
    "bulk_modulus",
    "shear_modulus",
    "universal_anisotropy",
    "homogeneous_poisson",
    "e_total",
    "e_ionic",
    "e_electronic",
    "n",
    "e_ij_max",
    "weighted_surface_energy_EV_PER_ANG2",
    "weighted_surface_energy",
    "weighted_work_function",
    "surface_anisotropy",
    "shape_factor",
    "has_reconstructed",
    "possible_species",
    "has_props",
    "theoretical",
    "database_IDs"
  ]
}
