{"builder_meta": null, "nsites": null, "elements": null, "nelements": null, "composition": null, "composition_reduced": null, "formula_pretty": "Re3Ni", "formula_anonymous": "AB3", "chemsys": null, "volume": 109.4301173426334, "density": 18.734781657323055, "density_atomic": 13.678764667829174, "symmetry": null, "property_name": null, "material_id": "mp-862604", "deprecated": null, "deprecation_reasons": null, "last_updated": null, "origins": null, "warnings": null, "structure": {"@module": "pymatgen.core.structure", "@class": "Structure", "charge": 0, "lattice": {"matrix": [[5.388076489999999, 4.5600000000000024e-05, 1.8900000000000001e-06], [-2.69399796, 4.66623021, -1.09e-06], [8.8e-07, -8.8e-07, 4.35246041]], "pbc": [true, true, true], "a": 5.388076490193289, "b": 5.388072881949723, "c": 4.352460410000178, "alpha": 90.00002741529809, "beta": 89.99996831787978, "gamma": 119.99904259637204, "volume": 109.43011734263334}, "properties": {}, "sites": [{"species": [{"element": "Re", "occu": 1}], "abc": [0.83391373, 0.16613458, 0.74999932], "properties": {"magmom": 0.0}, "label": "Re", "xyz": [4.045625403695152, 0.7752595625883483, 3.2643437428371787]}, {"species": [{"element": "Re", "occu": 1}], "abc": [0.33217162, 0.16604558, 0.74999984], "properties": {"magmom": -0.0}, "label": "Re", "xyz": [1.3424403025800558, 0.7748213886589846, 3.264345057921014]}, {"species": [{"element": "Re", "occu": 1}], "abc": [0.8339649, 0.66780931, 0.74999984], "properties": {"magmom": -0.0}, "label": "Re", "xyz": [2.6943904123660514, 3.1161893456408363, 3.2643454593878474]}, {"species": [{"element": "Re", "occu": 1}], "abc": [0.16608591, 0.83386538, 0.24999935], "properties": {"magmom": 0.0}, "label": "Re", "xyz": [-1.3515478256439408, 3.8910151807471975, 1.0881116783898392]}, {"species": [{"element": "Re", "occu": 1}], "abc": [0.66783165, 0.83395406, 0.24999931], "properties": {"magmom": -0.0}, "label": "Re", "xyz": [1.3516576962685825, 3.891451861648, 1.08811245249421]}, {"species": [{"element": "Re", "occu": 1}], "abc": [0.16603402, 0.3321857, 0.24999943], "properties": {"magmom": -0.0}, "label": "Re", "xyz": [-0.000303378439483911, 1.5500622998218103, 1.088112573319451]}, {"species": [{"element": "Ni", "occu": 1}], "abc": [0.66657719, 0.33335122, 0.25000019], "properties": {"magmom": -0.0}, "label": "Ni", "xyz": [2.6935215995659187, 1.555523709224053, 1.0881168259455374]}, {"species": [{"element": "Ni", "occu": 1}], "abc": [0.33342499000000003, 0.66664816, 0.7499987100000001], "properties": {"magmom": -0.0}, "label": "Ni", "xyz": [0.0005712267185959026, 3.110748327813593, 3.264339596352808]}]}, "task_ids": null, "uncorrected_energy_per_atom": null, "energy_per_atom": -42.41230660375, "formation_energy_per_atom": -0.10891628312499702, "energy_above_hull": 0.0, "is_stable": true, "equilibrium_reaction_energy_per_atom": null, "decomposes_to": null, "xas": null, "grain_boundaries": null, "band_gap": 0.0, "cbm": null, "vbm": null, "efermi": 7.88179602, "is_gap_direct": null, "is_metal": null, "es_source_calc_id": null, "bandstructure": null, "dos": null, "dos_energy_up": null, "dos_energy_down": null, "is_magnetic": null, "ordering": null, "total_magnetization": 0.0, "total_magnetization_normalized_vol": null, "total_magnetization_normalized_formula_units": null, "num_magnetic_sites": null, "num_unique_magnetic_sites": null, "types_of_magnetic_species": null, "bulk_modulus": null, "shear_modulus": null, "universal_anisotropy": null, "homogeneous_poisson": null, "e_total": null, "e_ionic": null, "e_electronic": null, "n": null, "e_ij_max": null, "weighted_surface_energy_EV_PER_ANG2": null, "weighted_surface_energy": null, "weighted_work_function": null, "surface_anisotropy": null, "shape_factor": null, "has_reconstructed": null, "possible_species": null, "has_props": null, "theoretical": null, "database_IDs": null, "fields_not_requested": ["builder_meta", "nsites", "elements", "nelements", "composition", "composition_reduced", "chemsys", "symmetry", "property_name", "deprecated", "deprecation_reasons", "last_updated", "origins", "warnings", "task_ids", "uncorrected_energy_per_atom", "equilibrium_reaction_energy_per_atom", "decomposes_to", "xas", "grain_boundaries", "cbm", "vbm", "is_gap_direct", "is_metal", "es_source_calc_id", "bandstructure", "dos", "dos_energy_up", "dos_energy_down", "is_magnetic", "ordering", "total_magnetization_normalized_vol", "total_magnetization_normalized_formula_units", "num_magnetic_sites", "num_unique_magnetic_sites", "types_of_magnetic_species", "bulk_modulus", "shear_modulus", "universal_anisotropy", "homogeneous_poisson", "e_total", "e_ionic", "e_electronic", "n", "e_ij_max", "weighted_surface_energy_EV_PER_ANG2", "weighted_surface_energy", "weighted_work_function", "surface_anisotropy", "shape_factor", "has_reconstructed", "possible_species", "has_props", "theoretical", "database_IDs"]}