{"builder_meta": null, "nsites": null, "elements": null, "nelements": null, "composition": null, "composition_reduced": null, "formula_pretty": "Re3N5", "formula_anonymous": "A3B5", "chemsys": null, "volume": 119.50614991464899, "density": 8.735160135185044, "density_atomic": 14.938268739331123, "symmetry": null, "property_name": null, "material_id": "mp-1080194", "deprecated": null, "deprecation_reasons": null, "last_updated": null, "origins": null, "warnings": null, "structure": {"@module": "pymatgen.core.structure", "@class": "Structure", "charge": 0, "lattice": {"matrix": [[-1.434981, 2.664873, 7.812816], [1.434981, -2.664873, 7.812816], [1.434981, 2.664873, -7.812816]], "pbc": [true, true, true], "a": 8.378592508670296, "b": 8.378592508670296, "c": 8.378592508670296, "alpha": 160.27694962943852, "beta": 142.90903447959735, "gamma": 42.3525184959689, "volume": 119.50614991464899}, "properties": {}, "sites": [{"species": [{"element": "Re", "occu": 1}], "abc": [0.261224, 0.0, 0.261224], "properties": {"magmom": 0.001}, "label": "Re", "xyz": [0.0, 1.392257569104, 0.0]}, {"species": [{"element": "Re", "occu": 1}], "abc": [0.790936, 0.311589, 0.479346999999999], "properties": {"magmom": 0.0}, "label": "Re", "xyz": [-1.3322676295501878e-15, 2.554797755861997, 4.868775049248006]}, {"species": [{"element": "Re", "occu": 1}], "abc": [0.167757, 0.688411, 0.479346999999999], "properties": {"magmom": 0.0}, "label": "Re", "xyz": [1.4349824349809985, -0.11007790901100245, 2.944033137936007]}, {"species": [{"element": "N", "occu": 1}], "abc": [0.48407000000000006, 0.5, 0.9840700000000001], "properties": {"magmom": -0.0}, "label": "N", "xyz": [1.434981, 2.579970146220001, 0.0]}, {"species": [{"element": "N", "occu": 1}], "abc": [0.9691600000000001, 0.898493999999999, 0.07066599999999901], "properties": {"magmom": -0.0}, "label": "N", "xyz": [-2.858824288409778e-15, 0.3766318308360003, 14.039536598208]}, {"species": [{"element": "N", "occu": 1}], "abc": [0.172172, 0.101506, 0.07066599999999901], "properties": {"magmom": -0.0}, "label": "N", "xyz": [-1.4155343563970746e-15, 0.3766318308359974, 1.5860954017920075]}, {"species": [{"element": "N", "occu": 1}], "abc": [0.978671, 0.23328000000000002, 0.745390999999999], "properties": {"magmom": 0.0}, "label": "N", "xyz": [-1.1102230246251565e-15, 3.9727447006859977, 3.645147432960007]}, {"species": [{"element": "N", "occu": 1}], "abc": [0.512111, 0.7667200000000001, 0.745390999999999], "properties": {"magmom": 0.0}, "label": "N", "xyz": [1.4349809999999987, 1.3078717006859975, 4.167668567040009]}]}, "task_ids": null, "uncorrected_energy_per_atom": null, "energy_per_atom": -25.250127408125, "formation_energy_per_atom": 0.10932227671875301, "energy_above_hull": 0.15380868749999901, "is_stable": false, "equilibrium_reaction_energy_per_atom": null, "decomposes_to": null, "xas": null, "grain_boundaries": null, "band_gap": 0.0, "cbm": null, "vbm": null, "efermi": 3.5000794600000003, "is_gap_direct": null, "is_metal": null, "es_source_calc_id": null, "bandstructure": null, "dos": null, "dos_energy_up": null, "dos_energy_down": null, "is_magnetic": null, "ordering": null, "total_magnetization": 0.001107, "total_magnetization_normalized_vol": null, "total_magnetization_normalized_formula_units": null, "num_magnetic_sites": null, "num_unique_magnetic_sites": null, "types_of_magnetic_species": null, "bulk_modulus": null, "shear_modulus": null, "universal_anisotropy": null, "homogeneous_poisson": null, "e_total": null, "e_ionic": null, "e_electronic": null, "n": null, "e_ij_max": null, "weighted_surface_energy_EV_PER_ANG2": null, "weighted_surface_energy": null, "weighted_work_function": null, "surface_anisotropy": null, "shape_factor": null, "has_reconstructed": null, "possible_species": null, "has_props": null, "theoretical": null, "database_IDs": null, "fields_not_requested": ["builder_meta", "nsites", "elements", "nelements", "composition", "composition_reduced", "chemsys", "symmetry", "property_name", "deprecated", "deprecation_reasons", "last_updated", "origins", "warnings", "task_ids", "uncorrected_energy_per_atom", "equilibrium_reaction_energy_per_atom", "decomposes_to", "xas", "grain_boundaries", "cbm", "vbm", "is_gap_direct", "is_metal", "es_source_calc_id", "bandstructure", "dos", "dos_energy_up", "dos_energy_down", "is_magnetic", "ordering", "total_magnetization_normalized_vol", "total_magnetization_normalized_formula_units", "num_magnetic_sites", "num_unique_magnetic_sites", "types_of_magnetic_species", "bulk_modulus", "shear_modulus", "universal_anisotropy", "homogeneous_poisson", "e_total", "e_ionic", "e_electronic", "n", "e_ij_max", "weighted_surface_energy_EV_PER_ANG2", "weighted_surface_energy", "weighted_work_function", "surface_anisotropy", "shape_factor", "has_reconstructed", "possible_species", "has_props", "theoretical", "database_IDs"]}