{
  "builder_meta": null,
  "nsites": null,
  "elements": null,
  "nelements": null,
  "composition": null,
  "composition_reduced": null,
  "formula_pretty": "Re3N4",
  "formula_anonymous": "A3B4",
  "chemsys": null,
  "volume": 311.45929064467657,
  "density": 13.107930503368827,
  "density_atomic": 11.123546094452735,
  "symmetry": null,
  "property_name": null,
  "material_id": "mp-1080201",
  "deprecated": null,
  "deprecation_reasons": null,
  "last_updated": null,
  "origins": null,
  "warnings": null,
  "structure": {
    "@module": "pymatgen.core.structure",
    "@class": "Structure",
    "charge": 0,
    "lattice": {
      "matrix": [
        [5.274998, 0.0, 0.0],
        [0.0, 5.873241, 0.0],
        [0.0, 0.0, 10.053127]
      ],
      "pbc": [true, true, true],
      "a": 5.274998,
      "b": 5.873241,
      "c": 10.053127,
      "alpha": 90.0,
      "beta": 90.0,
      "gamma": 90.0,
      "volume": 311.45929064467657
    },
    "properties": {},
    "sites": [
      {
        "species": [{ "element": "Re", "occu": 1 }],
        "abc": [0.5, 0.0, 0.5],
        "properties": { "magmom": -0.0 },
        "label": "Re",
        "xyz": [2.637499, 0.0, 5.0265635]
      },
      {
        "species": [{ "element": "Re", "occu": 1 }],
        "abc": [0.0, 0.5, 0.0],
        "properties": { "magmom": -0.0 },
        "label": "Re",
        "xyz": [0.0, 2.9366205, 0.0]
      },
      {
        "species": [{ "element": "Re", "occu": 1 }],
        "abc": [0.5, 0.5, 0.5],
        "properties": { "magmom": -0.0 },
        "label": "Re",
        "xyz": [2.637499, 2.9366205, 5.0265635]
      },
      {
        "species": [{ "element": "Re", "occu": 1 }],
        "abc": [0.0, 0.0, 0.0],
        "properties": { "magmom": -0.0 },
        "label": "Re",
        "xyz": [0.0, 0.0, 0.0]
      },
      {
        "species": [{ "element": "Re", "occu": 1 }],
        "abc": [0.490482, 0.25, 0.745549],
        "properties": { "magmom": 0.0 },
        "label": "Re",
        "xyz": [2.587291569036, 1.46831025, 7.495098781723]
      },
      {
        "species": [{ "element": "Re", "occu": 1 }],
        "abc": [0.009518, 0.25, 0.245549],
        "properties": { "magmom": 0.0 },
        "label": "Re",
        "xyz": [0.050207430964, 1.46831025, 2.4685352817229997]
      },
      {
        "species": [{ "element": "Re", "occu": 1 }],
        "abc": [0.509518, 0.75, 0.254451],
        "properties": { "magmom": 0.0 },
        "label": "Re",
        "xyz": [2.687706430964, 4.40493075, 2.5580282182769998]
      },
      {
        "species": [{ "element": "Re", "occu": 1 }],
        "abc": [0.990482, 0.75, 0.754451],
        "properties": { "magmom": 0.0 },
        "label": "Re",
        "xyz": [5.224790569036, 4.40493075, 7.584591718277]
      },
      {
        "species": [{ "element": "Re", "occu": 1 }],
        "abc": [0.101622999999999, 0.25, 0.582457],
        "properties": { "magmom": 0.0 },
        "label": "Re",
        "xyz": [0.5360611217539948, 1.46831025, 5.855514193039]
      },
      {
        "species": [{ "element": "Re", "occu": 1 }],
        "abc": [0.398377, 0.25, 0.082457],
        "properties": { "magmom": 0.0 },
        "label": "Re",
        "xyz": [2.101437878246, 1.46831025, 0.828950693039]
      },
      {
        "species": [{ "element": "Re", "occu": 1 }],
        "abc": [0.898377, 0.75, 0.417543],
        "properties": { "magmom": 0.0 },
        "label": "Re",
        "xyz": [4.738936878246, 4.40493075, 4.197612806961]
      },
      {
        "species": [{ "element": "Re", "occu": 1 }],
        "abc": [0.601623, 0.75, 0.917543],
        "properties": { "magmom": 0.0 },
        "label": "Re",
        "xyz": [3.173560121754, 4.40493075, 9.224176306961]
      },
      {
        "species": [{ "element": "N", "occu": 1 }],
        "abc": [0.740144999999999, 0.25, 0.584198],
        "properties": { "magmom": -0.0 },
        "label": "N",
        "xyz": [3.904263394709995, 1.46831025, 5.873016687146]
      },
      {
        "species": [{ "element": "N", "occu": 1 }],
        "abc": [0.759855, 0.25, 0.084198],
        "properties": { "magmom": -0.0 },
        "label": "N",
        "xyz": [4.00823360529, 1.46831025, 0.8464531871459999]
      },
      {
        "species": [{ "element": "N", "occu": 1 }],
        "abc": [0.259855, 0.75, 0.415802],
        "properties": { "magmom": -0.0 },
        "label": "N",
        "xyz": [1.37073460529, 4.40493075, 4.180110312854]
      },
      {
        "species": [{ "element": "N", "occu": 1 }],
        "abc": [0.240145, 0.75, 0.915802],
        "properties": { "magmom": -0.0 },
        "label": "N",
        "xyz": [1.26676439471, 4.40493075, 9.206673812854]
      },
      {
        "species": [{ "element": "N", "occu": 1 }],
        "abc": [0.248627, 0.25, 0.908308999999999],
        "properties": { "magmom": -0.0 },
        "label": "N",
        "xyz": [1.3115069277459999, 1.46831025, 9.13134573224299]
      },
      {
        "species": [{ "element": "N", "occu": 1 }],
        "abc": [0.251373, 0.25, 0.408309],
        "properties": { "magmom": -0.0 },
        "label": "N",
        "xyz": [1.3259920722540002, 1.46831025, 4.104782232243]
      },
      {
        "species": [{ "element": "N", "occu": 1 }],
        "abc": [0.751373, 0.75, 0.091691],
        "properties": { "magmom": -0.0 },
        "label": "N",
        "xyz": [3.963491072254, 4.40493075, 0.921781267757]
      },
      {
        "species": [{ "element": "N", "occu": 1 }],
        "abc": [0.748626999999999, 0.75, 0.591691],
        "properties": { "magmom": -0.0 },
        "label": "N",
        "xyz": [3.949005927745995, 4.40493075, 5.948344767757]
      },
      {
        "species": [{ "element": "N", "occu": 1 }],
        "abc": [0.246246, 0.984927999999999, 0.670624999999999],
        "properties": { "magmom": -0.0 },
        "label": "N",
        "xyz": [1.298947157508, 5.784719511647994, 6.74187829437499]
      },
      {
        "species": [{ "element": "N", "occu": 1 }],
        "abc": [0.253754, 0.515072, 0.170625],
        "properties": { "magmom": -0.0 },
        "label": "N",
        "xyz": [1.338551842492, 3.025141988352, 1.715314794375]
      },
      {
        "species": [{ "element": "N", "occu": 1 }],
        "abc": [0.753753999999999, 0.484927999999999, 0.329375],
        "properties": { "magmom": -0.0 },
        "label": "N",
        "xyz": [3.976050842491995, 2.8480990116479945, 3.3112487056249997]
      },
      {
        "species": [{ "element": "N", "occu": 1 }],
        "abc": [0.746246, 0.015071999999999001, 0.829375],
        "properties": { "magmom": -0.0 },
        "label": "N",
        "xyz": [3.936446157508, 0.08852148835199414, 8.337812205625]
      },
      {
        "species": [{ "element": "N", "occu": 1 }],
        "abc": [0.753753999999999, 0.015071999999999001, 0.329375],
        "properties": { "magmom": -0.0 },
        "label": "N",
        "xyz": [3.976050842491995, 0.08852148835199414, 3.3112487056249997]
      },
      {
        "species": [{ "element": "N", "occu": 1 }],
        "abc": [0.746246, 0.484927999999999, 0.829375],
        "properties": { "magmom": -0.0 },
        "label": "N",
        "xyz": [3.936446157508, 2.8480990116479945, 8.337812205625]
      },
      {
        "species": [{ "element": "N", "occu": 1 }],
        "abc": [0.246246, 0.515072, 0.670624999999999],
        "properties": { "magmom": -0.0 },
        "label": "N",
        "xyz": [1.298947157508, 3.025141988352, 6.74187829437499]
      },
      {
        "species": [{ "element": "N", "occu": 1 }],
        "abc": [0.253754, 0.984927999999999, 0.170625],
        "properties": { "magmom": -0.0 },
        "label": "N",
        "xyz": [1.338551842492, 5.784719511647994, 1.715314794375]
      }
    ]
  },
  "task_ids": null,
  "uncorrected_energy_per_atom": null,
  "energy_per_atom": -27.615971594107148,
  "formation_energy_per_atom": 0.06214937839285101,
  "energy_above_hull": 0.11299099071428001,
  "is_stable": false,
  "equilibrium_reaction_energy_per_atom": null,
  "decomposes_to": null,
  "xas": null,
  "grain_boundaries": null,
  "band_gap": 0.0,
  "cbm": null,
  "vbm": null,
  "efermi": 7.02113077,
  "is_gap_direct": null,
  "is_metal": null,
  "es_source_calc_id": null,
  "bandstructure": null,
  "dos": null,
  "dos_energy_up": null,
  "dos_energy_down": null,
  "is_magnetic": null,
  "ordering": null,
  "total_magnetization": 0.002467199999999,
  "total_magnetization_normalized_vol": null,
  "total_magnetization_normalized_formula_units": null,
  "num_magnetic_sites": null,
  "num_unique_magnetic_sites": null,
  "types_of_magnetic_species": null,
  "bulk_modulus": null,
  "shear_modulus": null,
  "universal_anisotropy": null,
  "homogeneous_poisson": null,
  "e_total": null,
  "e_ionic": null,
  "e_electronic": null,
  "n": null,
  "e_ij_max": null,
  "weighted_surface_energy_EV_PER_ANG2": null,
  "weighted_surface_energy": null,
  "weighted_work_function": null,
  "surface_anisotropy": null,
  "shape_factor": null,
  "has_reconstructed": null,
  "possible_species": null,
  "has_props": null,
  "theoretical": null,
  "database_IDs": null,
  "fields_not_requested": [
    "builder_meta",
    "nsites",
    "elements",
    "nelements",
    "composition",
    "composition_reduced",
    "chemsys",
    "symmetry",
    "property_name",
    "deprecated",
    "deprecation_reasons",
    "last_updated",
    "origins",
    "warnings",
    "task_ids",
    "uncorrected_energy_per_atom",
    "equilibrium_reaction_energy_per_atom",
    "decomposes_to",
    "xas",
    "grain_boundaries",
    "cbm",
    "vbm",
    "is_gap_direct",
    "is_metal",
    "es_source_calc_id",
    "bandstructure",
    "dos",
    "dos_energy_up",
    "dos_energy_down",
    "is_magnetic",
    "ordering",
    "total_magnetization_normalized_vol",
    "total_magnetization_normalized_formula_units",
    "num_magnetic_sites",
    "num_unique_magnetic_sites",
    "types_of_magnetic_species",
    "bulk_modulus",
    "shear_modulus",
    "universal_anisotropy",
    "homogeneous_poisson",
    "e_total",
    "e_ionic",
    "e_electronic",
    "n",
    "e_ij_max",
    "weighted_surface_energy_EV_PER_ANG2",
    "weighted_surface_energy",
    "weighted_work_function",
    "surface_anisotropy",
    "shape_factor",
    "has_reconstructed",
    "possible_species",
    "has_props",
    "theoretical",
    "database_IDs"
  ]
}
