{"builder_meta": null, "nsites": null, "elements": null, "nelements": null, "composition": null, "composition_reduced": null, "formula_pretty": "Re3O8", "formula_anonymous": "A3B8", "chemsys": null, "volume": 128.24700733214084, "density": 8.890289509115878, "density_atomic": 11.65881884837644, "symmetry": null, "property_name": null, "material_id": "mp-32795", "deprecated": null, "deprecation_reasons": null, "last_updated": null, "origins": null, "warnings": null, "structure": {"@module": "pymatgen.core.structure", "@class": "Structure", "charge": 0, "lattice": {"matrix": [[2.786638, 4.853209, 0.0], [-2.786638, 4.853209, 0.0], [0.0, 0.301373, 4.741412]], "pbc": [true, true, true], "a": 5.596337100347422, "b": 5.596337100347422, "c": 4.750980260838073, "alpha": 86.8465339500595, "beta": 86.8465339500595, "gamma": 59.727560167044345, "volume": 128.24700733214084}, "properties": {}, "sites": [{"species": [{"element": "Re", "occu": 1}], "abc": [0.0, 0.0, 0.0], "properties": {"magmom": -0.0}, "label": "Re", "xyz": [0.0, 0.0, 0.0]}, {"species": [{"element": "Re", "occu": 1}], "abc": [0.5, 0.0, 0.5], "properties": {"magmom": -0.0}, "label": "Re", "xyz": [1.393319, 2.5772909999999998, 2.370706]}, {"species": [{"element": "Re", "occu": 1}], "abc": [0.0, 0.5, 0.5], "properties": {"magmom": -0.0}, "label": "Re", "xyz": [-1.393319, 2.5772909999999998, 2.370706]}, {"species": [{"element": "O", "occu": 1}], "abc": [0.15372000000000002, 0.15372000000000002, 0.261551], "properties": {"magmom": 0.0}, "label": "O", "xyz": [0.0, 1.570894984483, 1.240121050012]}, {"species": [{"element": "O", "occu": 1}], "abc": [0.13042499999999901, 0.672111999999999, 0.228648], "properties": {"magmom": -0.0}, "label": "O", "xyz": [-1.509485578306, 3.9637881249369906, 1.084114370976]}, {"species": [{"element": "O", "occu": 1}], "abc": [0.655826, 0.655826, 0.293413], "properties": {"magmom": 0.0}, "label": "O", "xyz": [0.0, 6.454148047317, 1.391191919156]}, {"species": [{"element": "O", "occu": 1}], "abc": [0.672111999999999, 0.13042499999999901, 0.228648], "properties": {"magmom": -0.0}, "label": "O", "xyz": [1.509485578306, 3.9637881249369906, 1.084114370976]}, {"species": [{"element": "O", "occu": 1}], "abc": [0.327888, 0.869575, 0.771351999999999], "properties": {"magmom": -0.0}, "label": "O", "xyz": [-1.5094855783059997, 6.044002875062999, 3.657297629023996]}, {"species": [{"element": "O", "occu": 1}], "abc": [0.344174, 0.344174, 0.706587], "properties": {"magmom": 0.0}, "label": "O", "xyz": [0.0, 3.5536429526829996, 3.350220080844]}, {"species": [{"element": "O", "occu": 1}], "abc": [0.869575, 0.327888, 0.771351999999999], "properties": {"magmom": -0.0}, "label": "O", "xyz": [1.5094855783059997, 6.044002875062999, 3.657297629023996]}, {"species": [{"element": "O", "occu": 1}], "abc": [0.84628, 0.84628, 0.738449], "properties": {"magmom": 0.0}, "label": "O", "xyz": [0.0, 8.436896015517, 3.5012909499880003]}]}, "task_ids": null, "uncorrected_energy_per_atom": null, "energy_per_atom": -8.873773658181818, "formation_energy_per_atom": -1.8803163252272732, "energy_above_hull": 0.18949119416666702, "is_stable": false, "equilibrium_reaction_energy_per_atom": null, "decomposes_to": null, "xas": null, "grain_boundaries": null, "band_gap": 0.0, "cbm": null, "vbm": null, "efermi": 3.6787832, "is_gap_direct": null, "is_metal": null, "es_source_calc_id": null, "bandstructure": null, "dos": null, "dos_energy_up": null, "dos_energy_down": null, "is_magnetic": null, "ordering": null, "total_magnetization": 0.00019109999999900002, "total_magnetization_normalized_vol": null, "total_magnetization_normalized_formula_units": null, "num_magnetic_sites": null, "num_unique_magnetic_sites": null, "types_of_magnetic_species": null, "bulk_modulus": null, "shear_modulus": null, "universal_anisotropy": null, "homogeneous_poisson": null, "e_total": null, "e_ionic": null, "e_electronic": null, "n": null, "e_ij_max": null, "weighted_surface_energy_EV_PER_ANG2": null, "weighted_surface_energy": null, "weighted_work_function": null, "surface_anisotropy": null, "shape_factor": null, "has_reconstructed": null, "possible_species": null, "has_props": null, "theoretical": null, "database_IDs": null, "fields_not_requested": ["builder_meta", "nsites", "elements", "nelements", "composition", "composition_reduced", "chemsys", "symmetry", "property_name", "deprecated", "deprecation_reasons", "last_updated", "origins", "warnings", "task_ids", "uncorrected_energy_per_atom", "equilibrium_reaction_energy_per_atom", "decomposes_to", "xas", "grain_boundaries", "cbm", "vbm", "is_gap_direct", "is_metal", "es_source_calc_id", "bandstructure", "dos", "dos_energy_up", "dos_energy_down", "is_magnetic", "ordering", "total_magnetization_normalized_vol", "total_magnetization_normalized_formula_units", "num_magnetic_sites", "num_unique_magnetic_sites", "types_of_magnetic_species", "bulk_modulus", "shear_modulus", "universal_anisotropy", "homogeneous_poisson", "e_total", "e_ionic", "e_electronic", "n", "e_ij_max", "weighted_surface_energy_EV_PER_ANG2", "weighted_surface_energy", "weighted_work_function", "surface_anisotropy", "shape_factor", "has_reconstructed", "possible_species", "has_props", "theoretical", "database_IDs"]}