{
  "builder_meta": null,
  "nsites": null,
  "elements": null,
  "nelements": null,
  "composition": null,
  "composition_reduced": null,
  "formula_pretty": "Re3Pt",
  "formula_anonymous": "AB3",
  "chemsys": null,
  "volume": 118.31976564223399,
  "density": 21.15549486424967,
  "density_atomic": 14.789970705279249,
  "symmetry": null,
  "property_name": null,
  "material_id": "mp-862589",
  "deprecated": null,
  "deprecation_reasons": null,
  "last_updated": null,
  "origins": null,
  "warnings": null,
  "structure": {
    "@module": "pymatgen.core.structure",
    "@class": "Structure",
    "charge": 0,
    "lattice": {
      "matrix": [
        [5.56407581, -0.0, 0.0],
        [-2.782037899999999, 4.81863064, -0.0],
        [-0.0, -0.0, 4.41306805]
      ],
      "pbc": [true, true, true],
      "a": 5.56407581,
      "b": 5.564075495694071,
      "c": 4.41306805,
      "alpha": 90.0,
      "beta": 90.0,
      "gamma": 120.00000180917013,
      "volume": 118.31976564223399
    },
    "properties": {},
    "sites": [
      {
        "species": [{ "element": "Re", "occu": 1 }],
        "abc": [0.15883044000000002, 0.31766088000000003, 0.25],
        "properties": { "magmom": 0.0 },
        "label": "Re",
        "xyz": [1.5883048209985873e-9, 1.5306904494973634, 1.1032670125]
      },
      {
        "species": [{ "element": "Re", "occu": 1 }],
        "abc": [0.68233912, 0.84117056, 0.25],
        "properties": { "magmom": 0.0 },
        "label": "Re",
        "xyz": [1.4564182135244645, 4.053290233881959, 1.1032670125]
      },
      {
        "species": [{ "element": "Re", "occu": 1 }],
        "abc": [0.15883044000000002, 0.84117056, 0.25],
        "properties": { "magmom": 0.0 },
        "label": "Re",
        "xyz": [-1.4564237691885662, 4.053290233881959, 1.1032670125]
      },
      {
        "species": [{ "element": "Re", "occu": 1 }],
        "abc": [0.84116956, 0.68233712, 0.749997999999999],
        "properties": { "magmom": 0.0 },
        "label": "Re",
        "xyz": [2.782043472487496, 3.287930553241357, 3.3097922113638956]
      },
      {
        "species": [{ "element": "Re", "occu": 1 }],
        "abc": [0.31766188, 0.15883244, 0.749997999999999],
        "properties": { "magmom": 0.0 },
        "label": "Re",
        "xyz": [1.325616914437647, 0.7653548620099616, 3.3097922113638956]
      },
      {
        "species": [{ "element": "Re", "occu": 1 }],
        "abc": [0.84116956, 0.15883244, 0.749997999999999],
        "properties": { "magmom": 0.0 },
        "label": "Re",
        "xyz": [4.238453333074868, 0.7653548620099616, 3.3097922113638956]
      },
      {
        "species": [{ "element": "Pt", "occu": 1 }],
        "abc": [0.333333, 0.666666, 0.749997999999999],
        "properties": { "magmom": 0.0 },
        "label": "Pt",
        "xyz": [3.333330944599311e-9, 3.21241721424624, 3.3097922113638956]
      },
      {
        "species": [{ "element": "Pt", "occu": 1 }],
        "abc": [0.666666, 0.333331999999999, 0.25],
        "properties": { "magmom": 0.0 },
        "label": "Pt",
        "xyz": [2.7820379066666634, 1.6062037884924754, 1.1032670125]
      }
    ]
  },
  "task_ids": null,
  "uncorrected_energy_per_atom": null,
  "energy_per_atom": -52.44094929875,
  "formation_energy_per_atom": -0.261059043124994,
  "energy_above_hull": 0.0,
  "is_stable": true,
  "equilibrium_reaction_energy_per_atom": null,
  "decomposes_to": null,
  "xas": null,
  "grain_boundaries": null,
  "band_gap": 0.0,
  "cbm": null,
  "vbm": null,
  "efermi": 8.00380101,
  "is_gap_direct": null,
  "is_metal": null,
  "es_source_calc_id": null,
  "bandstructure": null,
  "dos": null,
  "dos_energy_up": null,
  "dos_energy_down": null,
  "is_magnetic": null,
  "ordering": null,
  "total_magnetization": 1e-7,
  "total_magnetization_normalized_vol": null,
  "total_magnetization_normalized_formula_units": null,
  "num_magnetic_sites": null,
  "num_unique_magnetic_sites": null,
  "types_of_magnetic_species": null,
  "bulk_modulus": null,
  "shear_modulus": null,
  "universal_anisotropy": null,
  "homogeneous_poisson": null,
  "e_total": null,
  "e_ionic": null,
  "e_electronic": null,
  "n": null,
  "e_ij_max": null,
  "weighted_surface_energy_EV_PER_ANG2": null,
  "weighted_surface_energy": null,
  "weighted_work_function": null,
  "surface_anisotropy": null,
  "shape_factor": null,
  "has_reconstructed": null,
  "possible_species": null,
  "has_props": null,
  "theoretical": null,
  "database_IDs": null,
  "fields_not_requested": [
    "builder_meta",
    "nsites",
    "elements",
    "nelements",
    "composition",
    "composition_reduced",
    "chemsys",
    "symmetry",
    "property_name",
    "deprecated",
    "deprecation_reasons",
    "last_updated",
    "origins",
    "warnings",
    "task_ids",
    "uncorrected_energy_per_atom",
    "equilibrium_reaction_energy_per_atom",
    "decomposes_to",
    "xas",
    "grain_boundaries",
    "cbm",
    "vbm",
    "is_gap_direct",
    "is_metal",
    "es_source_calc_id",
    "bandstructure",
    "dos",
    "dos_energy_up",
    "dos_energy_down",
    "is_magnetic",
    "ordering",
    "total_magnetization_normalized_vol",
    "total_magnetization_normalized_formula_units",
    "num_magnetic_sites",
    "num_unique_magnetic_sites",
    "types_of_magnetic_species",
    "bulk_modulus",
    "shear_modulus",
    "universal_anisotropy",
    "homogeneous_poisson",
    "e_total",
    "e_ionic",
    "e_electronic",
    "n",
    "e_ij_max",
    "weighted_surface_energy_EV_PER_ANG2",
    "weighted_surface_energy",
    "weighted_work_function",
    "surface_anisotropy",
    "shape_factor",
    "has_reconstructed",
    "possible_species",
    "has_props",
    "theoretical",
    "database_IDs"
  ]
}
