{"builder_meta": null, "nsites": null, "elements": null, "nelements": null, "composition": null, "composition_reduced": null, "formula_pretty": "Re3P4", "formula_anonymous": "A3B4", "chemsys": null, "volume": 102.19385126295204, "density": 11.090144341162606, "density_atomic": 14.599121608993148, "symmetry": null, "property_name": null, "material_id": "mp-1474", "deprecated": null, "deprecation_reasons": null, "last_updated": null, "origins": null, "warnings": null, "structure": {"@module": "pymatgen.core.structure", "@class": "Structure", "charge": 0, "lattice": {"matrix": [[2.944374009999999, 0.0, -0.72923647], [-0.5901435700000001, 5.52160706, -2.38277255], [-0.00655326, 0.01141004, 6.28228018]], "pbc": [true, true, true], "a": 3.0333354809419832, "b": 6.042683094726025, "c": 6.282293959554126, "alpha": 113.1139623630448, "beta": 103.9703337033762, "gamma": 89.99999608171417, "volume": 102.193851262952}, "properties": {}, "sites": [{"species": [{"element": "Re", "occu": 1}], "abc": [0.26401027, 0.31873126, 0.52802054], "properties": {"magmom": -0.0}, "label": "Re", "xyz": [0.5857875178301237, 1.7659335109409173, 2.3651829585814372]}, {"species": [{"element": "Re", "occu": 1}], "abc": [0.73598973, 0.68126874, 0.47197946], "properties": {"magmom": -0.0}, "label": "Re", "xyz": [1.761889662169875, 3.7670835890590832, 0.8050882014185627]}, {"species": [{"element": "Re", "occu": 1}], "abc": [-0.0, -0.0, -0.0], "properties": {"magmom": -0.0}, "label": "Re", "xyz": [0.0, 0.0, 0.0]}, {"species": [{"element": "P", "occu": 1}], "abc": [0.08589264, 0.43616248, 0.17178629], "properties": {"magmom": 0.0}, "label": "P", "xyz": [-0.005624186403772752, 2.4102779173154603, -0.02270242541377243]}, {"species": [{"element": "P", "occu": 1}], "abc": [0.91410736, 0.56383752, 0.82821371], "properties": {"magmom": 0.0}, "label": "P", "xyz": [2.3533013664037714, 3.1227391826845396, 3.192973585413773]}, {"species": [{"element": "P", "occu": 1}], "abc": [0.351244, 0.02339083, 0.702487], "properties": {"magmom": 0.0}, "label": "P", "xyz": [1.0157861768893564, 0.13717037683673983, 4.1013451944932635]}, {"species": [{"element": "P", "occu": 1}], "abc": [0.648756, 0.97660917, 0.29751299999999903], "properties": {"magmom": 0.0}, "label": "P", "xyz": [1.3318910031106426, 5.3958467231632605, -0.93107403449327]}]}, "task_ids": null, "uncorrected_energy_per_atom": null, "energy_per_atom": -28.025220278571428, "formation_energy_per_atom": -0.41948465420067904, "energy_above_hull": 0.0, "is_stable": true, "equilibrium_reaction_energy_per_atom": null, "decomposes_to": null, "xas": null, "grain_boundaries": null, "band_gap": 0.0, "cbm": null, "vbm": null, "efermi": 8.38506374, "is_gap_direct": null, "is_metal": null, "es_source_calc_id": null, "bandstructure": null, "dos": null, "dos_energy_up": null, "dos_energy_down": null, "is_magnetic": null, "ordering": null, "total_magnetization": 1e-07, "total_magnetization_normalized_vol": null, "total_magnetization_normalized_formula_units": null, "num_magnetic_sites": null, "num_unique_magnetic_sites": null, "types_of_magnetic_species": null, "bulk_modulus": null, "shear_modulus": null, "universal_anisotropy": null, "homogeneous_poisson": null, "e_total": null, "e_ionic": null, "e_electronic": null, "n": null, "e_ij_max": null, "weighted_surface_energy_EV_PER_ANG2": null, "weighted_surface_energy": null, "weighted_work_function": null, "surface_anisotropy": null, "shape_factor": null, "has_reconstructed": null, "possible_species": null, "has_props": null, "theoretical": null, "database_IDs": null, "fields_not_requested": ["builder_meta", "nsites", "elements", "nelements", "composition", "composition_reduced", "chemsys", "symmetry", "property_name", "deprecated", "deprecation_reasons", "last_updated", "origins", "warnings", "task_ids", "uncorrected_energy_per_atom", "equilibrium_reaction_energy_per_atom", "decomposes_to", "xas", "grain_boundaries", "cbm", "vbm", "is_gap_direct", "is_metal", "es_source_calc_id", "bandstructure", "dos", "dos_energy_up", "dos_energy_down", "is_magnetic", "ordering", "total_magnetization_normalized_vol", "total_magnetization_normalized_formula_units", "num_magnetic_sites", "num_unique_magnetic_sites", "types_of_magnetic_species", "bulk_modulus", "shear_modulus", "universal_anisotropy", "homogeneous_poisson", "e_total", "e_ionic", "e_electronic", "n", "e_ij_max", "weighted_surface_energy_EV_PER_ANG2", "weighted_surface_energy", "weighted_work_function", "surface_anisotropy", "shape_factor", "has_reconstructed", "possible_species", "has_props", "theoretical", "database_IDs"]}