{
  "builder_meta": null,
  "nsites": null,
  "elements": null,
  "nelements": null,
  "composition": null,
  "composition_reduced": null,
  "formula_pretty": "Re3Pd",
  "formula_anonymous": "AB3",
  "chemsys": null,
  "volume": 117.38942253331511,
  "density": 18.81475413301948,
  "density_atomic": 14.673677816664389,
  "symmetry": null,
  "property_name": null,
  "material_id": "mp-862586",
  "deprecated": null,
  "deprecation_reasons": null,
  "last_updated": null,
  "origins": null,
  "warnings": null,
  "structure": {
    "@module": "pymatgen.core.structure",
    "@class": "Structure",
    "charge": 0,
    "lattice": {
      "matrix": [
        [5.54033499, -3.16e-6, 0.0],
        [-2.77016922, 4.79807714, 0.0],
        [0.0, 0.0, 4.415967399999999]
      ],
      "pbc": [true, true, true],
      "a": 5.540334990000901,
      "b": 5.540341302557631,
      "c": 4.415967399999999,
      "alpha": 90.0,
      "beta": 90.0,
      "gamma": 120.0000155878905,
      "volume": 117.38942253331507
    },
    "properties": {},
    "sites": [
      {
        "species": [{ "element": "Re", "occu": 1 }],
        "abc": [0.84034771, 0.15963759, 0.750000999999999],
        "properties": { "magmom": -0.0 },
        "label": "Re",
        "xyz": [4.213584683306393, 0.7659508157649291, 3.3119799659673945]
      },
      {
        "species": [{ "element": "Re", "occu": 1 }],
        "abc": [0.31928958, 0.15963726, 0.750000999999999],
        "properties": { "magmom": -0.0 },
        "label": "Re",
        "xyz": [1.326749007999267, 0.7659508789431636, 3.3119799659673945]
      },
      {
        "species": [{ "element": "Re", "occu": 1 }],
        "abc": [0.84035791, 0.68071556, 0.750000999999999],
        "properties": { "magmom": -0.0 },
        "label": "Re",
        "xyz": [2.7701670410092074, 3.266123111747303, 3.3119799659673945]
      },
      {
        "species": [{ "element": "Re", "occu": 1 }],
        "abc": [0.15963688, 0.84035213, 0.250001],
        "properties": { "magmom": 0.0 },
        "label": "Re",
        "xyz": [-1.4434758125290075, 4.032073840050767, 1.1039962659673996]
      },
      {
        "species": [{ "element": "Re", "occu": 1 }],
        "abc": [0.68071369, 0.84034925, 0.250001],
        "properties": { "magmom": -0.0 },
        "label": "Re",
        "xyz": [1.443472248478928, 4.032058374985885, 1.1039962659673996]
      },
      {
        "species": [{ "element": "Re", "occu": 1 }],
        "abc": [0.15964647, 0.31928908, 0.250001],
        "properties": { "magmom": -0.0 },
        "label": "Re",
        "xyz": [1.0142072867758145e-5, 1.531973131316786, 1.1039962659673996]
      },
      {
        "species": [{ "element": "Pd", "occu": 1 }],
        "abc": [0.66666872, 0.33333991, 0.250001],
        "properties": { "magmom": 0.0 },
        "label": "Pd",
        "xyz": [2.7701600776749427, 1.5993884953475024, 1.1039962659673996]
      },
      {
        "species": [{ "element": "Pd", "occu": 1 }],
        "abc": [0.33333604, 0.66667323, 0.750000999999999],
        "properties": { "magmom": 0.0 },
        "label": "Pd",
        "xyz": [-4.335703941205082e-6, 3.1987485313710757, 3.3119799659673945]
      }
    ]
  },
  "task_ids": null,
  "uncorrected_energy_per_atom": null,
  "energy_per_atom": -45.10552138625,
  "formation_energy_per_atom": -0.057446953124994,
  "energy_above_hull": 0.0,
  "is_stable": true,
  "equilibrium_reaction_energy_per_atom": null,
  "decomposes_to": null,
  "xas": null,
  "grain_boundaries": null,
  "band_gap": 0.0,
  "cbm": null,
  "vbm": null,
  "efermi": 7.40449088,
  "is_gap_direct": null,
  "is_metal": null,
  "es_source_calc_id": null,
  "bandstructure": null,
  "dos": null,
  "dos_energy_up": null,
  "dos_energy_down": null,
  "is_magnetic": null,
  "ordering": null,
  "total_magnetization": 0.0,
  "total_magnetization_normalized_vol": null,
  "total_magnetization_normalized_formula_units": null,
  "num_magnetic_sites": null,
  "num_unique_magnetic_sites": null,
  "types_of_magnetic_species": null,
  "bulk_modulus": null,
  "shear_modulus": null,
  "universal_anisotropy": null,
  "homogeneous_poisson": null,
  "e_total": null,
  "e_ionic": null,
  "e_electronic": null,
  "n": null,
  "e_ij_max": null,
  "weighted_surface_energy_EV_PER_ANG2": null,
  "weighted_surface_energy": null,
  "weighted_work_function": null,
  "surface_anisotropy": null,
  "shape_factor": null,
  "has_reconstructed": null,
  "possible_species": null,
  "has_props": null,
  "theoretical": null,
  "database_IDs": null,
  "fields_not_requested": [
    "builder_meta",
    "nsites",
    "elements",
    "nelements",
    "composition",
    "composition_reduced",
    "chemsys",
    "symmetry",
    "property_name",
    "deprecated",
    "deprecation_reasons",
    "last_updated",
    "origins",
    "warnings",
    "task_ids",
    "uncorrected_energy_per_atom",
    "equilibrium_reaction_energy_per_atom",
    "decomposes_to",
    "xas",
    "grain_boundaries",
    "cbm",
    "vbm",
    "is_gap_direct",
    "is_metal",
    "es_source_calc_id",
    "bandstructure",
    "dos",
    "dos_energy_up",
    "dos_energy_down",
    "is_magnetic",
    "ordering",
    "total_magnetization_normalized_vol",
    "total_magnetization_normalized_formula_units",
    "num_magnetic_sites",
    "num_unique_magnetic_sites",
    "types_of_magnetic_species",
    "bulk_modulus",
    "shear_modulus",
    "universal_anisotropy",
    "homogeneous_poisson",
    "e_total",
    "e_ionic",
    "e_electronic",
    "n",
    "e_ij_max",
    "weighted_surface_energy_EV_PER_ANG2",
    "weighted_surface_energy",
    "weighted_work_function",
    "surface_anisotropy",
    "shape_factor",
    "has_reconstructed",
    "possible_species",
    "has_props",
    "theoretical",
    "database_IDs"
  ]
}
