{
  "builder_meta": null,
  "nsites": null,
  "elements": null,
  "nelements": null,
  "composition": null,
  "composition_reduced": null,
  "formula_pretty": "Re3Ru",
  "formula_anonymous": "AB3",
  "chemsys": null,
  "volume": 57.93755096418461,
  "density": 18.90730034587746,
  "density_atomic": 14.484387741046152,
  "symmetry": null,
  "property_name": null,
  "material_id": "mp-974455",
  "deprecated": null,
  "deprecation_reasons": null,
  "last_updated": null,
  "origins": null,
  "warnings": null,
  "structure": {
    "@module": "pymatgen.core.structure",
    "@class": "Structure",
    "charge": 0,
    "lattice": {
      "matrix": [
        [-4.40876272, 1.3709397700000001, 2.39643162],
        [4.40876272, -1.3709397700000001, 2.39643162],
        [4.40876272, 1.3709397700000001, -2.39643162]
      ],
      "pbc": [true, true, true],
      "a": 5.201879379951565,
      "b": 5.201879379951565,
      "c": 5.201879379951565,
      "alpha": 64.11137092267072,
      "beta": 149.43873218283738,
      "gamma": 125.13726896771098,
      "volume": 57.93755096418462
    },
    "properties": {},
    "sites": [
      {
        "species": [{ "element": "Re", "occu": 1 }],
        "abc": [0.6718307, 0.1718327, 0.499998999999999],
        "properties": { "magmom": -0.0 },
        "label": "Re",
        "xyz": [4.408762715790715e-6, 1.3709356571806888, 0.82356823482833]
      },
      {
        "species": [{ "element": "Re", "occu": 1 }],
        "abc": [0.9982730200000001, 0.24995174, 0.25167672],
        "properties": { "magmom": 0.0 },
        "label": "Re",
        "xyz": [-2.1895880212188032, 1.3709370281204605, 2.3881592339050246]
      },
      {
        "species": [{ "element": "Re", "occu": 1 }],
        "abc": [0.9982730200000001, 0.74659431, 0.74832128],
        "properties": { "magmom": 0.0 },
        "label": "Re",
        "xyz": [2.18957924778099, 1.3709397562906027, 2.3881544650061013]
      },
      {
        "species": [{ "element": "Ru", "occu": 1 }],
        "abc": [0.66502225, 0.66502225, 0.0],
        "properties": { "magmom": 0.0 },
        "label": "Ru",
        "xyz": [0.0, 0.0, 3.18736069580709]
      }
    ]
  },
  "task_ids": null,
  "uncorrected_energy_per_atom": null,
  "energy_per_atom": -45.720211677500004,
  "formation_energy_per_atom": -0.056116823124995004,
  "energy_above_hull": 0.0,
  "is_stable": true,
  "equilibrium_reaction_energy_per_atom": null,
  "decomposes_to": null,
  "xas": null,
  "grain_boundaries": null,
  "band_gap": 0.0,
  "cbm": null,
  "vbm": null,
  "efermi": 7.6025635,
  "is_gap_direct": null,
  "is_metal": null,
  "es_source_calc_id": null,
  "bandstructure": null,
  "dos": null,
  "dos_energy_up": null,
  "dos_energy_down": null,
  "is_magnetic": null,
  "ordering": null,
  "total_magnetization": 0.0,
  "total_magnetization_normalized_vol": null,
  "total_magnetization_normalized_formula_units": null,
  "num_magnetic_sites": null,
  "num_unique_magnetic_sites": null,
  "types_of_magnetic_species": null,
  "bulk_modulus": null,
  "shear_modulus": null,
  "universal_anisotropy": null,
  "homogeneous_poisson": null,
  "e_total": null,
  "e_ionic": null,
  "e_electronic": null,
  "n": null,
  "e_ij_max": null,
  "weighted_surface_energy_EV_PER_ANG2": null,
  "weighted_surface_energy": null,
  "weighted_work_function": null,
  "surface_anisotropy": null,
  "shape_factor": null,
  "has_reconstructed": null,
  "possible_species": null,
  "has_props": null,
  "theoretical": null,
  "database_IDs": null,
  "fields_not_requested": [
    "builder_meta",
    "nsites",
    "elements",
    "nelements",
    "composition",
    "composition_reduced",
    "chemsys",
    "symmetry",
    "property_name",
    "deprecated",
    "deprecation_reasons",
    "last_updated",
    "origins",
    "warnings",
    "task_ids",
    "uncorrected_energy_per_atom",
    "equilibrium_reaction_energy_per_atom",
    "decomposes_to",
    "xas",
    "grain_boundaries",
    "cbm",
    "vbm",
    "is_gap_direct",
    "is_metal",
    "es_source_calc_id",
    "bandstructure",
    "dos",
    "dos_energy_up",
    "dos_energy_down",
    "is_magnetic",
    "ordering",
    "total_magnetization_normalized_vol",
    "total_magnetization_normalized_formula_units",
    "num_magnetic_sites",
    "num_unique_magnetic_sites",
    "types_of_magnetic_species",
    "bulk_modulus",
    "shear_modulus",
    "universal_anisotropy",
    "homogeneous_poisson",
    "e_total",
    "e_ionic",
    "e_electronic",
    "n",
    "e_ij_max",
    "weighted_surface_energy_EV_PER_ANG2",
    "weighted_surface_energy",
    "weighted_work_function",
    "surface_anisotropy",
    "shape_factor",
    "has_reconstructed",
    "possible_species",
    "has_props",
    "theoretical",
    "database_IDs"
  ]
}
