{
  "builder_meta": null,
  "nsites": null,
  "elements": null,
  "nelements": null,
  "composition": null,
  "composition_reduced": null,
  "formula_pretty": "Re3Rh",
  "formula_anonymous": "AB3",
  "chemsys": null,
  "volume": 115.94838756027485,
  "density": 18.947923640078617,
  "density_atomic": 14.493548445034357,
  "symmetry": null,
  "property_name": null,
  "material_id": "mp-1186923",
  "deprecated": null,
  "deprecation_reasons": null,
  "last_updated": null,
  "origins": null,
  "warnings": null,
  "structure": {
    "@module": "pymatgen.core.structure",
    "@class": "Structure",
    "charge": 0,
    "lattice": {
      "matrix": [
        [5.52559322, -1.95e-6, -1.091e-5],
        [-2.76279847, 4.78530963, 9.829999999999996e-6],
        [-1.5e-6, 1.719999999999999e-6, 4.38506311]
      ],
      "pbc": [true, true, true],
      "a": 5.525593220011115,
      "b": 5.525598939563177,
      "c": 4.385063110000594,
      "alpha": 89.999868808812,
      "beta": 90.00013272676809,
      "gamma": 120.00000824938627,
      "volume": 115.94838756027484
    },
    "properties": {},
    "sites": [
      {
        "species": [{ "element": "Re", "occu": 1 }],
        "abc": [0.1612316, 0.32246235, 0.25000837],
        "properties": { "magmom": -0.0 },
        "label": "Re",
        "xyz": [1.3735845926327578e-6, 1.5430823043802069, 1.0963038912463752]
      },
      {
        "species": [{ "element": "Re", "occu": 1 }],
        "abc": [0.67753635, 0.83876755, 0.25000797],
        "properties": { "magmom": 0.0 },
        "label": "Re",
        "xyz": [1.4264441830259436, 4.013761543164333, 1.0963015796164246]
      },
      {
        "species": [{ "element": "Re", "occu": 1 }],
        "abc": [0.16123276, 0.8387698100000001, 0.25001682000000003],
        "properties": { "magmom": -0.0 },
        "label": "Re",
        "xyz": [-1.4264456772775334, 4.01377336477132, 1.096346020319331]
      },
      {
        "species": [{ "element": "Re", "occu": 1 }],
        "abc": [0.8387694, 0.67753865, 0.74999163],
        "properties": { "magmom": -0.0 },
        "label": "Re",
        "xyz": [2.7627946392101577, 3.2422318809274735, 3.2887581387525446]
      },
      {
        "species": [{ "element": "Re", "occu": 1 }],
        "abc": [0.32246365, 0.16123145, 0.74999103],
        "properties": { "magmom": 0.0 },
        "label": "Re",
        "xyz": [1.3363518297740264, 0.7715430715243177, 3.288756065310635]
      },
      {
        "species": [{ "element": "Re", "occu": 1 }],
        "abc": [0.83876824, 0.16123019, 0.74998218],
        "properties": { "magmom": -0.0 },
        "label": "Re",
        "xyz": [4.189244452872254, 0.7715360352250114, 3.2887116246066492]
      },
      {
        "species": [{ "element": "Rh", "occu": 1 }],
        "abc": [0.333332199999999, 0.66666578, 0.75001596],
        "properties": { "magmom": 0.0 },
        "label": "Rh",
        "xyz": [-6.177681617806494e-6, 3.190202817055123, 3.2888702347775514]
      },
      {
        "species": [{ "element": "Rh", "occu": 1 }],
        "abc": [0.666667799999999, 0.33333422, 0.24998404000000002],
        "properties": { "magmom": 0.0 },
        "label": "Rh",
        "xyz": [2.7627994276816072, 1.5951065829448776, 1.0961917952224491]
      }
    ]
  },
  "task_ids": null,
  "uncorrected_energy_per_atom": null,
  "energy_per_atom": -45.506518585,
  "formation_energy_per_atom": -0.164500396874998,
  "energy_above_hull": 0.0,
  "is_stable": true,
  "equilibrium_reaction_energy_per_atom": null,
  "decomposes_to": null,
  "xas": null,
  "grain_boundaries": null,
  "band_gap": 0.0,
  "cbm": null,
  "vbm": null,
  "efermi": 7.40478223,
  "is_gap_direct": null,
  "is_metal": null,
  "es_source_calc_id": null,
  "bandstructure": null,
  "dos": null,
  "dos_energy_up": null,
  "dos_energy_down": null,
  "is_magnetic": null,
  "ordering": null,
  "total_magnetization": 3e-7,
  "total_magnetization_normalized_vol": null,
  "total_magnetization_normalized_formula_units": null,
  "num_magnetic_sites": null,
  "num_unique_magnetic_sites": null,
  "types_of_magnetic_species": null,
  "bulk_modulus": null,
  "shear_modulus": null,
  "universal_anisotropy": null,
  "homogeneous_poisson": null,
  "e_total": null,
  "e_ionic": null,
  "e_electronic": null,
  "n": null,
  "e_ij_max": null,
  "weighted_surface_energy_EV_PER_ANG2": null,
  "weighted_surface_energy": null,
  "weighted_work_function": null,
  "surface_anisotropy": null,
  "shape_factor": null,
  "has_reconstructed": null,
  "possible_species": null,
  "has_props": null,
  "theoretical": null,
  "database_IDs": null,
  "fields_not_requested": [
    "builder_meta",
    "nsites",
    "elements",
    "nelements",
    "composition",
    "composition_reduced",
    "chemsys",
    "symmetry",
    "property_name",
    "deprecated",
    "deprecation_reasons",
    "last_updated",
    "origins",
    "warnings",
    "task_ids",
    "uncorrected_energy_per_atom",
    "equilibrium_reaction_energy_per_atom",
    "decomposes_to",
    "xas",
    "grain_boundaries",
    "cbm",
    "vbm",
    "is_gap_direct",
    "is_metal",
    "es_source_calc_id",
    "bandstructure",
    "dos",
    "dos_energy_up",
    "dos_energy_down",
    "is_magnetic",
    "ordering",
    "total_magnetization_normalized_vol",
    "total_magnetization_normalized_formula_units",
    "num_magnetic_sites",
    "num_unique_magnetic_sites",
    "types_of_magnetic_species",
    "bulk_modulus",
    "shear_modulus",
    "universal_anisotropy",
    "homogeneous_poisson",
    "e_total",
    "e_ionic",
    "e_electronic",
    "n",
    "e_ij_max",
    "weighted_surface_energy_EV_PER_ANG2",
    "weighted_surface_energy",
    "weighted_work_function",
    "surface_anisotropy",
    "shape_factor",
    "has_reconstructed",
    "possible_species",
    "has_props",
    "theoretical",
    "database_IDs"
  ]
}
