{"builder_meta": null, "nsites": null, "elements": null, "nelements": null, "composition": null, "composition_reduced": null, "formula_pretty": "Re3Sn", "formula_anonymous": "AB3", "chemsys": null, "volume": 130.1443245618265, "density": 17.28442005144722, "density_atomic": 16.26804057022831, "symmetry": null, "property_name": null, "material_id": "mp-974426", "deprecated": null, "deprecation_reasons": null, "last_updated": null, "origins": null, "warnings": null, "structure": {"@module": "pymatgen.core.structure", "@class": "Structure", "charge": 0, "lattice": {"matrix": [[2.8636600000000003, -4.960005, 0.0], [2.8636600000000003, 4.960005, 0.0], [0.0, 0.0, 4.581331]], "pbc": [true, true, true], "a": 5.727320332897838, "b": 5.727320332897838, "c": 4.581331, "alpha": 90.0, "beta": 90.0, "gamma": 120.00000384548831, "volume": 130.1443245618265}, "properties": {}, "sites": [{"species": [{"element": "Re", "occu": 1}], "abc": [0.164364999999999, 0.328731, 0.25], "properties": {"magmom": -0.002}, "label": "Re", "xyz": [1.4120592913599972, 0.8152561818300047, 1.14533275]}, {"species": [{"element": "Re", "occu": 1}], "abc": [0.671269, 0.835635, 0.25], "properties": {"magmom": -0.002}, "label": "Re", "xyz": [4.31526070864, 0.8152561818299997, 1.14533275]}, {"species": [{"element": "Re", "occu": 1}], "abc": [0.164364999999999, 0.835635, 0.25], "properties": {"magmom": -0.002}, "label": "Re", "xyz": [2.8636599999999977, 3.3295025563500045, 1.14533275]}, {"species": [{"element": "Re", "occu": 1}], "abc": [0.835635, 0.671269, 0.75], "properties": {"magmom": 0.002}, "label": "Re", "xyz": [4.31526070864, -0.8152561818299997, 3.43599825]}, {"species": [{"element": "Re", "occu": 1}], "abc": [0.328731, 0.164364999999999, 0.75], "properties": {"magmom": 0.002}, "label": "Re", "xyz": [1.4120592913599972, -0.8152561818300047, 3.43599825]}, {"species": [{"element": "Re", "occu": 1}], "abc": [0.835635, 0.164364999999999, 0.75], "properties": {"magmom": 0.002}, "label": "Re", "xyz": [2.8636599999999977, -3.3295025563500045, 3.43599825]}, {"species": [{"element": "Sn", "occu": 1}], "abc": [0.333333, 0.666667, 0.75], "properties": {"magmom": 0.0}, "label": "Sn", "xyz": [2.8636600000000003, 1.65333830667, 3.43599825]}, {"species": [{"element": "Sn", "occu": 1}], "abc": [0.666667, 0.333333, 0.25], "properties": {"magmom": -0.0}, "label": "Sn", "xyz": [2.8636600000000003, -1.65333830667, 1.14533275]}]}, "task_ids": null, "uncorrected_energy_per_atom": null, "energy_per_atom": -44.945763390625, "formation_energy_per_atom": 0.5487435850000041, "energy_above_hull": 0.5487435850000041, "is_stable": false, "equilibrium_reaction_energy_per_atom": null, "decomposes_to": null, "xas": null, "grain_boundaries": null, "band_gap": 0.0, "cbm": null, "vbm": null, "efermi": 9.20968869, "is_gap_direct": null, "is_metal": null, "es_source_calc_id": null, "bandstructure": null, "dos": null, "dos_energy_up": null, "dos_energy_down": null, "is_magnetic": null, "ordering": null, "total_magnetization": 0.0009683, "total_magnetization_normalized_vol": null, "total_magnetization_normalized_formula_units": null, "num_magnetic_sites": null, "num_unique_magnetic_sites": null, "types_of_magnetic_species": null, "bulk_modulus": null, "shear_modulus": null, "universal_anisotropy": null, "homogeneous_poisson": null, "e_total": null, "e_ionic": null, "e_electronic": null, "n": null, "e_ij_max": null, "weighted_surface_energy_EV_PER_ANG2": null, "weighted_surface_energy": null, "weighted_work_function": null, "surface_anisotropy": null, "shape_factor": null, "has_reconstructed": null, "possible_species": null, "has_props": null, "theoretical": null, "database_IDs": null, "fields_not_requested": ["builder_meta", "nsites", "elements", "nelements", "composition", "composition_reduced", "chemsys", "symmetry", "property_name", "deprecated", "deprecation_reasons", "last_updated", "origins", "warnings", "task_ids", "uncorrected_energy_per_atom", "equilibrium_reaction_energy_per_atom", "decomposes_to", "xas", "grain_boundaries", "cbm", "vbm", "is_gap_direct", "is_metal", "es_source_calc_id", "bandstructure", "dos", "dos_energy_up", "dos_energy_down", "is_magnetic", "ordering", "total_magnetization_normalized_vol", "total_magnetization_normalized_formula_units", "num_magnetic_sites", "num_unique_magnetic_sites", "types_of_magnetic_species", "bulk_modulus", "shear_modulus", "universal_anisotropy", "homogeneous_poisson", "e_total", "e_ionic", "e_electronic", "n", "e_ij_max", "weighted_surface_energy_EV_PER_ANG2", "weighted_surface_energy", "weighted_work_function", "surface_anisotropy", "shape_factor", "has_reconstructed", "possible_species", "has_props", "theoretical", "database_IDs"]}