{"builder_meta": null, "nsites": null, "elements": null, "nelements": null, "composition": null, "composition_reduced": null, "formula_pretty": "Re3Si", "formula_anonymous": "AB3", "chemsys": null, "volume": 115.64120910826581, "density": 16.849513618731528, "density_atomic": 14.455151138533227, "symmetry": null, "property_name": null, "material_id": "mp-974425", "deprecated": null, "deprecation_reasons": null, "last_updated": null, "origins": null, "warnings": null, "structure": {"@module": "pymatgen.core.structure", "@class": "Structure", "charge": 0, "lattice": {"matrix": [[2.746144, -4.756461, 0.0], [2.746144, 4.756461, 0.0], [0.0, 0.0, 4.426652]], "pbc": [true, true, true], "a": 5.492288058109935, "b": 5.492288058109935, "c": 4.426652, "alpha": 90.0, "beta": 90.0, "gamma": 120.00000069998558, "volume": 115.64120910826581}, "properties": {}, "sites": [{"species": [{"element": "Re", "occu": 1}], "abc": [0.170289, 0.340578, 0.25], "properties": {"magmom": -0.0}, "label": "Re", "xyz": [1.402914346848, 0.8099729872289999, 1.106663]}, {"species": [{"element": "Re", "occu": 1}], "abc": [0.659422, 0.829711, 0.25], "properties": {"magmom": -0.0}, "label": "Re", "xyz": [4.089373653152, 0.809972987229, 1.106663]}, {"species": [{"element": "Re", "occu": 1}], "abc": [0.170289, 0.829711, 0.25], "properties": {"magmom": -0.0}, "label": "Re", "xyz": [2.746144, 3.136515025542, 1.106663]}, {"species": [{"element": "Re", "occu": 1}], "abc": [0.829711, 0.659422, 0.75], "properties": {"magmom": -0.0}, "label": "Re", "xyz": [4.089373653152, -0.809972987229, 3.3199889999999996]}, {"species": [{"element": "Re", "occu": 1}], "abc": [0.340578, 0.170289, 0.75], "properties": {"magmom": -0.0}, "label": "Re", "xyz": [1.402914346848, -0.8099729872289999, 3.3199889999999996]}, {"species": [{"element": "Re", "occu": 1}], "abc": [0.829711, 0.170289, 0.75], "properties": {"magmom": -0.0}, "label": "Re", "xyz": [2.746144, -3.136515025542, 3.3199889999999996]}, {"species": [{"element": "Si", "occu": 1}], "abc": [0.333333, 0.666667, 0.75], "properties": {"magmom": -0.0}, "label": "Si", "xyz": [2.746144, 1.5854901709740001, 3.3199889999999996]}, {"species": [{"element": "Si", "occu": 1}], "abc": [0.666667, 0.333333, 0.25], "properties": {"magmom": 0.001}, "label": "Si", "xyz": [2.746144, -1.5854901709740001, 1.106663]}]}, "task_ids": null, "uncorrected_energy_per_atom": null, "energy_per_atom": -10.527541325000001, "formation_energy_per_atom": 0.164873838124997, "energy_above_hull": 0.312760217589282, "is_stable": false, "equilibrium_reaction_energy_per_atom": null, "decomposes_to": null, "xas": null, "grain_boundaries": null, "band_gap": 0.0, "cbm": null, "vbm": null, "efermi": 8.82586112, "is_gap_direct": null, "is_metal": null, "es_source_calc_id": null, "bandstructure": null, "dos": null, "dos_energy_up": null, "dos_energy_down": null, "is_magnetic": null, "ordering": null, "total_magnetization": 0.0010136, "total_magnetization_normalized_vol": null, "total_magnetization_normalized_formula_units": null, "num_magnetic_sites": null, "num_unique_magnetic_sites": null, "types_of_magnetic_species": null, "bulk_modulus": null, "shear_modulus": null, "universal_anisotropy": null, "homogeneous_poisson": null, "e_total": null, "e_ionic": null, "e_electronic": null, "n": null, "e_ij_max": null, "weighted_surface_energy_EV_PER_ANG2": null, "weighted_surface_energy": null, "weighted_work_function": null, "surface_anisotropy": null, "shape_factor": null, "has_reconstructed": null, "possible_species": null, "has_props": null, "theoretical": null, "database_IDs": null, "fields_not_requested": ["builder_meta", "nsites", "elements", "nelements", "composition", "composition_reduced", "chemsys", "symmetry", "property_name", "deprecated", "deprecation_reasons", "last_updated", "origins", "warnings", "task_ids", "uncorrected_energy_per_atom", "equilibrium_reaction_energy_per_atom", "decomposes_to", "xas", "grain_boundaries", "cbm", "vbm", "is_gap_direct", "is_metal", "es_source_calc_id", "bandstructure", "dos", "dos_energy_up", "dos_energy_down", "is_magnetic", "ordering", "total_magnetization_normalized_vol", "total_magnetization_normalized_formula_units", "num_magnetic_sites", "num_unique_magnetic_sites", "types_of_magnetic_species", "bulk_modulus", "shear_modulus", "universal_anisotropy", "homogeneous_poisson", "e_total", "e_ionic", "e_electronic", "n", "e_ij_max", "weighted_surface_energy_EV_PER_ANG2", "weighted_surface_energy", "weighted_work_function", "surface_anisotropy", "shape_factor", "has_reconstructed", "possible_species", "has_props", "theoretical", "database_IDs"]}