{"builder_meta": null, "nsites": null, "elements": null, "nelements": null, "composition": null, "composition_reduced": null, "formula_pretty": "Re3Tc", "formula_anonymous": "AB3", "chemsys": null, "volume": 117.40196067416156, "density": 18.57455899695085, "density_atomic": 14.675245084270195, "symmetry": null, "property_name": null, "material_id": "mp-974411", "deprecated": null, "deprecation_reasons": null, "last_updated": null, "origins": null, "warnings": null, "structure": {"@module": "pymatgen.core.structure", "@class": "Structure", "charge": 0, "lattice": {"matrix": [[5.5139745399999995, -0.0, 0.0], [-2.756987269999999, 4.7752426, -0.0], [0.0, -0.0, 4.45877085]], "pbc": [true, true, true], "a": 5.5139745399999995, "b": 5.51397503583366, "c": 4.45877085, "alpha": 90.0, "beta": 90.0, "gamma": 119.99999702536824, "volume": 117.40196067416154}, "properties": {}, "sites": [{"species": [{"element": "Re", "occu": 1}], "abc": [0.16651956, 0.33304012, 0.25], "properties": {"magmom": 0.0}, "label": "Re", "xyz": [-2.7569872695920594e-06, 1.590347368533112, 1.1146927125]}, {"species": [{"element": "Re", "occu": 1}], "abc": [0.66695888, 0.8334794400000001, 0.25], "properties": {"magmom": 0.0}, "label": "Re", "xyz": [1.3797020776601867, 3.9800665281121446, 1.1146927125]}, {"species": [{"element": "Re", "occu": 1}], "abc": [0.16652056, 0.8334794400000001, 0.25], "properties": {"magmom": 0.0}, "label": "Re", "xyz": [-1.3797020776601858, 3.9800665281121446, 1.1146927125]}, {"species": [{"element": "Re", "occu": 1}], "abc": [0.83348144, 0.66695888, 0.750000999999999], "properties": {"magmom": 0.0}, "label": "Re", "xyz": [2.7569982979490804, 3.1848904562242883, 3.3440825962708454]}, {"species": [{"element": "Re", "occu": 1}], "abc": [0.33304212, 0.16651956, 0.750000999999999], "properties": {"magmom": 0.0}, "label": "Re", "xyz": [1.3772934633016236, 0.7951712966452561, 3.3440825962708454]}, {"species": [{"element": "Re", "occu": 1}], "abc": [0.83348044, 0.16651956, 0.750000999999999], "properties": {"magmom": 0.0}, "label": "Re", "xyz": [4.136697618621996, 0.7951712966452561, 3.3440825962708454]}, {"species": [{"element": "Tc", "occu": 1}], "abc": [0.333333, 0.666666, 0.750000999999999], "properties": {"magmom": -0.0}, "label": "Tc", "xyz": [6.661338147750939e-16, 3.1834918831716, 3.3440825962708454]}, {"species": [{"element": "Tc", "occu": 1}], "abc": [0.666667999999999, 0.333333, 0.25], "properties": {"magmom": -0.0}, "label": "Tc", "xyz": [2.756995540961805, 1.5917459415858, 1.1146927125]}]}, "task_ids": null, "uncorrected_energy_per_atom": null, "energy_per_atom": -45.79746581375, "formation_energy_per_atom": 0.0016607293749970001, "energy_above_hull": 0.005151392500003, "is_stable": false, "equilibrium_reaction_energy_per_atom": null, "decomposes_to": null, "xas": null, "grain_boundaries": null, "band_gap": 0.0, "cbm": null, "vbm": null, "efermi": 7.56232016, "is_gap_direct": null, "is_metal": null, "es_source_calc_id": null, "bandstructure": null, "dos": null, "dos_energy_up": null, "dos_energy_down": null, "is_magnetic": null, "ordering": null, "total_magnetization": 6e-07, "total_magnetization_normalized_vol": null, "total_magnetization_normalized_formula_units": null, "num_magnetic_sites": null, "num_unique_magnetic_sites": null, "types_of_magnetic_species": null, "bulk_modulus": null, "shear_modulus": null, "universal_anisotropy": null, "homogeneous_poisson": null, "e_total": null, "e_ionic": null, "e_electronic": null, "n": null, "e_ij_max": null, "weighted_surface_energy_EV_PER_ANG2": null, "weighted_surface_energy": null, "weighted_work_function": null, "surface_anisotropy": null, "shape_factor": null, "has_reconstructed": null, "possible_species": null, "has_props": null, "theoretical": null, "database_IDs": null, "fields_not_requested": ["builder_meta", "nsites", "elements", "nelements", "composition", "composition_reduced", "chemsys", "symmetry", "property_name", "deprecated", "deprecation_reasons", "last_updated", "origins", "warnings", "task_ids", "uncorrected_energy_per_atom", "equilibrium_reaction_energy_per_atom", "decomposes_to", "xas", "grain_boundaries", "cbm", "vbm", "is_gap_direct", "is_metal", "es_source_calc_id", "bandstructure", "dos", "dos_energy_up", "dos_energy_down", "is_magnetic", "ordering", "total_magnetization_normalized_vol", "total_magnetization_normalized_formula_units", "num_magnetic_sites", "num_unique_magnetic_sites", "types_of_magnetic_species", "bulk_modulus", "shear_modulus", "universal_anisotropy", "homogeneous_poisson", "e_total", "e_ionic", "e_electronic", "n", "e_ij_max", "weighted_surface_energy_EV_PER_ANG2", "weighted_surface_energy", "weighted_work_function", "surface_anisotropy", "shape_factor", "has_reconstructed", "possible_species", "has_props", "theoretical", "database_IDs"]}