{"builder_meta": null, "nsites": null, "elements": null, "nelements": null, "composition": null, "composition_reduced": null, "formula_pretty": "Re4Ge7", "formula_anonymous": "A4B7", "chemsys": null, "volume": 695.9052453686568, "density": 11.962357866004078, "density_atomic": 15.816028303833109, "symmetry": null, "property_name": null, "material_id": "mp-1201064", "deprecated": null, "deprecation_reasons": null, "last_updated": null, "origins": null, "warnings": null, "structure": {"@module": "pymatgen.core.structure", "@class": "Structure", "charge": 0, "lattice": {"matrix": [[6.023333, 0.0, 0.0], [0.0, 6.023333, 0.0], [0.0, 0.0, 19.181226]], "pbc": [true, true, true], "a": 6.023333, "b": 6.023333, "c": 19.181226, "alpha": 90.0, "beta": 90.0, "gamma": 90.0, "volume": 695.9052453686568}, "properties": {}, "sites": [{"species": [{"element": "Re", "occu": 1}], "abc": [0.0, 0.0, 0.25], "properties": {"magmom": 0.0}, "label": "Re", "xyz": [0.0, 0.0, 4.7953065]}, {"species": [{"element": "Re", "occu": 1}], "abc": [0.0, 0.0, 0.75], "properties": {"magmom": 0.0}, "label": "Re", "xyz": [0.0, 0.0, 14.3859195]}, {"species": [{"element": "Re", "occu": 1}], "abc": [0.0, 0.0, 0.5], "properties": {"magmom": 0.0}, "label": "Re", "xyz": [0.0, 0.0, 9.590613]}, {"species": [{"element": "Re", "occu": 1}], "abc": [0.0, 0.0, 0.0], "properties": {"magmom": 0.0}, "label": "Re", "xyz": [0.0, 0.0, 0.0]}, {"species": [{"element": "Re", "occu": 1}], "abc": [0.5, 0.5, 0.37003199999999903], "properties": {"magmom": 0.0}, "label": "Re", "xyz": [3.0116665, 3.0116665, 7.097667419231981]}, {"species": [{"element": "Re", "occu": 1}], "abc": [0.5, 0.5, 0.870031999999999], "properties": {"magmom": 0.0}, "label": "Re", "xyz": [3.0116665, 3.0116665, 16.68828041923198]}, {"species": [{"element": "Re", "occu": 1}], "abc": [0.5, 0.5, 0.629968], "properties": {"magmom": 0.0}, "label": "Re", "xyz": [3.0116665, 3.0116665, 12.083558580767999]}, {"species": [{"element": "Re", "occu": 1}], "abc": [0.5, 0.5, 0.129968], "properties": {"magmom": 0.0}, "label": "Re", "xyz": [3.0116665, 3.0116665, 2.4929455807679997]}, {"species": [{"element": "Re", "occu": 1}], "abc": [0.5, 0.0, 0.435562], "properties": {"magmom": -0.0}, "label": "Re", "xyz": [3.0116665, 0.0, 8.354613159011999]}, {"species": [{"element": "Re", "occu": 1}], "abc": [0.5, 0.0, 0.935562], "properties": {"magmom": -0.0}, "label": "Re", "xyz": [3.0116665, 0.0, 17.945226159011998]}, {"species": [{"element": "Re", "occu": 1}], "abc": [0.0, 0.5, 0.564438], "properties": {"magmom": -0.0}, "label": "Re", "xyz": [0.0, 3.0116665, 10.826612840988]}, {"species": [{"element": "Re", "occu": 1}], "abc": [0.0, 0.5, 0.064438], "properties": {"magmom": -0.0}, "label": "Re", "xyz": [0.0, 3.0116665, 1.2359998409879998]}, {"species": [{"element": "Re", "occu": 1}], "abc": [0.5, 0.0, 0.192577], "properties": {"magmom": -0.0}, "label": "Re", "xyz": [3.0116665, 0.0, 3.693862959402]}, {"species": [{"element": "Re", "occu": 1}], "abc": [0.5, 0.0, 0.692577], "properties": {"magmom": -0.0}, "label": "Re", "xyz": [3.0116665, 0.0, 13.284475959401998]}, {"species": [{"element": "Re", "occu": 1}], "abc": [0.0, 0.5, 0.807423], "properties": {"magmom": -0.0}, "label": "Re", "xyz": [0.0, 3.0116665, 15.487363040598]}, {"species": [{"element": "Re", "occu": 1}], "abc": [0.0, 0.5, 0.307423], "properties": {"magmom": -0.0}, "label": "Re", "xyz": [0.0, 3.0116665, 5.896750040598]}, {"species": [{"element": "Ge", "occu": 1}], "abc": [0.768269, 0.34904, 0.461582999999999], "properties": {"magmom": 0.0}, "label": "Ge", "xyz": [4.627540020577, 2.1023841503200003, 8.85372784075798]}, {"species": [{"element": "Ge", "occu": 1}], "abc": [0.231731, 0.6509600000000001, 0.461582999999999], "properties": {"magmom": 0.0}, "label": "Ge", "xyz": [1.395792979423, 3.9209488496800007, 8.85372784075798]}, {"species": [{"element": "Ge", "occu": 1}], "abc": [0.768269, 0.6509600000000001, 0.961583], "properties": {"magmom": 0.0}, "label": "Ge", "xyz": [4.627540020577, 3.9209488496800007, 18.444340840758]}, {"species": [{"element": "Ge", "occu": 1}], "abc": [0.231731, 0.34904, 0.961583], "properties": {"magmom": 0.0}, "label": "Ge", "xyz": [1.395792979423, 2.1023841503200003, 18.444340840758]}, {"species": [{"element": "Ge", "occu": 1}], "abc": [0.34904, 0.231731, 0.538416999999999], "properties": {"magmom": 0.0}, "label": "Ge", "xyz": [2.1023841503200003, 1.395792979423, 10.327498159241982]}, {"species": [{"element": "Ge", "occu": 1}], "abc": [0.6509600000000001, 0.768269, 0.538416999999999], "properties": {"magmom": 0.0}, "label": "Ge", "xyz": [3.9209488496800007, 4.627540020577, 10.327498159241982]}, {"species": [{"element": "Ge", "occu": 1}], "abc": [0.6509600000000001, 0.231731, 0.038417], "properties": {"magmom": 0.0}, "label": "Ge", "xyz": [3.9209488496800007, 1.395792979423, 0.7368851592419999]}, {"species": [{"element": "Ge", "occu": 1}], "abc": [0.34904, 0.768269, 0.038417], "properties": {"magmom": 0.0}, "label": "Ge", "xyz": [2.1023841503200003, 4.627540020577, 0.7368851592419999]}, {"species": [{"element": "Ge", "occu": 1}], "abc": [0.151516999999999, 0.199977, 0.387693], "properties": {"magmom": 0.0}, "label": "Ge", "xyz": [0.912637346160994, 1.204528063341, 7.436427051618]}, {"species": [{"element": "Ge", "occu": 1}], "abc": [0.848483, 0.800022999999999, 0.387693], "properties": {"magmom": 0.0}, "label": "Ge", "xyz": [5.110695653839, 4.818804936658994, 7.436427051618]}, {"species": [{"element": "Ge", "occu": 1}], "abc": [0.151516999999999, 0.800022999999999, 0.887693], "properties": {"magmom": 0.0}, "label": "Ge", "xyz": [0.912637346160994, 4.818804936658994, 17.027040051618]}, {"species": [{"element": "Ge", "occu": 1}], "abc": [0.848483, 0.199977, 0.887693], "properties": {"magmom": 0.0}, "label": "Ge", "xyz": [5.110695653839, 1.204528063341, 17.027040051618]}, {"species": [{"element": "Ge", "occu": 1}], "abc": [0.199977, 0.848483, 0.612306999999999], "properties": {"magmom": 0.0}, "label": "Ge", "xyz": [1.204528063341, 5.110695653839, 11.74479894838198]}, {"species": [{"element": "Ge", "occu": 1}], "abc": [0.800022999999999, 0.151516999999999, 0.612306999999999], "properties": {"magmom": 0.0}, "label": "Ge", "xyz": [4.818804936658994, 0.912637346160994, 11.74479894838198]}, {"species": [{"element": "Ge", "occu": 1}], "abc": [0.800022999999999, 0.848483, 0.112306999999999], "properties": {"magmom": 0.0}, "label": "Ge", "xyz": [4.818804936658994, 5.110695653839, 2.154185948381981]}, {"species": [{"element": "Ge", "occu": 1}], "abc": [0.199977, 0.151516999999999, 0.112306999999999], "properties": {"magmom": 0.0}, "label": "Ge", "xyz": [1.204528063341, 0.912637346160994, 2.154185948381981]}, {"species": [{"element": "Ge", "occu": 1}], "abc": [0.678002, 0.155400999999999, 0.317708], "properties": {"magmom": -0.0}, "label": "Ge", "xyz": [4.083831820666, 0.9360319715329941, 6.094028950007999]}, {"species": [{"element": "Ge", "occu": 1}], "abc": [0.321998, 0.844599, 0.317708], "properties": {"magmom": -0.0}, "label": "Ge", "xyz": [1.939501179334, 5.087301028467, 6.094028950007999]}, {"species": [{"element": "Ge", "occu": 1}], "abc": [0.678002, 0.844599, 0.817708], "properties": {"magmom": -0.0}, "label": "Ge", "xyz": [4.083831820666, 5.087301028467, 15.684641950007999]}, {"species": [{"element": "Ge", "occu": 1}], "abc": [0.321998, 0.155400999999999, 0.817708], "properties": {"magmom": -0.0}, "label": "Ge", "xyz": [1.939501179334, 0.9360319715329941, 15.684641950007999]}, {"species": [{"element": "Ge", "occu": 1}], "abc": [0.155400999999999, 0.321998, 0.682292], "properties": {"magmom": -0.0}, "label": "Ge", "xyz": [0.9360319715329941, 1.939501179334, 13.087197049992]}, {"species": [{"element": "Ge", "occu": 1}], "abc": [0.844599, 0.678002, 0.682292], "properties": {"magmom": -0.0}, "label": "Ge", "xyz": [5.087301028467, 4.083831820666, 13.087197049992]}, {"species": [{"element": "Ge", "occu": 1}], "abc": [0.844599, 0.321998, 0.182291999999999], "properties": {"magmom": -0.0}, "label": "Ge", "xyz": [5.087301028467, 1.939501179334, 3.4965840499919807]}, {"species": [{"element": "Ge", "occu": 1}], "abc": [0.155400999999999, 0.678002, 0.182291999999999], "properties": {"magmom": -0.0}, "label": "Ge", "xyz": [0.9360319715329941, 4.083831820666, 3.4965840499919807]}, {"species": [{"element": "Ge", "occu": 1}], "abc": [0.335933, 0.335933, 0.25], "properties": {"magmom": -0.0}, "label": "Ge", "xyz": [2.023436324689, 2.023436324689, 4.7953065]}, {"species": [{"element": "Ge", "occu": 1}], "abc": [0.664067, 0.664067, 0.25], "properties": {"magmom": -0.0}, "label": "Ge", "xyz": [3.9998966753109997, 3.9998966753109997, 4.7953065]}, {"species": [{"element": "Ge", "occu": 1}], "abc": [0.335933, 0.664067, 0.75], "properties": {"magmom": -0.0}, "label": "Ge", "xyz": [2.023436324689, 3.9998966753109997, 14.3859195]}, {"species": [{"element": "Ge", "occu": 1}], "abc": [0.664067, 0.335933, 0.75], "properties": {"magmom": -0.0}, "label": "Ge", "xyz": [3.9998966753109997, 2.023436324689, 14.3859195]}]}, "task_ids": null, "uncorrected_energy_per_atom": null, "energy_per_atom": -27.84577971113636, "formation_energy_per_atom": 0.040247733409097, "energy_above_hull": 0.040247733409096, "is_stable": false, "equilibrium_reaction_energy_per_atom": null, "decomposes_to": null, "xas": null, "grain_boundaries": null, "band_gap": 0.6991, "cbm": null, "vbm": null, "efermi": 6.28640266, "is_gap_direct": null, "is_metal": null, "es_source_calc_id": null, "bandstructure": null, "dos": null, "dos_energy_up": null, "dos_energy_down": null, "is_magnetic": null, "ordering": null, "total_magnetization": 0.0003023, "total_magnetization_normalized_vol": null, "total_magnetization_normalized_formula_units": null, "num_magnetic_sites": null, "num_unique_magnetic_sites": null, "types_of_magnetic_species": null, "bulk_modulus": null, "shear_modulus": null, "universal_anisotropy": null, "homogeneous_poisson": null, "e_total": null, "e_ionic": null, "e_electronic": null, "n": null, "e_ij_max": null, "weighted_surface_energy_EV_PER_ANG2": null, "weighted_surface_energy": null, "weighted_work_function": null, "surface_anisotropy": null, "shape_factor": null, "has_reconstructed": null, "possible_species": null, "has_props": null, "theoretical": null, "database_IDs": null, "fields_not_requested": ["builder_meta", "nsites", "elements", "nelements", "composition", "composition_reduced", "chemsys", "symmetry", "property_name", "deprecated", "deprecation_reasons", "last_updated", "origins", "warnings", "task_ids", "uncorrected_energy_per_atom", "equilibrium_reaction_energy_per_atom", "decomposes_to", "xas", "grain_boundaries", "cbm", "vbm", "is_gap_direct", "is_metal", "es_source_calc_id", "bandstructure", "dos", "dos_energy_up", "dos_energy_down", "is_magnetic", "ordering", "total_magnetization_normalized_vol", "total_magnetization_normalized_formula_units", "num_magnetic_sites", "num_unique_magnetic_sites", "types_of_magnetic_species", "bulk_modulus", "shear_modulus", "universal_anisotropy", "homogeneous_poisson", "e_total", "e_ionic", "e_electronic", "n", "e_ij_max", "weighted_surface_energy_EV_PER_ANG2", "weighted_surface_energy", "weighted_work_function", "surface_anisotropy", "shape_factor", "has_reconstructed", "possible_species", "has_props", "theoretical", "database_IDs"]}