{"builder_meta": null, "nsites": null, "elements": null, "nelements": null, "composition": null, "composition_reduced": null, "formula_pretty": "Re4Si7", "formula_anonymous": "A4B7", "chemsys": null, "volume": 306.6702489308976, "density": 10.195155787249252, "density_atomic": 13.939556769586256, "symmetry": null, "property_name": null, "material_id": "mp-1190581", "deprecated": null, "deprecation_reasons": null, "last_updated": null, "origins": null, "warnings": null, "structure": {"@module": "pymatgen.core.structure", "@class": "Structure", "charge": 0, "lattice": {"matrix": [[0.0, 3.1589, 0.0], [0.415481, 0.0, -8.333422], [-11.649637, -1.57945, 0.0]], "pbc": [true, true, true], "a": 3.1589, "b": 8.343772929043851, "c": 11.756219823321993, "alpha": 92.82834520432144, "beta": 97.72104440941916, "gamma": 90.0, "volume": 306.6702489308976}, "properties": {}, "sites": [{"species": [{"element": "Re", "occu": 1}], "abc": [0.14910299999999901, 0.588715, 0.298205999999999], "properties": {"magmom": -0.002}, "label": "Re", "xyz": [-3.2293917543069885, -1.609823385706477e-15, -4.90601053273]}, {"species": [{"element": "Re", "occu": 1}], "abc": [0.274281, 0.479875999999999, 0.548562], "properties": {"magmom": -0.004}, "label": "Re", "xyz": [-6.191168811638001, 0.0, -3.9990092156719923]}, {"species": [{"element": "Re", "occu": 1}], "abc": [0.398329, 0.366614, 0.796657], "properties": {"magmom": -0.001}, "label": "Re", "xyz": [-9.128443712174999, 1.5794500001220513e-06, -3.055149173108]}, {"species": [{"element": "Re", "occu": 1}], "abc": [0.522842, 0.223691, 0.045683999999999], "properties": {"magmom": -0.005}, "label": "Re", "xyz": [-0.4392626563369884, 1.5794500000000016, -1.8641115006020001]}, {"species": [{"element": "Re", "occu": 1}], "abc": [0.652366, 0.109696, 0.304732], "properties": {"magmom": -0.002}, "label": "Re", "xyz": [-3.5044405785080004, 1.57945, -0.914143059712]}, {"species": [{"element": "Re", "occu": 1}], "abc": [0.768563999999999, 0.969969, 0.537129], "properties": {"magmom": -0.003}, "label": "Re", "xyz": [-5.854354182083999, 1.5794484205499968, -8.083161003918]}, {"species": [{"element": "Re", "occu": 1}], "abc": [0.898463, 0.850088, 0.796925999999999], "properties": {"magmom": -0.003}, "label": "Re", "xyz": [-8.930703203533989, 1.5794500000000016, -7.084142041136]}, {"species": [{"element": "Re", "occu": 1}], "abc": [0.023764999999999002, 0.715986, 0.047531], "properties": {"magmom": -0.002}, "label": "Re", "xyz": [-0.25624031698099997, -1.579450003147409e-06, -5.966613484092001]}, {"species": [{"element": "Si", "occu": 1}], "abc": [0.182967, 0.889461, 0.365935], "properties": {"magmom": 0.0}, "label": "Si", "xyz": [-3.893455769854, -1.579450000011029e-06, -7.412253865542]}, {"species": [{"element": "Si", "occu": 1}], "abc": [0.316279, 0.788114, 0.632556999999999], "properties": {"magmom": 0.0}, "label": "Si", "xyz": [-7.0416130389749885, 1.579450001454319e-06, -6.567686546108]}, {"species": [{"element": "Si", "occu": 1}], "abc": [0.441997, 0.655227999999999, 0.883994], "properties": {"magmom": 0.0}, "label": "Si", "xyz": [-10.02597442551, 0.0, -5.460291430215992]}, {"species": [{"element": "Si", "occu": 1}], "abc": [0.567704, 0.523632, 0.135409], "properties": {"magmom": 0.0}, "label": "Si", "xyz": [-1.359906549541, 1.57944842055, -4.363646428704]}, {"species": [{"element": "Si", "occu": 1}], "abc": [0.690199, 0.394451, 0.380397], "properties": {"magmom": 0.0}, "label": "Si", "xyz": [-4.267600069957999, 1.57945157945, -3.287126641322]}, {"species": [{"element": "Si", "occu": 1}], "abc": [0.826546, 0.234946, 0.653091], "properties": {"magmom": 0.0}, "label": "Si", "xyz": [-7.510657478941, 1.57945157945, -1.957904165212]}, {"species": [{"element": "Si", "occu": 1}], "abc": [0.995636, 0.00023099999999900002, 0.9912709999999991], "properties": {"magmom": 0.0}, "label": "Si", "xyz": [-11.54785134251599, 1.5794515794500015, -0.0019250204819916668]}, {"species": [{"element": "Si", "occu": 1}], "abc": [0.104901, 0.29412000000000005, 0.209801], "properties": {"magmom": 0.0}, "label": "Si", "xyz": [-2.321904220517, 1.579450000011029e-06, -2.4510260786400004]}, {"species": [{"element": "Si", "occu": 1}], "abc": [0.234743999999999, 0.184223, 0.469487], "properties": {"magmom": 0.0}, "label": "Si", "xyz": [-5.392811969956, 1.5794499969024045e-06, -1.535208001106]}, {"species": [{"element": "Si", "occu": 1}], "abc": [0.730073, 0.684763999999999, 0.460147], "properties": {"magmom": 0.0}, "label": "Si", "xyz": [-5.076039085155001, 1.5794484205500001, -5.706427382407992]}, {"species": [{"element": "Si", "occu": 1}], "abc": [0.855522999999999, 0.560365, 0.711046], "properties": {"magmom": 0.0}, "label": "Si", "xyz": [-8.050606779736999, 1.5794499999999971, -4.6697580190300005]}, {"species": [{"element": "Si", "occu": 1}], "abc": [0.980862999999999, 0.421546, 0.961726], "properties": {"magmom": 0.0}, "label": "Si", "xyz": [-11.028614439836002, 1.579449999999997, -3.512920710412]}, {"species": [{"element": "Si", "occu": 1}], "abc": [0.578446, 0.896825, 0.156892], "properties": {"magmom": 0.0}, "label": "Si", "xyz": [-1.455121100379, 1.57945, -7.473621185150001]}, {"species": [{"element": "Si", "occu": 1}], "abc": [0.414279, 0.080855, 0.828558], "properties": {"magmom": 0.0}, "label": "Si", "xyz": [-9.618806217191, 0.0, -0.67379883581]}]}, "task_ids": null, "uncorrected_energy_per_atom": null, "energy_per_atom": -8.355500151363636, "formation_energy_per_atom": -0.37643805681818204, "energy_above_hull": 0.0, "is_stable": true, "equilibrium_reaction_energy_per_atom": null, "decomposes_to": null, "xas": null, "grain_boundaries": null, "band_gap": 0.050300000000000004, "cbm": null, "vbm": null, "efermi": 9.75421994, "is_gap_direct": null, "is_metal": null, "es_source_calc_id": null, "bandstructure": null, "dos": null, "dos_energy_up": null, "dos_energy_down": null, "is_magnetic": null, "ordering": null, "total_magnetization": 0.109084599999999, "total_magnetization_normalized_vol": null, "total_magnetization_normalized_formula_units": null, "num_magnetic_sites": null, "num_unique_magnetic_sites": null, "types_of_magnetic_species": null, "bulk_modulus": null, "shear_modulus": null, "universal_anisotropy": null, "homogeneous_poisson": null, "e_total": null, "e_ionic": null, "e_electronic": null, "n": null, "e_ij_max": null, "weighted_surface_energy_EV_PER_ANG2": null, "weighted_surface_energy": null, "weighted_work_function": null, "surface_anisotropy": null, "shape_factor": null, "has_reconstructed": null, "possible_species": null, "has_props": null, "theoretical": null, "database_IDs": null, "fields_not_requested": ["builder_meta", "nsites", "elements", "nelements", "composition", "composition_reduced", "chemsys", "symmetry", "property_name", "deprecated", "deprecation_reasons", "last_updated", "origins", "warnings", "task_ids", "uncorrected_energy_per_atom", "equilibrium_reaction_energy_per_atom", "decomposes_to", "xas", "grain_boundaries", "cbm", "vbm", "is_gap_direct", "is_metal", "es_source_calc_id", "bandstructure", "dos", "dos_energy_up", "dos_energy_down", "is_magnetic", "ordering", "total_magnetization_normalized_vol", "total_magnetization_normalized_formula_units", "num_magnetic_sites", "num_unique_magnetic_sites", "types_of_magnetic_species", "bulk_modulus", "shear_modulus", "universal_anisotropy", "homogeneous_poisson", "e_total", "e_ionic", "e_electronic", "n", "e_ij_max", "weighted_surface_energy_EV_PER_ANG2", "weighted_surface_energy", "weighted_work_function", "surface_anisotropy", "shape_factor", "has_reconstructed", "possible_species", "has_props", "theoretical", "database_IDs"]}