{
  "builder_meta": null,
  "nsites": null,
  "elements": null,
  "nelements": null,
  "composition": null,
  "composition_reduced": null,
  "formula_pretty": "Re5Si3",
  "formula_anonymous": "A3B5",
  "chemsys": null,
  "volume": 221.90231645190823,
  "density": 15.195255522285608,
  "density_atomic": 13.868894778244265,
  "symmetry": null,
  "property_name": null,
  "material_id": "mp-1105959",
  "deprecated": null,
  "deprecation_reasons": null,
  "last_updated": null,
  "origins": null,
  "warnings": null,
  "structure": {
    "@module": "pymatgen.core.structure",
    "@class": "Structure",
    "charge": 0,
    "lattice": {
      "matrix": [
        [0.0, 0.0, 4.954043],
        [-4.73245, 4.73245, 2.477021],
        [-4.73245, -4.73245, 2.477021]
      ],
      "pbc": [true, true, true],
      "a": 4.954043,
      "b": 7.136371559794305,
      "c": 7.136371559794305,
      "alpha": 83.08036240435929,
      "beta": 69.69007576219704,
      "gamma": 69.69007576219704,
      "volume": 221.90231645190823
    },
    "properties": {},
    "sites": [
      {
        "species": [{ "element": "Re", "occu": 1 }],
        "abc": [0.723464999999999, 0.849737, 0.703333],
        "properties": { "magmom": 0.0 },
        "label": "Re",
        "xyz": [-7.3498261215, 0.6928496097999997, 7.431063723464995]
      },
      {
        "species": [{ "element": "Re", "occu": 1 }],
        "abc": [0.276535, 0.150262999999999, 0.296667],
        "properties": { "magmom": 0.0 },
        "label": "Re",
        "xyz": [-2.115073878499995, -0.6928496098000048, 2.4770212765349977]
      },
      {
        "species": [{ "element": "Re", "occu": 1 }],
        "abc": [0.776535, 0.296667, 0.150262999999999],
        "properties": { "magmom": 0.0 },
        "label": "Re",
        "xyz": [-2.115073878499995, 0.6928496098000048, 4.9540427765349975]
      },
      {
        "species": [{ "element": "Re", "occu": 1 }],
        "abc": [0.223465, 0.703333, 0.849737],
        "properties": { "magmom": 0.0 },
        "label": "Re",
        "xyz": [-7.3498261215, -0.6928496097999997, 4.954042223465]
      },
      {
        "species": [{ "element": "Re", "occu": 1 }],
        "abc": [0.573202, 0.703333, 0.150262999999999],
        "properties": { "magmom": 0.0 },
        "label": "Re",
        "xyz": [-4.039600390199995, 2.617376121500005, 4.954042573201997]
      },
      {
        "species": [{ "element": "Re", "occu": 1 }],
        "abc": [0.426797999999999, 0.296667, 0.849737],
        "properties": { "magmom": 0.0 },
        "label": "Re",
        "xyz": [-5.4252996098, -2.6173761214999995, 4.9540424267979954]
      },
      {
        "species": [{ "element": "Re", "occu": 1 }],
        "abc": [0.073202, 0.150262999999999, 0.703333],
        "properties": { "magmom": 0.0 },
        "label": "Re",
        "xyz": [-4.039600390199995, -2.617376121500005, 2.4770210732019975]
      },
      {
        "species": [{ "element": "Re", "occu": 1 }],
        "abc": [0.926798, 0.849737, 0.296667],
        "properties": { "magmom": 0.0 },
        "label": "Re",
        "xyz": [-5.4252996098, 2.6173761214999995, 7.431063926798]
      },
      {
        "species": [{ "element": "Re", "occu": 1 }],
        "abc": [0.75, 0.5, 0.5],
        "properties": { "magmom": 0.0 },
        "label": "Re",
        "xyz": [-4.73245, 0.0, 6.1925532500000005]
      },
      {
        "species": [{ "element": "Re", "occu": 1 }],
        "abc": [0.25, 0.5, 0.5],
        "properties": { "magmom": 0.0 },
        "label": "Re",
        "xyz": [-4.73245, 0.0, 3.7155317500000002]
      },
      {
        "species": [{ "element": "Si", "occu": 1 }],
        "abc": [0.170587, 0.5, 0.158826],
        "properties": { "magmom": -0.0 },
        "label": "Si",
        "xyz": [-3.1178611037, 1.6145888963, 2.477021170587]
      },
      {
        "species": [{ "element": "Si", "occu": 1 }],
        "abc": [0.829413, 0.5, 0.841174],
        "properties": { "magmom": -0.0 },
        "label": "Si",
        "xyz": [-6.3470388963, -1.6145888963, 7.4310638294130005]
      },
      {
        "species": [{ "element": "Si", "occu": 1 }],
        "abc": [0.329413, 0.841174, 0.5],
        "properties": { "magmom": -0.0 },
        "label": "Si",
        "xyz": [-6.3470388963, 1.6145888963, 4.954042329413]
      },
      {
        "species": [{ "element": "Si", "occu": 1 }],
        "abc": [0.670586999999999, 0.158826, 0.5],
        "properties": { "magmom": -0.0 },
        "label": "Si",
        "xyz": [-3.1178611037, -1.6145888963, 4.954042670586996]
      },
      {
        "species": [{ "element": "Si", "occu": 1 }],
        "abc": [0.25, 0.0, 0.0],
        "properties": { "magmom": -0.0 },
        "label": "Si",
        "xyz": [0.0, 0.0, 1.23851075]
      },
      {
        "species": [{ "element": "Si", "occu": 1 }],
        "abc": [0.75, 0.0, 0.0],
        "properties": { "magmom": -0.0 },
        "label": "Si",
        "xyz": [0.0, 0.0, 3.7155322500000003]
      }
    ]
  },
  "task_ids": null,
  "uncorrected_energy_per_atom": null,
  "energy_per_atom": -9.878093561250001,
  "formation_energy_per_atom": -0.063527920312502,
  "energy_above_hull": 0.158301648883925,
  "is_stable": false,
  "equilibrium_reaction_energy_per_atom": null,
  "decomposes_to": null,
  "xas": null,
  "grain_boundaries": null,
  "band_gap": 0.0,
  "cbm": null,
  "vbm": null,
  "efermi": 9.51817687,
  "is_gap_direct": null,
  "is_metal": null,
  "es_source_calc_id": null,
  "bandstructure": null,
  "dos": null,
  "dos_energy_up": null,
  "dos_energy_down": null,
  "is_magnetic": null,
  "ordering": null,
  "total_magnetization": 0.0022737,
  "total_magnetization_normalized_vol": null,
  "total_magnetization_normalized_formula_units": null,
  "num_magnetic_sites": null,
  "num_unique_magnetic_sites": null,
  "types_of_magnetic_species": null,
  "bulk_modulus": null,
  "shear_modulus": null,
  "universal_anisotropy": null,
  "homogeneous_poisson": null,
  "e_total": null,
  "e_ionic": null,
  "e_electronic": null,
  "n": null,
  "e_ij_max": null,
  "weighted_surface_energy_EV_PER_ANG2": null,
  "weighted_surface_energy": null,
  "weighted_work_function": null,
  "surface_anisotropy": null,
  "shape_factor": null,
  "has_reconstructed": null,
  "possible_species": null,
  "has_props": null,
  "theoretical": null,
  "database_IDs": null,
  "fields_not_requested": [
    "builder_meta",
    "nsites",
    "elements",
    "nelements",
    "composition",
    "composition_reduced",
    "chemsys",
    "symmetry",
    "property_name",
    "deprecated",
    "deprecation_reasons",
    "last_updated",
    "origins",
    "warnings",
    "task_ids",
    "uncorrected_energy_per_atom",
    "equilibrium_reaction_energy_per_atom",
    "decomposes_to",
    "xas",
    "grain_boundaries",
    "cbm",
    "vbm",
    "is_gap_direct",
    "is_metal",
    "es_source_calc_id",
    "bandstructure",
    "dos",
    "dos_energy_up",
    "dos_energy_down",
    "is_magnetic",
    "ordering",
    "total_magnetization_normalized_vol",
    "total_magnetization_normalized_formula_units",
    "num_magnetic_sites",
    "num_unique_magnetic_sites",
    "types_of_magnetic_species",
    "bulk_modulus",
    "shear_modulus",
    "universal_anisotropy",
    "homogeneous_poisson",
    "e_total",
    "e_ionic",
    "e_electronic",
    "n",
    "e_ij_max",
    "weighted_surface_energy_EV_PER_ANG2",
    "weighted_surface_energy",
    "weighted_work_function",
    "surface_anisotropy",
    "shape_factor",
    "has_reconstructed",
    "possible_species",
    "has_props",
    "theoretical",
    "database_IDs"
  ]
}
