{"builder_meta": null, "nsites": null, "elements": null, "nelements": null, "composition": null, "composition_reduced": null, "formula_pretty": "Re7B3", "formula_anonymous": "A3B7", "chemsys": null, "volume": 239.77179930442958, "density": 18.50329568200192, "density_atomic": 11.988589965221479, "symmetry": null, "property_name": null, "material_id": "mp-1106180", "deprecated": null, "deprecation_reasons": null, "last_updated": null, "origins": null, "warnings": null, "structure": {"@module": "pymatgen.core.structure", "@class": "Structure", "charge": 0, "lattice": {"matrix": [[3.76055296, -6.51346921, -0.0], [3.76055296, 6.51346921, -0.0], [-0.0, 0.0, 4.89445154]], "pbc": [true, true, true], "a": 7.521106282627762, "b": 7.521106282627762, "c": 4.89445154, "alpha": 90.0, "beta": 90.0, "gamma": 120.0000031898578, "volume": 239.77179930442958}, "properties": {}, "sites": [{"species": [{"element": "Re", "occu": 1}], "abc": [0.666667, 0.333333, 0.58400883], "properties": {"magmom": -0.0}, "label": "Re", "xyz": [3.76055296, -2.1711607456461404, 2.8584029173670986]}, {"species": [{"element": "Re", "occu": 1}], "abc": [0.333333, 0.666667, 0.08400883], "properties": {"magmom": -0.0}, "label": "Re", "xyz": [3.76055296, 2.1711607456461404, 0.41117714736709826]}, {"species": [{"element": "Re", "occu": 1}], "abc": [0.87718799, 0.75437498, 0.75225498], "properties": {"magmom": -0.0}, "label": "Re", "xyz": [6.1355789562598915, -0.7999387592224227, 3.6818755453336696]}, {"species": [{"element": "Re", "occu": 1}], "abc": [0.24562502, 0.12281201, 0.75225498], "properties": {"magmom": -0.0}, "label": "Re", "xyz": [1.3855269637401089, -0.7999387592224221, 3.6818755453336696]}, {"species": [{"element": "Re", "occu": 1}], "abc": [0.87718799, 0.12281201, 0.75225498], "properties": {"magmom": -0.0}, "label": "Re", "xyz": [3.76055296, -4.913604718493577, 3.6818755453336696]}, {"species": [{"element": "Re", "occu": 1}], "abc": [0.12281201, 0.24562502, 0.25225498], "properties": {"magmom": -0.0}, "label": "Re", "xyz": [1.3855269637401089, 0.7999387592224221, 1.2346497753336694]}, {"species": [{"element": "Re", "occu": 1}], "abc": [0.75437498, 0.87718799, 0.25225498], "properties": {"magmom": -0.0}, "label": "Re", "xyz": [6.1355789562598915, 0.7999387592224227, 1.2346497753336694]}, {"species": [{"element": "Re", "occu": 1}], "abc": [0.12281201, 0.87718799, 0.25225498], "properties": {"magmom": -0.0}, "label": "Re", "xyz": [3.76055296, 4.913604718493577, 1.2346497753336694]}, {"species": [{"element": "Re", "occu": 1}], "abc": [0.45411726, 0.90823551, 0.54986287], "properties": {"magmom": 0.0}, "label": "Re", "xyz": [5.123199741787699, 2.957885239074083, 2.69127717086032]}, {"species": [{"element": "Re", "occu": 1}], "abc": [0.09176449, 0.54588274, 0.54986287], "properties": {"magmom": 0.0}, "label": "Re", "xyz": [2.3979061782123012, 2.957885239074083, 2.69127717086032]}, {"species": [{"element": "Re", "occu": 1}], "abc": [0.45411726, 0.54588274, 0.54986287], "properties": {"magmom": 0.0}, "label": "Re", "xyz": [3.7605529600000005, 0.5977116285208708, 2.69127717086032]}, {"species": [{"element": "Re", "occu": 1}], "abc": [0.54588274, 0.09176449, 0.049862870000000004], "properties": {"magmom": 0.0}, "label": "Re", "xyz": [2.3979061782123012, -2.957885239074083, 0.24405140086031984]}, {"species": [{"element": "Re", "occu": 1}], "abc": [0.90823551, 0.45411726, 0.049862870000000004], "properties": {"magmom": 0.0}, "label": "Re", "xyz": [5.123199741787699, -2.957885239074083, 0.24405140086031984]}, {"species": [{"element": "Re", "occu": 1}], "abc": [0.54588274, 0.45411726, 0.049862870000000004], "properties": {"magmom": 0.0}, "label": "Re", "xyz": [3.7605529600000005, -0.5977116285208708, 0.24405140086031984]}, {"species": [{"element": "B", "occu": 1}], "abc": [0.18938329, 0.37876558, 0.84053987], "properties": {"magmom": 0.0}, "label": "B", "xyz": [2.1365539147991552, 1.2335357148342907, 4.1139816611529]}, {"species": [{"element": "B", "occu": 1}], "abc": [0.6212344200000001, 0.81061671, 0.84053987], "properties": {"magmom": 0.0}, "label": "B", "xyz": [5.384552005200845, 1.2335357148342911, 4.1139816611529]}, {"species": [{"element": "B", "occu": 1}], "abc": [0.18938329, 0.81061671, 0.84053987], "properties": {"magmom": 0.0}, "label": "B", "xyz": [3.76055296, 4.046384753392999, 4.1139816611529]}, {"species": [{"element": "B", "occu": 1}], "abc": [0.81061671, 0.6212344200000001, 0.34053987], "properties": {"magmom": 0.0}, "label": "B", "xyz": [5.384552005200845, -1.2335357148342911, 1.6667558911529001]}, {"species": [{"element": "B", "occu": 1}], "abc": [0.37876558, 0.18938329, 0.34053987], "properties": {"magmom": 0.0}, "label": "B", "xyz": [2.1365539147991552, -1.2335357148342907, 1.6667558911529001]}, {"species": [{"element": "B", "occu": 1}], "abc": [0.81061671, 0.18938329, 0.34053987], "properties": {"magmom": 0.0}, "label": "B", "xyz": [3.76055296, -4.046384753392999, 1.6667558911529001]}]}, "task_ids": null, "uncorrected_energy_per_atom": null, "energy_per_atom": -39.123876329, "formation_energy_per_atom": -0.23253977450000302, "energy_above_hull": 0.008654345300001, "is_stable": false, "equilibrium_reaction_energy_per_atom": null, "decomposes_to": null, "xas": null, "grain_boundaries": null, "band_gap": 0.0, "cbm": null, "vbm": null, "efermi": 8.21885379, "is_gap_direct": null, "is_metal": null, "es_source_calc_id": null, "bandstructure": null, "dos": null, "dos_energy_up": null, "dos_energy_down": null, "is_magnetic": null, "ordering": null, "total_magnetization": 1e-07, "total_magnetization_normalized_vol": null, "total_magnetization_normalized_formula_units": null, "num_magnetic_sites": null, "num_unique_magnetic_sites": null, "types_of_magnetic_species": null, "bulk_modulus": null, "shear_modulus": null, "universal_anisotropy": null, "homogeneous_poisson": null, "e_total": null, "e_ionic": null, "e_electronic": null, "n": null, "e_ij_max": null, "weighted_surface_energy_EV_PER_ANG2": null, "weighted_surface_energy": null, "weighted_work_function": null, "surface_anisotropy": null, "shape_factor": null, "has_reconstructed": null, "possible_species": null, "has_props": null, "theoretical": null, "database_IDs": null, "fields_not_requested": ["builder_meta", "nsites", "elements", "nelements", "composition", "composition_reduced", "chemsys", "symmetry", "property_name", "deprecated", "deprecation_reasons", "last_updated", "origins", "warnings", "task_ids", "uncorrected_energy_per_atom", "equilibrium_reaction_energy_per_atom", "decomposes_to", "xas", "grain_boundaries", "cbm", "vbm", "is_gap_direct", "is_metal", "es_source_calc_id", "bandstructure", "dos", "dos_energy_up", "dos_energy_down", "is_magnetic", "ordering", "total_magnetization_normalized_vol", "total_magnetization_normalized_formula_units", "num_magnetic_sites", "num_unique_magnetic_sites", "types_of_magnetic_species", "bulk_modulus", "shear_modulus", "universal_anisotropy", "homogeneous_poisson", "e_total", "e_ionic", "e_electronic", "n", "e_ij_max", "weighted_surface_energy_EV_PER_ANG2", "weighted_surface_energy", "weighted_work_function", "surface_anisotropy", "shape_factor", "has_reconstructed", "possible_species", "has_props", "theoretical", "database_IDs"]}