{
  "builder_meta": null,
  "nsites": null,
  "elements": null,
  "nelements": null,
  "composition": null,
  "composition_reduced": null,
  "formula_pretty": "ReAg3",
  "formula_anonymous": "AB3",
  "chemsys": null,
  "volume": 135.7518057812582,
  "density": 12.472203570830557,
  "density_atomic": 16.968975722657277,
  "symmetry": null,
  "property_name": null,
  "material_id": "mp-974525",
  "deprecated": null,
  "deprecation_reasons": null,
  "last_updated": null,
  "origins": null,
  "warnings": null,
  "structure": {
    "@module": "pymatgen.core.structure",
    "@class": "Structure",
    "charge": 0,
    "lattice": {
      "matrix": [
        [2.916894, -5.052208, 0.0],
        [2.916894, 5.052208, 0.0],
        [0.0, 0.0, 4.605892]
      ],
      "pbc": [true, true, true],
      "a": 5.83378747320298,
      "b": 5.83378747320298,
      "c": 4.605892,
      "alpha": 90.0,
      "beta": 90.0,
      "gamma": 119.99999402573182,
      "volume": 135.7518057812582
    },
    "properties": {},
    "sites": [
      {
        "species": [{ "element": "Re", "occu": 1 }],
        "abc": [0.333333, 0.666667, 0.75],
        "properties": { "magmom": 0.166 },
        "label": "Re",
        "xyz": [2.916894, 1.684072701472, 3.4544189999999997]
      },
      {
        "species": [{ "element": "Re", "occu": 1 }],
        "abc": [0.666667, 0.333333, 0.25],
        "properties": { "magmom": 0.17 },
        "label": "Re",
        "xyz": [2.916894, -1.684072701472, 1.151473]
      },
      {
        "species": [{ "element": "Ag", "occu": 1 }],
        "abc": [0.169366, 0.338732, 0.25],
        "properties": { "magmom": 0.005 },
        "label": "Ag",
        "xyz": [1.482068007612, 0.855672260128, 1.151473]
      },
      {
        "species": [{ "element": "Ag", "occu": 1 }],
        "abc": [0.661268, 0.830634, 0.25],
        "properties": { "magmom": 0.005 },
        "label": "Ag",
        "xyz": [4.351719992388, 0.8556722601279998, 1.151473]
      },
      {
        "species": [{ "element": "Ag", "occu": 1 }],
        "abc": [0.169366, 0.830634, 0.25],
        "properties": { "magmom": 0.005 },
        "label": "Ag",
        "xyz": [2.916894, 3.3408634797439998, 1.151473]
      },
      {
        "species": [{ "element": "Ag", "occu": 1 }],
        "abc": [0.830634, 0.661268, 0.75],
        "properties": { "magmom": 0.005 },
        "label": "Ag",
        "xyz": [4.351719992388, -0.8556722601279998, 3.4544189999999997]
      },
      {
        "species": [{ "element": "Ag", "occu": 1 }],
        "abc": [0.338732, 0.169366, 0.75],
        "properties": { "magmom": 0.005 },
        "label": "Ag",
        "xyz": [1.482068007612, -0.855672260128, 3.4544189999999997]
      },
      {
        "species": [{ "element": "Ag", "occu": 1 }],
        "abc": [0.830634, 0.169366, 0.75],
        "properties": { "magmom": 0.005 },
        "label": "Ag",
        "xyz": [2.916894, -3.3408634797439998, 3.4544189999999997]
      }
    ]
  },
  "task_ids": null,
  "uncorrected_energy_per_atom": null,
  "energy_per_atom": -28.225129221875005,
  "formation_energy_per_atom": 0.8944323137499981,
  "energy_above_hull": 0.8944323137499981,
  "is_stable": false,
  "equilibrium_reaction_energy_per_atom": null,
  "decomposes_to": null,
  "xas": null,
  "grain_boundaries": null,
  "band_gap": 0.0,
  "cbm": null,
  "vbm": null,
  "efermi": 4.07366462,
  "is_gap_direct": null,
  "is_metal": null,
  "es_source_calc_id": null,
  "bandstructure": null,
  "dos": null,
  "dos_energy_up": null,
  "dos_energy_down": null,
  "is_magnetic": null,
  "ordering": null,
  "total_magnetization": 0.3807295,
  "total_magnetization_normalized_vol": null,
  "total_magnetization_normalized_formula_units": null,
  "num_magnetic_sites": null,
  "num_unique_magnetic_sites": null,
  "types_of_magnetic_species": null,
  "bulk_modulus": null,
  "shear_modulus": null,
  "universal_anisotropy": null,
  "homogeneous_poisson": null,
  "e_total": null,
  "e_ionic": null,
  "e_electronic": null,
  "n": null,
  "e_ij_max": null,
  "weighted_surface_energy_EV_PER_ANG2": null,
  "weighted_surface_energy": null,
  "weighted_work_function": null,
  "surface_anisotropy": null,
  "shape_factor": null,
  "has_reconstructed": null,
  "possible_species": null,
  "has_props": null,
  "theoretical": null,
  "database_IDs": null,
  "fields_not_requested": [
    "builder_meta",
    "nsites",
    "elements",
    "nelements",
    "composition",
    "composition_reduced",
    "chemsys",
    "symmetry",
    "property_name",
    "deprecated",
    "deprecation_reasons",
    "last_updated",
    "origins",
    "warnings",
    "task_ids",
    "uncorrected_energy_per_atom",
    "equilibrium_reaction_energy_per_atom",
    "decomposes_to",
    "xas",
    "grain_boundaries",
    "cbm",
    "vbm",
    "is_gap_direct",
    "is_metal",
    "es_source_calc_id",
    "bandstructure",
    "dos",
    "dos_energy_up",
    "dos_energy_down",
    "is_magnetic",
    "ordering",
    "total_magnetization_normalized_vol",
    "total_magnetization_normalized_formula_units",
    "num_magnetic_sites",
    "num_unique_magnetic_sites",
    "types_of_magnetic_species",
    "bulk_modulus",
    "shear_modulus",
    "universal_anisotropy",
    "homogeneous_poisson",
    "e_total",
    "e_ionic",
    "e_electronic",
    "n",
    "e_ij_max",
    "weighted_surface_energy_EV_PER_ANG2",
    "weighted_surface_energy",
    "weighted_work_function",
    "surface_anisotropy",
    "shape_factor",
    "has_reconstructed",
    "possible_species",
    "has_props",
    "theoretical",
    "database_IDs"
  ]
}
