{
  "builder_meta": null,
  "nsites": null,
  "elements": null,
  "nelements": null,
  "composition": null,
  "composition_reduced": null,
  "formula_pretty": "ReB",
  "formula_anonymous": "AB",
  "chemsys": null,
  "volume": 222.10485754700971,
  "density": 11.783842620520963,
  "density_atomic": 13.881553596688107,
  "symmetry": null,
  "property_name": null,
  "material_id": "mp-28893",
  "deprecated": null,
  "deprecation_reasons": null,
  "last_updated": null,
  "origins": null,
  "warnings": null,
  "structure": {
    "@module": "pymatgen.core.structure",
    "@class": "Structure",
    "charge": 0,
    "lattice": {
      "matrix": [
        [-5.110677, 5.110677, 2.125892],
        [5.110677, -5.110677, 2.125892],
        [5.110677, 5.110677, -2.125892]
      ],
      "pbc": [true, true, true],
      "a": 7.533754415450638,
      "b": 7.533754415450638,
      "c": 7.533754415450638,
      "alpha": 94.56711677657489,
      "beta": 94.56711677657489,
      "gamma": 147.219013426294,
      "volume": 222.10485754700971
    },
    "properties": {},
    "sites": [
      {
        "species": [{ "element": "Re", "occu": 1 }],
        "abc": [0.126579, 0.494058, 0.632521],
        "properties": { "magmom": -0.0 },
        "label": "Re",
        "xyz": [5.110677, 1.3545440534339999, -0.0252641005280001]
      },
      {
        "species": [{ "element": "Re", "occu": 1 }],
        "abc": [0.861537, 0.494058, 0.367479],
        "properties": { "magmom": -0.0 },
        "label": "Re",
        "xyz": [0.0, 3.756132946566, 2.1006278994719993]
      },
      {
        "species": [{ "element": "Re", "occu": 1 }],
        "abc": [0.744058, 0.611537, 0.867479],
        "properties": { "magmom": 0.0 },
        "label": "Re",
        "xyz": [3.7561329465660003, 5.110677000000001, 1.037681899472]
      },
      {
        "species": [{ "element": "Re", "occu": 1 }],
        "abc": [0.744058, 0.876579, 0.132521],
        "properties": { "magmom": 0.0 },
        "label": "Re",
        "xyz": [1.3545440534339996, 4.440892098500626e-16, 3.1635738994719995]
      },
      {
        "species": [{ "element": "Re", "occu": 1 }],
        "abc": [0.388463, 0.255942, 0.132521],
        "properties": { "magmom": 0.0 },
        "label": "Re",
        "xyz": [0.0, 1.354544053434, 1.0882101005279998]
      },
      {
        "species": [{ "element": "Re", "occu": 1 }],
        "abc": [0.505942, 0.873421, 0.367479],
        "properties": { "magmom": -0.0 },
        "label": "Re",
        "xyz": [3.756132946566, 0.0, 2.1511561005279995]
      },
      {
        "species": [{ "element": "Re", "occu": 1 }],
        "abc": [0.505942, 0.138463, 0.632521],
        "properties": { "magmom": -0.001 },
        "label": "Re",
        "xyz": [1.354544053434, 5.110677, 0.025264100527999878]
      },
      {
        "species": [{ "element": "Re", "occu": 1 }],
        "abc": [0.123420999999999, 0.255942, 0.867479],
        "properties": { "magmom": 0.0 },
        "label": "Re",
        "xyz": [5.110677000000005, 3.7561329465659954, -1.0376818994720018]
      },
      {
        "species": [{ "element": "B", "occu": 1 }],
        "abc": [0.669671999999999, 0.991687, 0.677985],
        "properties": { "magmom": 0.0 },
        "label": "B",
        "xyz": [5.110677000000004, 1.8192476916899945, 2.090546919607998]
      },
      {
        "species": [{ "element": "B", "occu": 1 }],
        "abc": [0.313702, 0.991687, 0.322015],
        "properties": { "magmom": 0.0 },
        "label": "B",
        "xyz": [5.110677000000001, -1.8192476916900007, 2.0905469196079993]
      },
      {
        "species": [{ "element": "B", "occu": 1 }],
        "abc": [0.241686999999999, 0.063702, 0.822014999999999],
        "properties": { "magmom": -0.0 },
        "label": "B",
        "xyz": [3.2914293083100006, 5.11067699999999, -1.098291080392]
      },
      {
        "species": [{ "element": "B", "occu": 1 }],
        "abc": [0.241686999999999, 0.419672, 0.177985],
        "properties": { "magmom": -0.0 },
        "label": "B",
        "xyz": [1.8192476916900047, -4.773959005888173e-15, 1.0276009196079978]
      },
      {
        "species": [{ "element": "B", "occu": 1 }],
        "abc": [0.936298, 0.758313, 0.177985],
        "properties": { "magmom": 0.0 },
        "label": "B",
        "xyz": [-1.1102230246251565e-16, 1.8192476916900002, 3.2241830803919997]
      },
      {
        "species": [{ "element": "B", "occu": 1 }],
        "abc": [0.008313, 0.330328, 0.322015],
        "properties": { "magmom": 0.0 },
        "label": "B",
        "xyz": [3.2914293083099997, 0.0, 0.03534508039200002]
      },
      {
        "species": [{ "element": "B", "occu": 1 }],
        "abc": [0.008313, 0.686298, 0.677985],
        "properties": { "magmom": 0.0 },
        "label": "B",
        "xyz": [6.929924691689999, 0.0, 0.03534508039200013]
      },
      {
        "species": [{ "element": "B", "occu": 1 }],
        "abc": [0.580328, 0.758313, 0.822014999999999],
        "properties": { "magmom": -0.0 },
        "label": "B",
        "xyz": [5.1106769999999955, 3.2914293083099952, 1.0982910803920019]
      }
    ]
  },
  "task_ids": null,
  "uncorrected_energy_per_atom": null,
  "energy_per_atom": -29.881987233749996,
  "formation_energy_per_atom": -0.0035027812499950003,
  "energy_above_hull": 0.35085773275000004,
  "is_stable": false,
  "equilibrium_reaction_energy_per_atom": null,
  "decomposes_to": null,
  "xas": null,
  "grain_boundaries": null,
  "band_gap": 0.0,
  "cbm": null,
  "vbm": null,
  "efermi": 4.84720051,
  "is_gap_direct": null,
  "is_metal": null,
  "es_source_calc_id": null,
  "bandstructure": null,
  "dos": null,
  "dos_energy_up": null,
  "dos_energy_down": null,
  "is_magnetic": null,
  "ordering": null,
  "total_magnetization": 0.0002117,
  "total_magnetization_normalized_vol": null,
  "total_magnetization_normalized_formula_units": null,
  "num_magnetic_sites": null,
  "num_unique_magnetic_sites": null,
  "types_of_magnetic_species": null,
  "bulk_modulus": null,
  "shear_modulus": null,
  "universal_anisotropy": null,
  "homogeneous_poisson": null,
  "e_total": null,
  "e_ionic": null,
  "e_electronic": null,
  "n": null,
  "e_ij_max": null,
  "weighted_surface_energy_EV_PER_ANG2": null,
  "weighted_surface_energy": null,
  "weighted_work_function": null,
  "surface_anisotropy": null,
  "shape_factor": null,
  "has_reconstructed": null,
  "possible_species": null,
  "has_props": null,
  "theoretical": null,
  "database_IDs": null,
  "fields_not_requested": [
    "builder_meta",
    "nsites",
    "elements",
    "nelements",
    "composition",
    "composition_reduced",
    "chemsys",
    "symmetry",
    "property_name",
    "deprecated",
    "deprecation_reasons",
    "last_updated",
    "origins",
    "warnings",
    "task_ids",
    "uncorrected_energy_per_atom",
    "equilibrium_reaction_energy_per_atom",
    "decomposes_to",
    "xas",
    "grain_boundaries",
    "cbm",
    "vbm",
    "is_gap_direct",
    "is_metal",
    "es_source_calc_id",
    "bandstructure",
    "dos",
    "dos_energy_up",
    "dos_energy_down",
    "is_magnetic",
    "ordering",
    "total_magnetization_normalized_vol",
    "total_magnetization_normalized_formula_units",
    "num_magnetic_sites",
    "num_unique_magnetic_sites",
    "types_of_magnetic_species",
    "bulk_modulus",
    "shear_modulus",
    "universal_anisotropy",
    "homogeneous_poisson",
    "e_total",
    "e_ionic",
    "e_electronic",
    "n",
    "e_ij_max",
    "weighted_surface_energy_EV_PER_ANG2",
    "weighted_surface_energy",
    "weighted_work_function",
    "surface_anisotropy",
    "shape_factor",
    "has_reconstructed",
    "possible_species",
    "has_props",
    "theoretical",
    "database_IDs"
  ]
}
