{"builder_meta": null, "nsites": null, "elements": null, "nelements": null, "composition": null, "composition_reduced": null, "formula_pretty": "ReB2", "formula_anonymous": "AB2", "chemsys": null, "volume": 54.6813809811642, "density": 12.622511263616, "density_atomic": 9.113563496860701, "symmetry": null, "property_name": null, "material_id": "mp-1773", "deprecated": null, "deprecation_reasons": null, "last_updated": null, "origins": null, "warnings": null, "structure": {"@module": "pymatgen.core.structure", "@class": "Structure", "charge": 0, "lattice": {"matrix": [[2.90676192, 0.0, 0.0], [-1.45338045, 2.51732966, 0.0], [-0.0, 0.0, 7.47291288]], "pbc": [true, true, true], "a": 2.90676192, "b": 2.9067616602600768, "c": 7.47291288, "alpha": 90.0, "beta": 90.0, "gamma": 119.99999134803512, "volume": 54.6813809811642}, "properties": {}, "sites": [{"species": [{"element": "Re", "occu": 1}], "abc": [0.666667, 0.333333, 0.75], "properties": {"magmom": -0.0}, "label": "Re", "xyz": [1.4533825833807903, 0.8391090475567801, 5.60468466]}, {"species": [{"element": "Re", "occu": 1}], "abc": [0.333333, 0.666667, 0.25], "properties": {"magmom": -0.0}, "label": "Re", "xyz": [-1.1133807900076675e-06, 1.6782206124432202, 1.86822822]}, {"species": [{"element": "B", "occu": 1}], "abc": [0.666667, 0.333333, 0.45220367], "properties": {"magmom": -0.0}, "label": "B", "xyz": [1.4533825833807903, 0.8391090475567801, 3.3792786299262696]}, {"species": [{"element": "B", "occu": 1}], "abc": [0.333333, 0.666667, 0.9522036700000001], "properties": {"magmom": -0.0}, "label": "B", "xyz": [-1.1133807900076675e-06, 1.6782206124432202, 7.11573506992627]}, {"species": [{"element": "B", "occu": 1}], "abc": [0.666667, 0.333333, 0.04779633], "properties": {"magmom": -0.0}, "label": "B", "xyz": [1.4533825833807903, 0.8391090475567801, 0.3571778100737304]}, {"species": [{"element": "B", "occu": 1}], "abc": [0.333333, 0.666667, 0.54779633], "properties": {"magmom": -0.0}, "label": "B", "xyz": [-1.1133807900076675e-06, 1.6782206124432202, 4.09363425007373]}]}, "task_ids": null, "uncorrected_energy_per_atom": null, "energy_per_atom": -22.81644021, "formation_energy_per_atom": -0.448665842500001, "energy_above_hull": 0.0, "is_stable": true, "equilibrium_reaction_energy_per_atom": null, "decomposes_to": null, "xas": null, "grain_boundaries": null, "band_gap": 0.0, "cbm": null, "vbm": null, "efermi": 7.77605134, "is_gap_direct": null, "is_metal": null, "es_source_calc_id": null, "bandstructure": null, "dos": null, "dos_energy_up": null, "dos_energy_down": null, "is_magnetic": null, "ordering": null, "total_magnetization": 2.299999999999998e-06, "total_magnetization_normalized_vol": null, "total_magnetization_normalized_formula_units": null, "num_magnetic_sites": null, "num_unique_magnetic_sites": null, "types_of_magnetic_species": null, "bulk_modulus": null, "shear_modulus": null, "universal_anisotropy": null, "homogeneous_poisson": null, "e_total": null, "e_ionic": null, "e_electronic": null, "n": null, "e_ij_max": null, "weighted_surface_energy_EV_PER_ANG2": null, "weighted_surface_energy": null, "weighted_work_function": null, "surface_anisotropy": null, "shape_factor": null, "has_reconstructed": null, "possible_species": null, "has_props": null, "theoretical": null, "database_IDs": null, "fields_not_requested": ["builder_meta", "nsites", "elements", "nelements", "composition", "composition_reduced", "chemsys", "symmetry", "property_name", "deprecated", "deprecation_reasons", "last_updated", "origins", "warnings", "task_ids", "uncorrected_energy_per_atom", "equilibrium_reaction_energy_per_atom", "decomposes_to", "xas", "grain_boundaries", "cbm", "vbm", "is_gap_direct", "is_metal", "es_source_calc_id", "bandstructure", "dos", "dos_energy_up", "dos_energy_down", "is_magnetic", "ordering", "total_magnetization_normalized_vol", "total_magnetization_normalized_formula_units", "num_magnetic_sites", "num_unique_magnetic_sites", "types_of_magnetic_species", "bulk_modulus", "shear_modulus", "universal_anisotropy", "homogeneous_poisson", "e_total", "e_ionic", "e_electronic", "n", "e_ij_max", "weighted_surface_energy_EV_PER_ANG2", "weighted_surface_energy", "weighted_work_function", "surface_anisotropy", "shape_factor", "has_reconstructed", "possible_species", "has_props", "theoretical", "database_IDs"]}