{
  "builder_meta": null,
  "nsites": null,
  "elements": null,
  "nelements": null,
  "composition": null,
  "composition_reduced": null,
  "formula_pretty": "ReB4",
  "formula_anonymous": "AB4",
  "chemsys": null,
  "volume": 159.37170413224126,
  "density": 9.562860645683637,
  "density_atomic": 7.9685852066120635,
  "symmetry": null,
  "property_name": null,
  "material_id": "mp-1190213",
  "deprecated": null,
  "deprecation_reasons": null,
  "last_updated": null,
  "origins": null,
  "warnings": null,
  "structure": {
    "@module": "pymatgen.core.structure",
    "@class": "Structure",
    "charge": 0,
    "lattice": {
      "matrix": [
        [2.727173999999999, -4.723604, 0.0],
        [2.727173999999999, 4.723604, 0.0],
        [0.0, 0.0, 6.185786]
      ],
      "pbc": [true, true, true],
      "a": 5.454348061417789,
      "b": 5.454348061417789,
      "c": 6.185786,
      "alpha": 90.0,
      "beta": 90.0,
      "gamma": 120.00000074497784,
      "volume": 159.37170413224118
    },
    "properties": {},
    "sites": [
      {
        "species": [{ "element": "Re", "occu": 1 }],
        "abc": [0.333333, 0.666667, 0.25],
        "properties": { "magmom": -0.0 },
        "label": "Re",
        "xyz": [2.727173999999999, 1.574537815736, 1.5464465]
      },
      {
        "species": [{ "element": "Re", "occu": 1 }],
        "abc": [0.666667, 0.333333, 0.75],
        "properties": { "magmom": -0.0 },
        "label": "Re",
        "xyz": [2.727173999999999, -1.574537815736, 4.6393395]
      },
      {
        "species": [{ "element": "Re", "occu": 1 }],
        "abc": [0.0, 0.0, 0.25],
        "properties": { "magmom": -0.0 },
        "label": "Re",
        "xyz": [0.0, 0.0, 1.5464465]
      },
      {
        "species": [{ "element": "Re", "occu": 1 }],
        "abc": [0.0, 0.0, 0.75],
        "properties": { "magmom": -0.0 },
        "label": "Re",
        "xyz": [0.0, 0.0, 4.6393395]
      },
      {
        "species": [{ "element": "B", "occu": 1 }],
        "abc": [0.337582999999999, 0.337582999999999, 0.5],
        "properties": { "magmom": -0.0 },
        "label": "B",
        "xyz": [1.8412951608839938, 0.0, 3.092893]
      },
      {
        "species": [{ "element": "B", "occu": 1 }],
        "abc": [0.662416999999999, 0.0, 0.5],
        "properties": { "magmom": 0.0 },
        "label": "B",
        "xyz": [1.8065264195579966, -3.128995590867995, 3.092893]
      },
      {
        "species": [{ "element": "B", "occu": 1 }],
        "abc": [0.0, 0.662416999999999, 0.5],
        "properties": { "magmom": -0.0 },
        "label": "B",
        "xyz": [1.8065264195579966, 3.128995590867995, 3.092893]
      },
      {
        "species": [{ "element": "B", "occu": 1 }],
        "abc": [0.662416999999999, 0.662416999999999, 0.5],
        "properties": { "magmom": -0.0 },
        "label": "B",
        "xyz": [3.6130528391159933, 0.0, 3.092893]
      },
      {
        "species": [{ "element": "B", "occu": 1 }],
        "abc": [0.0, 0.337582999999999, 0.5],
        "properties": { "magmom": -0.0 },
        "label": "B",
        "xyz": [0.9206475804419969, 1.5946084091319954, 3.092893]
      },
      {
        "species": [{ "element": "B", "occu": 1 }],
        "abc": [0.337582999999999, 0.0, 0.5],
        "properties": { "magmom": -0.0 },
        "label": "B",
        "xyz": [0.9206475804419969, -1.5946084091319954, 3.092893]
      },
      {
        "species": [{ "element": "B", "occu": 1 }],
        "abc": [0.662416999999999, 0.662416999999999, 0.0],
        "properties": { "magmom": -0.0 },
        "label": "B",
        "xyz": [3.6130528391159933, 0.0, 0.0]
      },
      {
        "species": [{ "element": "B", "occu": 1 }],
        "abc": [0.337582999999999, 0.0, 0.0],
        "properties": { "magmom": -0.0 },
        "label": "B",
        "xyz": [0.9206475804419969, -1.5946084091319954, 0.0]
      },
      {
        "species": [{ "element": "B", "occu": 1 }],
        "abc": [0.0, 0.337582999999999, 0.0],
        "properties": { "magmom": 0.0 },
        "label": "B",
        "xyz": [0.9206475804419969, 1.5946084091319954, 0.0]
      },
      {
        "species": [{ "element": "B", "occu": 1 }],
        "abc": [0.337582999999999, 0.337582999999999, 0.0],
        "properties": { "magmom": -0.0 },
        "label": "B",
        "xyz": [1.8412951608839938, 0.0, 0.0]
      },
      {
        "species": [{ "element": "B", "occu": 1 }],
        "abc": [0.0, 0.662416999999999, 0.0],
        "properties": { "magmom": 0.0 },
        "label": "B",
        "xyz": [1.8065264195579966, 3.128995590867995, 0.0]
      },
      {
        "species": [{ "element": "B", "occu": 1 }],
        "abc": [0.662416999999999, 0.0, 0.0],
        "properties": { "magmom": -0.0 },
        "label": "B",
        "xyz": [1.8065264195579966, -3.128995590867995, 0.0]
      },
      {
        "species": [{ "element": "B", "occu": 1 }],
        "abc": [0.333333, 0.666667, 0.886841999999999],
        "properties": { "magmom": -0.0 },
        "label": "B",
        "xyz": [2.727173999999999, 1.574537815736, 5.4858148278119945]
      },
      {
        "species": [{ "element": "B", "occu": 1 }],
        "abc": [0.666667, 0.333333, 0.113158],
        "properties": { "magmom": -0.0 },
        "label": "B",
        "xyz": [2.727173999999999, -1.574537815736, 0.699971172188]
      },
      {
        "species": [{ "element": "B", "occu": 1 }],
        "abc": [0.666667, 0.333333, 0.386841999999999],
        "properties": { "magmom": 0.0 },
        "label": "B",
        "xyz": [2.727173999999999, -1.574537815736, 2.392921827811994]
      },
      {
        "species": [{ "element": "B", "occu": 1 }],
        "abc": [0.333333, 0.666667, 0.613158],
        "properties": { "magmom": 0.0 },
        "label": "B",
        "xyz": [2.727173999999999, 1.574537815736, 3.792864172188]
      }
    ]
  },
  "task_ids": null,
  "uncorrected_energy_per_atom": null,
  "energy_per_atom": -15.813809718666658,
  "formation_energy_per_atom": 0.5453965808333401,
  "energy_above_hull": 0.814596086333335,
  "is_stable": false,
  "equilibrium_reaction_energy_per_atom": null,
  "decomposes_to": null,
  "xas": null,
  "grain_boundaries": null,
  "band_gap": 0.0,
  "cbm": null,
  "vbm": null,
  "efermi": 9.09300222,
  "is_gap_direct": null,
  "is_metal": null,
  "es_source_calc_id": null,
  "bandstructure": null,
  "dos": null,
  "dos_energy_up": null,
  "dos_energy_down": null,
  "is_magnetic": null,
  "ordering": null,
  "total_magnetization": 8.150000000000003e-5,
  "total_magnetization_normalized_vol": null,
  "total_magnetization_normalized_formula_units": null,
  "num_magnetic_sites": null,
  "num_unique_magnetic_sites": null,
  "types_of_magnetic_species": null,
  "bulk_modulus": null,
  "shear_modulus": null,
  "universal_anisotropy": null,
  "homogeneous_poisson": null,
  "e_total": null,
  "e_ionic": null,
  "e_electronic": null,
  "n": null,
  "e_ij_max": null,
  "weighted_surface_energy_EV_PER_ANG2": null,
  "weighted_surface_energy": null,
  "weighted_work_function": null,
  "surface_anisotropy": null,
  "shape_factor": null,
  "has_reconstructed": null,
  "possible_species": null,
  "has_props": null,
  "theoretical": null,
  "database_IDs": null,
  "fields_not_requested": [
    "builder_meta",
    "nsites",
    "elements",
    "nelements",
    "composition",
    "composition_reduced",
    "chemsys",
    "symmetry",
    "property_name",
    "deprecated",
    "deprecation_reasons",
    "last_updated",
    "origins",
    "warnings",
    "task_ids",
    "uncorrected_energy_per_atom",
    "equilibrium_reaction_energy_per_atom",
    "decomposes_to",
    "xas",
    "grain_boundaries",
    "cbm",
    "vbm",
    "is_gap_direct",
    "is_metal",
    "es_source_calc_id",
    "bandstructure",
    "dos",
    "dos_energy_up",
    "dos_energy_down",
    "is_magnetic",
    "ordering",
    "total_magnetization_normalized_vol",
    "total_magnetization_normalized_formula_units",
    "num_magnetic_sites",
    "num_unique_magnetic_sites",
    "types_of_magnetic_species",
    "bulk_modulus",
    "shear_modulus",
    "universal_anisotropy",
    "homogeneous_poisson",
    "e_total",
    "e_ionic",
    "e_electronic",
    "n",
    "e_ij_max",
    "weighted_surface_energy_EV_PER_ANG2",
    "weighted_surface_energy",
    "weighted_work_function",
    "surface_anisotropy",
    "shape_factor",
    "has_reconstructed",
    "possible_species",
    "has_props",
    "theoretical",
    "database_IDs"
  ]
}
