{"builder_meta": null, "nsites": null, "elements": null, "nelements": null, "composition": null, "composition_reduced": null, "formula_pretty": "ReC2", "formula_anonymous": "AB2", "chemsys": null, "volume": 58.24544266203999, "density": 11.98694542109897, "density_atomic": 9.707573777006665, "symmetry": null, "property_name": null, "material_id": "mp-1019054", "deprecated": null, "deprecation_reasons": null, "last_updated": null, "origins": null, "warnings": null, "structure": {"@module": "pymatgen.core.structure", "@class": "Structure", "charge": 0, "lattice": {"matrix": [[1.435594, -2.486520999999999, 0.0], [1.435594, 2.486520999999999, 0.0], [0.0, 0.0, 8.15846]], "pbc": [true, true, true], "a": 2.8711873530435095, "b": 2.8711873530435095, "c": 8.15846, "alpha": 90.0, "beta": 90.0, "gamma": 119.99998509247457, "volume": 58.24544266203995}, "properties": {}, "sites": [{"species": [{"element": "Re", "occu": 1}], "abc": [0.666667, 0.333333, 0.25], "properties": {"magmom": 0.0}, "label": "Re", "xyz": [1.435594, -0.8288419910139996, 2.039615]}, {"species": [{"element": "Re", "occu": 1}], "abc": [0.333333, 0.666667, 0.75], "properties": {"magmom": 0.0}, "label": "Re", "xyz": [1.435594, 0.8288419910139996, 6.118845]}, {"species": [{"element": "C", "occu": 1}], "abc": [0.0, 0.0, 0.415323999999999], "properties": {"magmom": -0.0}, "label": "C", "xyz": [0.0, 0.0, 3.388404241039992]}, {"species": [{"element": "C", "occu": 1}], "abc": [0.0, 0.0, 0.584676], "properties": {"magmom": -0.0}, "label": "C", "xyz": [0.0, 0.0, 4.77005575896]}, {"species": [{"element": "C", "occu": 1}], "abc": [0.0, 0.0, 0.915323999999999], "properties": {"magmom": -0.0}, "label": "C", "xyz": [0.0, 0.0, 7.467634241039992]}, {"species": [{"element": "C", "occu": 1}], "abc": [0.0, 0.0, 0.084676], "properties": {"magmom": -0.0}, "label": "C", "xyz": [0.0, 0.0, 0.69082575896]}]}, "task_ids": null, "uncorrected_energy_per_atom": null, "energy_per_atom": -9.866262158333333, "formation_energy_per_atom": 0.43555290583333206, "energy_above_hull": 0.448914485416667, "is_stable": false, "equilibrium_reaction_energy_per_atom": null, "decomposes_to": null, "xas": null, "grain_boundaries": null, "band_gap": 0.0, "cbm": null, "vbm": null, "efermi": 6.69159348, "is_gap_direct": null, "is_metal": null, "es_source_calc_id": null, "bandstructure": null, "dos": null, "dos_energy_up": null, "dos_energy_down": null, "is_magnetic": null, "ordering": null, "total_magnetization": 0.0012081, "total_magnetization_normalized_vol": null, "total_magnetization_normalized_formula_units": null, "num_magnetic_sites": null, "num_unique_magnetic_sites": null, "types_of_magnetic_species": null, "bulk_modulus": null, "shear_modulus": null, "universal_anisotropy": null, "homogeneous_poisson": null, "e_total": null, "e_ionic": null, "e_electronic": null, "n": null, "e_ij_max": null, "weighted_surface_energy_EV_PER_ANG2": null, "weighted_surface_energy": null, "weighted_work_function": null, "surface_anisotropy": null, "shape_factor": null, "has_reconstructed": null, "possible_species": null, "has_props": null, "theoretical": null, "database_IDs": null, "fields_not_requested": ["builder_meta", "nsites", "elements", "nelements", "composition", "composition_reduced", "chemsys", "symmetry", "property_name", "deprecated", "deprecation_reasons", "last_updated", "origins", "warnings", "task_ids", "uncorrected_energy_per_atom", "equilibrium_reaction_energy_per_atom", "decomposes_to", "xas", "grain_boundaries", "cbm", "vbm", "is_gap_direct", "is_metal", "es_source_calc_id", "bandstructure", "dos", "dos_energy_up", "dos_energy_down", "is_magnetic", "ordering", "total_magnetization_normalized_vol", "total_magnetization_normalized_formula_units", "num_magnetic_sites", "num_unique_magnetic_sites", "types_of_magnetic_species", "bulk_modulus", "shear_modulus", "universal_anisotropy", "homogeneous_poisson", "e_total", "e_ionic", "e_electronic", "n", "e_ij_max", "weighted_surface_energy_EV_PER_ANG2", "weighted_surface_energy", "weighted_work_function", "surface_anisotropy", "shape_factor", "has_reconstructed", "possible_species", "has_props", "theoretical", "database_IDs"]}