{"builder_meta": null, "nsites": null, "elements": null, "nelements": null, "composition": null, "composition_reduced": null, "formula_pretty": "ReCl6", "formula_anonymous": "AB6", "chemsys": null, "volume": 178.6879485725535, "density": 3.707192076663386, "density_atomic": 25.52684979607907, "symmetry": null, "property_name": null, "material_id": "mp-1078114", "deprecated": null, "deprecation_reasons": null, "last_updated": null, "origins": null, "warnings": null, "structure": {"@module": "pymatgen.core.structure", "@class": "Structure", "charge": 0, "lattice": {"matrix": [[-3.04837397, -5.2784744, -0.00058995], [3.04877012, -5.27863657, -0.00020789999999900003], [0.0005582300000000001, -3.51878324, 5.55178851]], "pbc": [true, true, true], "a": 6.095479981139298, "b": 6.095818511567465, "c": 6.572989537607195, "alpha": 62.38112694991262, "beta": 62.38929934884251, "gamma": 60.01622510856113, "volume": 178.6879485725535}, "properties": {}, "sites": [{"species": [{"element": "Re", "occu": 1}], "abc": [-0.0, 0.0, -0.0], "properties": {"magmom": 0.872}, "label": "Re", "xyz": [0.0, 0.0, 0.0]}, {"species": [{"element": "Cl", "occu": 1}], "abc": [0.38209292, 0.7689101500000001, 0.7629415900000001], "properties": {"magmom": -0.0}, "label": "Cl", "xyz": [1.1798940757192113, -8.760291013466386, 4.2353050810247925]}, {"species": [{"element": "Cl", "occu": 1}], "abc": [0.76892427, 0.08595267, 0.76291896], "properties": {"magmom": 0.0}, "label": "Cl", "xyz": [-2.081492913287991, -7.197006431811061, 4.235093219755971]}, {"species": [{"element": "Cl", "occu": 1}], "abc": [0.086042399999999, 0.38202382, 0.76295125], "properties": {"magmom": 0.0}, "label": "Cl", "xyz": [0.902839297344221, -5.155397584014702, 4.235613799974079]}, {"species": [{"element": "Cl", "occu": 1}], "abc": [0.61790708, 0.23108985, 0.23705841], "properties": {"magmom": -0.0}, "label": "Cl", "xyz": [-1.1789396957192115, -5.3156031965336155, 1.3156855789752082]}, {"species": [{"element": "Cl", "occu": 1}], "abc": [0.23107573, 0.91404733, 0.23708104], "properties": {"magmom": 0.0}, "label": "Cl", "xyz": [2.0824472932879905, -6.878887778188941, 1.3158974402440307]}, {"species": [{"element": "Cl", "occu": 1}], "abc": [0.913957599999999, 0.61797618, 0.23704875], "properties": {"magmom": 0.0}, "label": "Cl", "xyz": [-0.9018849173442153, -8.920496625985287, 1.315376860025921]}]}, "task_ids": null, "uncorrected_energy_per_atom": null, "energy_per_atom": -13.374846911428572, "formation_energy_per_atom": -0.61409718392857, "energy_above_hull": 0.0, "is_stable": true, "equilibrium_reaction_energy_per_atom": null, "decomposes_to": null, "xas": null, "grain_boundaries": null, "band_gap": 0.0, "cbm": null, "vbm": null, "efermi": 0.42726906000000003, "is_gap_direct": null, "is_metal": null, "es_source_calc_id": null, "bandstructure": null, "dos": null, "dos_energy_up": null, "dos_energy_down": null, "is_magnetic": null, "ordering": null, "total_magnetization": 0.9995465, "total_magnetization_normalized_vol": null, "total_magnetization_normalized_formula_units": null, "num_magnetic_sites": null, "num_unique_magnetic_sites": null, "types_of_magnetic_species": null, "bulk_modulus": null, "shear_modulus": null, "universal_anisotropy": null, "homogeneous_poisson": null, "e_total": null, "e_ionic": null, "e_electronic": null, "n": null, "e_ij_max": null, "weighted_surface_energy_EV_PER_ANG2": null, "weighted_surface_energy": null, "weighted_work_function": null, "surface_anisotropy": null, "shape_factor": null, "has_reconstructed": null, "possible_species": null, "has_props": null, "theoretical": null, "database_IDs": null, "fields_not_requested": ["builder_meta", "nsites", "elements", "nelements", "composition", "composition_reduced", "chemsys", "symmetry", "property_name", "deprecated", "deprecation_reasons", "last_updated", "origins", "warnings", "task_ids", "uncorrected_energy_per_atom", "equilibrium_reaction_energy_per_atom", "decomposes_to", "xas", "grain_boundaries", "cbm", "vbm", "is_gap_direct", "is_metal", "es_source_calc_id", "bandstructure", "dos", "dos_energy_up", "dos_energy_down", "is_magnetic", "ordering", "total_magnetization_normalized_vol", "total_magnetization_normalized_formula_units", "num_magnetic_sites", "num_unique_magnetic_sites", "types_of_magnetic_species", "bulk_modulus", "shear_modulus", "universal_anisotropy", "homogeneous_poisson", "e_total", "e_ionic", "e_electronic", "n", "e_ij_max", "weighted_surface_energy_EV_PER_ANG2", "weighted_surface_energy", "weighted_work_function", "surface_anisotropy", "shape_factor", "has_reconstructed", "possible_species", "has_props", "theoretical", "database_IDs"]}