{
  "builder_meta": null,
  "nsites": null,
  "elements": null,
  "nelements": null,
  "composition": null,
  "composition_reduced": null,
  "formula_pretty": "ReCl4",
  "formula_anonymous": "AB4",
  "chemsys": null,
  "volume": 593.7267286556844,
  "density": 3.669623332069609,
  "density_atomic": 29.68633643278422,
  "symmetry": null,
  "property_name": null,
  "material_id": "mp-27340",
  "deprecated": null,
  "deprecation_reasons": null,
  "last_updated": null,
  "origins": null,
  "warnings": null,
  "structure": {
    "@module": "pymatgen.core.structure",
    "@class": "Structure",
    "charge": 0,
    "lattice": {
      "matrix": [
        [7.067413, 0.0, 0.0],
        [0.0, 6.432367, 0.0],
        [0.0, 0.788829, 13.060365]
      ],
      "pbc": [true, true, true],
      "a": 7.067413,
      "b": 6.432367,
      "c": 13.084165434771373,
      "alpha": 86.54360859194028,
      "beta": 90.0,
      "gamma": 90.0,
      "volume": 593.7267286556844
    },
    "properties": {},
    "sites": [
      {
        "species": [{ "element": "Re", "occu": 1 }],
        "abc": [0.267736, 0.184486999999999, 0.691292999999999],
        "properties": { "magmom": 1.416 },
        "label": "Re",
        "xyz": [1.8922008869679998, 1.732000056625993, 9.028538901944987]
      },
      {
        "species": [{ "element": "Re", "occu": 1 }],
        "abc": [0.267736, 0.815512999999999, 0.808707],
        "properties": { "magmom": 1.416 },
        "label": "Re",
        "xyz": [1.8922008869679998, 5.883610443373994, 10.562008598054998]
      },
      {
        "species": [{ "element": "Re", "occu": 1 }],
        "abc": [0.732263999999999, 0.815512999999999, 0.308707],
        "properties": { "magmom": 1.416 },
        "label": "Re",
        "xyz": [5.175212113031994, 5.4891959433739945, 4.031826098055]
      },
      {
        "species": [{ "element": "Re", "occu": 1 }],
        "abc": [0.732263999999999, 0.184486999999999, 0.191293],
        "properties": { "magmom": 1.416 },
        "label": "Re",
        "xyz": [5.175212113031994, 1.3375855566259935, 2.4983564019449997]
      },
      {
        "species": [{ "element": "Cl", "occu": 1 }],
        "abc": [0.114427, 0.5, 0.75],
        "properties": { "magmom": 0.0 },
        "label": "Cl",
        "xyz": [0.808702867351, 3.8078052500000004, 9.79527375]
      },
      {
        "species": [{ "element": "Cl", "occu": 1 }],
        "abc": [0.885572999999999, 0.5, 0.25],
        "properties": { "magmom": 0.0 },
        "label": "Cl",
        "xyz": [6.258710132648994, 3.41339075, 3.26509125]
      },
      {
        "species": [{ "element": "Cl", "occu": 1 }],
        "abc": [0.982146, 0.0, 0.75],
        "properties": { "magmom": 0.049 },
        "label": "Cl",
        "xyz": [6.941231408298, 0.5916217500000001, 9.79527375]
      },
      {
        "species": [{ "element": "Cl", "occu": 1 }],
        "abc": [0.017854, 0.0, 0.25],
        "properties": { "magmom": 0.049 },
        "label": "Cl",
        "xyz": [0.126181591702, 0.19720725, 3.26509125]
      },
      {
        "species": [{ "element": "Cl", "occu": 1 }],
        "abc": [0.872668999999999, 0.251975, 0.035883],
        "properties": { "magmom": 0.1 },
        "label": "Cl",
        "xyz": [6.167512235296993, 1.6491012258320001, 0.46864507729499993]
      },
      {
        "species": [{ "element": "Cl", "occu": 1 }],
        "abc": [0.872668999999999, 0.748024999999999, 0.464117],
        "properties": { "magmom": 0.1 },
        "label": "Cl",
        "xyz": [6.167512235296993, 5.177680274167995, 6.061537422704999]
      },
      {
        "species": [{ "element": "Cl", "occu": 1 }],
        "abc": [0.127331, 0.748024999999999, 0.964117],
        "properties": { "magmom": 0.1 },
        "label": "Cl",
        "xyz": [0.8999007647030001, 5.5720947741679945, 12.591719922705]
      },
      {
        "species": [{ "element": "Cl", "occu": 1 }],
        "abc": [0.127331, 0.251975, 0.535883],
        "properties": { "magmom": 0.1 },
        "label": "Cl",
        "xyz": [0.8999007647030001, 2.043515725832, 6.998827577295]
      },
      {
        "species": [{ "element": "Cl", "occu": 1 }],
        "abc": [0.604445999999999, 0.1303, 0.364218999999999],
        "properties": { "magmom": 0.048 },
        "label": "Cl",
        "xyz": [4.2718695181979935, 1.1254439296509993, 4.756833079934987]
      },
      {
        "species": [{ "element": "Cl", "occu": 1 }],
        "abc": [0.604445999999999, 0.8697, 0.135780999999999],
        "properties": { "magmom": 0.048 },
        "label": "Cl",
        "xyz": [4.2718695181979935, 5.701337570349, 1.773349420064987]
      },
      {
        "species": [{ "element": "Cl", "occu": 1 }],
        "abc": [0.395553999999999, 0.8697, 0.635780999999999],
        "properties": { "magmom": 0.048 },
        "label": "Cl",
        "xyz": [2.7955434818019933, 6.095752070349, 8.303531920064987]
      },
      {
        "species": [{ "element": "Cl", "occu": 1 }],
        "abc": [0.395553999999999, 0.1303, 0.864219],
        "properties": { "magmom": 0.048 },
        "label": "Cl",
        "xyz": [2.7955434818019933, 1.519858429651, 11.287015579934998]
      },
      {
        "species": [{ "element": "Cl", "occu": 1 }],
        "abc": [0.462649, 0.357016, 0.141205],
        "properties": { "magmom": 0.112 },
        "label": "Cl",
        "xyz": [3.269731557037, 2.407844535817, 1.844188839825]
      },
      {
        "species": [{ "element": "Cl", "occu": 1 }],
        "abc": [0.462649, 0.642984, 0.358795],
        "properties": { "magmom": 0.112 },
        "label": "Cl",
        "xyz": [3.269731557037, 4.4189369641830005, 4.685993660174999]
      },
      {
        "species": [{ "element": "Cl", "occu": 1 }],
        "abc": [0.537351, 0.642984, 0.858795],
        "properties": { "magmom": 0.112 },
        "label": "Cl",
        "xyz": [3.7976814429630004, 4.813351464183, 11.216176160175]
      },
      {
        "species": [{ "element": "Cl", "occu": 1 }],
        "abc": [0.537351, 0.357016, 0.641205],
        "properties": { "magmom": 0.112 },
        "label": "Cl",
        "xyz": [3.7976814429630004, 2.8022590358170003, 8.374371339825]
      }
    ]
  },
  "task_ids": null,
  "uncorrected_energy_per_atom": null,
  "energy_per_atom": -16.08137298811111,
  "formation_energy_per_atom": -0.6772989286111111,
  "energy_above_hull": 0.020703876555554,
  "is_stable": false,
  "equilibrium_reaction_energy_per_atom": null,
  "decomposes_to": null,
  "xas": null,
  "grain_boundaries": null,
  "band_gap": 0.0,
  "cbm": null,
  "vbm": null,
  "efermi": 0.59153993,
  "is_gap_direct": null,
  "is_metal": null,
  "es_source_calc_id": null,
  "bandstructure": null,
  "dos": null,
  "dos_energy_up": null,
  "dos_energy_down": null,
  "is_magnetic": null,
  "ordering": null,
  "total_magnetization": 8.0028372,
  "total_magnetization_normalized_vol": null,
  "total_magnetization_normalized_formula_units": null,
  "num_magnetic_sites": null,
  "num_unique_magnetic_sites": null,
  "types_of_magnetic_species": null,
  "bulk_modulus": null,
  "shear_modulus": null,
  "universal_anisotropy": null,
  "homogeneous_poisson": null,
  "e_total": null,
  "e_ionic": null,
  "e_electronic": null,
  "n": null,
  "e_ij_max": null,
  "weighted_surface_energy_EV_PER_ANG2": null,
  "weighted_surface_energy": null,
  "weighted_work_function": null,
  "surface_anisotropy": null,
  "shape_factor": null,
  "has_reconstructed": null,
  "possible_species": null,
  "has_props": null,
  "theoretical": null,
  "database_IDs": null,
  "fields_not_requested": [
    "builder_meta",
    "nsites",
    "elements",
    "nelements",
    "composition",
    "composition_reduced",
    "chemsys",
    "symmetry",
    "property_name",
    "deprecated",
    "deprecation_reasons",
    "last_updated",
    "origins",
    "warnings",
    "task_ids",
    "uncorrected_energy_per_atom",
    "equilibrium_reaction_energy_per_atom",
    "decomposes_to",
    "xas",
    "grain_boundaries",
    "cbm",
    "vbm",
    "is_gap_direct",
    "is_metal",
    "es_source_calc_id",
    "bandstructure",
    "dos",
    "dos_energy_up",
    "dos_energy_down",
    "is_magnetic",
    "ordering",
    "total_magnetization_normalized_vol",
    "total_magnetization_normalized_formula_units",
    "num_magnetic_sites",
    "num_unique_magnetic_sites",
    "types_of_magnetic_species",
    "bulk_modulus",
    "shear_modulus",
    "universal_anisotropy",
    "homogeneous_poisson",
    "e_total",
    "e_ionic",
    "e_electronic",
    "n",
    "e_ij_max",
    "weighted_surface_energy_EV_PER_ANG2",
    "weighted_surface_energy",
    "weighted_work_function",
    "surface_anisotropy",
    "shape_factor",
    "has_reconstructed",
    "possible_species",
    "has_props",
    "theoretical",
    "database_IDs"
  ]
}
