{
  "builder_meta": null,
  "nsites": null,
  "elements": null,
  "nelements": null,
  "composition": null,
  "composition_reduced": null,
  "formula_pretty": "ReCl3",
  "formula_anonymous": "AB3",
  "chemsys": null,
  "volume": 661.1575793582865,
  "density": 4.408788050471345,
  "density_atomic": 27.548232473261937,
  "symmetry": null,
  "property_name": null,
  "material_id": "mp-23174",
  "deprecated": null,
  "deprecation_reasons": null,
  "last_updated": null,
  "origins": null,
  "warnings": null,
  "structure": {
    "@module": "pymatgen.core.structure",
    "@class": "Structure",
    "charge": 0,
    "lattice": {
      "matrix": [
        [8.66202545, 0.14580055, 3.493213459999999],
        [2.410099439999999, 8.32125915, 3.493213459999999],
        [0.19065944, 0.14580054, 9.33792659]
      ],
      "pbc": [true, true, true],
      "a": 9.34101081114636,
      "b": 9.341010300244411,
      "c": 9.341010749365104,
      "alpha": 66.85790745447116,
      "beta": 66.85790705616004,
      "gamma": 66.85790477112583,
      "volume": 661.1575793582865
    },
    "properties": {},
    "sites": [
      {
        "species": [{ "element": "Re", "occu": 1 }],
        "abc": [0.35547831, 0.35547831, 0.11963573],
        "properties": { "magmom": 0.0 },
        "label": "Re",
        "xyz": [3.958709925291927, 3.027299026862401, 3.6006728987411654]
      },
      {
        "species": [{ "element": "Re", "occu": 1 }],
        "abc": [0.35547831, 0.11963573, 0.35547831],
        "properties": { "magmom": 0.0 },
        "label": "Re",
        "xyz": [3.435271469536727, 1.0991777755967873, 4.979105122680241]
      },
      {
        "species": [{ "element": "Re", "occu": 1 }],
        "abc": [0.11963573, 0.35547831, 0.35547831],
        "properties": { "magmom": 0.0 },
        "label": "Re",
        "xyz": [1.9608011093692208, 3.0272990245039755, 4.979105122680241]
      },
      {
        "species": [{ "element": "Re", "occu": 1 }],
        "abc": [0.8803642700000001, 0.64452169, 0.64452169],
        "properties": { "magmom": 0.0 },
        "label": "Re",
        "xyz": [9.301983220630778, 5.585561215496024, 11.345248387319756]
      },
      {
        "species": [{ "element": "Re", "occu": 1 }],
        "abc": [0.64452169, 0.64452169, 0.8803642700000001],
        "properties": { "magmom": 0.0 },
        "label": "Re",
        "xyz": [7.304074404708072, 5.5855612131375985, 12.723680611258834]
      },
      {
        "species": [{ "element": "Re", "occu": 1 }],
        "abc": [0.64452169, 0.8803642700000001, 0.64452169],
        "properties": { "magmom": 0.0 },
        "label": "Re",
        "xyz": [7.827512860463272, 7.513682464403212, 11.345248387319756]
      },
      {
        "species": [{ "element": "Cl", "occu": 1 }],
        "abc": [0.12213236000000001, 0.12213236000000001, 0.5910547700000001],
        "properties": { "magmom": 0.0 },
        "label": "Cl",
        "xyz": [1.464954914487969, 1.1202780880574676, 6.372494860636467]
      },
      {
        "species": [{ "element": "Cl", "occu": 1 }],
        "abc": [0.12213236000000001, 0.5910547700000001, 0.12213236000000001],
        "properties": { "magmom": 0.0 },
        "label": "Cl",
        "xyz": [2.5057000681383688, 4.953933842313917, 3.6317778939582217]
      },
      {
        "species": [{ "element": "Cl", "occu": 1 }],
        "abc": [0.5910547700000001, 0.12213236000000001, 0.12213236000000001],
        "properties": { "magmom": 0.0 },
        "label": "Cl",
        "xyz": [5.437368279889254, 1.1202780927466918, 3.6317778939582217]
      },
      {
        "species": [{ "element": "Cl", "occu": 1 }],
        "abc": [0.40894523, 0.8778676400000001, 0.8778676400000001],
        "properties": { "magmom": 0.0 },
        "label": "Cl",
        "xyz": [5.8254160501107455, 7.492582147253308, 12.692575616041779]
      },
      {
        "species": [{ "element": "Cl", "occu": 1 }],
        "abc": [0.8778676400000001, 0.8778676400000001, 0.40894523],
        "properties": { "magmom": 0.0 },
        "label": "Cl",
        "xyz": [9.79782941551203, 7.492582151942532, 9.951858649363533]
      },
      {
        "species": [{ "element": "Cl", "occu": 1 }],
        "abc": [0.8778676400000001, 0.40894523, 0.8778676400000001],
        "properties": { "magmom": 0.0 },
        "label": "Cl",
        "xyz": [8.757084261861632, 3.6589263976860815, 12.692575616041779]
      },
      {
        "species": [{ "element": "Cl", "occu": 1 }],
        "abc": [0.50917745, 0.82729238, 0.50917745],
        "properties": { "magmom": 0.0 },
        "label": "Cl",
        "xyz": [6.5014444196979975, 7.032590986223697, 9.423236048423306]
      },
      {
        "species": [{ "element": "Cl", "occu": 1 }],
        "abc": [0.50917745, 0.50917745, 0.82729238],
        "properties": { "magmom": 0.0 },
        "label": "Cl",
        "xyz": [5.795407419458797, 4.43185554278565, 11.282526556643338]
      },
      {
        "species": [{ "element": "Cl", "occu": 1 }],
        "abc": [0.82729238, 0.50917745, 0.50917745],
        "properties": { "magmom": 0.0 },
        "label": "Cl",
        "xyz": [8.490275424734328, 4.431855545966799, 9.423236048423306]
      },
      {
        "species": [{ "element": "Cl", "occu": 1 }],
        "abc": [0.17270762, 0.49082255, 0.49082255],
        "properties": { "magmom": 0.0 },
        "label": "Cl",
        "xyz": [2.772508905265673, 4.1810046940332, 6.901117461576693]
      },
      {
        "species": [{ "element": "Cl", "occu": 1 }],
        "abc": [0.49082255, 0.17270762, 0.49082255],
        "properties": { "magmom": 0.0 },
        "label": "Cl",
        "xyz": [4.761339910302002, 1.5802692537763026, 6.901117461576693]
      },
      {
        "species": [{ "element": "Cl", "occu": 1 }],
        "abc": [0.49082255, 0.49082255, 0.17270762],
        "properties": { "magmom": 0.0 },
        "label": "Cl",
        "xyz": [5.467376910541201, 4.181004697214349, 5.041826953356661]
      },
      {
        "species": [{ "element": "Cl", "occu": 1 }],
        "abc": [0.7196089800000001, 0.03606131, 0.7196089800000001],
        "properties": { "magmom": 0.0 },
        "label": "Cl",
        "xyz": [6.457382886990979, 0.5099142687402747, 9.359373457094883]
      },
      {
        "species": [{ "element": "Cl", "occu": 1 }],
        "abc": [0.7196089800000001, 0.7196089800000001, 0.03606131],
        "properties": { "magmom": 0.0 },
        "label": "Cl",
        "xyz": [7.974475927695779, 6.0982299527872135, 5.364233415264973]
      },
      {
        "species": [{ "element": "Cl", "occu": 1 }],
        "abc": [0.03606131, 0.7196089800000001, 0.7196089800000001],
        "properties": { "magmom": 0.0 },
        "label": "Cl",
        "xyz": [2.1838934298430814, 6.098229945951736, 9.359373457094883]
      },
      {
        "species": [{ "element": "Cl", "occu": 1 }],
        "abc": [0.96393869, 0.28039102, 0.28039102],
        "properties": { "magmom": 0.0 },
        "label": "Cl",
        "xyz": [9.078890900156917, 2.514630294048263, 6.964980052905117]
      },
      {
        "species": [{ "element": "Cl", "occu": 1 }],
        "abc": [0.28039102, 0.96393869, 0.28039102],
        "properties": { "magmom": 0.0 },
        "label": "Cl",
        "xyz": [4.80540144300902, 8.102945971259725, 6.964980052905117]
      },
      {
        "species": [{ "element": "Cl", "occu": 1 }],
        "abc": [0.28039102, 0.28039102, 0.96393869],
        "properties": { "magmom": 0.0 },
        "label": "Cl",
        "xyz": [3.2883084023042213, 2.5146302872127864, 10.960120094735025]
      }
    ]
  },
  "task_ids": null,
  "uncorrected_energy_per_atom": null,
  "energy_per_atom": -18.48840307375,
  "formation_energy_per_atom": -0.7714202237499991,
  "energy_above_hull": 0.0,
  "is_stable": true,
  "equilibrium_reaction_energy_per_atom": null,
  "decomposes_to": null,
  "xas": null,
  "grain_boundaries": null,
  "band_gap": 0.9667999999999991,
  "cbm": null,
  "vbm": null,
  "efermi": 0.81468356,
  "is_gap_direct": null,
  "is_metal": null,
  "es_source_calc_id": null,
  "bandstructure": null,
  "dos": null,
  "dos_energy_up": null,
  "dos_energy_down": null,
  "is_magnetic": null,
  "ordering": null,
  "total_magnetization": 0.0,
  "total_magnetization_normalized_vol": null,
  "total_magnetization_normalized_formula_units": null,
  "num_magnetic_sites": null,
  "num_unique_magnetic_sites": null,
  "types_of_magnetic_species": null,
  "bulk_modulus": null,
  "shear_modulus": null,
  "universal_anisotropy": null,
  "homogeneous_poisson": null,
  "e_total": null,
  "e_ionic": null,
  "e_electronic": null,
  "n": null,
  "e_ij_max": null,
  "weighted_surface_energy_EV_PER_ANG2": null,
  "weighted_surface_energy": null,
  "weighted_work_function": null,
  "surface_anisotropy": null,
  "shape_factor": null,
  "has_reconstructed": null,
  "possible_species": null,
  "has_props": null,
  "theoretical": null,
  "database_IDs": null,
  "fields_not_requested": [
    "builder_meta",
    "nsites",
    "elements",
    "nelements",
    "composition",
    "composition_reduced",
    "chemsys",
    "symmetry",
    "property_name",
    "deprecated",
    "deprecation_reasons",
    "last_updated",
    "origins",
    "warnings",
    "task_ids",
    "uncorrected_energy_per_atom",
    "equilibrium_reaction_energy_per_atom",
    "decomposes_to",
    "xas",
    "grain_boundaries",
    "cbm",
    "vbm",
    "is_gap_direct",
    "is_metal",
    "es_source_calc_id",
    "bandstructure",
    "dos",
    "dos_energy_up",
    "dos_energy_down",
    "is_magnetic",
    "ordering",
    "total_magnetization_normalized_vol",
    "total_magnetization_normalized_formula_units",
    "num_magnetic_sites",
    "num_unique_magnetic_sites",
    "types_of_magnetic_species",
    "bulk_modulus",
    "shear_modulus",
    "universal_anisotropy",
    "homogeneous_poisson",
    "e_total",
    "e_ionic",
    "e_electronic",
    "n",
    "e_ij_max",
    "weighted_surface_energy_EV_PER_ANG2",
    "weighted_surface_energy",
    "weighted_work_function",
    "surface_anisotropy",
    "shape_factor",
    "has_reconstructed",
    "possible_species",
    "has_props",
    "theoretical",
    "database_IDs"
  ]
}
