{
  "builder_meta": null,
  "nsites": null,
  "elements": null,
  "nelements": null,
  "composition": null,
  "composition_reduced": null,
  "formula_pretty": "ReF6",
  "formula_anonymous": "AB6",
  "chemsys": null,
  "volume": 131.580211341349,
  "density": 3.788484128368676,
  "density_atomic": 18.797173048764144,
  "symmetry": null,
  "property_name": null,
  "material_id": "mp-1025374",
  "deprecated": null,
  "deprecation_reasons": null,
  "last_updated": null,
  "origins": null,
  "warnings": null,
  "structure": {
    "@module": "pymatgen.core.structure",
    "@class": "Structure",
    "charge": 0,
    "lattice": {
      "matrix": [
        [-3.17816162, -3.21565215, 3.2187374],
        [-3.17816162, 3.21565215, -3.2187374],
        [3.17816162, -3.21565215, -3.2187374]
      ],
      "pbc": [true, true, true],
      "a": 5.5499009435123625,
      "b": 5.5499009435123625,
      "c": 5.5499009435123625,
      "alpha": 109.10411435672724,
      "beta": 109.1822924577942,
      "gamma": 110.12927522775897,
      "volume": 131.580211341349
    },
    "properties": {},
    "sites": [
      {
        "species": [{ "element": "Re", "occu": 1 }],
        "abc": [0.0, 0.0, -0.0],
        "properties": { "magmom": 0.757 },
        "label": "Re",
        "xyz": [0.0, 0.0, 0.0]
      },
      {
        "species": [{ "element": "F", "occu": 1 }],
        "abc": [0.71287735, 0.71287735, -0.0],
        "properties": { "magmom": -0.016 },
        "label": "F",
        "xyz": [-4.531278867074614, 0.0, 0.0]
      },
      {
        "species": [{ "element": "F", "occu": 1 }],
        "abc": [0.28712265, 0.28712265, 0.0],
        "properties": { "magmom": -0.016 },
        "label": "F",
        "xyz": [-1.8250443729253858, 0.0, 0.0]
      },
      {
        "species": [{ "element": "F", "occu": 1 }],
        "abc": [0.70988193, 0.0, 0.70988193],
        "properties": { "magmom": 0.058 },
        "label": "F",
        "xyz": [0.0, -4.565466708901299, 0.0]
      },
      {
        "species": [{ "element": "F", "occu": 1 }],
        "abc": [0.29011807, -0.0, 0.29011807],
        "properties": { "magmom": 0.058 },
        "label": "F",
        "xyz": [0.0, -1.865837591098701, 0.0]
      },
      {
        "species": [{ "element": "F", "occu": 1 }],
        "abc": [-0.0, 0.7101523, 0.7101523],
        "properties": { "magmom": 0.058 },
        "label": "F",
        "xyz": [0.0, 0.0, -4.57158753541204]
      },
      {
        "species": [{ "element": "F", "occu": 1 }],
        "abc": [0.0, 0.2898477, 0.2898477],
        "properties": { "magmom": 0.058 },
        "label": "F",
        "xyz": [0.0, 0.0, -1.86588726458796]
      }
    ]
  },
  "task_ids": null,
  "uncorrected_energy_per_atom": null,
  "energy_per_atom": -12.343176781428571,
  "formation_energy_per_atom": -2.176493580357144,
  "energy_above_hull": 0.0,
  "is_stable": true,
  "equilibrium_reaction_energy_per_atom": null,
  "decomposes_to": null,
  "xas": null,
  "grain_boundaries": null,
  "band_gap": 0.0,
  "cbm": null,
  "vbm": null,
  "efermi": -2.12030228,
  "is_gap_direct": null,
  "is_metal": null,
  "es_source_calc_id": null,
  "bandstructure": null,
  "dos": null,
  "dos_energy_up": null,
  "dos_energy_down": null,
  "is_magnetic": null,
  "ordering": null,
  "total_magnetization": 1.0000001,
  "total_magnetization_normalized_vol": null,
  "total_magnetization_normalized_formula_units": null,
  "num_magnetic_sites": null,
  "num_unique_magnetic_sites": null,
  "types_of_magnetic_species": null,
  "bulk_modulus": null,
  "shear_modulus": null,
  "universal_anisotropy": null,
  "homogeneous_poisson": null,
  "e_total": null,
  "e_ionic": null,
  "e_electronic": null,
  "n": null,
  "e_ij_max": null,
  "weighted_surface_energy_EV_PER_ANG2": null,
  "weighted_surface_energy": null,
  "weighted_work_function": null,
  "surface_anisotropy": null,
  "shape_factor": null,
  "has_reconstructed": null,
  "possible_species": null,
  "has_props": null,
  "theoretical": null,
  "database_IDs": null,
  "fields_not_requested": [
    "builder_meta",
    "nsites",
    "elements",
    "nelements",
    "composition",
    "composition_reduced",
    "chemsys",
    "symmetry",
    "property_name",
    "deprecated",
    "deprecation_reasons",
    "last_updated",
    "origins",
    "warnings",
    "task_ids",
    "uncorrected_energy_per_atom",
    "equilibrium_reaction_energy_per_atom",
    "decomposes_to",
    "xas",
    "grain_boundaries",
    "cbm",
    "vbm",
    "is_gap_direct",
    "is_metal",
    "es_source_calc_id",
    "bandstructure",
    "dos",
    "dos_energy_up",
    "dos_energy_down",
    "is_magnetic",
    "ordering",
    "total_magnetization_normalized_vol",
    "total_magnetization_normalized_formula_units",
    "num_magnetic_sites",
    "num_unique_magnetic_sites",
    "types_of_magnetic_species",
    "bulk_modulus",
    "shear_modulus",
    "universal_anisotropy",
    "homogeneous_poisson",
    "e_total",
    "e_ionic",
    "e_electronic",
    "n",
    "e_ij_max",
    "weighted_surface_energy_EV_PER_ANG2",
    "weighted_surface_energy",
    "weighted_work_function",
    "surface_anisotropy",
    "shape_factor",
    "has_reconstructed",
    "possible_species",
    "has_props",
    "theoretical",
    "database_IDs"
  ]
}
