{
  "builder_meta": null,
  "nsites": null,
  "elements": null,
  "nelements": null,
  "composition": null,
  "composition_reduced": null,
  "formula_pretty": "ReF7",
  "formula_anonymous": "AB7",
  "chemsys": null,
  "volume": 214.34596578387672,
  "density": 4.945622662431141,
  "density_atomic": 13.396622861492295,
  "symmetry": null,
  "property_name": null,
  "material_id": "mp-643265",
  "deprecated": null,
  "deprecation_reasons": null,
  "last_updated": null,
  "origins": null,
  "warnings": null,
  "structure": {
    "@module": "pymatgen.core.structure",
    "@class": "Structure",
    "charge": 0,
    "lattice": {
      "matrix": [
        [5.05828192, -0.00278559, 0.01043768],
        [-2.09666455, 4.64477229, -0.009817010000000001],
        [-0.52337768, -0.40442312, 9.12488089]
      ],
      "pbc": [true, true, true],
      "a": 5.058293455986348,
      "b": 5.096077730457404,
      "c": 9.148821427517312,
      "alpha": 91.07005895934226,
      "beta": 93.16000653482153,
      "gamma": 114.32626285294232,
      "volume": 214.3459657838767
    },
    "properties": {},
    "sites": [
      {
        "species": [{ "element": "Re", "occu": 1 }],
        "abc": [0.13918916, 0.8696143, 0.75242043],
        "properties": { "magmom": -0.0 },
        "label": "Re",
        "xyz": [-1.51303152253308, 3.7344764618432, 6.858662602584889]
      },
      {
        "species": [{ "element": "Re", "occu": 1 }],
        "abc": [0.86081084, 0.1303857, 0.24757957],
        "properties": { "magmom": -0.0 },
        "label": "Re",
        "xyz": [3.9512712125330802, 0.503087118156799, 2.2668389574151115]
      },
      {
        "species": [{ "element": "F", "occu": 1 }],
        "abc": [0.82564472, 0.58062757, 0.65308128],
        "properties": { "magmom": -0.0 },
        "label": "F",
        "xyz": [2.617154351569989, 2.4304617713992567, 5.962206680208823]
      },
      {
        "species": [{ "element": "F", "occu": 1 }],
        "abc": [0.17435528, 0.41937243, 0.34691872],
        "properties": { "magmom": -0.0 },
        "label": "F",
        "xyz": [-0.17891466156998853, 1.807101808600743, 3.163294879791177]
      },
      {
        "species": [{ "element": "F", "occu": 1 }],
        "abc": [0.42899395, 0.15953103, 0.86403468],
        "properties": { "magmom": 0.0 },
        "label": "F",
        "xyz": [1.383272819590455, 0.39035470520817644, 7.8871251236844815]
      },
      {
        "species": [{ "element": "F", "occu": 1 }],
        "abc": [0.57100605, 0.84046897, 0.13596532],
        "properties": { "magmom": 0.0 },
        "label": "F",
        "xyz": [1.054966870409545, 3.8472088747918227, 1.2383764363155192]
      },
      {
        "species": [{ "element": "F", "occu": 1 }],
        "abc": [0.9436560900000001, 0.72909055, 0.92176985],
        "properties": { "magmom": 0.0 },
        "label": "F",
        "xyz": [2.7621864632329425, 3.011045905914184, 8.413732180320384]
      },
      {
        "species": [{ "element": "F", "occu": 1 }],
        "abc": [0.056343910000000004, 0.27090945, 0.07823015],
        "properties": { "magmom": 0.0 },
        "label": "F",
        "xyz": [-0.32394677323294224, 1.2265176740858155, 0.7117693796796178]
      },
      {
        "species": [{ "element": "F", "occu": 1 }],
        "abc": [0.21661944, 0.15048393000000002, 0.61148907],
        "properties": { "magmom": 0.0 },
        "label": "F",
        "xyz": [0.46016814469488576, 0.45105985767313167, 5.580548631437722]
      },
      {
        "species": [{ "element": "F", "occu": 1 }],
        "abc": [0.78338056, 0.8495160700000001, 0.38851093000000003],
        "properties": { "magmom": 0.0 },
        "label": "F",
        "xyz": [1.9780715453051136, 3.7865037223268683, 3.544952928562278]
      },
      {
        "species": [{ "element": "F", "occu": 1 }],
        "abc": [0.30297125, 0.6349250200000001, 0.83809059],
        "properties": { "magmom": -0.0 },
        "label": "F",
        "xyz": [-0.23734869381127216, 2.6092949741889675, 7.6444060604659345]
      },
      {
        "species": [{ "element": "F", "occu": 1 }],
        "abc": [0.69702875, 0.36507498, 0.16190941],
        "properties": { "magmom": -0.0 },
        "label": "F",
        "xyz": [2.675588383811272, 1.6282686058110323, 1.4810954995340653]
      },
      {
        "species": [{ "element": "F", "occu": 1 }],
        "abc": [0.34650871, 0.78303436, 0.60977676],
        "properties": { "magmom": -0.0 },
        "label": "F",
        "xyz": [-0.20816518709513165, 3.3894432464657043, 5.560069995379846]
      },
      {
        "species": [{ "element": "F", "occu": 1 }],
        "abc": [0.6534912900000001, 0.21696564000000002, 0.39022324],
        "properties": { "magmom": -0.0 },
        "label": "F",
        "xyz": [2.6464048770951316, 0.8481203335342955, 3.5654315646201544]
      },
      {
        "species": [{ "element": "F", "occu": 1 }],
        "abc": [0.8869135100000001, 0.05272107, 0.77714281],
        "properties": { "magmom": 0.0 },
        "label": "F",
        "xyz": [3.96898097280319, -0.0718877322749378, 7.1000753319035566]
      },
      {
        "species": [{ "element": "F", "occu": 1 }],
        "abc": [0.11308649, 0.9472789300000001, 0.22285719],
        "properties": { "magmom": 0.0 },
        "label": "F",
        "xyz": [-1.5307412828031899, 4.309451312274938, 2.025426228096443]
      }
    ]
  },
  "task_ids": null,
  "uncorrected_energy_per_atom": null,
  "energy_per_atom": -11.39108208125,
  "formation_energy_per_atom": -2.104480786562499,
  "energy_above_hull": 0.0,
  "is_stable": true,
  "equilibrium_reaction_energy_per_atom": null,
  "decomposes_to": null,
  "xas": null,
  "grain_boundaries": null,
  "band_gap": 1.9773,
  "cbm": null,
  "vbm": null,
  "efermi": -3.10492583,
  "is_gap_direct": null,
  "is_metal": null,
  "es_source_calc_id": null,
  "bandstructure": null,
  "dos": null,
  "dos_energy_up": null,
  "dos_energy_down": null,
  "is_magnetic": null,
  "ordering": null,
  "total_magnetization": 0.0,
  "total_magnetization_normalized_vol": null,
  "total_magnetization_normalized_formula_units": null,
  "num_magnetic_sites": null,
  "num_unique_magnetic_sites": null,
  "types_of_magnetic_species": null,
  "bulk_modulus": null,
  "shear_modulus": null,
  "universal_anisotropy": null,
  "homogeneous_poisson": null,
  "e_total": null,
  "e_ionic": null,
  "e_electronic": null,
  "n": null,
  "e_ij_max": null,
  "weighted_surface_energy_EV_PER_ANG2": null,
  "weighted_surface_energy": null,
  "weighted_work_function": null,
  "surface_anisotropy": null,
  "shape_factor": null,
  "has_reconstructed": null,
  "possible_species": null,
  "has_props": null,
  "theoretical": null,
  "database_IDs": null,
  "fields_not_requested": [
    "builder_meta",
    "nsites",
    "elements",
    "nelements",
    "composition",
    "composition_reduced",
    "chemsys",
    "symmetry",
    "property_name",
    "deprecated",
    "deprecation_reasons",
    "last_updated",
    "origins",
    "warnings",
    "task_ids",
    "uncorrected_energy_per_atom",
    "equilibrium_reaction_energy_per_atom",
    "decomposes_to",
    "xas",
    "grain_boundaries",
    "cbm",
    "vbm",
    "is_gap_direct",
    "is_metal",
    "es_source_calc_id",
    "bandstructure",
    "dos",
    "dos_energy_up",
    "dos_energy_down",
    "is_magnetic",
    "ordering",
    "total_magnetization_normalized_vol",
    "total_magnetization_normalized_formula_units",
    "num_magnetic_sites",
    "num_unique_magnetic_sites",
    "types_of_magnetic_species",
    "bulk_modulus",
    "shear_modulus",
    "universal_anisotropy",
    "homogeneous_poisson",
    "e_total",
    "e_ionic",
    "e_electronic",
    "n",
    "e_ij_max",
    "weighted_surface_energy_EV_PER_ANG2",
    "weighted_surface_energy",
    "weighted_work_function",
    "surface_anisotropy",
    "shape_factor",
    "has_reconstructed",
    "possible_species",
    "has_props",
    "theoretical",
    "database_IDs"
  ]
}
