{
  "builder_meta": null,
  "nsites": null,
  "elements": null,
  "nelements": null,
  "composition": null,
  "composition_reduced": null,
  "formula_pretty": "ReGe2",
  "formula_anonymous": "AB2",
  "chemsys": null,
  "volume": 96.70202262595056,
  "density": 11.384397112337512,
  "density_atomic": 16.11700377099176,
  "symmetry": null,
  "property_name": null,
  "material_id": "mp-1025067",
  "deprecated": null,
  "deprecation_reasons": null,
  "last_updated": null,
  "origins": null,
  "warnings": null,
  "structure": {
    "@module": "pymatgen.core.structure",
    "@class": "Structure",
    "charge": 0,
    "lattice": {
      "matrix": [
        [-0.0, -3.21057003, 0.0],
        [3.97870646, -1.60528552, -2.15706921],
        [4.06425651, -1.60528552, 5.36682202]
      ],
      "pbc": [true, true, true],
      "a": 3.21057003,
      "b": 4.802082285040254,
      "c": 6.9208309598021485,
      "alpha": 77.53959072999633,
      "beta": 76.5881067634833,
      "gamma": 70.47066349560595,
      "volume": 96.70202262595056
    },
    "properties": {},
    "sites": [
      {
        "species": [{ "element": "Re", "occu": 1 }],
        "abc": [0.84945895, 0.11085332, 0.19022978000000001],
        "properties": { "magmom": 0.0 },
        "label": "Re",
        "xyz": [1.214195442157315, -3.2105717873319803, 0.7818110887654783]
      },
      {
        "species": [{ "element": "Re", "occu": 1 }],
        "abc": [0.15054105, 0.88914668, 0.80977022],
        "properties": { "magmom": 0.0 },
        "label": "Re",
        "xyz": [6.828767527842685, -3.210569282668019, 2.4279417212345216]
      },
      {
        "species": [{ "element": "Ge", "occu": 1 }],
        "abc": [0.85039153, 0.75899075, 0.54022719],
        "properties": { "magmom": -0.0 },
        "label": "Ge",
        "xyz": [5.215423273941752, -4.815857306390075, 1.2621076015949162]
      },
      {
        "species": [{ "element": "Ge", "occu": 1 }],
        "abc": [0.14960847, 0.24100925, 0.45977281000000003],
        "properties": { "magmom": -0.0 },
        "label": "Ge",
        "xyz": [2.827539696058248, -1.6052837636099255, 1.9476452084050837]
      },
      {
        "species": [{ "element": "Ge", "occu": 1 }],
        "abc": [0.59974487, 0.68847936, 0.11203091],
        "properties": { "magmom": -0.0 },
        "label": "Ge",
        "xyz": [3.1945796324973896, -3.2105704503105366, -0.8838476744678673]
      },
      {
        "species": [{ "element": "Ge", "occu": 1 }],
        "abc": [0.40025513, 0.31152064, 0.88796909],
        "properties": { "magmom": -0.0 },
        "label": "Ge",
        "xyz": [4.848383337502611, -3.210570619689464, 4.093600484467867]
      }
    ]
  },
  "task_ids": null,
  "uncorrected_energy_per_atom": null,
  "energy_per_atom": -26.703300565000003,
  "formation_energy_per_atom": 0.014889390833332001,
  "energy_above_hull": 0.014889390833335,
  "is_stable": false,
  "equilibrium_reaction_energy_per_atom": null,
  "decomposes_to": null,
  "xas": null,
  "grain_boundaries": null,
  "band_gap": 0.0,
  "cbm": null,
  "vbm": null,
  "efermi": 7.14829114,
  "is_gap_direct": null,
  "is_metal": null,
  "es_source_calc_id": null,
  "bandstructure": null,
  "dos": null,
  "dos_energy_up": null,
  "dos_energy_down": null,
  "is_magnetic": null,
  "ordering": null,
  "total_magnetization": 2e-7,
  "total_magnetization_normalized_vol": null,
  "total_magnetization_normalized_formula_units": null,
  "num_magnetic_sites": null,
  "num_unique_magnetic_sites": null,
  "types_of_magnetic_species": null,
  "bulk_modulus": null,
  "shear_modulus": null,
  "universal_anisotropy": null,
  "homogeneous_poisson": null,
  "e_total": null,
  "e_ionic": null,
  "e_electronic": null,
  "n": null,
  "e_ij_max": null,
  "weighted_surface_energy_EV_PER_ANG2": null,
  "weighted_surface_energy": null,
  "weighted_work_function": null,
  "surface_anisotropy": null,
  "shape_factor": null,
  "has_reconstructed": null,
  "possible_species": null,
  "has_props": null,
  "theoretical": null,
  "database_IDs": null,
  "fields_not_requested": [
    "builder_meta",
    "nsites",
    "elements",
    "nelements",
    "composition",
    "composition_reduced",
    "chemsys",
    "symmetry",
    "property_name",
    "deprecated",
    "deprecation_reasons",
    "last_updated",
    "origins",
    "warnings",
    "task_ids",
    "uncorrected_energy_per_atom",
    "equilibrium_reaction_energy_per_atom",
    "decomposes_to",
    "xas",
    "grain_boundaries",
    "cbm",
    "vbm",
    "is_gap_direct",
    "is_metal",
    "es_source_calc_id",
    "bandstructure",
    "dos",
    "dos_energy_up",
    "dos_energy_down",
    "is_magnetic",
    "ordering",
    "total_magnetization_normalized_vol",
    "total_magnetization_normalized_formula_units",
    "num_magnetic_sites",
    "num_unique_magnetic_sites",
    "types_of_magnetic_species",
    "bulk_modulus",
    "shear_modulus",
    "universal_anisotropy",
    "homogeneous_poisson",
    "e_total",
    "e_ionic",
    "e_electronic",
    "n",
    "e_ij_max",
    "weighted_surface_energy_EV_PER_ANG2",
    "weighted_surface_energy",
    "weighted_work_function",
    "surface_anisotropy",
    "shape_factor",
    "has_reconstructed",
    "possible_species",
    "has_props",
    "theoretical",
    "database_IDs"
  ]
}
