{"builder_meta": null, "nsites": null, "elements": null, "nelements": null, "composition": null, "composition_reduced": null, "formula_pretty": "ReH3", "formula_anonymous": "AB3", "chemsys": null, "volume": 48.685253865065945, "density": 12.908433016931415, "density_atomic": 6.085656733133243, "symmetry": null, "property_name": null, "material_id": "mp-974464", "deprecated": null, "deprecation_reasons": null, "last_updated": null, "origins": null, "warnings": null, "structure": {"@module": "pymatgen.core.structure", "@class": "Structure", "charge": 0, "lattice": {"matrix": [[2.201107, -3.812429, 0.0], [2.201107, 3.812429, 0.0], [0.0, 0.0, 2.900845]], "pbc": [true, true, true], "a": 4.402213864124504, "b": 4.402213864124504, "c": 2.900845, "alpha": 90.0, "beta": 90.0, "gamma": 119.99999795797054, "volume": 48.685253865065945}, "properties": {}, "sites": [{"species": [{"element": "Re", "occu": 1}], "abc": [0.333333, 0.666667, 0.75], "properties": {"magmom": -0.001}, "label": "Re", "xyz": [2.201107, 1.270812208286, 2.17563375]}, {"species": [{"element": "Re", "occu": 1}], "abc": [0.666667, 0.333333, 0.25], "properties": {"magmom": -0.001}, "label": "Re", "xyz": [2.201107, -1.270812208286, 0.72521125]}, {"species": [{"element": "H", "occu": 1}], "abc": [0.165867, 0.331733, 0.25], "properties": {"magmom": 0.0}, "label": "H", "xyz": [1.0952708431999998, 0.6323523485139999, 0.72521125]}, {"species": [{"element": "H", "occu": 1}], "abc": [0.6682669999999991, 0.834133, 0.25], "properties": {"magmom": 0.0}, "label": "H", "xyz": [3.306943156799998, 0.6323523485140035, 0.72521125]}, {"species": [{"element": "H", "occu": 1}], "abc": [0.165867, 0.834133, 0.25], "properties": {"magmom": 0.0}, "label": "H", "xyz": [2.201107, 2.547716678114, 0.72521125]}, {"species": [{"element": "H", "occu": 1}], "abc": [0.834133, 0.6682669999999991, 0.75], "properties": {"magmom": 0.0}, "label": "H", "xyz": [3.306943156799998, -0.6323523485140035, 2.17563375]}, {"species": [{"element": "H", "occu": 1}], "abc": [0.331733, 0.165867, 0.75], "properties": {"magmom": 0.0}, "label": "H", "xyz": [1.0952708431999998, -0.6323523485139999, 2.17563375]}, {"species": [{"element": "H", "occu": 1}], "abc": [0.834133, 0.165867, 0.75], "properties": {"magmom": 0.0}, "label": "H", "xyz": [2.201107, -2.547716678114, 2.17563375]}]}, "task_ids": null, "uncorrected_energy_per_atom": null, "energy_per_atom": -15.3201688565625, "formation_energy_per_atom": 0.37381912125000105, "energy_above_hull": 0.37381912125000105, "is_stable": false, "equilibrium_reaction_energy_per_atom": null, "decomposes_to": null, "xas": null, "grain_boundaries": null, "band_gap": 0.0, "cbm": null, "vbm": null, "efermi": 6.51967259, "is_gap_direct": null, "is_metal": null, "es_source_calc_id": null, "bandstructure": null, "dos": null, "dos_energy_up": null, "dos_energy_down": null, "is_magnetic": null, "ordering": null, "total_magnetization": 0.0001193, "total_magnetization_normalized_vol": null, "total_magnetization_normalized_formula_units": null, "num_magnetic_sites": null, "num_unique_magnetic_sites": null, "types_of_magnetic_species": null, "bulk_modulus": null, "shear_modulus": null, "universal_anisotropy": null, "homogeneous_poisson": null, "e_total": null, "e_ionic": null, "e_electronic": null, "n": null, "e_ij_max": null, "weighted_surface_energy_EV_PER_ANG2": null, "weighted_surface_energy": null, "weighted_work_function": null, "surface_anisotropy": null, "shape_factor": null, "has_reconstructed": null, "possible_species": null, "has_props": null, "theoretical": null, "database_IDs": null, "fields_not_requested": ["builder_meta", "nsites", "elements", "nelements", "composition", "composition_reduced", "chemsys", "symmetry", "property_name", "deprecated", "deprecation_reasons", "last_updated", "origins", "warnings", "task_ids", "uncorrected_energy_per_atom", "equilibrium_reaction_energy_per_atom", "decomposes_to", "xas", "grain_boundaries", "cbm", "vbm", "is_gap_direct", "is_metal", "es_source_calc_id", "bandstructure", "dos", "dos_energy_up", "dos_energy_down", "is_magnetic", "ordering", "total_magnetization_normalized_vol", "total_magnetization_normalized_formula_units", "num_magnetic_sites", "num_unique_magnetic_sites", "types_of_magnetic_species", "bulk_modulus", "shear_modulus", "universal_anisotropy", "homogeneous_poisson", "e_total", "e_ionic", "e_electronic", "n", "e_ij_max", "weighted_surface_energy_EV_PER_ANG2", "weighted_surface_energy", "weighted_work_function", "surface_anisotropy", "shape_factor", "has_reconstructed", "possible_species", "has_props", "theoretical", "database_IDs"]}