{"builder_meta": null, "nsites": null, "elements": null, "nelements": null, "composition": null, "composition_reduced": null, "formula_pretty": "ReI3", "formula_anonymous": "AB3", "chemsys": null, "volume": 963.0550550777276, "density": 5.865044683547671, "density_atomic": 40.127293961571986, "symmetry": null, "property_name": null, "material_id": "mp-573815", "deprecated": null, "deprecation_reasons": null, "last_updated": null, "origins": null, "warnings": null, "structure": {"@module": "pymatgen.core.structure", "@class": "Structure", "charge": 0, "lattice": {"matrix": [[9.08629614, 0.07891295, 0.0], [-3.22883627, 9.28357611, 0.0], [0.0, 0.0, 11.38253715]], "pbc": [true, true, true], "a": 9.086638806371507, "b": 9.829047209604308, "c": 11.38253715, "alpha": 90.0, "beta": 90.0, "gamma": 108.68012977456078, "volume": 963.0550550777276}, "properties": {}, "sites": [{"species": [{"element": "Re", "occu": 1}], "abc": [0.84186316, 0.65101857, 0.75], "properties": {"magmom": 0.0}, "label": "Re", "xyz": [5.547385609856669, 6.110214349070285, 8.5369028625]}, {"species": [{"element": "Re", "occu": 1}], "abc": [0.8378671, 0.86389422, 0.85934862], "properties": {"magmom": 0.0}, "label": "Re", "xyz": [4.823735605583634, 8.08614630692803, 9.781567591951232]}, {"species": [{"element": "Re", "occu": 1}], "abc": [0.1621329, 0.13610578, 0.35934862], "properties": {"magmom": 0.0}, "label": "Re", "xyz": [1.0337242644163651, 1.2763427530719709, 4.090299016951233]}, {"species": [{"element": "Re", "occu": 1}], "abc": [0.1621329, 0.13610578, 0.14065138], "properties": {"magmom": 0.0}, "label": "Re", "xyz": [1.0337242644163651, 1.2763427530719709, 1.6009695580487668]}, {"species": [{"element": "Re", "occu": 1}], "abc": [0.8378671, 0.86389422, 0.64065138], "properties": {"magmom": 0.0}, "label": "Re", "xyz": [4.823735605583634, 8.08614630692803, 7.292238133048766]}, {"species": [{"element": "Re", "occu": 1}], "abc": [0.15813684, 0.34898143, 0.25], "properties": {"magmom": 0.0}, "label": "Re", "xyz": [0.3100742601433315, 3.2522747109297154, 2.8456342875]}, {"species": [{"element": "I", "occu": 1}], "abc": [0.45965676, 0.19331224, 0.41109681000000003], "properties": {"magmom": -0.0}, "label": "I", "xyz": [3.5524038721659617, 1.8309017639536285, 4.679324712071492]}, {"species": [{"element": "I", "occu": 1}], "abc": [0.85004142, 0.0161146, 0.41023445000000003], "properties": {"magmom": -0.0}, "label": "I", "xyz": [7.671696668429577, 0.21668039165659503, 4.669508867334818]}, {"species": [{"element": "I", "occu": 1}], "abc": [0.88236632, 0.37907041, 0.25], "properties": {"magmom": 0.0}, "label": "I", "xyz": [6.793485398790235, 3.5887591315757494, 2.8456342875]}, {"species": [{"element": "I", "occu": 1}], "abc": [0.8435365300000001, 0.63032309, 0.99256675], "properties": {"magmom": -0.0}, "label": "I", "xyz": [5.62941266167752, 5.918218335920443, 11.297927905729763]}, {"species": [{"element": "I", "occu": 1}], "abc": [0.43156739, 0.53855407, 0.25], "properties": {"magmom": -0.0}, "label": "I", "xyz": [2.1824461953347556, 5.033763954063968, 2.8456342875]}, {"species": [{"element": "I", "occu": 1}], "abc": [0.14995858, 0.983885399999999, 0.58976555], "properties": {"magmom": -0.0}, "label": "I", "xyz": [-1.8142367984295735, 9.145808668343397, 6.7130282826651815]}, {"species": [{"element": "I", "occu": 1}], "abc": [0.84310003, 0.11574826, 0.75], "properties": {"magmom": 0.0}, "label": "I", "xyz": [7.2869243681454945, 1.141089291822457, 8.5369028625]}, {"species": [{"element": "I", "occu": 1}], "abc": [0.15646347, 0.36967691, 0.00743325], "properties": {"magmom": -0.0}, "label": "I", "xyz": [0.22804720832247982, 3.444270724079557, 0.08460924427023749]}, {"species": [{"element": "I", "occu": 1}], "abc": [0.15689997, 0.8842517400000001, 0.25], "properties": {"magmom": 0.0}, "label": "I", "xyz": [-1.4294644981454943, 8.221399768177545, 2.8456342875]}, {"species": [{"element": "I", "occu": 1}], "abc": [0.56843261, 0.46144593, 0.75], "properties": {"magmom": -0.0}, "label": "I", "xyz": [3.675013674665244, 4.328725105936032, 8.5369028625]}, {"species": [{"element": "I", "occu": 1}], "abc": [0.15646347, 0.36967691, 0.49256675], "properties": {"magmom": -0.0}, "label": "I", "xyz": [0.22804720832247982, 3.444270724079557, 5.606659330729762]}, {"species": [{"element": "I", "occu": 1}], "abc": [0.54034324, 0.80668776, 0.58890319], "properties": {"magmom": -0.0}, "label": "I", "xyz": [2.3050559978340384, 7.5315872960463714, 6.703212437928508]}, {"species": [{"element": "I", "occu": 1}], "abc": [0.45965676, 0.19331224, 0.08890319], "properties": {"magmom": -0.0}, "label": "I", "xyz": [3.5524038721659617, 1.8309017639536285, 1.0119438629285085]}, {"species": [{"element": "I", "occu": 1}], "abc": [0.85004142, 0.0161146, 0.08976555], "properties": {"magmom": -0.0}, "label": "I", "xyz": [7.671696668429577, 0.21668039165659503, 1.0217597076651823]}, {"species": [{"element": "I", "occu": 1}], "abc": [0.14995858, 0.983885399999999, 0.91023445], "properties": {"magmom": -0.0}, "label": "I", "xyz": [-1.8142367984295735, 9.145808668343397, 10.360777442334816]}, {"species": [{"element": "I", "occu": 1}], "abc": [0.8435365300000001, 0.63032309, 0.5074332500000001], "properties": {"magmom": -0.0}, "label": "I", "xyz": [5.62941266167752, 5.918218335920443, 5.775877819270238]}, {"species": [{"element": "I", "occu": 1}], "abc": [0.54034324, 0.80668776, 0.91109681], "properties": {"magmom": -0.0}, "label": "I", "xyz": [2.3050559978340384, 7.5315872960463714, 10.370593287071491]}, {"species": [{"element": "I", "occu": 1}], "abc": [0.11763368, 0.62092959, 0.75], "properties": {"magmom": 0.0}, "label": "I", "xyz": [-0.9360255287902339, 5.773729928424252, 8.5369028625]}]}, "task_ids": null, "uncorrected_energy_per_atom": null, "energy_per_atom": -4.603805624583335, "formation_energy_per_atom": -0.348767611458335, "energy_above_hull": 0.0, "is_stable": true, "equilibrium_reaction_energy_per_atom": null, "decomposes_to": null, "xas": null, "grain_boundaries": null, "band_gap": 0.9469999999999991, "cbm": null, "vbm": null, "efermi": 1.90774207, "is_gap_direct": null, "is_metal": null, "es_source_calc_id": null, "bandstructure": null, "dos": null, "dos_energy_up": null, "dos_energy_down": null, "is_magnetic": null, "ordering": null, "total_magnetization": 0.0, "total_magnetization_normalized_vol": null, "total_magnetization_normalized_formula_units": null, "num_magnetic_sites": null, "num_unique_magnetic_sites": null, "types_of_magnetic_species": null, "bulk_modulus": null, "shear_modulus": null, "universal_anisotropy": null, "homogeneous_poisson": null, "e_total": null, "e_ionic": null, "e_electronic": null, "n": null, "e_ij_max": null, "weighted_surface_energy_EV_PER_ANG2": null, "weighted_surface_energy": null, "weighted_work_function": null, "surface_anisotropy": null, "shape_factor": null, "has_reconstructed": null, "possible_species": null, "has_props": null, "theoretical": null, "database_IDs": null, "fields_not_requested": ["builder_meta", "nsites", "elements", "nelements", "composition", "composition_reduced", "chemsys", "symmetry", "property_name", "deprecated", "deprecation_reasons", "last_updated", "origins", "warnings", "task_ids", "uncorrected_energy_per_atom", "equilibrium_reaction_energy_per_atom", "decomposes_to", "xas", "grain_boundaries", "cbm", "vbm", "is_gap_direct", "is_metal", "es_source_calc_id", "bandstructure", "dos", "dos_energy_up", "dos_energy_down", "is_magnetic", "ordering", "total_magnetization_normalized_vol", "total_magnetization_normalized_formula_units", "num_magnetic_sites", "num_unique_magnetic_sites", "types_of_magnetic_species", "bulk_modulus", "shear_modulus", "universal_anisotropy", "homogeneous_poisson", "e_total", "e_ionic", "e_electronic", "n", "e_ij_max", "weighted_surface_energy_EV_PER_ANG2", "weighted_surface_energy", "weighted_work_function", "surface_anisotropy", "shape_factor", "has_reconstructed", "possible_species", "has_props", "theoretical", "database_IDs"]}