{"builder_meta": null, "nsites": null, "elements": null, "nelements": null, "composition": null, "composition_reduced": null, "formula_pretty": "ReIr3", "formula_anonymous": "AB3", "chemsys": null, "volume": 114.8006592624419, "density": 22.06878461163635, "density_atomic": 14.350082407805237, "symmetry": null, "property_name": null, "material_id": "mp-867792", "deprecated": null, "deprecation_reasons": null, "last_updated": null, "origins": null, "warnings": null, "structure": {"@module": "pymatgen.core.structure", "@class": "Structure", "charge": 0, "lattice": {"matrix": [[5.50256581, 1.08e-06, -2.44e-06], [-2.75128348, 4.7653611399999996, 2.16e-06], [-2.149999999999999e-06, 3.2e-07, 4.37807572]], "pbc": [true, true, true], "a": 5.502565810000647, "b": 5.502565545447657, "c": 4.37807572000054, "alpha": 89.99995981360202, "beta": 90.00005354364013, "gamma": 119.99999725830133, "volume": 114.80065926244185}, "properties": {}, "sites": [{"species": [{"element": "Re", "occu": 1}], "abc": [0.33333402, 0.66666689, 0.7499989300000001], "properties": {"magmom": -0.001}, "label": "Re", "xyz": [1.168144179474422e-06, 3.1769090909310536, 3.2835527321244538]}, {"species": [{"element": "Re", "occu": 1}], "abc": [0.66666636, 0.33333324000000003, 0.24999909], "properties": {"magmom": -0.001}, "label": "Re", "xyz": [2.7512807451682333, 1.5884540685656712, 1.0945140392849748]}, {"species": [{"element": "Ir", "occu": 1}], "abc": [0.16696473, 0.33392855, 0.24999963], "properties": {"magmom": -0.0}, "label": "Ir", "xyz": [1.7741593228763593e-06, 1.5912903960283367, 1.0945176240037104]}, {"species": [{"element": "Ir", "occu": 1}], "abc": [0.66607171, 0.83303591, 0.24999932], "properties": {"magmom": -0.0}, "label": "Ir", "xyz": [1.3731849435259302, 3.9697177530957664, 1.0945161270511037]}, {"species": [{"element": "Ir", "occu": 1}], "abc": [0.16696466000000001, 0.83303481, 0.24999964], "properties": {"magmom": -0.0}, "label": "Ir", "xyz": [-1.3731814189228904, 3.969711972163001, 1.09451874585416]}, {"species": [{"element": "Ir", "occu": 1}], "abc": [0.8330357700000001, 0.66607165, 0.75000029], "properties": {"magmom": -0.0}, "label": "Ir", "xyz": [2.7512806068670583, 3.174073097044405, 3.283557465749444]}, {"species": [{"element": "Ir", "occu": 1}], "abc": [0.33392826000000003, 0.16696376000000002, 0.75000001], "properties": {"magmom": -0.0}, "label": "Ir", "xyz": [1.3780959793220844, 0.7956432143348104, 3.2835563796375244]}, {"species": [{"element": "Ir", "occu": 1}], "abc": [0.83303549, 0.16696519, 0.74999909], "properties": {"magmom": -0.0}, "label": "Ir", "xyz": [4.124462424310493, 0.7956505678367546, 3.2835511339893095]}]}, "task_ids": null, "uncorrected_energy_per_atom": null, "energy_per_atom": -52.50841751, "formation_energy_per_atom": -0.136248745625003, "energy_above_hull": 0.0, "is_stable": true, "equilibrium_reaction_energy_per_atom": null, "decomposes_to": null, "xas": null, "grain_boundaries": null, "band_gap": 0.0, "cbm": null, "vbm": null, "efermi": 9.77010695, "is_gap_direct": null, "is_metal": null, "es_source_calc_id": null, "bandstructure": null, "dos": null, "dos_energy_up": null, "dos_energy_down": null, "is_magnetic": null, "ordering": null, "total_magnetization": 0.0018334, "total_magnetization_normalized_vol": null, "total_magnetization_normalized_formula_units": null, "num_magnetic_sites": null, "num_unique_magnetic_sites": null, "types_of_magnetic_species": null, "bulk_modulus": null, "shear_modulus": null, "universal_anisotropy": null, "homogeneous_poisson": null, "e_total": null, "e_ionic": null, "e_electronic": null, "n": null, "e_ij_max": null, "weighted_surface_energy_EV_PER_ANG2": null, "weighted_surface_energy": null, "weighted_work_function": null, "surface_anisotropy": null, "shape_factor": null, "has_reconstructed": null, "possible_species": null, "has_props": null, "theoretical": null, "database_IDs": null, "fields_not_requested": ["builder_meta", "nsites", "elements", "nelements", "composition", "composition_reduced", "chemsys", "symmetry", "property_name", "deprecated", "deprecation_reasons", "last_updated", "origins", "warnings", "task_ids", "uncorrected_energy_per_atom", "equilibrium_reaction_energy_per_atom", "decomposes_to", "xas", "grain_boundaries", "cbm", "vbm", "is_gap_direct", "is_metal", "es_source_calc_id", "bandstructure", "dos", "dos_energy_up", "dos_energy_down", "is_magnetic", "ordering", "total_magnetization_normalized_vol", "total_magnetization_normalized_formula_units", "num_magnetic_sites", "num_unique_magnetic_sites", "types_of_magnetic_species", "bulk_modulus", "shear_modulus", "universal_anisotropy", "homogeneous_poisson", "e_total", "e_ionic", "e_electronic", "n", "e_ij_max", "weighted_surface_energy_EV_PER_ANG2", "weighted_surface_energy", "weighted_work_function", "surface_anisotropy", "shape_factor", "has_reconstructed", "possible_species", "has_props", "theoretical", "database_IDs"]}