{"builder_meta": null, "nsites": null, "elements": null, "nelements": null, "composition": null, "composition_reduced": null, "formula_pretty": "ReMo3", "formula_anonymous": "AB3", "chemsys": null, "volume": 62.79832811263168, "density": 12.534415736537218, "density_atomic": 15.69958202815792, "symmetry": null, "property_name": null, "material_id": "mp-1219493", "deprecated": null, "deprecation_reasons": null, "last_updated": null, "origins": null, "warnings": null, "structure": {"@module": "pymatgen.core.structure", "@class": "Structure", "charge": 0, "lattice": {"matrix": [[1.569885, -2.233743, 0.0], [1.569885, 2.233743, 0.0], [0.0, 0.0, 8.953999]], "pbc": [true, true, true], "a": 2.730228324384977, "b": 2.730228324384977, "c": 8.953999, "alpha": 90.0, "beta": 90.0, "gamma": 109.8005451069672, "volume": 62.79832811263168}, "properties": {}, "sites": [{"species": [{"element": "Re", "occu": 1}], "abc": [0.0, 0.0, 0.0], "properties": {"magmom": -0.0}, "label": "Re", "xyz": [0.0, 0.0, 0.0]}, {"species": [{"element": "Mo", "occu": 1}], "abc": [0.5, 0.5, 0.750347], "properties": {"magmom": -0.0}, "label": "Mo", "xyz": [1.569885, 0.0, 6.7186062876529995]}, {"species": [{"element": "Mo", "occu": 1}], "abc": [0.0, 0.0, 0.5], "properties": {"magmom": -0.001}, "label": "Mo", "xyz": [0.0, 0.0, 4.4769995]}, {"species": [{"element": "Mo", "occu": 1}], "abc": [0.5, 0.5, 0.24965299999999901], "properties": {"magmom": -0.0}, "label": "Mo", "xyz": [1.569885, 0.0, 2.235392712346991]}]}, "task_ids": null, "uncorrected_energy_per_atom": null, "energy_per_atom": -32.60032089322916, "formation_energy_per_atom": 0.056317363645838, "energy_above_hull": 0.065105980624998, "is_stable": false, "equilibrium_reaction_energy_per_atom": null, "decomposes_to": null, "xas": null, "grain_boundaries": null, "band_gap": 0.0, "cbm": null, "vbm": null, "efermi": 8.49492127, "is_gap_direct": null, "is_metal": null, "es_source_calc_id": null, "bandstructure": null, "dos": null, "dos_energy_up": null, "dos_energy_down": null, "is_magnetic": null, "ordering": null, "total_magnetization": 0.007991999999999, "total_magnetization_normalized_vol": null, "total_magnetization_normalized_formula_units": null, "num_magnetic_sites": null, "num_unique_magnetic_sites": null, "types_of_magnetic_species": null, "bulk_modulus": null, "shear_modulus": null, "universal_anisotropy": null, "homogeneous_poisson": null, "e_total": null, "e_ionic": null, "e_electronic": null, "n": null, "e_ij_max": null, "weighted_surface_energy_EV_PER_ANG2": null, "weighted_surface_energy": null, "weighted_work_function": null, "surface_anisotropy": null, "shape_factor": null, "has_reconstructed": null, "possible_species": null, "has_props": null, "theoretical": null, "database_IDs": null, "fields_not_requested": ["builder_meta", "nsites", "elements", "nelements", "composition", "composition_reduced", "chemsys", "symmetry", "property_name", "deprecated", "deprecation_reasons", "last_updated", "origins", "warnings", "task_ids", "uncorrected_energy_per_atom", "equilibrium_reaction_energy_per_atom", "decomposes_to", "xas", "grain_boundaries", "cbm", "vbm", "is_gap_direct", "is_metal", "es_source_calc_id", "bandstructure", "dos", "dos_energy_up", "dos_energy_down", "is_magnetic", "ordering", "total_magnetization_normalized_vol", "total_magnetization_normalized_formula_units", "num_magnetic_sites", "num_unique_magnetic_sites", "types_of_magnetic_species", "bulk_modulus", "shear_modulus", "universal_anisotropy", "homogeneous_poisson", "e_total", "e_ionic", "e_electronic", "n", "e_ij_max", "weighted_surface_energy_EV_PER_ANG2", "weighted_surface_energy", "weighted_work_function", "surface_anisotropy", "shape_factor", "has_reconstructed", "possible_species", "has_props", "theoretical", "database_IDs"]}