{
  "builder_meta": null,
  "nsites": null,
  "elements": null,
  "nelements": null,
  "composition": null,
  "composition_reduced": null,
  "formula_pretty": "ReN2",
  "formula_anonymous": "AB2",
  "chemsys": null,
  "volume": 68.06435369490643,
  "density": 10.452500427967742,
  "density_atomic": 11.344058949151071,
  "symmetry": null,
  "property_name": null,
  "material_id": "mp-1019080",
  "deprecated": null,
  "deprecation_reasons": null,
  "last_updated": null,
  "origins": null,
  "warnings": null,
  "structure": {
    "@module": "pymatgen.core.structure",
    "@class": "Structure",
    "charge": 0,
    "lattice": {
      "matrix": [
        [4.812784, 0.0, 0.0],
        [0.0, 2.920166, 0.0],
        [0.0, 2.808764, 4.843015]
      ],
      "pbc": [true, true, true],
      "a": 4.812784,
      "b": 2.920166,
      "c": 5.598566736042449,
      "alpha": 59.88790194945594,
      "beta": 90.0,
      "gamma": 90.0,
      "volume": 68.06435369490643
    },
    "properties": {},
    "sites": [
      {
        "species": [{ "element": "Re", "occu": 1 }],
        "abc": [0.75175, 0.112425, 0.016167],
        "properties": { "magmom": 0.0 },
        "label": "Re",
        "xyz": [3.618010372, 0.373708950138, 0.07829702350500001]
      },
      {
        "species": [{ "element": "Re", "occu": 1 }],
        "abc": [0.24825000000000003, 0.112425, 0.516166999999999],
        "properties": { "magmom": 0.0 },
        "label": "Re",
        "xyz": [1.194773628, 1.7780909501379973, 2.4998045235049955]
      },
      {
        "species": [{ "element": "N", "occu": 1 }],
        "abc": [0.959835, 0.928875, 0.791334],
        "properties": { "magmom": 0.0 },
        "label": "N",
        "xyz": [4.6194785306399995, 4.935139644426, 3.83244243201]
      },
      {
        "species": [{ "element": "N", "occu": 1 }],
        "abc": [0.040165, 0.928875, 0.291334],
        "properties": { "magmom": 0.0 },
        "label": "N",
        "xyz": [0.19330546935999998, 3.530757644426, 1.41093493201]
      },
      {
        "species": [{ "element": "N", "occu": 1 }],
        "abc": [0.453682, 0.4887, 0.7035],
        "properties": { "magmom": -0.0 },
        "label": "N",
        "xyz": [2.183473470688, 3.4030505982, 3.4070610525000005]
      },
      {
        "species": [{ "element": "N", "occu": 1 }],
        "abc": [0.546318, 0.4887, 0.20350000000000001],
        "properties": { "magmom": -0.0 },
        "label": "N",
        "xyz": [2.629310529312, 1.9986685982, 0.9855535525000001]
      }
    ]
  },
  "task_ids": null,
  "uncorrected_energy_per_atom": null,
  "energy_per_atom": -23.52118085013889,
  "formation_energy_per_atom": 0.034857833194446006,
  "energy_above_hull": 0.07440130944444301,
  "is_stable": false,
  "equilibrium_reaction_energy_per_atom": null,
  "decomposes_to": null,
  "xas": null,
  "grain_boundaries": null,
  "band_gap": 0.0,
  "cbm": null,
  "vbm": null,
  "efermi": 5.20787439,
  "is_gap_direct": null,
  "is_metal": null,
  "es_source_calc_id": null,
  "bandstructure": null,
  "dos": null,
  "dos_energy_up": null,
  "dos_energy_down": null,
  "is_magnetic": null,
  "ordering": null,
  "total_magnetization": 6.5e-6,
  "total_magnetization_normalized_vol": null,
  "total_magnetization_normalized_formula_units": null,
  "num_magnetic_sites": null,
  "num_unique_magnetic_sites": null,
  "types_of_magnetic_species": null,
  "bulk_modulus": null,
  "shear_modulus": null,
  "universal_anisotropy": null,
  "homogeneous_poisson": null,
  "e_total": null,
  "e_ionic": null,
  "e_electronic": null,
  "n": null,
  "e_ij_max": null,
  "weighted_surface_energy_EV_PER_ANG2": null,
  "weighted_surface_energy": null,
  "weighted_work_function": null,
  "surface_anisotropy": null,
  "shape_factor": null,
  "has_reconstructed": null,
  "possible_species": null,
  "has_props": null,
  "theoretical": null,
  "database_IDs": null,
  "fields_not_requested": [
    "builder_meta",
    "nsites",
    "elements",
    "nelements",
    "composition",
    "composition_reduced",
    "chemsys",
    "symmetry",
    "property_name",
    "deprecated",
    "deprecation_reasons",
    "last_updated",
    "origins",
    "warnings",
    "task_ids",
    "uncorrected_energy_per_atom",
    "equilibrium_reaction_energy_per_atom",
    "decomposes_to",
    "xas",
    "grain_boundaries",
    "cbm",
    "vbm",
    "is_gap_direct",
    "is_metal",
    "es_source_calc_id",
    "bandstructure",
    "dos",
    "dos_energy_up",
    "dos_energy_down",
    "is_magnetic",
    "ordering",
    "total_magnetization_normalized_vol",
    "total_magnetization_normalized_formula_units",
    "num_magnetic_sites",
    "num_unique_magnetic_sites",
    "types_of_magnetic_species",
    "bulk_modulus",
    "shear_modulus",
    "universal_anisotropy",
    "homogeneous_poisson",
    "e_total",
    "e_ionic",
    "e_electronic",
    "n",
    "e_ij_max",
    "weighted_surface_energy_EV_PER_ANG2",
    "weighted_surface_energy",
    "weighted_work_function",
    "surface_anisotropy",
    "shape_factor",
    "has_reconstructed",
    "possible_species",
    "has_props",
    "theoretical",
    "database_IDs"
  ]
}
