{
  "builder_meta": null,
  "nsites": null,
  "elements": null,
  "nelements": null,
  "composition": null,
  "composition_reduced": null,
  "formula_pretty": "ReO2",
  "formula_anonymous": "AB2",
  "chemsys": null,
  "volume": 125.98508132915708,
  "density": 11.50419562811677,
  "density_atomic": 10.498756777429756,
  "symmetry": null,
  "property_name": null,
  "material_id": "mp-7228",
  "deprecated": null,
  "deprecation_reasons": null,
  "last_updated": null,
  "origins": null,
  "warnings": null,
  "structure": {
    "@module": "pymatgen.core.structure",
    "@class": "Structure",
    "charge": 0,
    "lattice": {
      "matrix": [
        [4.5850747, 0.0, 0.0],
        [0.0, 4.85383245, 0.0],
        [0.0, 0.0, 5.66093182]
      ],
      "pbc": [true, true, true],
      "a": 4.5850747,
      "b": 4.85383245,
      "c": 5.66093182,
      "alpha": 90.0,
      "beta": 90.0,
      "gamma": 90.0,
      "volume": 125.98508132915708
    },
    "properties": {},
    "sites": [
      {
        "species": [{ "element": "Re", "occu": 1 }],
        "abc": [0.25, 0.5, 0.6070985],
        "properties": { "magmom": -0.0 },
        "label": "Re",
        "xyz": [1.146268675, 2.426916225, 3.43674321652427]
      },
      {
        "species": [{ "element": "Re", "occu": 1 }],
        "abc": [0.75, 0.0, 0.8929015],
        "properties": { "magmom": -0.0 },
        "label": "Re",
        "xyz": [3.438806025, 0.0, 5.05465451347573]
      },
      {
        "species": [{ "element": "Re", "occu": 1 }],
        "abc": [0.75, 0.5, 0.392901499999999],
        "properties": { "magmom": -0.0 },
        "label": "Re",
        "xyz": [3.438806025, 2.426916225, 2.2241886034757243]
      },
      {
        "species": [{ "element": "Re", "occu": 1 }],
        "abc": [0.25, -0.0, 0.1070985],
        "properties": { "magmom": -0.0 },
        "label": "Re",
        "xyz": [1.146268675, 0.0, 0.60627730652427]
      },
      {
        "species": [{ "element": "O", "occu": 1 }],
        "abc": [0.59148255, 0.24072465, 0.64005818],
        "properties": { "magmom": 0.0 },
        "label": "O",
        "xyz": [2.7119916754964852, 1.1684371176848924, 3.623325717813288]
      },
      {
        "species": [{ "element": "O", "occu": 1 }],
        "abc": [0.09148255, 0.25927535, 0.85994182],
        "properties": { "magmom": 0.0 },
        "label": "O",
        "xyz": [0.419454325496485, 1.2584791073151074, 4.868072012186713]
      },
      {
        "species": [{ "element": "O", "occu": 1 }],
        "abc": [0.40851745, 0.74072465, 0.85994182],
        "properties": { "magmom": 0.0 },
        "label": "O",
        "xyz": [1.873083024503515, 3.5953533426848923, 4.868072012186713]
      },
      {
        "species": [{ "element": "O", "occu": 1 }],
        "abc": [0.9085174500000001, 0.75927535, 0.64005818],
        "properties": { "magmom": 0.0 },
        "label": "O",
        "xyz": [4.165620374503515, 3.685395332315107, 3.623325717813288]
      },
      {
        "species": [{ "element": "O", "occu": 1 }],
        "abc": [0.09148255, 0.24072465, 0.35994182],
        "properties": { "magmom": 0.0 },
        "label": "O",
        "xyz": [0.419454325496485, 1.1684371176848924, 2.0376061021867127]
      },
      {
        "species": [{ "element": "O", "occu": 1 }],
        "abc": [0.59148255, 0.25927535, 0.14005818],
        "properties": { "magmom": 0.0 },
        "label": "O",
        "xyz": [2.7119916754964852, 1.2584791073151074, 0.7928598078132877]
      },
      {
        "species": [{ "element": "O", "occu": 1 }],
        "abc": [0.9085174500000001, 0.74072465, 0.14005818],
        "properties": { "magmom": 0.0 },
        "label": "O",
        "xyz": [4.165620374503515, 3.5953533426848923, 0.7928598078132877]
      },
      {
        "species": [{ "element": "O", "occu": 1 }],
        "abc": [0.40851745, 0.75927535, 0.35994182],
        "properties": { "magmom": 0.0 },
        "label": "O",
        "xyz": [1.873083024503515, 3.685395332315107, 2.0376061021867127]
      }
    ]
  },
  "task_ids": null,
  "uncorrected_energy_per_atom": null,
  "energy_per_atom": -9.343245855,
  "formation_energy_per_atom": -1.8952337825,
  "energy_above_hull": 0.0020897769444460004,
  "is_stable": false,
  "equilibrium_reaction_energy_per_atom": null,
  "decomposes_to": null,
  "xas": null,
  "grain_boundaries": null,
  "band_gap": 0.0,
  "cbm": null,
  "vbm": null,
  "efermi": 5.8217061,
  "is_gap_direct": null,
  "is_metal": null,
  "es_source_calc_id": null,
  "bandstructure": null,
  "dos": null,
  "dos_energy_up": null,
  "dos_energy_down": null,
  "is_magnetic": null,
  "ordering": null,
  "total_magnetization": 1.5e-6,
  "total_magnetization_normalized_vol": null,
  "total_magnetization_normalized_formula_units": null,
  "num_magnetic_sites": null,
  "num_unique_magnetic_sites": null,
  "types_of_magnetic_species": null,
  "bulk_modulus": null,
  "shear_modulus": null,
  "universal_anisotropy": null,
  "homogeneous_poisson": null,
  "e_total": null,
  "e_ionic": null,
  "e_electronic": null,
  "n": null,
  "e_ij_max": null,
  "weighted_surface_energy_EV_PER_ANG2": null,
  "weighted_surface_energy": null,
  "weighted_work_function": null,
  "surface_anisotropy": null,
  "shape_factor": null,
  "has_reconstructed": null,
  "possible_species": null,
  "has_props": null,
  "theoretical": null,
  "database_IDs": null,
  "fields_not_requested": [
    "builder_meta",
    "nsites",
    "elements",
    "nelements",
    "composition",
    "composition_reduced",
    "chemsys",
    "symmetry",
    "property_name",
    "deprecated",
    "deprecation_reasons",
    "last_updated",
    "origins",
    "warnings",
    "task_ids",
    "uncorrected_energy_per_atom",
    "equilibrium_reaction_energy_per_atom",
    "decomposes_to",
    "xas",
    "grain_boundaries",
    "cbm",
    "vbm",
    "is_gap_direct",
    "is_metal",
    "es_source_calc_id",
    "bandstructure",
    "dos",
    "dos_energy_up",
    "dos_energy_down",
    "is_magnetic",
    "ordering",
    "total_magnetization_normalized_vol",
    "total_magnetization_normalized_formula_units",
    "num_magnetic_sites",
    "num_unique_magnetic_sites",
    "types_of_magnetic_species",
    "bulk_modulus",
    "shear_modulus",
    "universal_anisotropy",
    "homogeneous_poisson",
    "e_total",
    "e_ionic",
    "e_electronic",
    "n",
    "e_ij_max",
    "weighted_surface_energy_EV_PER_ANG2",
    "weighted_surface_energy",
    "weighted_work_function",
    "surface_anisotropy",
    "shape_factor",
    "has_reconstructed",
    "possible_species",
    "has_props",
    "theoretical",
    "database_IDs"
  ]
}
