{"builder_meta": null, "nsites": null, "elements": null, "nelements": null, "composition": null, "composition_reduced": null, "formula_pretty": "ReO3", "formula_anonymous": "AB3", "chemsys": null, "volume": 213.50498898765895, "density": 7.286141387981261, "density_atomic": 13.344061811728684, "symmetry": null, "property_name": null, "material_id": "mp-190", "deprecated": null, "deprecation_reasons": null, "last_updated": null, "origins": null, "warnings": null, "structure": {"@module": "pymatgen.core.structure", "@class": "Structure", "charge": 0, "lattice": {"matrix": [[-3.765156069999999, 3.76515464, 3.76515639], [3.76515656, -3.76514831, 3.76515055], [3.7651551100000002, 3.76514735, -3.76515006]], "pbc": [true, true, true], "a": 6.521440970807694, "b": 6.521434227359208, "c": 6.521432553043015, "alpha": 109.47112354053735, "beta": 109.47126959393543, "gamma": 109.4712267320125, "volume": 213.50498898765895}, "properties": {}, "sites": [{"species": [{"element": "Re", "occu": 1}], "abc": [-9.57e-06, -1.38e-05, 0.49999523], "properties": {"magmom": -0.0}, "label": "Re", "xyz": [1.8825436685931873, 1.8825716417639138, -1.882645061858456]}, {"species": [{"element": "Re", "occu": 1}], "abc": [0.5000114, 1.7000000000000003e-05, 8.4e-06], "properties": {"magmom": -0.0}, "label": "Re", "xyz": [-1.8825253228147536, 1.8825878624793662, 1.882653498081692]}, {"species": [{"element": "Re", "occu": 1}], "abc": [5.76e-06, 0.50000349, -7.23e-06], "properties": {"magmom": -0.0}, "label": "Re", "xyz": [1.882542511025986, -1.882592830092216, 1.8826373247111596]}, {"species": [{"element": "Re", "occu": 1}], "abc": [0.49999151000000003, 0.49999818, 0.50000597], "properties": {"magmom": -0.0}, "label": "Re", "xyz": [1.8826253915661024, 1.8825742043367102, 1.8825171433023897]}, {"species": [{"element": "O", "occu": 1}], "abc": [0.24967532, 0.99939911, 0.7497141700000001], "properties": {"magmom": -0.0}, "label": "O", "xyz": [5.645617706662378, -3.5360007569540386e-05, 1.8801683830509548]}, {"species": [{"element": "O", "occu": 1}], "abc": [0.75031709, 0.00059697, 0.25027784000000003], "properties": {"magmom": -0.0}, "label": "O", "xyz": [-1.8804783721308498, 3.7651451383379015, 1.8849752435708682]}, {"species": [{"element": "O", "occu": 1}], "abc": [0.75031958, 0.50003666, 0.74972174], "properties": {"magmom": -0.0}, "label": "O", "xyz": [1.8804646300017316, 3.7651698853811952, 1.884969012253975]}, {"species": [{"element": "O", "occu": 1}], "abc": [0.24968127, 0.49995949, 0.25028185000000003], "properties": {"magmom": 0.0}, "label": "O", "xyz": [1.8846867906696994, 1.5007700228664156e-05, 1.8801630554106241]}, {"species": [{"element": "O", "occu": 1}], "abc": [0.9994066300000001, 0.7497129100000001, 0.249698199999999], "properties": {"magmom": 0.0}, "label": "O", "xyz": [1.6995548244747027e-05, 1.8802907301493474, 5.6455530418695785]}, {"species": [{"element": "O", "occu": 1}], "abc": [0.00059085, 0.25029096, 0.75030809], "properties": {"magmom": -0.0}, "label": "O", "xyz": [3.765186346626578, 1.884862573313828, -1.8804147617249258]}, {"species": [{"element": "O", "occu": 1}], "abc": [0.50002112, 0.74971098, 0.75030176], "properties": {"magmom": 0.0}, "label": "O", "xyz": [3.7651241650608247, 1.884880494094889, 1.8804337071088906]}, {"species": [{"element": "O", "occu": 1}], "abc": [0.49998345, 0.25028521, 0.24969379], "properties": {"magmom": -0.0}, "label": "O", "xyz": [-1.6872010796475934e-05, 1.8802879829711694, 1.8847427893499837]}, {"species": [{"element": "O", "occu": 1}], "abc": [0.7497038500000001, 0.24969004, 0.99939593], "properties": {"magmom": -0.0}, "label": "O", "xyz": [1.8802507832954962, 5.645503834763817, -2.8129326321568726e-06]}, {"species": [{"element": "O", "occu": 1}], "abc": [0.25029448, 0.75030679, 0.00060433], "properties": {"magmom": -0.0}, "label": "O", "xyz": [1.8849001479091756, -1.8803435281136123, 3.7651404906552015]}, {"species": [{"element": "O", "occu": 1}], "abc": [0.74970581, 0.7503101600000001, 0.50001025], "properties": {"magmom": -0.0}, "label": "O", "xyz": [1.8848919875627612, 1.8803415460169663, 3.7651767099480993]}, {"species": [{"element": "O", "occu": 1}], "abc": [0.25030044, 0.24969484, 0.4999877], "properties": {"magmom": -0.0}, "label": "O", "xyz": [1.880251187426627, 1.8848091219059162, 3.024658971173544e-05]}]}, "task_ids": null, "uncorrected_energy_per_atom": null, "energy_per_atom": -8.95748831, "formation_energy_per_atom": -2.134489004375001, "energy_above_hull": 0.0, "is_stable": true, "equilibrium_reaction_energy_per_atom": null, "decomposes_to": null, "xas": null, "grain_boundaries": null, "band_gap": 0.0, "cbm": null, "vbm": null, "efermi": 0.82981974, "is_gap_direct": null, "is_metal": null, "es_source_calc_id": null, "bandstructure": null, "dos": null, "dos_energy_up": null, "dos_energy_down": null, "is_magnetic": null, "ordering": null, "total_magnetization": 0.0, "total_magnetization_normalized_vol": null, "total_magnetization_normalized_formula_units": null, "num_magnetic_sites": null, "num_unique_magnetic_sites": null, "types_of_magnetic_species": null, "bulk_modulus": null, "shear_modulus": null, "universal_anisotropy": null, "homogeneous_poisson": null, "e_total": null, "e_ionic": null, "e_electronic": null, "n": null, "e_ij_max": null, "weighted_surface_energy_EV_PER_ANG2": null, "weighted_surface_energy": null, "weighted_work_function": null, "surface_anisotropy": null, "shape_factor": null, "has_reconstructed": null, "possible_species": null, "has_props": null, "theoretical": null, "database_IDs": null, "fields_not_requested": ["builder_meta", "nsites", "elements", "nelements", "composition", "composition_reduced", "chemsys", "symmetry", "property_name", "deprecated", "deprecation_reasons", "last_updated", "origins", "warnings", "task_ids", "uncorrected_energy_per_atom", "equilibrium_reaction_energy_per_atom", "decomposes_to", "xas", "grain_boundaries", "cbm", "vbm", "is_gap_direct", "is_metal", "es_source_calc_id", "bandstructure", "dos", "dos_energy_up", "dos_energy_down", "is_magnetic", "ordering", "total_magnetization_normalized_vol", "total_magnetization_normalized_formula_units", "num_magnetic_sites", "num_unique_magnetic_sites", "types_of_magnetic_species", "bulk_modulus", "shear_modulus", "universal_anisotropy", "homogeneous_poisson", "e_total", "e_ionic", "e_electronic", "n", "e_ij_max", "weighted_surface_energy_EV_PER_ANG2", "weighted_surface_energy", "weighted_work_function", "surface_anisotropy", "shape_factor", "has_reconstructed", "possible_species", "has_props", "theoretical", "database_IDs"]}