{"builder_meta": null, "nsites": null, "elements": null, "nelements": null, "composition": null, "composition_reduced": null, "formula_pretty": "ReO5", "formula_anonymous": "AB5", "chemsys": null, "volume": 180.14061946096047, "density": 4.90774532704418, "density_atomic": 15.011718288413372, "symmetry": null, "property_name": null, "material_id": "mp-1179307", "deprecated": null, "deprecation_reasons": null, "last_updated": null, "origins": null, "warnings": null, "structure": {"@module": "pymatgen.core.structure", "@class": "Structure", "charge": 0, "lattice": {"matrix": [[-2.702136, 2.702136, 6.167899], [2.702136, -2.702136, 6.167899], [2.702136, 2.702136, -6.167899]], "pbc": [true, true, true], "a": 7.255760194438141, "b": 7.255760194438141, "c": 7.255760194438141, "alpha": 136.27103737948846, "beta": 136.27103737948846, "gamma": 63.56158441996247, "volume": 180.14061946096047}, "properties": {}, "sites": [{"species": [{"element": "Re", "occu": 1}], "abc": [0.75, 0.25, 0.5], "properties": {"magmom": -0.043000000000000003}, "label": "Re", "xyz": [-2.220446049250313e-16, 2.7021360000000003, 3.0839495]}, {"species": [{"element": "Re", "occu": 1}], "abc": [0.0, 0.0, 0.0], "properties": {"magmom": -0.043000000000000003}, "label": "Re", "xyz": [0.0, 0.0, 0.0]}, {"species": [{"element": "O", "occu": 1}], "abc": [0.25, 0.75, 0.5], "properties": {"magmom": 1.8210000000000002}, "label": "O", "xyz": [2.7021360000000003, -2.220446049250313e-16, 3.0839495]}, {"species": [{"element": "O", "occu": 1}], "abc": [0.5, 0.5, 0.0], "properties": {"magmom": 1.8210000000000002}, "label": "O", "xyz": [0.0, 0.0, 6.167899]}, {"species": [{"element": "O", "occu": 1}], "abc": [0.062178, 0.46590000000000004, 0.865448999999999], "properties": {"magmom": 0.186}, "label": "O", "xyz": [3.429472649255997, 1.2476491488719972, -2.080870253528994]}, {"species": [{"element": "O", "occu": 1}], "abc": [0.600451, 0.196729, 0.134551], "properties": {"magmom": 0.186}, "label": "O", "xyz": [-0.7273366492559998, 1.4544868511279998, 4.087028746471]}, {"species": [{"element": "O", "occu": 1}], "abc": [0.946728999999999, 0.312178, 0.096278], "properties": {"magmom": 0.186}, "label": "O", "xyz": [-1.4544868511279971, 1.9747993507439974, 7.170978246470995]}, {"species": [{"element": "O", "occu": 1}], "abc": [0.2159, 0.850451, 0.903721999999999], "properties": {"magmom": 0.186}, "label": "O", "xyz": [4.156622851127997, 0.7273366492559976, 1.0030792464710059]}, {"species": [{"element": "O", "occu": 1}], "abc": [0.687821999999999, 0.7841, 0.634551], "properties": {"magmom": 0.186}, "label": "O", "xyz": [1.9747993507440025, 1.4544868511279974, 5.164819753528994]}, {"species": [{"element": "O", "occu": 1}], "abc": [0.149549, 0.053271, 0.365448999999999], "properties": {"magmom": 0.186}, "label": "O", "xyz": [0.7273366492559973, 1.2476491488719974, -1.0030792464709941]}, {"species": [{"element": "O", "occu": 1}], "abc": [0.803271, 0.937821999999999, 0.403721999999999], "properties": {"magmom": 0.186}, "label": "O", "xyz": [1.4544868511279947, 0.7273366492560001, 8.248769253529002]}, {"species": [{"element": "O", "occu": 1}], "abc": [0.5341, 0.399549, 0.596278], "properties": {"magmom": 0.186}, "label": "O", "xyz": [1.2476491488719998, 1.9747993507439998, 2.080870253529001]}]}, "task_ids": null, "uncorrected_energy_per_atom": null, "energy_per_atom": -7.260253025000001, "formation_energy_per_atom": -1.062266486250002, "energy_above_hull": 0.45713478718749806, "is_stable": false, "equilibrium_reaction_energy_per_atom": null, "decomposes_to": null, "xas": null, "grain_boundaries": null, "band_gap": 0.0, "cbm": null, "vbm": null, "efermi": -1.40923869, "is_gap_direct": null, "is_metal": null, "es_source_calc_id": null, "bandstructure": null, "dos": null, "dos_energy_up": null, "dos_energy_down": null, "is_magnetic": null, "ordering": null, "total_magnetization": 5.9998728, "total_magnetization_normalized_vol": null, "total_magnetization_normalized_formula_units": null, "num_magnetic_sites": null, "num_unique_magnetic_sites": null, "types_of_magnetic_species": null, "bulk_modulus": null, "shear_modulus": null, "universal_anisotropy": null, "homogeneous_poisson": null, "e_total": null, "e_ionic": null, "e_electronic": null, "n": null, "e_ij_max": null, "weighted_surface_energy_EV_PER_ANG2": null, "weighted_surface_energy": null, "weighted_work_function": null, "surface_anisotropy": null, "shape_factor": null, "has_reconstructed": null, "possible_species": null, "has_props": null, "theoretical": null, "database_IDs": null, "fields_not_requested": ["builder_meta", "nsites", "elements", "nelements", "composition", "composition_reduced", "chemsys", "symmetry", "property_name", "deprecated", "deprecation_reasons", "last_updated", "origins", "warnings", "task_ids", "uncorrected_energy_per_atom", "equilibrium_reaction_energy_per_atom", "decomposes_to", "xas", "grain_boundaries", "cbm", "vbm", "is_gap_direct", "is_metal", "es_source_calc_id", "bandstructure", "dos", "dos_energy_up", "dos_energy_down", "is_magnetic", "ordering", "total_magnetization_normalized_vol", "total_magnetization_normalized_formula_units", "num_magnetic_sites", "num_unique_magnetic_sites", "types_of_magnetic_species", "bulk_modulus", "shear_modulus", "universal_anisotropy", "homogeneous_poisson", "e_total", "e_ionic", "e_electronic", "n", "e_ij_max", "weighted_surface_energy_EV_PER_ANG2", "weighted_surface_energy", "weighted_work_function", "surface_anisotropy", "shape_factor", "has_reconstructed", "possible_species", "has_props", "theoretical", "database_IDs"]}