{"builder_meta": null, "nsites": null, "elements": null, "nelements": null, "composition": null, "composition_reduced": null, "formula_pretty": "ReOs3", "formula_anonymous": "AB3", "chemsys": null, "volume": 114.14482511144159, "density": 22.02214663109341, "density_atomic": 14.268103138930199, "symmetry": null, "property_name": null, "material_id": "mp-867141", "deprecated": null, "deprecation_reasons": null, "last_updated": null, "origins": null, "warnings": null, "structure": {"@module": "pymatgen.core.structure", "@class": "Structure", "charge": 0, "lattice": {"matrix": [[5.50999456, -1.009999999999998e-06, -0.0], [-2.75499879, 4.77179416, 0.0], [0.0, -0.0, 4.34133602]], "pbc": [true, true, true], "a": 5.509994560000092, "b": 5.50999435919054, "c": 4.34133602, "alpha": 90.0, "beta": 90.0, "gamma": 120.0000298389171, "volume": 114.14482511144159}, "properties": {}, "sites": [{"species": [{"element": "Re", "occu": 1}], "abc": [0.333333, 0.666667, 0.750000999999999], "properties": {"magmom": 0.0}, "label": "Re", "xyz": [-3.7616644501525798e-06, 3.18119736059839, 3.2560063563360155]}, {"species": [{"element": "Re", "occu": 1}], "abc": [0.666667, 0.333333, 0.250001], "properties": {"magmom": 0.0}, "label": "Re", "xyz": [2.75499953166445, 1.59059578940161, 1.0853383463360198]}, {"species": [{"element": "Os", "occu": 1}], "abc": [0.16721854, 0.33443508, 0.250001], "properties": {"magmom": -0.0}, "label": "Os", "xyz": [5.004997589153071e-06, 1.5958551927524074, 1.0853383463360198]}, {"species": [{"element": "Os", "occu": 1}], "abc": [0.6655629200000001, 0.8327804600000001, 0.250001], "properties": {"magmom": -0.0}, "label": "Os", "xyz": [1.3729389089020718, 3.9738562633715646, 1.0853383463360198]}, {"species": [{"element": "Os", "occu": 1}], "abc": [0.16721854, 0.8327804600000001, 0.250001], "properties": {"magmom": -0.0}, "label": "Os", "xyz": [-1.372935913904501, 3.9738567666993885, 1.0853383463360198]}, {"species": [{"element": "Os", "occu": 1}], "abc": [0.8327804600000001, 0.66556392, 0.750000999999999], "properties": {"magmom": -0.0}, "label": "Os", "xyz": [2.754988010006641, 3.175933185454442, 3.2560063563360155]}, {"species": [{"element": "Os", "occu": 1}], "abc": [0.33443508, 0.16721854, 0.750000999999999], "properties": {"magmom": -0.0}, "label": "Os", "xyz": [1.3820485961075981, 0.7979321148362956, 3.2560063563360155]}, {"species": [{"element": "Os", "occu": 1}], "abc": [0.83278146, 0.16721854, 0.750000999999999], "properties": {"magmom": -0.0}, "label": "Os", "xyz": [4.12793443890329, 0.7979316115064518, 3.2560063563360155]}]}, "task_ids": null, "uncorrected_energy_per_atom": null, "energy_per_atom": -52.93177618875, "formation_energy_per_atom": -0.090200874375, "energy_above_hull": 0.0, "is_stable": true, "equilibrium_reaction_energy_per_atom": null, "decomposes_to": null, "xas": null, "grain_boundaries": null, "band_gap": 0.0, "cbm": null, "vbm": null, "efermi": 8.3780354, "is_gap_direct": null, "is_metal": null, "es_source_calc_id": null, "bandstructure": null, "dos": null, "dos_energy_up": null, "dos_energy_down": null, "is_magnetic": null, "ordering": null, "total_magnetization": 2e-07, "total_magnetization_normalized_vol": null, "total_magnetization_normalized_formula_units": null, "num_magnetic_sites": null, "num_unique_magnetic_sites": null, "types_of_magnetic_species": null, "bulk_modulus": null, "shear_modulus": null, "universal_anisotropy": null, "homogeneous_poisson": null, "e_total": null, "e_ionic": null, "e_electronic": null, "n": null, "e_ij_max": null, "weighted_surface_energy_EV_PER_ANG2": null, "weighted_surface_energy": null, "weighted_work_function": null, "surface_anisotropy": null, "shape_factor": null, "has_reconstructed": null, "possible_species": null, "has_props": null, "theoretical": null, "database_IDs": null, "fields_not_requested": ["builder_meta", "nsites", "elements", "nelements", "composition", "composition_reduced", "chemsys", "symmetry", "property_name", "deprecated", "deprecation_reasons", "last_updated", "origins", "warnings", "task_ids", "uncorrected_energy_per_atom", "equilibrium_reaction_energy_per_atom", "decomposes_to", "xas", "grain_boundaries", "cbm", "vbm", "is_gap_direct", "is_metal", "es_source_calc_id", "bandstructure", "dos", "dos_energy_up", "dos_energy_down", "is_magnetic", "ordering", "total_magnetization_normalized_vol", "total_magnetization_normalized_formula_units", "num_magnetic_sites", "num_unique_magnetic_sites", "types_of_magnetic_species", "bulk_modulus", "shear_modulus", "universal_anisotropy", "homogeneous_poisson", "e_total", "e_ionic", "e_electronic", "n", "e_ij_max", "weighted_surface_energy_EV_PER_ANG2", "weighted_surface_energy", "weighted_work_function", "surface_anisotropy", "shape_factor", "has_reconstructed", "possible_species", "has_props", "theoretical", "database_IDs"]}