{
  "builder_meta": null,
  "nsites": null,
  "elements": null,
  "nelements": null,
  "composition": null,
  "composition_reduced": null,
  "formula_pretty": "ReP4",
  "formula_anonymous": "AB4",
  "chemsys": null,
  "volume": 628.6337129470041,
  "density": 6.553088766718168,
  "density_atomic": 15.715842823675104,
  "symmetry": null,
  "property_name": null,
  "material_id": "mp-27267",
  "deprecated": null,
  "deprecation_reasons": null,
  "last_updated": null,
  "origins": null,
  "warnings": null,
  "structure": {
    "@module": "pymatgen.core.structure",
    "@class": "Structure",
    "charge": 0,
    "lattice": {
      "matrix": [
        [6.2469816, 0.0, 0.0],
        [-0.0, 9.25831724, 0.0],
        [0.0, 0.0, 10.86914502]
      ],
      "pbc": [true, true, true],
      "a": 6.2469816,
      "b": 9.25831724,
      "c": 10.86914502,
      "alpha": 90.0,
      "beta": 90.0,
      "gamma": 90.0,
      "volume": 628.6337129470041
    },
    "properties": {},
    "sites": [
      {
        "species": [{ "element": "Re", "occu": 1 }],
        "abc": [0.62223766, 0.10953145, 0.42400362],
        "properties": { "magmom": -0.0 },
        "label": "Re",
        "xyz": [3.887107212847056, 1.014076911857198, 4.608556834784973]
      },
      {
        "species": [{ "element": "Re", "occu": 1 }],
        "abc": [0.12223766, 0.39046855, 0.57599638],
        "properties": { "magmom": -0.0 },
        "label": "Re",
        "xyz": [0.763616412847056, 3.615081708142802, 6.260588185215027]
      },
      {
        "species": [{ "element": "Re", "occu": 1 }],
        "abc": [0.37776234000000003, 0.60953145, 0.07599638],
        "properties": { "magmom": -0.0 },
        "label": "Re",
        "xyz": [2.359874387152944, 5.643235531857198, 0.8260156752150276]
      },
      {
        "species": [{ "element": "Re", "occu": 1 }],
        "abc": [0.87776234, 0.89046855, 0.92400362],
        "properties": { "magmom": -0.0 },
        "label": "Re",
        "xyz": [5.483365187152944, 8.244240328142803, 10.043129344784973]
      },
      {
        "species": [{ "element": "Re", "occu": 1 }],
        "abc": [0.37776234000000003, 0.89046855, 0.57599638],
        "properties": { "magmom": -0.0 },
        "label": "Re",
        "xyz": [2.359874387152944, 8.244240328142803, 6.260588185215027]
      },
      {
        "species": [{ "element": "Re", "occu": 1 }],
        "abc": [0.87776234, 0.60953145, 0.42400362],
        "properties": { "magmom": -0.0 },
        "label": "Re",
        "xyz": [5.483365187152944, 5.643235531857198, 4.608556834784973]
      },
      {
        "species": [{ "element": "Re", "occu": 1 }],
        "abc": [0.62223766, 0.39046855, 0.92400362],
        "properties": { "magmom": -0.0 },
        "label": "Re",
        "xyz": [3.887107212847056, 3.615081708142802, 10.043129344784973]
      },
      {
        "species": [{ "element": "Re", "occu": 1 }],
        "abc": [0.12223766, 0.10953145, 0.07599638],
        "properties": { "magmom": -0.0 },
        "label": "Re",
        "xyz": [0.763616412847056, 1.014076911857198, 0.8260156752150276]
      },
      {
        "species": [{ "element": "P", "occu": 1 }],
        "abc": [0.0014311200000000001, 0.20852447000000002, 0.43020173],
        "properties": { "magmom": 0.0 },
        "label": "P",
        "xyz": [0.008940180307392, 1.930585695562863, 4.675924991224885]
      },
      {
        "species": [{ "element": "P", "occu": 1 }],
        "abc": [0.50143112, 0.29147553, 0.56979827],
        "properties": { "magmom": 0.0 },
        "label": "P",
        "xyz": [3.132430980307392, 2.698572924437137, 6.193220028775116]
      },
      {
        "species": [{ "element": "P", "occu": 1 }],
        "abc": [-0.0014311200000000001, 0.70852447, 0.06979827],
        "properties": { "magmom": 0.0 },
        "label": "P",
        "xyz": [-0.008940180307392, 6.559744315562862, 0.7586475187751153]
      },
      {
        "species": [{ "element": "P", "occu": 1 }],
        "abc": [0.49856888, 0.79147553, 0.9302017300000001],
        "properties": { "magmom": 0.0 },
        "label": "P",
        "xyz": [3.114550619692608, 7.327731544437138, 10.110497501224884]
      },
      {
        "species": [{ "element": "P", "occu": 1 }],
        "abc": [-0.0014311200000000001, 0.79147553, 0.56979827],
        "properties": { "magmom": 0.0 },
        "label": "P",
        "xyz": [-0.008940180307392, 7.327731544437138, 6.193220028775116]
      },
      {
        "species": [{ "element": "P", "occu": 1 }],
        "abc": [0.49856888, 0.70852447, 0.43020173],
        "properties": { "magmom": 0.0 },
        "label": "P",
        "xyz": [3.114550619692608, 6.559744315562862, 4.675924991224885]
      },
      {
        "species": [{ "element": "P", "occu": 1 }],
        "abc": [0.0014311200000000001, 0.29147553, 0.9302017300000001],
        "properties": { "magmom": 0.0 },
        "label": "P",
        "xyz": [0.008940180307392, 2.698572924437137, 10.110497501224884]
      },
      {
        "species": [{ "element": "P", "occu": 1 }],
        "abc": [0.50143112, 0.20852447000000002, 0.06979827],
        "properties": { "magmom": 0.0 },
        "label": "P",
        "xyz": [3.132430980307392, 1.930585695562863, 0.7586475187751153]
      },
      {
        "species": [{ "element": "P", "occu": 1 }],
        "abc": [0.06207163, 0.28326406, 0.23595991],
        "properties": { "magmom": -0.0 },
        "label": "P",
        "xyz": [0.38776033049200803, 2.6225485301703944, 2.564682480696148]
      },
      {
        "species": [{ "element": "P", "occu": 1 }],
        "abc": [0.56207163, 0.21673594000000002, 0.7640400900000001],
        "properties": { "magmom": -0.0 },
        "label": "P",
        "xyz": [3.511251130492008, 2.0066100898296058, 8.304462539303852]
      },
      {
        "species": [{ "element": "P", "occu": 1 }],
        "abc": [0.9379283700000001, 0.78326406, 0.26404009],
        "properties": { "magmom": -0.0 },
        "label": "P",
        "xyz": [5.859221269507993, 7.251707150170395, 2.8698900293038516]
      },
      {
        "species": [{ "element": "P", "occu": 1 }],
        "abc": [0.43792837, 0.71673594, 0.73595991],
        "properties": { "magmom": -0.0 },
        "label": "P",
        "xyz": [2.735730469507992, 6.635768709829605, 7.999254990696149]
      },
      {
        "species": [{ "element": "P", "occu": 1 }],
        "abc": [0.9379283700000001, 0.71673594, 0.7640400900000001],
        "properties": { "magmom": -0.0 },
        "label": "P",
        "xyz": [5.859221269507993, 6.635768709829605, 8.304462539303852]
      },
      {
        "species": [{ "element": "P", "occu": 1 }],
        "abc": [0.43792837, 0.78326406, 0.23595991],
        "properties": { "magmom": -0.0 },
        "label": "P",
        "xyz": [2.735730469507992, 7.251707150170395, 2.564682480696148]
      },
      {
        "species": [{ "element": "P", "occu": 1 }],
        "abc": [0.06207163, 0.21673594000000002, 0.73595991],
        "properties": { "magmom": -0.0 },
        "label": "P",
        "xyz": [0.38776033049200803, 2.0066100898296058, 7.999254990696149]
      },
      {
        "species": [{ "element": "P", "occu": 1 }],
        "abc": [0.56207163, 0.28326406, 0.26404009],
        "properties": { "magmom": -0.0 },
        "label": "P",
        "xyz": [3.511251130492008, 2.6225485301703944, 2.8698900293038516]
      },
      {
        "species": [{ "element": "P", "occu": 1 }],
        "abc": [0.18843528, 0.94734515, 0.23862022],
        "properties": { "magmom": 0.0 },
        "label": "P",
        "xyz": [1.177151726950848, 8.770821934475386, 2.5935977758843043]
      },
      {
        "species": [{ "element": "P", "occu": 1 }],
        "abc": [0.68843528, 0.55265485, 0.7613797800000001],
        "properties": { "magmom": 0.0 },
        "label": "P",
        "xyz": [4.300642526950848, 5.116653925524615, 8.275547244115696]
      },
      {
        "species": [{ "element": "P", "occu": 1 }],
        "abc": [0.81156472, 0.44734515, 0.26137978],
        "properties": { "magmom": 0.0 },
        "label": "P",
        "xyz": [5.069829873049152, 4.1416633144753865, 2.8409747341156955]
      },
      {
        "species": [{ "element": "P", "occu": 1 }],
        "abc": [0.31156472, 0.05265485, 0.73862022],
        "properties": { "magmom": 0.0 },
        "label": "P",
        "xyz": [1.946339073049152, 0.48749530552461406, 8.028170285884304]
      },
      {
        "species": [{ "element": "P", "occu": 1 }],
        "abc": [0.81156472, 0.05265485, 0.7613797800000001],
        "properties": { "magmom": 0.0 },
        "label": "P",
        "xyz": [5.069829873049152, 0.48749530552461406, 8.275547244115696]
      },
      {
        "species": [{ "element": "P", "occu": 1 }],
        "abc": [0.31156472, 0.44734515, 0.23862022],
        "properties": { "magmom": 0.0 },
        "label": "P",
        "xyz": [1.946339073049152, 4.1416633144753865, 2.5935977758843043]
      },
      {
        "species": [{ "element": "P", "occu": 1 }],
        "abc": [0.18843528, 0.55265485, 0.73862022],
        "properties": { "magmom": 0.0 },
        "label": "P",
        "xyz": [1.177151726950848, 5.116653925524615, 8.028170285884304]
      },
      {
        "species": [{ "element": "P", "occu": 1 }],
        "abc": [0.68843528, 0.94734515, 0.26137978],
        "properties": { "magmom": 0.0 },
        "label": "P",
        "xyz": [4.300642526950848, 8.770821934475386, 2.8409747341156955]
      },
      {
        "species": [{ "element": "P", "occu": 1 }],
        "abc": [0.75632426, 0.04347318, 0.0815482],
        "properties": { "magmom": 0.0 },
        "label": "P",
        "xyz": [4.7247437358536155, 0.4024884918716232, 0.8863592119199639]
      },
      {
        "species": [{ "element": "P", "occu": 1 }],
        "abc": [0.25632426, 0.45652682, 0.918451799999999],
        "properties": { "magmom": 0.0 },
        "label": "P",
        "xyz": [1.601252935853616, 4.226670128128377, 9.982785808080026]
      },
      {
        "species": [{ "element": "P", "occu": 1 }],
        "abc": [0.24367574, 0.54347318, 0.4184518],
        "properties": { "magmom": 0.0 },
        "label": "P",
        "xyz": [1.522237864146384, 5.0316471118716235, 4.548213298080036]
      },
      {
        "species": [{ "element": "P", "occu": 1 }],
        "abc": [0.74367574, 0.95652682, 0.5815482],
        "properties": { "magmom": 0.0 },
        "label": "P",
        "xyz": [4.645728664146384, 8.855828748128378, 6.320931721919964]
      },
      {
        "species": [{ "element": "P", "occu": 1 }],
        "abc": [0.24367574, 0.95652682, 0.918451799999999],
        "properties": { "magmom": 0.0 },
        "label": "P",
        "xyz": [1.522237864146384, 8.855828748128378, 9.982785808080026]
      },
      {
        "species": [{ "element": "P", "occu": 1 }],
        "abc": [0.74367574, 0.54347318, 0.0815482],
        "properties": { "magmom": 0.0 },
        "label": "P",
        "xyz": [4.645728664146384, 5.0316471118716235, 0.8863592119199639]
      },
      {
        "species": [{ "element": "P", "occu": 1 }],
        "abc": [0.75632426, 0.45652682, 0.5815482],
        "properties": { "magmom": 0.0 },
        "label": "P",
        "xyz": [4.7247437358536155, 4.226670128128377, 6.320931721919964]
      },
      {
        "species": [{ "element": "P", "occu": 1 }],
        "abc": [0.25632426, 0.04347318, 0.4184518],
        "properties": { "magmom": 0.0 },
        "label": "P",
        "xyz": [1.601252935853616, 0.4024884918716232, 4.548213298080036]
      }
    ]
  },
  "task_ids": null,
  "uncorrected_energy_per_atom": null,
  "energy_per_atom": -18.0721897245,
  "formation_energy_per_atom": -0.388405733380952,
  "energy_above_hull": 0.0,
  "is_stable": true,
  "equilibrium_reaction_energy_per_atom": null,
  "decomposes_to": null,
  "xas": null,
  "grain_boundaries": null,
  "band_gap": 0.8553000000000001,
  "cbm": null,
  "vbm": null,
  "efermi": 8.34099759,
  "is_gap_direct": null,
  "is_metal": null,
  "es_source_calc_id": null,
  "bandstructure": null,
  "dos": null,
  "dos_energy_up": null,
  "dos_energy_down": null,
  "is_magnetic": null,
  "ordering": null,
  "total_magnetization": 0.0,
  "total_magnetization_normalized_vol": null,
  "total_magnetization_normalized_formula_units": null,
  "num_magnetic_sites": null,
  "num_unique_magnetic_sites": null,
  "types_of_magnetic_species": null,
  "bulk_modulus": null,
  "shear_modulus": null,
  "universal_anisotropy": null,
  "homogeneous_poisson": null,
  "e_total": null,
  "e_ionic": null,
  "e_electronic": null,
  "n": null,
  "e_ij_max": null,
  "weighted_surface_energy_EV_PER_ANG2": null,
  "weighted_surface_energy": null,
  "weighted_work_function": null,
  "surface_anisotropy": null,
  "shape_factor": null,
  "has_reconstructed": null,
  "possible_species": null,
  "has_props": null,
  "theoretical": null,
  "database_IDs": null,
  "fields_not_requested": [
    "builder_meta",
    "nsites",
    "elements",
    "nelements",
    "composition",
    "composition_reduced",
    "chemsys",
    "symmetry",
    "property_name",
    "deprecated",
    "deprecation_reasons",
    "last_updated",
    "origins",
    "warnings",
    "task_ids",
    "uncorrected_energy_per_atom",
    "equilibrium_reaction_energy_per_atom",
    "decomposes_to",
    "xas",
    "grain_boundaries",
    "cbm",
    "vbm",
    "is_gap_direct",
    "is_metal",
    "es_source_calc_id",
    "bandstructure",
    "dos",
    "dos_energy_up",
    "dos_energy_down",
    "is_magnetic",
    "ordering",
    "total_magnetization_normalized_vol",
    "total_magnetization_normalized_formula_units",
    "num_magnetic_sites",
    "num_unique_magnetic_sites",
    "types_of_magnetic_species",
    "bulk_modulus",
    "shear_modulus",
    "universal_anisotropy",
    "homogeneous_poisson",
    "e_total",
    "e_ionic",
    "e_electronic",
    "n",
    "e_ij_max",
    "weighted_surface_energy_EV_PER_ANG2",
    "weighted_surface_energy",
    "weighted_work_function",
    "surface_anisotropy",
    "shape_factor",
    "has_reconstructed",
    "possible_species",
    "has_props",
    "theoretical",
    "database_IDs"
  ]
}
