{
  "builder_meta": null,
  "nsites": null,
  "elements": null,
  "nelements": null,
  "composition": null,
  "composition_reduced": null,
  "formula_pretty": "ReRh3",
  "formula_anonymous": "AB3",
  "chemsys": null,
  "volume": 111.48856845743741,
  "density": 14.743032727021799,
  "density_atomic": 13.936071057179676,
  "symmetry": null,
  "property_name": null,
  "material_id": "mp-867865",
  "deprecated": null,
  "deprecation_reasons": null,
  "last_updated": null,
  "origins": null,
  "warnings": null,
  "structure": {
    "@module": "pymatgen.core.structure",
    "@class": "Structure",
    "charge": 0,
    "lattice": {
      "matrix": [
        [5.4504572, -0.00019139, -1.2880000000000002e-5],
        [-2.72539567, 4.72025555, 1.2100000000000001e-5],
        [-2.199e-5, 1.3810000000000002e-5, 4.33351894]
      ],
      "pbc": [true, true, true],
      "a": 5.450457203375499,
      "b": 5.450559055317809,
      "c": 4.3335189400777985,
      "alpha": 89.9995693040823,
      "beta": 90.00042614391738,
      "gamma": 120.00342167021283,
      "volume": 111.48856845743741
    },
    "properties": {},
    "sites": [
      {
        "species": [{ "element": "Re", "occu": 1 }],
        "abc": [0.33339398000000003, 0.6666462400000001, 0.74999822],
        "properties": { "magmom": 0.0 },
        "label": "Re",
        "xyz": [0.0002583503490173088, 3.1466871634482185, 3.250135263641329]
      },
      {
        "species": [{ "element": "Re", "occu": 1 }],
        "abc": [0.66661002, 0.33335876000000003, 0.25000178],
        "properties": { "magmom": 0.0 },
        "label": "Re",
        "xyz": [2.7247893645014325, 1.5734144070639722, 1.0833828963676517]
      },
      {
        "species": [{ "element": "Rh", "occu": 1 }],
        "abc": [0.16855668000000001, 0.33704453, 0.25000353000000003],
        "properties": { "magmom": 0.0 },
        "label": "Rh",
        "xyz": [0.0001257698772861772, 1.5909075058154056, 1.083396939550633]
      },
      {
        "species": [{ "element": "Rh", "occu": 1 }],
        "abc": [0.66302662, 0.83149092, 0.25000289],
        "properties": { "magmom": 0.0 },
        "label": "Rh",
        "xyz": [1.3476509641947962, 3.9247261857797153, 1.083393780127003]
      },
      {
        "species": [{ "element": "Rh", "occu": 1 }],
        "abc": [0.16863466, 0.83137512, 0.24999067],
        "properties": { "magmom": 0.0 },
        "label": "Rh",
        "xyz": [-1.3466956527220122, 3.9242742016954915, 1.0833471908928212]
      },
      {
        "species": [{ "element": "Rh", "occu": 1 }],
        "abc": [0.83144532, 0.66295547, 0.74999647],
        "properties": { "magmom": 0.0 },
        "label": "Rh",
        "xyz": [2.7249246710371136, 3.1291704638018145, 3.250121220423608]
      },
      {
        "species": [{ "element": "Rh", "occu": 1 }],
        "abc": [0.33697238, 0.16850608, 0.74999811],
        "properties": { "magmom": 0.0 },
        "label": "Rh",
        "xyz": [1.3773913015130235, 0.795337623658835, 3.2501287133685173]
      },
      {
        "species": [{ "element": "Rh", "occu": 1 }],
        "abc": [0.83136334, 0.16862388, 0.75000933],
        "properties": { "magmom": 0.0 },
        "label": "Rh",
        "xyz": [4.071727017203281, 0.7957990484317388, 3.2501709691208394]
      }
    ]
  },
  "task_ids": null,
  "uncorrected_energy_per_atom": null,
  "energy_per_atom": -31.290271465,
  "formation_energy_per_atom": -0.085446315624999,
  "energy_above_hull": 0.0,
  "is_stable": true,
  "equilibrium_reaction_energy_per_atom": null,
  "decomposes_to": null,
  "xas": null,
  "grain_boundaries": null,
  "band_gap": 0.0,
  "cbm": null,
  "vbm": null,
  "efermi": 7.54313869,
  "is_gap_direct": null,
  "is_metal": null,
  "es_source_calc_id": null,
  "bandstructure": null,
  "dos": null,
  "dos_energy_up": null,
  "dos_energy_down": null,
  "is_magnetic": null,
  "ordering": null,
  "total_magnetization": 0.00019869999999900002,
  "total_magnetization_normalized_vol": null,
  "total_magnetization_normalized_formula_units": null,
  "num_magnetic_sites": null,
  "num_unique_magnetic_sites": null,
  "types_of_magnetic_species": null,
  "bulk_modulus": null,
  "shear_modulus": null,
  "universal_anisotropy": null,
  "homogeneous_poisson": null,
  "e_total": null,
  "e_ionic": null,
  "e_electronic": null,
  "n": null,
  "e_ij_max": null,
  "weighted_surface_energy_EV_PER_ANG2": null,
  "weighted_surface_energy": null,
  "weighted_work_function": null,
  "surface_anisotropy": null,
  "shape_factor": null,
  "has_reconstructed": null,
  "possible_species": null,
  "has_props": null,
  "theoretical": null,
  "database_IDs": null,
  "fields_not_requested": [
    "builder_meta",
    "nsites",
    "elements",
    "nelements",
    "composition",
    "composition_reduced",
    "chemsys",
    "symmetry",
    "property_name",
    "deprecated",
    "deprecation_reasons",
    "last_updated",
    "origins",
    "warnings",
    "task_ids",
    "uncorrected_energy_per_atom",
    "equilibrium_reaction_energy_per_atom",
    "decomposes_to",
    "xas",
    "grain_boundaries",
    "cbm",
    "vbm",
    "is_gap_direct",
    "is_metal",
    "es_source_calc_id",
    "bandstructure",
    "dos",
    "dos_energy_up",
    "dos_energy_down",
    "is_magnetic",
    "ordering",
    "total_magnetization_normalized_vol",
    "total_magnetization_normalized_formula_units",
    "num_magnetic_sites",
    "num_unique_magnetic_sites",
    "types_of_magnetic_species",
    "bulk_modulus",
    "shear_modulus",
    "universal_anisotropy",
    "homogeneous_poisson",
    "e_total",
    "e_ionic",
    "e_electronic",
    "n",
    "e_ij_max",
    "weighted_surface_energy_EV_PER_ANG2",
    "weighted_surface_energy",
    "weighted_work_function",
    "surface_anisotropy",
    "shape_factor",
    "has_reconstructed",
    "possible_species",
    "has_props",
    "theoretical",
    "database_IDs"
  ]
}
