{"builder_meta": null, "nsites": null, "elements": null, "nelements": null, "composition": null, "composition_reduced": null, "formula_pretty": "ReRu3", "formula_anonymous": "AB3", "chemsys": null, "volume": 110.66579513388297, "density": 14.687393649952565, "density_atomic": 13.83322439173537, "symmetry": null, "property_name": null, "material_id": "mp-862630", "deprecated": null, "deprecation_reasons": null, "last_updated": null, "origins": null, "warnings": null, "structure": {"@module": "pymatgen.core.structure", "@class": "Structure", "charge": 0, "lattice": {"matrix": [[2.72486158, -4.71959973, -7e-08], [2.7248632600000002, 4.71960013, 2.2e-07], [1.2e-07, 1.399999999999999e-07, 4.3026265]], "pbc": [true, true, true], "a": 5.449724051874202, "b": 5.449725238284394, "c": 4.302626500000003, "alpha": 89.9999952735025, "beta": 90.00000155149432, "gamma": 119.99999763367043, "volume": 110.66579513388297}, "properties": {}, "sites": [{"species": [{"element": "Re", "occu": 1}], "abc": [0.33333395, 0.66666879, 0.75000166], "properties": {"magmom": -0.0}, "label": "Re", "xyz": [2.724870256124496, 1.573207392531342, 3.226977140693747]}, {"species": [{"element": "Re", "occu": 1}], "abc": [0.66666699, 0.33333451000000003, 0.24999654000000002], "properties": {"magmom": -0.0}, "label": "Re", "xyz": [2.7248662572939315, -1.5731957142749102, 1.075641764579213]}, {"species": [{"element": "Ru", "occu": 1}], "abc": [0.16757048, 0.33514095, 0.2500001], "properties": {"magmom": -0.0}, "label": "Ru", "xyz": [1.3698196544706673, 0.790865714024367, 1.0756571172637253]}, {"species": [{"element": "Ru", "occu": 1}], "abc": [0.66485827, 0.83242876, 0.25000011], "properties": {"magmom": -0.0}, "label": "Ru", "xyz": [4.079901330759637, 0.7908660073314874, 1.0756572348831632]}, {"species": [{"element": "Ru", "occu": 1}], "abc": [0.16757036, 0.8324287300000001, 0.25000005000000003], "properties": {"magmom": -0.0}, "label": "Ru", "xyz": [2.724860528856235, 3.137865751511739, 1.0756570115357205]}, {"species": [{"element": "Ru", "occu": 1}], "abc": [0.83242888, 0.6648576700000001, 0.74999989], "properties": {"magmom": -0.0}, "label": "Ru", "xyz": [4.079899801306622, -0.79086866652872, 3.2269694897097505]}, {"species": [{"element": "Ru", "occu": 1}], "abc": [0.33514151000000003, 0.16757027, 0.74999978], "properties": {"magmom": -0.0}, "label": "Ru", "xyz": [1.3698203866534397, -0.7908690070316882, 3.226968941827723]}, {"species": [{"element": "Ru", "occu": 1}], "abc": [0.83242956, 0.16757032, 0.74999987], "properties": {"magmom": -0.0}, "label": "Ru", "xyz": [2.724861624534732, -3.1378693175638954, 3.226969294253956]}]}, "task_ids": null, "uncorrected_energy_per_atom": null, "energy_per_atom": -32.2580693175, "formation_energy_per_atom": -0.087014169375002, "energy_above_hull": 0.0, "is_stable": true, "equilibrium_reaction_energy_per_atom": null, "decomposes_to": null, "xas": null, "grain_boundaries": null, "band_gap": 0.0, "cbm": null, "vbm": null, "efermi": 8.18769655, "is_gap_direct": null, "is_metal": null, "es_source_calc_id": null, "bandstructure": null, "dos": null, "dos_energy_up": null, "dos_energy_down": null, "is_magnetic": null, "ordering": null, "total_magnetization": 1.2e-06, "total_magnetization_normalized_vol": null, "total_magnetization_normalized_formula_units": null, "num_magnetic_sites": null, "num_unique_magnetic_sites": null, "types_of_magnetic_species": null, "bulk_modulus": null, "shear_modulus": null, "universal_anisotropy": null, "homogeneous_poisson": null, "e_total": null, "e_ionic": null, "e_electronic": null, "n": null, "e_ij_max": null, "weighted_surface_energy_EV_PER_ANG2": null, "weighted_surface_energy": null, "weighted_work_function": null, "surface_anisotropy": null, "shape_factor": null, "has_reconstructed": null, "possible_species": null, "has_props": null, "theoretical": null, "database_IDs": null, "fields_not_requested": ["builder_meta", "nsites", "elements", "nelements", "composition", "composition_reduced", "chemsys", "symmetry", "property_name", "deprecated", "deprecation_reasons", "last_updated", "origins", "warnings", "task_ids", "uncorrected_energy_per_atom", "equilibrium_reaction_energy_per_atom", "decomposes_to", "xas", "grain_boundaries", "cbm", "vbm", "is_gap_direct", "is_metal", "es_source_calc_id", "bandstructure", "dos", "dos_energy_up", "dos_energy_down", "is_magnetic", "ordering", "total_magnetization_normalized_vol", "total_magnetization_normalized_formula_units", "num_magnetic_sites", "num_unique_magnetic_sites", "types_of_magnetic_species", "bulk_modulus", "shear_modulus", "universal_anisotropy", "homogeneous_poisson", "e_total", "e_ionic", "e_electronic", "n", "e_ij_max", "weighted_surface_energy_EV_PER_ANG2", "weighted_surface_energy", "weighted_work_function", "surface_anisotropy", "shape_factor", "has_reconstructed", "possible_species", "has_props", "theoretical", "database_IDs"]}