{
  "builder_meta": null,
  "nsites": null,
  "elements": null,
  "nelements": null,
  "composition": null,
  "composition_reduced": null,
  "formula_pretty": "ReS2",
  "formula_anonymous": "AB2",
  "chemsys": null,
  "volume": 467.5299135649283,
  "density": 7.113031380529443,
  "density_atomic": 19.480413065205344,
  "symmetry": null,
  "property_name": null,
  "material_id": "mp-572758",
  "deprecated": null,
  "deprecation_reasons": null,
  "last_updated": null,
  "origins": null,
  "warnings": null,
  "structure": {
    "@module": "pymatgen.core.structure",
    "@class": "Structure",
    "charge": 0,
    "lattice": {
      "matrix": [
        [6.39920504, -0.00238781, 0.061808840000000004],
        [3.12982364, 5.48468821, 1.554131959999999],
        [0.00235506, -0.18759614, 13.26590984]
      ],
      "pbc": [true, true, true],
      "a": 6.399503979083078,
      "b": 6.503301233028445,
      "c": 13.267236401792928,
      "alpha": 76.87287970565372,
      "beta": 89.43618947776868,
      "gamma": 61.10291390605344,
      "volume": 467.5299135649283
    },
    "properties": {},
    "sites": [
      {
        "species": [{ "element": "Re", "occu": 1 }],
        "abc": [0.18820557000000002, 0.06572826, 0.24591645],
        "properties": { "magmom": -0.0 },
        "label": "Re",
        "xyz": [1.4106630420588764, 0.3139166367612099, 3.3760886113772965]
      },
      {
        "species": [{ "element": "Re", "occu": 1 }],
        "abc": [0.31348089, 0.43727747, 0.25336418],
        "properties": { "magmom": 0.0 },
        "label": "Re",
        "xyz": [3.375226541922827, 2.3500519092214125, 4.06006915025354]
      },
      {
        "species": [{ "element": "Re", "occu": 1 }],
        "abc": [0.76208566, 0.03885366, 0.248667399999999],
        "properties": { "magmom": -0.0 },
        "label": "Re",
        "xyz": [4.998933126599292, 0.16463145077370817, 3.406286653941411]
      },
      {
        "species": [{ "element": "Re", "occu": 1 }],
        "abc": [0.68651911, 0.56272253, 0.7466358200000001],
        "properties": { "magmom": 0.0 },
        "label": "Re",
        "xyz": [6.156157198077174, 2.9446523507785876, 10.82178148974646]
      },
      {
        "species": [{ "element": "Re", "occu": 1 }],
        "abc": [0.8117944300000001, 0.93427174, 0.75408355],
        "properties": { "magmom": -0.0 },
        "label": "Re",
        "xyz": [8.120720697941124, 4.980787623238791, 11.505762028622703]
      },
      {
        "species": [{ "element": "Re", "occu": 1 }],
        "abc": [0.2603945, 0.53584692, 0.74939054],
        "properties": { "magmom": -0.0 },
        "label": "Re",
        "xyz": [3.345189014110601, 2.7977487392412526, 10.790218844615858]
      },
      {
        "species": [{ "element": "Re", "occu": 1 }],
        "abc": [0.739605499999999, 0.46415308, 0.25060946],
        "properties": { "magmom": -0.0 },
        "label": "Re",
        "xyz": [6.186194725889393, 2.4969555207587475, 4.091631795384143]
      },
      {
        "species": [{ "element": "Re", "occu": 1 }],
        "abc": [0.23791434, 0.96114634, 0.7513326],
        "properties": { "magmom": -0.0 },
        "label": "Re",
        "xyz": [4.532450613400707, 5.130072809226292, 11.475563986058576]
      },
      {
        "species": [{ "element": "S", "occu": 1 }],
        "abc": [0.90889907, 0.7104741800000001, 0.15732994],
        "properties": { "magmom": -0.0 },
        "label": "S",
        "xyz": [8.040260915217425, 3.8650445908166495, 3.2474734262591807]
      },
      {
        "species": [{ "element": "S", "occu": 1 }],
        "abc": [0.59948568, 0.78042134, 0.87170112],
        "properties": { "magmom": -0.0 },
        "label": "S",
        "xyz": [6.280865852395973, 4.115408499083164, 12.813839726584458]
      },
      {
        "species": [{ "element": "S", "occu": 1 }],
        "abc": [0.36981381, 0.746606099999999, 0.14445242],
        "properties": { "magmom": 0.0 },
        "label": "S",
        "xyz": [4.7036000124780495, 4.066919912664761, 3.0994749440428473]
      },
      {
        "species": [{ "element": "S", "occu": 1 }],
        "abc": [0.13900322, 0.72891192, 0.8857089100000001],
        "properties": { "magmom": 0.0 },
        "label": "S",
        "xyz": [3.172961762319603, 3.8313671277941075, 12.891151483226103]
      },
      {
        "species": [{ "element": "S", "occu": 1 }],
        "abc": [0.3593166, 0.76816673, 0.61495772],
        "properties": { "magmom": -0.0 },
        "label": "S",
        "xyz": [4.7050152510192245, 4.096933333039407, 9.3740150768724]
      },
      {
        "species": [{ "element": "S", "occu": 1 }],
        "abc": [0.13192326000000001, 0.75631768, 0.35485787],
        "properties": { "magmom": 0.0 },
        "label": "S",
        "xyz": [3.212180656074508, 4.0812816881704705, 5.891084011505113]
      },
      {
        "species": [{ "element": "S", "occu": 1 }],
        "abc": [0.63018619, 0.2533939, 0.85554758],
        "properties": { "magmom": 0.0 },
        "label": "S",
        "xyz": [4.827783727521948, 1.2277843473352337, 11.782375695957152]
      },
      {
        "species": [{ "element": "S", "occu": 1 }],
        "abc": [0.86807674, 0.24368232, 0.64514213],
        "properties": { "magmom": 0.0 },
        "label": "S",
        "xyz": [6.319203083925492, 1.2134225718295295, 8.990766628494889]
      },
      {
        "species": [{ "element": "S", "occu": 1 }],
        "abc": [0.101161599999999, 0.2833301, 0.37104586],
        "properties": { "magmom": -0.0 },
        "label": "S",
        "xyz": [1.535000900741073, 1.4841289332290444, 5.368845970053803]
      },
      {
        "species": [{ "element": "S", "occu": 1 }],
        "abc": [0.59280758, 0.79250524, 0.34195826],
        "properties": { "magmom": 0.0 },
        "label": "S",
        "xyz": [6.274704220881872, 4.2810785847065045, 5.804685917017756]
      },
      {
        "species": [{ "element": "S", "occu": 1 }],
        "abc": [0.09110093, 0.28952582, 0.84267006],
        "properties": { "magmom": -0.0 },
        "label": "S",
        "xyz": [1.4911228247825754, 1.4296596691833505, 11.63437721374082]
      },
      {
        "species": [{ "element": "S", "occu": 1 }],
        "abc": [0.40719242, 0.20749476, 0.65804174],
        "properties": { "magmom": 0.0 },
        "label": "S",
        "xyz": [3.2566795191181277, 1.0136256752934958, 9.077164722982245]
      },
      {
        "species": [{ "element": "S", "occu": 1 }],
        "abc": [0.86099678, 0.27108808, 0.11429109],
        "properties": { "magmom": 0.0 },
        "label": "S",
        "xyz": [6.358421977680398, 1.4633371322058923, 1.9906991567738974]
      },
      {
        "species": [{ "element": "S", "occu": 1 }],
        "abc": [0.6406834, 0.23183227, 0.38504228],
        "properties": { "magmom": -0.0 },
        "label": "S",
        "xyz": [4.826365359157136, 1.1977654422723836, 5.507834008995641]
      },
      {
        "species": [{ "element": "S", "occu": 1 }],
        "abc": [0.40051432000000003, 0.21957866, 0.12829888],
        "properties": { "magmom": -0.0 },
        "label": "S",
        "xyz": [3.2505178876040284, 1.1792957609168362, 2.0680109134155416]
      },
      {
        "species": [{ "element": "S", "occu": 1 }],
        "abc": [0.898838399999999, 0.7166699, 0.62895414],
        "properties": { "magmom": -0.0 },
        "label": "S",
        "xyz": [7.9963828392589145, 3.810575326770955, 9.513004669946199]
      }
    ]
  },
  "task_ids": null,
  "uncorrected_energy_per_atom": null,
  "energy_per_atom": -7.809819285,
  "formation_energy_per_atom": -0.9015415041666661,
  "energy_above_hull": 0.0,
  "is_stable": true,
  "equilibrium_reaction_energy_per_atom": null,
  "decomposes_to": null,
  "xas": null,
  "grain_boundaries": null,
  "band_gap": 1.3202,
  "cbm": null,
  "vbm": null,
  "efermi": 4.02373717,
  "is_gap_direct": null,
  "is_metal": null,
  "es_source_calc_id": null,
  "bandstructure": null,
  "dos": null,
  "dos_energy_up": null,
  "dos_energy_down": null,
  "is_magnetic": null,
  "ordering": null,
  "total_magnetization": 0.0,
  "total_magnetization_normalized_vol": null,
  "total_magnetization_normalized_formula_units": null,
  "num_magnetic_sites": null,
  "num_unique_magnetic_sites": null,
  "types_of_magnetic_species": null,
  "bulk_modulus": null,
  "shear_modulus": null,
  "universal_anisotropy": null,
  "homogeneous_poisson": null,
  "e_total": null,
  "e_ionic": null,
  "e_electronic": null,
  "n": null,
  "e_ij_max": null,
  "weighted_surface_energy_EV_PER_ANG2": null,
  "weighted_surface_energy": null,
  "weighted_work_function": null,
  "surface_anisotropy": null,
  "shape_factor": null,
  "has_reconstructed": null,
  "possible_species": null,
  "has_props": null,
  "theoretical": null,
  "database_IDs": null,
  "fields_not_requested": [
    "builder_meta",
    "nsites",
    "elements",
    "nelements",
    "composition",
    "composition_reduced",
    "chemsys",
    "symmetry",
    "property_name",
    "deprecated",
    "deprecation_reasons",
    "last_updated",
    "origins",
    "warnings",
    "task_ids",
    "uncorrected_energy_per_atom",
    "equilibrium_reaction_energy_per_atom",
    "decomposes_to",
    "xas",
    "grain_boundaries",
    "cbm",
    "vbm",
    "is_gap_direct",
    "is_metal",
    "es_source_calc_id",
    "bandstructure",
    "dos",
    "dos_energy_up",
    "dos_energy_down",
    "is_magnetic",
    "ordering",
    "total_magnetization_normalized_vol",
    "total_magnetization_normalized_formula_units",
    "num_magnetic_sites",
    "num_unique_magnetic_sites",
    "types_of_magnetic_species",
    "bulk_modulus",
    "shear_modulus",
    "universal_anisotropy",
    "homogeneous_poisson",
    "e_total",
    "e_ionic",
    "e_electronic",
    "n",
    "e_ij_max",
    "weighted_surface_energy_EV_PER_ANG2",
    "weighted_surface_energy",
    "weighted_work_function",
    "surface_anisotropy",
    "shape_factor",
    "has_reconstructed",
    "possible_species",
    "has_props",
    "theoretical",
    "database_IDs"
  ]
}
