{
  "builder_meta": null,
  "nsites": null,
  "elements": null,
  "nelements": null,
  "composition": null,
  "composition_reduced": null,
  "formula_pretty": "ReSe2",
  "formula_anonymous": "AB2",
  "chemsys": null,
  "volume": 265.0520179422062,
  "density": 8.62376120443585,
  "density_atomic": 22.087668161850516,
  "symmetry": null,
  "property_name": null,
  "material_id": "mp-541582",
  "deprecated": null,
  "deprecation_reasons": null,
  "last_updated": null,
  "origins": null,
  "warnings": null,
  "structure": {
    "@module": "pymatgen.core.structure",
    "@class": "Structure",
    "charge": 0,
    "lattice": {
      "matrix": [
        [6.41873267, -0.00240771, -1.71610857],
        [-3.44081025, 5.8214901, -0.22296931],
        [0.07204165, 0.04694111, 7.06637807]
      ],
      "pbc": [true, true, true],
      "a": 6.644182681866914,
      "b": 6.765991241060319,
      "c": 7.0669011946764675,
      "alpha": 91.85791565429692,
      "beta": 104.38417447674773,
      "gamma": 118.88734808581923,
      "volume": 265.05201794220613
    },
    "properties": {},
    "sites": [
      {
        "species": [{ "element": "Re", "occu": 1 }],
        "abc": [0.06447089, 0.31542087, 0.49157537],
        "properties": { "magmom": 0.0 },
        "label": "Re",
        "xyz": [-0.6360680538987807, 1.859139338348286, 3.2926891937321088]
      },
      {
        "species": [{ "element": "Re", "occu": 1 }],
        "abc": [0.93552911, 0.68457913, 0.50842463],
        "properties": { "magmom": 0.0 },
        "label": "Re",
        "xyz": [3.68603212389878, 4.006884161651715, 1.8346109962678914]
      },
      {
        "species": [{ "element": "Re", "occu": 1 }],
        "abc": [0.48719798000000003, 0.29129632, 0.49721114],
        "properties": { "magmom": -0.0 },
        "label": "Re",
        "xyz": [2.160718138264708, 1.7179452544139717, 2.612447127615072]
      },
      {
        "species": [{ "element": "Re", "occu": 1 }],
        "abc": [0.51280202, 0.7087036800000001, 0.50278886],
        "properties": { "magmom": -0.0 },
        "label": "Re",
        "xyz": [0.8892459317352915, 4.148078245586029, 2.514853062384928]
      },
      {
        "species": [{ "element": "Se", "occu": 1 }],
        "abc": [0.25266702, 0.38404364, 0.22109028],
        "properties": { "magmom": -0.0 },
        "label": "Se",
        "xyz": [0.3163084715163954, 2.245476122470651, 1.0430735222831098]
      },
      {
        "species": [{ "element": "Se", "occu": 1 }],
        "abc": [0.74733298, 0.61595636, 0.77890972],
        "properties": { "magmom": -0.0 },
        "label": "Se",
        "xyz": [2.7336555984836046, 3.620547377529349, 4.084226667716891]
      },
      {
        "species": [{ "element": "Se", "occu": 1 }],
        "abc": [0.7256410400000001, 0.34265556, 0.25329271000000003],
        "properties": { "magmom": 0.0 },
        "label": "Se",
        "xyz": [3.496930711834658, 2.004908658023846, 0.46818156996629323]
      },
      {
        "species": [{ "element": "Se", "occu": 1 }],
        "abc": [0.27435896, 0.65734444, 0.74670729],
        "properties": { "magmom": 0.0 },
        "label": "Se",
        "xyz": [-0.44696664183465884, 3.8611148419761547, 4.659118620033707]
      },
      {
        "species": [{ "element": "Se", "occu": 1 }],
        "abc": [0.22332635, 0.10890753, 0.71205903],
        "properties": { "magmom": 0.0 },
        "label": "Se",
        "xyz": [1.1100399007092716, 0.6668912438780179, 4.624143014177748]
      },
      {
        "species": [{ "element": "Se", "occu": 1 }],
        "abc": [0.77667365, 0.89109247, 0.28794097],
        "properties": { "magmom": 0.0 },
        "label": "Se",
        "xyz": [1.9399241692907283, 5.199132256121983, 0.5031571758222517]
      },
      {
        "species": [{ "element": "Se", "occu": 1 }],
        "abc": [0.75173963, 0.13468918, 0.68531994],
        "properties": { "magmom": 0.0 },
        "label": "Se",
        "xyz": [4.411147390562118, 0.8144514356113042, 3.52263141996902]
      },
      {
        "species": [{ "element": "Se", "occu": 1 }],
        "abc": [0.24826037, 0.86531082, 0.31468006],
        "properties": { "magmom": 0.0 },
        "label": "Se",
        "xyz": [-1.3611833205621184, 5.051572064388696, 1.6046687700309792]
      }
    ]
  },
  "task_ids": null,
  "uncorrected_energy_per_atom": null,
  "energy_per_atom": -27.474410874166665,
  "formation_energy_per_atom": -0.46316581770832904,
  "energy_above_hull": 0.0,
  "is_stable": true,
  "equilibrium_reaction_energy_per_atom": null,
  "decomposes_to": null,
  "xas": null,
  "grain_boundaries": null,
  "band_gap": 1.1434,
  "cbm": null,
  "vbm": null,
  "efermi": 3.8393785300000003,
  "is_gap_direct": null,
  "is_metal": null,
  "es_source_calc_id": null,
  "bandstructure": null,
  "dos": null,
  "dos_energy_up": null,
  "dos_energy_down": null,
  "is_magnetic": null,
  "ordering": null,
  "total_magnetization": 0.0,
  "total_magnetization_normalized_vol": null,
  "total_magnetization_normalized_formula_units": null,
  "num_magnetic_sites": null,
  "num_unique_magnetic_sites": null,
  "types_of_magnetic_species": null,
  "bulk_modulus": null,
  "shear_modulus": null,
  "universal_anisotropy": null,
  "homogeneous_poisson": null,
  "e_total": null,
  "e_ionic": null,
  "e_electronic": null,
  "n": null,
  "e_ij_max": null,
  "weighted_surface_energy_EV_PER_ANG2": null,
  "weighted_surface_energy": null,
  "weighted_work_function": null,
  "surface_anisotropy": null,
  "shape_factor": null,
  "has_reconstructed": null,
  "possible_species": null,
  "has_props": null,
  "theoretical": null,
  "database_IDs": null,
  "fields_not_requested": [
    "builder_meta",
    "nsites",
    "elements",
    "nelements",
    "composition",
    "composition_reduced",
    "chemsys",
    "symmetry",
    "property_name",
    "deprecated",
    "deprecation_reasons",
    "last_updated",
    "origins",
    "warnings",
    "task_ids",
    "uncorrected_energy_per_atom",
    "equilibrium_reaction_energy_per_atom",
    "decomposes_to",
    "xas",
    "grain_boundaries",
    "cbm",
    "vbm",
    "is_gap_direct",
    "is_metal",
    "es_source_calc_id",
    "bandstructure",
    "dos",
    "dos_energy_up",
    "dos_energy_down",
    "is_magnetic",
    "ordering",
    "total_magnetization_normalized_vol",
    "total_magnetization_normalized_formula_units",
    "num_magnetic_sites",
    "num_unique_magnetic_sites",
    "types_of_magnetic_species",
    "bulk_modulus",
    "shear_modulus",
    "universal_anisotropy",
    "homogeneous_poisson",
    "e_total",
    "e_ionic",
    "e_electronic",
    "n",
    "e_ij_max",
    "weighted_surface_energy_EV_PER_ANG2",
    "weighted_surface_energy",
    "weighted_work_function",
    "surface_anisotropy",
    "shape_factor",
    "has_reconstructed",
    "possible_species",
    "has_props",
    "theoretical",
    "database_IDs"
  ]
}
