{"builder_meta": null, "nsites": null, "elements": null, "nelements": null, "composition": null, "composition_reduced": null, "formula_pretty": "ReTc3", "formula_anonymous": "AB3", "chemsys": null, "volume": 115.06805962032439, "density": 13.859666812595517, "density_atomic": 14.383507452540549, "symmetry": null, "property_name": null, "material_id": "mp-974492", "deprecated": null, "deprecation_reasons": null, "last_updated": null, "origins": null, "warnings": null, "structure": {"@module": "pymatgen.core.structure", "@class": "Structure", "charge": 0, "lattice": {"matrix": [[2.74588781, -4.7560156, -8.72e-06], [2.74589479, 4.75602013, -1.94e-06], [-9.349999999999999e-06, 2.609999999999998e-06, 4.4055281]], "pbc": [true, true, true], "a": 5.491774235402071, "b": 5.49178164849242, "c": 4.405528100010694, "alpha": 90.00005164399502, "beta": 90.0001811728184, "gamma": 119.99994388431283, "volume": 115.06805962032438}, "properties": {}, "sites": [{"species": [{"element": "Re", "occu": 1}], "abc": [0.33335015, 0.6666637, 0.75000515], "properties": {"magmom": -0.0}, "label": "Re", "xyz": [2.745923481310642, 1.5852494209913823, 3.3041645633288286]}, {"species": [{"element": "Re", "occu": 1}], "abc": [0.66668875, 0.33335397, 0.24998818], "properties": {"magmom": 0.0}, "label": "Re", "xyz": [2.746005103748471, -1.5853432511399341, 1.101323491425256]}, {"species": [{"element": "Tc", "occu": 1}], "abc": [0.16691378, 0.3338375, 0.24999623], "properties": {"magmom": 0.0}, "label": "Tc", "xyz": [1.3750068283148964, 0.7938939811040673, 1.1013633130261513]}, {"species": [{"element": "Tc", "occu": 1}], "abc": [0.66615705, 0.8330718300000001, 0.24999683], "properties": {"magmom": -0.0}, "label": "Tc", "xyz": [4.116717783362966, 0.7938537238576843, 1.1013606344270968]}, {"species": [{"element": "Tc", "occu": 1}], "abc": [0.16690227, 0.83306974, 0.24999575000000002], "properties": {"magmom": 0.0}, "label": "Tc", "xyz": [2.7458144299667206, 3.168307305827361, 1.101360229962485]}, {"species": [{"element": "Tc", "occu": 1}], "abc": [0.8330723600000001, 0.66615269, 0.7500051], "properties": {"magmom": -0.0}, "label": "Tc", "xyz": [4.1167014264397315, -0.7938675792818555, 3.3041599864661118]}, {"species": [{"element": "Tc", "occu": 1}], "abc": [0.33383751, 0.16692624, 0.75000544], "properties": {"magmom": 0.0}, "label": "Tc", "xyz": [1.3750352294091788, -0.7938298902457464, 3.304166806172871]}, {"species": [{"element": "Tc", "occu": 1}], "abc": [0.83307913, 0.16692432000000001, 0.75000633], "properties": {"magmom": -0.0}, "label": "Tc", "xyz": [2.745891435885513, -3.168239954691345, 3.3041663737096787]}]}, "task_ids": null, "uncorrected_energy_per_atom": null, "energy_per_atom": -32.5777341375, "formation_energy_per_atom": -0.0015839231249960002, "energy_above_hull": 0.0019067399999950002, "is_stable": false, "equilibrium_reaction_energy_per_atom": null, "decomposes_to": null, "xas": null, "grain_boundaries": null, "band_gap": 0.0, "cbm": null, "vbm": null, "efermi": 8.02415082, "is_gap_direct": null, "is_metal": null, "es_source_calc_id": null, "bandstructure": null, "dos": null, "dos_energy_up": null, "dos_energy_down": null, "is_magnetic": null, "ordering": null, "total_magnetization": 1.8e-06, "total_magnetization_normalized_vol": null, "total_magnetization_normalized_formula_units": null, "num_magnetic_sites": null, "num_unique_magnetic_sites": null, "types_of_magnetic_species": null, "bulk_modulus": null, "shear_modulus": null, "universal_anisotropy": null, "homogeneous_poisson": null, "e_total": null, "e_ionic": null, "e_electronic": null, "n": null, "e_ij_max": null, "weighted_surface_energy_EV_PER_ANG2": null, "weighted_surface_energy": null, "weighted_work_function": null, "surface_anisotropy": null, "shape_factor": null, "has_reconstructed": null, "possible_species": null, "has_props": null, "theoretical": null, "database_IDs": null, "fields_not_requested": ["builder_meta", "nsites", "elements", "nelements", "composition", "composition_reduced", "chemsys", "symmetry", "property_name", "deprecated", "deprecation_reasons", "last_updated", "origins", "warnings", "task_ids", "uncorrected_energy_per_atom", "equilibrium_reaction_energy_per_atom", "decomposes_to", "xas", "grain_boundaries", "cbm", "vbm", "is_gap_direct", "is_metal", "es_source_calc_id", "bandstructure", "dos", "dos_energy_up", "dos_energy_down", "is_magnetic", "ordering", "total_magnetization_normalized_vol", "total_magnetization_normalized_formula_units", "num_magnetic_sites", "num_unique_magnetic_sites", "types_of_magnetic_species", "bulk_modulus", "shear_modulus", "universal_anisotropy", "homogeneous_poisson", "e_total", "e_ionic", "e_electronic", "n", "e_ij_max", "weighted_surface_energy_EV_PER_ANG2", "weighted_surface_energy", "weighted_work_function", "surface_anisotropy", "shape_factor", "has_reconstructed", "possible_species", "has_props", "theoretical", "database_IDs"]}