{
  "builder_meta": null,
  "nsites": null,
  "elements": null,
  "nelements": null,
  "composition": null,
  "composition_reduced": null,
  "formula_pretty": "ReTe",
  "formula_anonymous": "AB",
  "chemsys": null,
  "volume": 83.52738196104215,
  "density": 12.477076873200366,
  "density_atomic": 20.881845490260538,
  "symmetry": null,
  "property_name": null,
  "material_id": "mp-974469",
  "deprecated": null,
  "deprecation_reasons": null,
  "last_updated": null,
  "origins": null,
  "warnings": null,
  "structure": {
    "@module": "pymatgen.core.structure",
    "@class": "Structure",
    "charge": 0,
    "lattice": {
      "matrix": [
        [1.649497, -2.857013, 0.0],
        [1.649497, 2.857013, 0.0],
        [0.0, 0.0, 8.862069]
      ],
      "pbc": [true, true, true],
      "a": 3.298994336942396,
      "b": 3.298994336942396,
      "c": 8.862069,
      "alpha": 90.0,
      "beta": 90.0,
      "gamma": 120.00000675718927,
      "volume": 83.52738196104215
    },
    "properties": {},
    "sites": [
      {
        "species": [{ "element": "Re", "occu": 1 }],
        "abc": [0.666667, 0.333333, 0.537828],
        "properties": { "magmom": 0.0 },
        "label": "Re",
        "xyz": [1.6494969999999998, -0.9523395713420001, 4.766268846131999]
      },
      {
        "species": [{ "element": "Re", "occu": 1 }],
        "abc": [0.333333, 0.666667, 0.037828],
        "properties": { "magmom": 0.0 },
        "label": "Re",
        "xyz": [1.6494969999999998, 0.9523395713420001, 0.335234346132]
      },
      {
        "species": [{ "element": "Te", "occu": 1 }],
        "abc": [0.666667, 0.333333, 0.837171999999999],
        "properties": { "magmom": -0.0 },
        "label": "Te",
        "xyz": [1.6494969999999998, -0.9523395713420001, 7.419076028867991]
      },
      {
        "species": [{ "element": "Te", "occu": 1 }],
        "abc": [0.333333, 0.666667, 0.33717199999999903],
        "properties": { "magmom": -0.0 },
        "label": "Te",
        "xyz": [1.6494969999999998, 0.9523395713420001, 2.9880415288679916]
      }
    ]
  },
  "task_ids": null,
  "uncorrected_energy_per_atom": null,
  "energy_per_atom": -7.2201961,
  "formation_energy_per_atom": 0.5755139504166661,
  "energy_above_hull": 0.9019919082499991,
  "is_stable": false,
  "equilibrium_reaction_energy_per_atom": null,
  "decomposes_to": null,
  "xas": null,
  "grain_boundaries": null,
  "band_gap": 0.0,
  "cbm": null,
  "vbm": null,
  "efermi": 8.459281,
  "is_gap_direct": null,
  "is_metal": null,
  "es_source_calc_id": null,
  "bandstructure": null,
  "dos": null,
  "dos_energy_up": null,
  "dos_energy_down": null,
  "is_magnetic": null,
  "ordering": null,
  "total_magnetization": 5.89e-5,
  "total_magnetization_normalized_vol": null,
  "total_magnetization_normalized_formula_units": null,
  "num_magnetic_sites": null,
  "num_unique_magnetic_sites": null,
  "types_of_magnetic_species": null,
  "bulk_modulus": null,
  "shear_modulus": null,
  "universal_anisotropy": null,
  "homogeneous_poisson": null,
  "e_total": null,
  "e_ionic": null,
  "e_electronic": null,
  "n": null,
  "e_ij_max": null,
  "weighted_surface_energy_EV_PER_ANG2": null,
  "weighted_surface_energy": null,
  "weighted_work_function": null,
  "surface_anisotropy": null,
  "shape_factor": null,
  "has_reconstructed": null,
  "possible_species": null,
  "has_props": null,
  "theoretical": null,
  "database_IDs": null,
  "fields_not_requested": [
    "builder_meta",
    "nsites",
    "elements",
    "nelements",
    "composition",
    "composition_reduced",
    "chemsys",
    "symmetry",
    "property_name",
    "deprecated",
    "deprecation_reasons",
    "last_updated",
    "origins",
    "warnings",
    "task_ids",
    "uncorrected_energy_per_atom",
    "equilibrium_reaction_energy_per_atom",
    "decomposes_to",
    "xas",
    "grain_boundaries",
    "cbm",
    "vbm",
    "is_gap_direct",
    "is_metal",
    "es_source_calc_id",
    "bandstructure",
    "dos",
    "dos_energy_up",
    "dos_energy_down",
    "is_magnetic",
    "ordering",
    "total_magnetization_normalized_vol",
    "total_magnetization_normalized_formula_units",
    "num_magnetic_sites",
    "num_unique_magnetic_sites",
    "types_of_magnetic_species",
    "bulk_modulus",
    "shear_modulus",
    "universal_anisotropy",
    "homogeneous_poisson",
    "e_total",
    "e_ionic",
    "e_electronic",
    "n",
    "e_ij_max",
    "weighted_surface_energy_EV_PER_ANG2",
    "weighted_surface_energy",
    "weighted_work_function",
    "surface_anisotropy",
    "shape_factor",
    "has_reconstructed",
    "possible_species",
    "has_props",
    "theoretical",
    "database_IDs"
  ]
}
