{
  "builder_meta": null,
  "nsites": null,
  "elements": null,
  "nelements": null,
  "composition": null,
  "composition_reduced": null,
  "formula_pretty": "ReTe2",
  "formula_anonymous": "AB2",
  "chemsys": null,
  "volume": 332.97176170026506,
  "density": 8.80523398173945,
  "density_atomic": 27.747646808355423,
  "symmetry": null,
  "property_name": null,
  "material_id": "mp-1102447",
  "deprecated": null,
  "deprecation_reasons": null,
  "last_updated": null,
  "origins": null,
  "warnings": null,
  "structure": {
    "@module": "pymatgen.core.structure",
    "@class": "Structure",
    "charge": 0,
    "lattice": {
      "matrix": [
        [-3.313865, 5.899316, -2.150376999999999],
        [3.978243, 5.668881, -2.14607],
        [0.31287000000000004, -0.40183, -7.734587]
      ],
      "pbc": [true, true, true],
      "a": 7.099841670643789,
      "b": 7.250396237731425,
      "c": 7.7513347912710495,
      "alpha": 73.92062788182405,
      "beta": 76.0952625926021,
      "gamma": 61.10476219668136,
      "volume": 332.97176170026506
    },
    "properties": {},
    "sites": [
      {
        "species": [{ "element": "Re", "occu": 1 }],
        "abc": [0.989234, 0.702008, 0.496438],
        "properties": { "magmom": 0.0 },
        "label": "Re",
        "xyz": [-0.3301089604059997, 9.615920095452, -7.473527250883999]
      },
      {
        "species": [{ "element": "Re", "occu": 1 }],
        "abc": [0.010766, 0.297992, 0.503562],
        "properties": { "magmom": 0.0 },
        "label": "Re",
        "xyz": [1.3073569604059998, 1.5504469045479998, -4.5575067491159995]
      },
      {
        "species": [{ "element": "Re", "occu": 1 }],
        "abc": [0.5764900000000001, 0.6785909999999991, 0.489087999999999],
        "properties": { "magmom": 0.0 },
        "label": "Re",
        "xyz": [0.942210824322996, 7.051218076470995, -6.47886831075599]
      },
      {
        "species": [{ "element": "Re", "occu": 1 }],
        "abc": [0.42351000000000005, 0.321409, 0.510911999999999],
        "properties": { "magmom": 0.0 },
        "label": "Re",
        "xyz": [0.035037175676999405, 4.115148923529, -5.552165689243992]
      },
      {
        "species": [{ "element": "Te", "occu": 1 }],
        "abc": [0.9008, 0.61997, 0.217400999999999],
        "properties": { "magmom": -0.0 },
        "label": "Te",
        "xyz": [-0.45072002842000025, 8.74128176254, -4.949065567886992]
      },
      {
        "species": [{ "element": "Te", "occu": 1 }],
        "abc": [0.09920000000000001, 0.38003000000000003, 0.782598999999999],
        "properties": { "magmom": -0.0 },
        "label": "Te",
        "xyz": [1.4279680284199998, 2.4250852374600007, -7.081968432112992]
      },
      {
        "species": [{ "element": "Te", "occu": 1 }],
        "abc": [0.353097999999999, 0.661666, 0.253133],
        "properties": { "magmom": -0.0 },
        "label": "Te",
        "xyz": [1.5413467507780032, 5.732226063323994, -4.137154581636998]
      },
      {
        "species": [{ "element": "Te", "occu": 1 }],
        "abc": [0.646902, 0.338333999999999, 0.746867],
        "properties": { "magmom": -0.0 },
        "label": "Te",
        "xyz": [-0.5640987507780038, 5.434140936675994, -7.893879418362997]
      },
      {
        "species": [{ "element": "Te", "occu": 1 }],
        "abc": [0.611881, 0.892856, 0.705836],
        "properties": { "magmom": -0.0 },
        "label": "Te",
        "xyz": [1.745142011263, 8.387547707652, -8.691256254789]
      },
      {
        "species": [{ "element": "Te", "occu": 1 }],
        "abc": [0.388119, 0.107143999999999, 0.294164],
        "properties": { "magmom": -0.0 },
        "label": "Te",
        "xyz": [-0.7678940112630038, 2.778819292347994, -3.3397777452109976]
      },
      {
        "species": [{ "element": "Te", "occu": 1 }],
        "abc": [0.157189, 0.863321, 0.678264],
        "properties": { "magmom": -0.0 },
        "label": "Te",
        "xyz": [3.1258060571980004, 5.548824773404999, -7.436854825691]
      },
      {
        "species": [{ "element": "Te", "occu": 1 }],
        "abc": [0.842811, 0.136679, 0.321735999999999],
        "properties": { "magmom": -0.0 },
        "label": "Te",
        "xyz": [-2.148558057198, 5.617542226595, -4.594179174308992]
      }
    ]
  },
  "task_ids": null,
  "uncorrected_energy_per_atom": null,
  "energy_per_atom": -6.6217995375,
  "formation_energy_per_atom": -0.37689087277777805,
  "energy_above_hull": 0.058413071000001,
  "is_stable": false,
  "equilibrium_reaction_energy_per_atom": null,
  "decomposes_to": null,
  "xas": null,
  "grain_boundaries": null,
  "band_gap": 0.6616999999999991,
  "cbm": null,
  "vbm": null,
  "efermi": 6.68312822,
  "is_gap_direct": null,
  "is_metal": null,
  "es_source_calc_id": null,
  "bandstructure": null,
  "dos": null,
  "dos_energy_up": null,
  "dos_energy_down": null,
  "is_magnetic": null,
  "ordering": null,
  "total_magnetization": 0.0002477,
  "total_magnetization_normalized_vol": null,
  "total_magnetization_normalized_formula_units": null,
  "num_magnetic_sites": null,
  "num_unique_magnetic_sites": null,
  "types_of_magnetic_species": null,
  "bulk_modulus": null,
  "shear_modulus": null,
  "universal_anisotropy": null,
  "homogeneous_poisson": null,
  "e_total": null,
  "e_ionic": null,
  "e_electronic": null,
  "n": null,
  "e_ij_max": null,
  "weighted_surface_energy_EV_PER_ANG2": null,
  "weighted_surface_energy": null,
  "weighted_work_function": null,
  "surface_anisotropy": null,
  "shape_factor": null,
  "has_reconstructed": null,
  "possible_species": null,
  "has_props": null,
  "theoretical": null,
  "database_IDs": null,
  "fields_not_requested": [
    "builder_meta",
    "nsites",
    "elements",
    "nelements",
    "composition",
    "composition_reduced",
    "chemsys",
    "symmetry",
    "property_name",
    "deprecated",
    "deprecation_reasons",
    "last_updated",
    "origins",
    "warnings",
    "task_ids",
    "uncorrected_energy_per_atom",
    "equilibrium_reaction_energy_per_atom",
    "decomposes_to",
    "xas",
    "grain_boundaries",
    "cbm",
    "vbm",
    "is_gap_direct",
    "is_metal",
    "es_source_calc_id",
    "bandstructure",
    "dos",
    "dos_energy_up",
    "dos_energy_down",
    "is_magnetic",
    "ordering",
    "total_magnetization_normalized_vol",
    "total_magnetization_normalized_formula_units",
    "num_magnetic_sites",
    "num_unique_magnetic_sites",
    "types_of_magnetic_species",
    "bulk_modulus",
    "shear_modulus",
    "universal_anisotropy",
    "homogeneous_poisson",
    "e_total",
    "e_ionic",
    "e_electronic",
    "n",
    "e_ij_max",
    "weighted_surface_energy_EV_PER_ANG2",
    "weighted_surface_energy",
    "weighted_work_function",
    "surface_anisotropy",
    "shape_factor",
    "has_reconstructed",
    "possible_species",
    "has_props",
    "theoretical",
    "database_IDs"
  ]
}
