{
  "builder_meta": null,
  "nsites": null,
  "elements": null,
  "nelements": null,
  "composition": null,
  "composition_reduced": null,
  "formula_pretty": "ReW2",
  "formula_anonymous": "AB2",
  "chemsys": null,
  "volume": 47.67424187109372,
  "density": 19.292409609129955,
  "density_atomic": 15.89141395703124,
  "symmetry": null,
  "property_name": null,
  "material_id": "mp-1219490",
  "deprecated": null,
  "deprecation_reasons": null,
  "last_updated": null,
  "origins": null,
  "warnings": null,
  "structure": {
    "@module": "pymatgen.core.structure",
    "@class": "Structure",
    "charge": 0,
    "lattice": {
      "matrix": [
        [0.0, 2.244665, 6.733286],
        [1.577157999999999, 0.0, 6.733286],
        [1.577157999999999, 2.244665, 0.0]
      ],
      "pbc": [true, true, true],
      "a": 7.09758137114475,
      "b": 6.915530906211033,
      "c": 2.743346190182529,
      "alpha": 82.4661129559472,
      "beta": 75.00297464778095,
      "gamma": 22.530912396271848,
      "volume": 47.674241871093685
    },
    "properties": {},
    "sites": [
      {
        "species": [{ "element": "Re", "occu": 1 }],
        "abc": [0.0, 0.0, 0.0],
        "properties": { "magmom": -0.0 },
        "label": "Re",
        "xyz": [0.0, 0.0, 0.0]
      },
      {
        "species": [{ "element": "W", "occu": 1 }],
        "abc": [0.334034999999999, 0.334034999999999, 0.665964999999999],
        "properties": { "magmom": 0.0 },
        "label": "W",
        "xyz": [1.5771579999999958, 2.2446649999999955, 4.498306378019986]
      },
      {
        "species": [{ "element": "W", "occu": 1 }],
        "abc": [0.665964999999999, 0.665964999999999, 0.334034999999999],
        "properties": { "magmom": 0.0 },
        "label": "W",
        "xyz": [1.5771579999999958, 2.2446649999999955, 8.968265621979986]
      }
    ]
  },
  "task_ids": null,
  "uncorrected_energy_per_atom": null,
  "energy_per_atom": -51.650722207499996,
  "formation_energy_per_atom": 0.064678948333342,
  "energy_above_hull": 0.06467894833333701,
  "is_stable": false,
  "equilibrium_reaction_energy_per_atom": null,
  "decomposes_to": null,
  "xas": null,
  "grain_boundaries": null,
  "band_gap": 0.0,
  "cbm": null,
  "vbm": null,
  "efermi": 7.71278589,
  "is_gap_direct": null,
  "is_metal": null,
  "es_source_calc_id": null,
  "bandstructure": null,
  "dos": null,
  "dos_energy_up": null,
  "dos_energy_down": null,
  "is_magnetic": null,
  "ordering": null,
  "total_magnetization": 0.0014807,
  "total_magnetization_normalized_vol": null,
  "total_magnetization_normalized_formula_units": null,
  "num_magnetic_sites": null,
  "num_unique_magnetic_sites": null,
  "types_of_magnetic_species": null,
  "bulk_modulus": null,
  "shear_modulus": null,
  "universal_anisotropy": null,
  "homogeneous_poisson": null,
  "e_total": null,
  "e_ionic": null,
  "e_electronic": null,
  "n": null,
  "e_ij_max": null,
  "weighted_surface_energy_EV_PER_ANG2": null,
  "weighted_surface_energy": null,
  "weighted_work_function": null,
  "surface_anisotropy": null,
  "shape_factor": null,
  "has_reconstructed": null,
  "possible_species": null,
  "has_props": null,
  "theoretical": null,
  "database_IDs": null,
  "fields_not_requested": [
    "builder_meta",
    "nsites",
    "elements",
    "nelements",
    "composition",
    "composition_reduced",
    "chemsys",
    "symmetry",
    "property_name",
    "deprecated",
    "deprecation_reasons",
    "last_updated",
    "origins",
    "warnings",
    "task_ids",
    "uncorrected_energy_per_atom",
    "equilibrium_reaction_energy_per_atom",
    "decomposes_to",
    "xas",
    "grain_boundaries",
    "cbm",
    "vbm",
    "is_gap_direct",
    "is_metal",
    "es_source_calc_id",
    "bandstructure",
    "dos",
    "dos_energy_up",
    "dos_energy_down",
    "is_magnetic",
    "ordering",
    "total_magnetization_normalized_vol",
    "total_magnetization_normalized_formula_units",
    "num_magnetic_sites",
    "num_unique_magnetic_sites",
    "types_of_magnetic_species",
    "bulk_modulus",
    "shear_modulus",
    "universal_anisotropy",
    "homogeneous_poisson",
    "e_total",
    "e_ionic",
    "e_electronic",
    "n",
    "e_ij_max",
    "weighted_surface_energy_EV_PER_ANG2",
    "weighted_surface_energy",
    "weighted_work_function",
    "surface_anisotropy",
    "shape_factor",
    "has_reconstructed",
    "possible_species",
    "has_props",
    "theoretical",
    "database_IDs"
  ]
}
