{"builder_meta": null, "nsites": null, "elements": null, "nelements": null, "composition": null, "composition_reduced": null, "formula_pretty": "ReW4", "formula_anonymous": "AB4", "chemsys": null, "volume": 79.79632752078356, "density": 19.17754931253928, "density_atomic": 15.959265504156713, "symmetry": null, "property_name": null, "material_id": "mp-1219494", "deprecated": null, "deprecation_reasons": null, "last_updated": null, "origins": null, "warnings": null, "structure": {"@module": "pymatgen.core.structure", "@class": "Structure", "charge": 0, "lattice": {"matrix": [[-1.58507966, -1.589416229999999, 1.589416229999999], [-1.58507966, 1.589416229999999, -1.589416229999999], [-1.58507966, -7.91834056, -7.91834056]], "pbc": [true, true, true], "a": 2.7504482240028687, "b": 2.7504482240028687, "c": 11.309850219027126, "alpha": 85.36726120093203, "beta": 85.36726120093203, "gamma": 109.6187403294299, "volume": 79.7963275207835}, "properties": {}, "sites": [{"species": [{"element": "Re", "occu": 1}], "abc": [0.0, -0.0, 0.0], "properties": {"magmom": -0.0}, "label": "Re", "xyz": [0.0, 0.0, 0.0]}, {"species": [{"element": "W", "occu": 1}], "abc": [0.40044432, 0.40044432, 0.19911136000000002], "properties": {"magmom": -0.0}, "label": "W", "xyz": [-1.58507966, -1.5766315578447616, -1.5766315578447616]}, {"species": [{"element": "W", "occu": 1}], "abc": [0.80021218, 0.80021218, 0.39957564], "properties": {"magmom": -0.0}, "label": "W", "xyz": [-3.17015932, -3.1639759969999584, -3.1639759969999584]}, {"species": [{"element": "W", "occu": 1}], "abc": [0.19978782, 0.19978782, 0.60042436], "properties": {"magmom": -0.0}, "label": "W", "xyz": [-1.58507966, -4.754364563000041, -4.754364563000041]}, {"species": [{"element": "W", "occu": 1}], "abc": [0.59955568, 0.59955568, 0.80088864], "properties": {"magmom": 0.0}, "label": "W", "xyz": [-3.17015932, -6.3417090021552385, -6.3417090021552385]}]}, "task_ids": null, "uncorrected_energy_per_atom": null, "energy_per_atom": -51.5289558905, "formation_energy_per_atom": 0.047402554999996, "energy_above_hull": 0.047402555000005, "is_stable": false, "equilibrium_reaction_energy_per_atom": null, "decomposes_to": null, "xas": null, "grain_boundaries": null, "band_gap": 0.0, "cbm": null, "vbm": null, "efermi": 7.52552319, "is_gap_direct": null, "is_metal": null, "es_source_calc_id": null, "bandstructure": null, "dos": null, "dos_energy_up": null, "dos_energy_down": null, "is_magnetic": null, "ordering": null, "total_magnetization": 4.35e-05, "total_magnetization_normalized_vol": null, "total_magnetization_normalized_formula_units": null, "num_magnetic_sites": null, "num_unique_magnetic_sites": null, "types_of_magnetic_species": null, "bulk_modulus": null, "shear_modulus": null, "universal_anisotropy": null, "homogeneous_poisson": null, "e_total": null, "e_ionic": null, "e_electronic": null, "n": null, "e_ij_max": null, "weighted_surface_energy_EV_PER_ANG2": null, "weighted_surface_energy": null, "weighted_work_function": null, "surface_anisotropy": null, "shape_factor": null, "has_reconstructed": null, "possible_species": null, "has_props": null, "theoretical": null, "database_IDs": null, "fields_not_requested": ["builder_meta", "nsites", "elements", "nelements", "composition", "composition_reduced", "chemsys", "symmetry", "property_name", "deprecated", "deprecation_reasons", "last_updated", "origins", "warnings", "task_ids", "uncorrected_energy_per_atom", "equilibrium_reaction_energy_per_atom", "decomposes_to", "xas", "grain_boundaries", "cbm", "vbm", "is_gap_direct", "is_metal", "es_source_calc_id", "bandstructure", "dos", "dos_energy_up", "dos_energy_down", "is_magnetic", "ordering", "total_magnetization_normalized_vol", "total_magnetization_normalized_formula_units", "num_magnetic_sites", "num_unique_magnetic_sites", "types_of_magnetic_species", "bulk_modulus", "shear_modulus", "universal_anisotropy", "homogeneous_poisson", "e_total", "e_ionic", "e_electronic", "n", "e_ij_max", "weighted_surface_energy_EV_PER_ANG2", "weighted_surface_energy", "weighted_work_function", "surface_anisotropy", "shape_factor", "has_reconstructed", "possible_species", "has_props", "theoretical", "database_IDs"]}