{"builder_meta": null, "nsites": null, "elements": null, "nelements": null, "composition": null, "composition_reduced": null, "formula_pretty": "Rh2O3", "formula_anonymous": "A2B3", "chemsys": null, "volume": 203.43243845929118, "density": 8.286979112170076, "density_atomic": 10.171621922964558, "symmetry": null, "property_name": null, "material_id": "mp-1716", "deprecated": null, "deprecation_reasons": null, "last_updated": null, "origins": null, "warnings": null, "structure": {"@module": "pymatgen.core.structure", "@class": "Structure", "charge": 0, "lattice": {"matrix": [[5.18839384, 0.0, 0.0], [0.0, 5.39035465, 0.0], [0.0, 0.0, 7.27394361]], "pbc": [true, true, true], "a": 5.18839384, "b": 5.39035465, "c": 7.27394361, "alpha": 90.0, "beta": 90.0, "gamma": 90.0, "volume": 203.43243845929118}, "properties": {}, "sites": [{"species": [{"element": "Rh", "occu": 1}], "abc": [0.7496689400000001, 0.03073157, 0.10646008], "properties": {"magmom": -0.0}, "label": "Rh", "xyz": [3.8895777103353297, 0.1656540612513005, 0.7743846186360888]}, {"species": [{"element": "Rh", "occu": 1}], "abc": [0.7496689400000001, 0.46926843, 0.89353992], "properties": {"magmom": -0.0}, "label": "Rh", "xyz": [3.8895777103353297, 2.5295232637486995, 6.499558991363911]}, {"species": [{"element": "Rh", "occu": 1}], "abc": [0.75033106, 0.53073157, 0.39353992], "properties": {"magmom": -0.0}, "label": "Rh", "xyz": [3.8930130496646704, 2.860831386251301, 2.862587186363911]}, {"species": [{"element": "Rh", "occu": 1}], "abc": [0.75033106, 0.9692684300000001, 0.6064600800000001], "properties": {"magmom": -0.0}, "label": "Rh", "xyz": [3.8930130496646704, 5.2247005887487, 4.411356423636089]}, {"species": [{"element": "Rh", "occu": 1}], "abc": [0.25033106, 0.9692684300000001, 0.89353992], "properties": {"magmom": -0.0}, "label": "Rh", "xyz": [1.2988161296646703, 5.2247005887487, 6.499558991363911]}, {"species": [{"element": "Rh", "occu": 1}], "abc": [0.25033106, 0.53073157, 0.10646008], "properties": {"magmom": -0.0}, "label": "Rh", "xyz": [1.2988161296646703, 2.860831386251301, 0.7743846186360888]}, {"species": [{"element": "Rh", "occu": 1}], "abc": [0.24966894, 0.46926843, 0.6064600800000001], "properties": {"magmom": -0.0}, "label": "Rh", "xyz": [1.2953807903353296, 2.5295232637486995, 4.411356423636089]}, {"species": [{"element": "Rh", "occu": 1}], "abc": [0.24966894, 0.03073157, 0.39353992], "properties": {"magmom": -0.0}, "label": "Rh", "xyz": [1.2953807903353296, 0.1656540612513005, 2.862587186363911]}, {"species": [{"element": "O", "occu": 1}], "abc": [0.05102253, 0.25, 0.0], "properties": {"magmom": 0.0}, "label": "O", "xyz": [0.26472498035321523, 1.3475886625, 0.0]}, {"species": [{"element": "O", "occu": 1}], "abc": [0.44897747, 0.75, 0.5], "properties": {"magmom": 0.0}, "label": "O", "xyz": [2.3294719396467847, 4.0427659875, 3.636971805]}, {"species": [{"element": "O", "occu": 1}], "abc": [0.94897747, 0.75, 0.0], "properties": {"magmom": 0.0}, "label": "O", "xyz": [4.923668859646784, 4.0427659875, 0.0]}, {"species": [{"element": "O", "occu": 1}], "abc": [0.55102253, 0.25, 0.5], "properties": {"magmom": 0.0}, "label": "O", "xyz": [2.858921900353215, 1.3475886625, 3.636971805]}, {"species": [{"element": "O", "occu": 1}], "abc": [0.60643533, 0.1124829, 0.84870585], "properties": {"magmom": 0.0}, "label": "O", "xyz": [3.1464253305303673, 0.606322723060485, 6.173438494377118]}, {"species": [{"element": "O", "occu": 1}], "abc": [0.60643533, 0.3875171, 0.15129415000000002], "properties": {"magmom": 0.0}, "label": "O", "xyz": [3.1464253305303673, 2.088854601939515, 1.1005051156228816]}, {"species": [{"element": "O", "occu": 1}], "abc": [0.8935646700000001, 0.612482899999999, 0.65129415], "properties": {"magmom": 0.0}, "label": "O", "xyz": [4.636165429469633, 3.30150004806048, 4.737476920622882]}, {"species": [{"element": "O", "occu": 1}], "abc": [0.8935646700000001, 0.8875171, 0.34870585], "properties": {"magmom": 0.0}, "label": "O", "xyz": [4.636165429469633, 4.784031926939515, 2.5364666893771184]}, {"species": [{"element": "O", "occu": 1}], "abc": [0.39356467, 0.8875171, 0.15129415000000002], "properties": {"magmom": 0.0}, "label": "O", "xyz": [2.041968509469633, 4.784031926939515, 1.1005051156228816]}, {"species": [{"element": "O", "occu": 1}], "abc": [0.39356467, 0.612482899999999, 0.84870585], "properties": {"magmom": 0.0}, "label": "O", "xyz": [2.041968509469633, 3.30150004806048, 6.173438494377118]}, {"species": [{"element": "O", "occu": 1}], "abc": [0.10643533000000001, 0.3875171, 0.34870585], "properties": {"magmom": 0.0}, "label": "O", "xyz": [0.5522284105303672, 2.088854601939515, 2.5364666893771184]}, {"species": [{"element": "O", "occu": 1}], "abc": [0.10643533000000001, 0.1124829, 0.65129415], "properties": {"magmom": 0.0}, "label": "O", "xyz": [0.5522284105303672, 0.606322723060485, 4.737476920622882]}]}, "task_ids": null, "uncorrected_energy_per_atom": null, "energy_per_atom": -6.985920994500001, "formation_energy_per_atom": -1.0714212435000001, "energy_above_hull": 0.025638011999998003, "is_stable": false, "equilibrium_reaction_energy_per_atom": null, "decomposes_to": null, "xas": null, "grain_boundaries": null, "band_gap": 0.5597000000000001, "cbm": null, "vbm": null, "efermi": 5.27646049, "is_gap_direct": null, "is_metal": null, "es_source_calc_id": null, "bandstructure": null, "dos": null, "dos_energy_up": null, "dos_energy_down": null, "is_magnetic": null, "ordering": null, "total_magnetization": 0.0, "total_magnetization_normalized_vol": null, "total_magnetization_normalized_formula_units": null, "num_magnetic_sites": null, "num_unique_magnetic_sites": null, "types_of_magnetic_species": null, "bulk_modulus": null, "shear_modulus": null, "universal_anisotropy": null, "homogeneous_poisson": null, "e_total": null, "e_ionic": null, "e_electronic": null, "n": null, "e_ij_max": null, "weighted_surface_energy_EV_PER_ANG2": null, "weighted_surface_energy": null, "weighted_work_function": null, "surface_anisotropy": null, "shape_factor": null, "has_reconstructed": null, "possible_species": null, "has_props": null, "theoretical": null, "database_IDs": null, "fields_not_requested": ["builder_meta", "nsites", "elements", "nelements", "composition", "composition_reduced", "chemsys", "symmetry", "property_name", "deprecated", "deprecation_reasons", "last_updated", "origins", "warnings", "task_ids", "uncorrected_energy_per_atom", "equilibrium_reaction_energy_per_atom", "decomposes_to", "xas", "grain_boundaries", "cbm", "vbm", "is_gap_direct", "is_metal", "es_source_calc_id", "bandstructure", "dos", "dos_energy_up", "dos_energy_down", "is_magnetic", "ordering", "total_magnetization_normalized_vol", "total_magnetization_normalized_formula_units", "num_magnetic_sites", "num_unique_magnetic_sites", "types_of_magnetic_species", "bulk_modulus", "shear_modulus", "universal_anisotropy", "homogeneous_poisson", "e_total", "e_ionic", "e_electronic", "n", "e_ij_max", "weighted_surface_energy_EV_PER_ANG2", "weighted_surface_energy", "weighted_work_function", "surface_anisotropy", "shape_factor", "has_reconstructed", "possible_species", "has_props", "theoretical", "database_IDs"]}