{
  "builder_meta": null,
  "nsites": null,
  "elements": null,
  "nelements": null,
  "composition": null,
  "composition_reduced": null,
  "formula_pretty": "Rh2S3",
  "formula_anonymous": "A2B3",
  "chemsys": null,
  "volume": 163.22288044051223,
  "density": 6.144883119255724,
  "density_atomic": 16.322288044051223,
  "symmetry": null,
  "property_name": null,
  "material_id": "mp-974381",
  "deprecated": null,
  "deprecation_reasons": null,
  "last_updated": null,
  "origins": null,
  "warnings": null,
  "structure": {
    "@module": "pymatgen.core.structure",
    "@class": "Structure",
    "charge": 0,
    "lattice": {
      "matrix": [
        [-5.98491181, -2e-8, -1e-8],
        [2.99245438, -5.18308504, 1e-8],
        [-2.99245438, 1.7276939900000001, 5.26180739]
      ],
      "pbc": [true, true, true],
      "a": 5.98491181,
      "b": 5.9849105046151685,
      "c": 6.294944538986973,
      "alpha": 118.38371230685868,
      "beta": 61.6162815924571,
      "gamma": 119.99999016571464,
      "volume": 163.22288044051223
    },
    "properties": {},
    "sites": [
      {
        "species": [{ "element": "Rh", "occu": 1 }],
        "abc": [0.64989332, 0.35010668, 0.05032003],
        "properties": { "magmom": 0.0 },
        "label": "Rh",
        "xyz": [-2.992456332250082, -1.727695095102314, 0.2647743027211553]
      },
      {
        "species": [{ "element": "Rh", "occu": 1 }],
        "abc": [0.85010668, 0.14989332, 0.44967997],
        "properties": { "magmom": 0.0 },
        "label": "Rh",
        "xyz": [-5.984911382749917, -4.5989768604481895e-7, 2.366129382278845]
      },
      {
        "species": [{ "element": "Rh", "occu": 1 }],
        "abc": [0.14989432, 0.85010568, 0.55031803],
        "properties": { "magmom": 0.0 },
        "label": "Rh",
        "xyz": [-3.419707512275494e-6, -3.4553888824052734, 2.8956674841063554]
      },
      {
        "species": [{ "element": "Rh", "occu": 1 }],
        "abc": [0.35010568000000003, 0.64989432, 0.9496809700000001],
        "properties": { "magmom": 0.0 },
        "label": "Rh",
        "xyz": [-2.9924494928381082, -1.7276994302887156, 4.997038349086256]
      },
      {
        "species": [{ "element": "S", "occu": 1 }],
        "abc": [0.95017573, 0.45017473, 0.249999],
        "properties": { "magmom": -0.0 },
        "label": "S",
        "xyz": [-5.087701208044174, -1.901372157646544, 1.3154465806926001]
      },
      {
        "species": [{ "element": "S", "occu": 1 }],
        "abc": [0.54982527, 0.749999, 0.249999],
        "properties": { "magmom": -0.0 },
        "label": "S",
        "xyz": [-1.7944285618594393, -3.455386838105455, 1.3154465876943473]
      },
      {
        "species": [{ "element": "S", "occu": 1 }],
        "abc": [0.25, 0.049824270000000004, 0.249999],
        "properties": { "magmom": -0.0 },
        "label": "S",
        "xyz": [-2.0952417000538173, 0.17367833634008922, 1.3154465836908529]
      },
      {
        "species": [{ "element": "S", "occu": 1 }],
        "abc": [0.750000999999999, 0.95017473, 0.749999],
        "properties": { "magmom": -0.0 },
        "label": "S",
        "xyz": [-3.8896731024036066, -3.6290676786430485, 3.9463502826943477]
      },
      {
        "species": [{ "element": "S", "occu": 1 }],
        "abc": [0.45017773, 0.25, 0.749999],
        "properties": { "magmom": -0.0 },
        "label": "S",
        "xyz": [-4.190498210421611, -2.504197544439535e-6, 3.946350278690833]
      },
      {
        "species": [{ "element": "S", "occu": 1 }],
        "abc": [0.04982527, 0.54982327, 0.749999],
        "properties": { "magmom": -0.0 },
        "label": "S",
        "xyz": [-0.8972165868676358, -1.5540120015713759, 3.9463502856925903]
      }
    ]
  },
  "task_ids": null,
  "uncorrected_energy_per_atom": null,
  "energy_per_atom": -15.08653634,
  "formation_energy_per_atom": -0.6110454386875,
  "energy_above_hull": 0.0,
  "is_stable": true,
  "equilibrium_reaction_energy_per_atom": null,
  "decomposes_to": null,
  "xas": null,
  "grain_boundaries": null,
  "band_gap": 0.4203,
  "cbm": null,
  "vbm": null,
  "efermi": 6.11222071,
  "is_gap_direct": null,
  "is_metal": null,
  "es_source_calc_id": null,
  "bandstructure": null,
  "dos": null,
  "dos_energy_up": null,
  "dos_energy_down": null,
  "is_magnetic": null,
  "ordering": null,
  "total_magnetization": 0.0,
  "total_magnetization_normalized_vol": null,
  "total_magnetization_normalized_formula_units": null,
  "num_magnetic_sites": null,
  "num_unique_magnetic_sites": null,
  "types_of_magnetic_species": null,
  "bulk_modulus": null,
  "shear_modulus": null,
  "universal_anisotropy": null,
  "homogeneous_poisson": null,
  "e_total": null,
  "e_ionic": null,
  "e_electronic": null,
  "n": null,
  "e_ij_max": null,
  "weighted_surface_energy_EV_PER_ANG2": null,
  "weighted_surface_energy": null,
  "weighted_work_function": null,
  "surface_anisotropy": null,
  "shape_factor": null,
  "has_reconstructed": null,
  "possible_species": null,
  "has_props": null,
  "theoretical": null,
  "database_IDs": null,
  "fields_not_requested": [
    "builder_meta",
    "nsites",
    "elements",
    "nelements",
    "composition",
    "composition_reduced",
    "chemsys",
    "symmetry",
    "property_name",
    "deprecated",
    "deprecation_reasons",
    "last_updated",
    "origins",
    "warnings",
    "task_ids",
    "uncorrected_energy_per_atom",
    "equilibrium_reaction_energy_per_atom",
    "decomposes_to",
    "xas",
    "grain_boundaries",
    "cbm",
    "vbm",
    "is_gap_direct",
    "is_metal",
    "es_source_calc_id",
    "bandstructure",
    "dos",
    "dos_energy_up",
    "dos_energy_down",
    "is_magnetic",
    "ordering",
    "total_magnetization_normalized_vol",
    "total_magnetization_normalized_formula_units",
    "num_magnetic_sites",
    "num_unique_magnetic_sites",
    "types_of_magnetic_species",
    "bulk_modulus",
    "shear_modulus",
    "universal_anisotropy",
    "homogeneous_poisson",
    "e_total",
    "e_ionic",
    "e_electronic",
    "n",
    "e_ij_max",
    "weighted_surface_energy_EV_PER_ANG2",
    "weighted_surface_energy",
    "weighted_work_function",
    "surface_anisotropy",
    "shape_factor",
    "has_reconstructed",
    "possible_species",
    "has_props",
    "theoretical",
    "database_IDs"
  ]
}
