{
  "builder_meta": null,
  "nsites": null,
  "elements": null,
  "nelements": null,
  "composition": null,
  "composition_reduced": null,
  "formula_pretty": "Rh2Se3",
  "formula_anonymous": "A2B3",
  "chemsys": null,
  "volume": 367.1167277843695,
  "density": 8.009503727806093,
  "density_atomic": 18.355836389218474,
  "symmetry": null,
  "property_name": null,
  "material_id": "mp-1105666",
  "deprecated": null,
  "deprecation_reasons": null,
  "last_updated": null,
  "origins": null,
  "warnings": null,
  "structure": {
    "@module": "pymatgen.core.structure",
    "@class": "Structure",
    "charge": 0,
    "lattice": {
      "matrix": [
        [0.0, 6.33474731, 0.0],
        [0.0, -0.0, 6.46889082],
        [8.9587013, 0.0, 0.0]
      ],
      "pbc": [true, true, true],
      "a": 6.33474731,
      "b": 6.46889082,
      "c": 8.9587013,
      "alpha": 90.0,
      "beta": 90.0,
      "gamma": 90.0,
      "volume": 367.1167277843695
    },
    "properties": {},
    "sites": [
      {
        "species": [{ "element": "Rh", "occu": 1 }],
        "abc": [0.74806921, 0.53317755, 0.10666006],
        "properties": { "magmom": 0.0 },
        "label": "Rh",
        "xyz": [0.9555356181800779, 4.738829415741326, 3.4490673586250913]
      },
      {
        "species": [{ "element": "Rh", "occu": 1 }],
        "abc": [0.7519307900000001, 0.03317755, 0.39333994],
        "properties": { "magmom": 0.0 },
        "label": "Rh",
        "xyz": [3.5238150318199217, 4.763291549258676, 0.214621948625091]
      },
      {
        "species": [{ "element": "Rh", "occu": 1 }],
        "abc": [0.7519307900000001, 0.46682245, 0.6066600600000001],
        "properties": { "magmom": 0.0 },
        "label": "Rh",
        "xyz": [5.434886268180078, 4.763291549258676, 3.019823461374909]
      },
      {
        "species": [{ "element": "Rh", "occu": 1 }],
        "abc": [0.74806921, 0.96682245, 0.89333994],
        "properties": { "magmom": 0.0 },
        "label": "Rh",
        "xyz": [8.003165681819922, 4.738829415741326, 6.25426887137491]
      },
      {
        "species": [{ "element": "Rh", "occu": 1 }],
        "abc": [0.25193079, 0.46682245, 0.89333994],
        "properties": { "magmom": 0.0 },
        "label": "Rh",
        "xyz": [8.003165681819922, 1.595917894258675, 3.019823461374909]
      },
      {
        "species": [{ "element": "Rh", "occu": 1 }],
        "abc": [0.24806921, 0.96682245, 0.6066600600000001],
        "properties": { "magmom": 0.0 },
        "label": "Rh",
        "xyz": [5.434886268180078, 1.571455760741325, 6.25426887137491]
      },
      {
        "species": [{ "element": "Rh", "occu": 1 }],
        "abc": [0.24806921, 0.53317755, 0.39333994],
        "properties": { "magmom": 0.0 },
        "label": "Rh",
        "xyz": [3.5238150318199217, 1.571455760741325, 3.4490673586250913]
      },
      {
        "species": [{ "element": "Rh", "occu": 1 }],
        "abc": [0.25193079, 0.03317755, 0.10666006],
        "properties": { "magmom": 0.0 },
        "label": "Rh",
        "xyz": [0.9555356181800779, 1.595917894258675, 0.214621948625091]
      },
      {
        "species": [{ "element": "Se", "occu": 1 }],
        "abc": [0.60973183, 0.89456363, 0.15123514],
        "properties": { "magmom": -0.0 },
        "label": "Se",
        "xyz": [1.354870445323682, 3.862497069913877, 5.786834454012877]
      },
      {
        "species": [{ "element": "Se", "occu": 1 }],
        "abc": [0.89026817, 0.39456363, 0.34876486],
        "properties": { "magmom": -0.0 },
        "label": "Se",
        "xyz": [3.124480204676318, 5.639623895086123, 2.5523890440128767]
      },
      {
        "species": [{ "element": "Se", "occu": 1 }],
        "abc": [0.89026817, 0.10543637, 0.65123514],
        "properties": { "magmom": -0.0 },
        "label": "Se",
        "xyz": [5.834221095323682, 5.639623895086123, 0.6820563659871235]
      },
      {
        "species": [{ "element": "Se", "occu": 1 }],
        "abc": [0.60973183, 0.6054363700000001, 0.8487648600000001],
        "properties": { "magmom": -0.0 },
        "label": "Se",
        "xyz": [7.6038308546763185, 3.862497069913877, 3.916501775987124]
      },
      {
        "species": [{ "element": "Se", "occu": 1 }],
        "abc": [0.39026817, 0.10543637, 0.8487648600000001],
        "properties": { "magmom": -0.0 },
        "label": "Se",
        "xyz": [7.6038308546763185, 2.472250240086123, 0.6820563659871235]
      },
      {
        "species": [{ "element": "Se", "occu": 1 }],
        "abc": [0.10973183, 0.6054363700000001, 0.65123514],
        "properties": { "magmom": -0.0 },
        "label": "Se",
        "xyz": [5.834221095323682, 0.6951234149138773, 3.916501775987124]
      },
      {
        "species": [{ "element": "Se", "occu": 1 }],
        "abc": [0.10973183, 0.89456363, 0.34876486],
        "properties": { "magmom": -0.0 },
        "label": "Se",
        "xyz": [3.124480204676318, 0.6951234149138773, 5.786834454012877]
      },
      {
        "species": [{ "element": "Se", "occu": 1 }],
        "abc": [0.39026817, 0.39456363, 0.15123514],
        "properties": { "magmom": -0.0 },
        "label": "Se",
        "xyz": [1.354870445323682, 2.472250240086123, 2.5523890440128767]
      },
      {
        "species": [{ "element": "Se", "occu": 1 }],
        "abc": [0.0466571, 0.75, 0.0],
        "properties": { "magmom": -0.0 },
        "label": "Se",
        "xyz": [0.0, 0.295560938717401, 4.851668115000001]
      },
      {
        "species": [{ "element": "Se", "occu": 1 }],
        "abc": [0.4533429, 0.25, 0.5],
        "properties": { "magmom": -0.0 },
        "label": "Se",
        "xyz": [4.47935065, 2.871812716282599, 1.617222705]
      },
      {
        "species": [{ "element": "Se", "occu": 1 }],
        "abc": [0.9533429, 0.25, 0.0],
        "properties": { "magmom": -0.0 },
        "label": "Se",
        "xyz": [0.0, 6.039186371282599, 1.617222705]
      },
      {
        "species": [{ "element": "Se", "occu": 1 }],
        "abc": [0.5466571, 0.75, 0.5],
        "properties": { "magmom": -0.0 },
        "label": "Se",
        "xyz": [4.47935065, 3.462934593717401, 4.851668115000001]
      }
    ]
  },
  "task_ids": null,
  "uncorrected_energy_per_atom": null,
  "energy_per_atom": -18.7535779575,
  "formation_energy_per_atom": -0.512150366937498,
  "energy_above_hull": 0.0,
  "is_stable": true,
  "equilibrium_reaction_energy_per_atom": null,
  "decomposes_to": null,
  "xas": null,
  "grain_boundaries": null,
  "band_gap": 0.0,
  "cbm": null,
  "vbm": null,
  "efermi": 5.36951455,
  "is_gap_direct": null,
  "is_metal": null,
  "es_source_calc_id": null,
  "bandstructure": null,
  "dos": null,
  "dos_energy_up": null,
  "dos_energy_down": null,
  "is_magnetic": null,
  "ordering": null,
  "total_magnetization": 0.0,
  "total_magnetization_normalized_vol": null,
  "total_magnetization_normalized_formula_units": null,
  "num_magnetic_sites": null,
  "num_unique_magnetic_sites": null,
  "types_of_magnetic_species": null,
  "bulk_modulus": null,
  "shear_modulus": null,
  "universal_anisotropy": null,
  "homogeneous_poisson": null,
  "e_total": null,
  "e_ionic": null,
  "e_electronic": null,
  "n": null,
  "e_ij_max": null,
  "weighted_surface_energy_EV_PER_ANG2": null,
  "weighted_surface_energy": null,
  "weighted_work_function": null,
  "surface_anisotropy": null,
  "shape_factor": null,
  "has_reconstructed": null,
  "possible_species": null,
  "has_props": null,
  "theoretical": null,
  "database_IDs": null,
  "fields_not_requested": [
    "builder_meta",
    "nsites",
    "elements",
    "nelements",
    "composition",
    "composition_reduced",
    "chemsys",
    "symmetry",
    "property_name",
    "deprecated",
    "deprecation_reasons",
    "last_updated",
    "origins",
    "warnings",
    "task_ids",
    "uncorrected_energy_per_atom",
    "equilibrium_reaction_energy_per_atom",
    "decomposes_to",
    "xas",
    "grain_boundaries",
    "cbm",
    "vbm",
    "is_gap_direct",
    "is_metal",
    "es_source_calc_id",
    "bandstructure",
    "dos",
    "dos_energy_up",
    "dos_energy_down",
    "is_magnetic",
    "ordering",
    "total_magnetization_normalized_vol",
    "total_magnetization_normalized_formula_units",
    "num_magnetic_sites",
    "num_unique_magnetic_sites",
    "types_of_magnetic_species",
    "bulk_modulus",
    "shear_modulus",
    "universal_anisotropy",
    "homogeneous_poisson",
    "e_total",
    "e_ionic",
    "e_electronic",
    "n",
    "e_ij_max",
    "weighted_surface_energy_EV_PER_ANG2",
    "weighted_surface_energy",
    "weighted_work_function",
    "surface_anisotropy",
    "shape_factor",
    "has_reconstructed",
    "possible_species",
    "has_props",
    "theoretical",
    "database_IDs"
  ]
}
