{"builder_meta": null, "nsites": null, "elements": null, "nelements": null, "composition": null, "composition_reduced": null, "formula_pretty": "Rh3Br", "formula_anonymous": "AB3", "chemsys": null, "volume": 61.64939261780039, "density": 10.467573076223598, "density_atomic": 15.412348154450097, "symmetry": null, "property_name": null, "material_id": "mp-974371", "deprecated": null, "deprecation_reasons": null, "last_updated": null, "origins": null, "warnings": null, "structure": {"@module": "pymatgen.core.structure", "@class": "Structure", "charge": 0.0, "lattice": {"matrix": [[-2.08930194, 2.08930194, 3.53074535], [2.08930194, -2.08930194, 3.53074535], [2.08930194, 2.08930194, -3.53074535]], "pbc": [true, true, true], "a": 4.603968714003403, "b": 4.603968714003403, "c": 4.603968714003403, "alpha": 126.0239138524359, "beta": 126.0239138524359, "gamma": 79.84883996413869, "volume": 61.64939261780039}, "properties": {}, "sites": [{"species": [{"element": "Rh", "occu": 1}], "abc": [0.75, 0.25, 0.5], "properties": {"magmom": 0.677}, "label": "Rh", "xyz": [2.220446049250313e-16, 2.0893019399999995, 1.765372675]}, {"species": [{"element": "Rh", "occu": 1}], "abc": [0.25, 0.75, 0.5], "properties": {"magmom": 0.677}, "label": "Rh", "xyz": [2.0893019399999995, 2.220446049250313e-16, 1.765372675]}, {"species": [{"element": "Rh", "occu": 1}], "abc": [0.5, 0.5, -0.0], "properties": {"magmom": 0.659}, "label": "Rh", "xyz": [0.0, 0.0, 3.53074535]}, {"species": [{"element": "Br", "occu": 1}], "abc": [-0.0, -0.0, -0.0], "properties": {"magmom": 0.043000000000000003}, "label": "Br", "xyz": [0.0, 0.0, 0.0]}]}, "task_ids": null, "uncorrected_energy_per_atom": null, "energy_per_atom": -5.3805676775, "formation_energy_per_atom": 0.551899858749999, "energy_above_hull": 0.833832049583334, "is_stable": false, "equilibrium_reaction_energy_per_atom": null, "decomposes_to": null, "xas": null, "grain_boundaries": null, "band_gap": 0.0, "cbm": null, "vbm": null, "efermi": 6.79528611, "is_gap_direct": null, "is_metal": null, "es_source_calc_id": null, "bandstructure": null, "dos": null, "dos_energy_up": null, "dos_energy_down": null, "is_magnetic": null, "ordering": null, "total_magnetization": 2.0212086, "total_magnetization_normalized_vol": null, "total_magnetization_normalized_formula_units": null, "num_magnetic_sites": null, "num_unique_magnetic_sites": null, "types_of_magnetic_species": null, "bulk_modulus": null, "shear_modulus": null, "universal_anisotropy": null, "homogeneous_poisson": null, "e_total": null, "e_ionic": null, "e_electronic": null, "n": null, "e_ij_max": null, "weighted_surface_energy_EV_PER_ANG2": null, "weighted_surface_energy": null, "weighted_work_function": null, "surface_anisotropy": null, "shape_factor": null, "has_reconstructed": null, "possible_species": null, "has_props": null, "theoretical": null, "database_IDs": null, "fields_not_requested": ["builder_meta", "nsites", "elements", "nelements", "composition", "composition_reduced", "chemsys", "symmetry", "property_name", "deprecated", "deprecation_reasons", "last_updated", "origins", "warnings", "task_ids", "uncorrected_energy_per_atom", "equilibrium_reaction_energy_per_atom", "decomposes_to", "xas", "grain_boundaries", "cbm", "vbm", "is_gap_direct", "is_metal", "es_source_calc_id", "bandstructure", "dos", "dos_energy_up", "dos_energy_down", "is_magnetic", "ordering", "total_magnetization_normalized_vol", "total_magnetization_normalized_formula_units", "num_magnetic_sites", "num_unique_magnetic_sites", "types_of_magnetic_species", "bulk_modulus", "shear_modulus", "universal_anisotropy", "homogeneous_poisson", "e_total", "e_ionic", "e_electronic", "n", "e_ij_max", "weighted_surface_energy_EV_PER_ANG2", "weighted_surface_energy", "weighted_work_function", "surface_anisotropy", "shape_factor", "has_reconstructed", "possible_species", "has_props", "theoretical", "database_IDs"]}