{
  "builder_meta": null,
  "nsites": null,
  "elements": null,
  "nelements": null,
  "composition": null,
  "composition_reduced": null,
  "formula_pretty": "Rh3S4",
  "formula_anonymous": "A3B4",
  "chemsys": null,
  "volume": 335.6147118811866,
  "density": 6.486156807926365,
  "density_atomic": 15.981652946723173,
  "symmetry": null,
  "property_name": null,
  "material_id": "mp-29841",
  "deprecated": null,
  "deprecation_reasons": null,
  "last_updated": null,
  "origins": null,
  "warnings": null,
  "structure": {
    "@module": "pymatgen.core.structure",
    "@class": "Structure",
    "charge": 0,
    "lattice": {
      "matrix": [
        [6.12226629, -0.01203297, -1.33298428],
        [-1.68548231, 7.30858138, -0.27517401],
        [-0.00579553, -0.00226332, 7.5054576]
      ],
      "pbc": [true, true, true],
      "a": 6.265711165443593,
      "b": 7.505460221810859,
      "c": 7.505460178842012,
      "alpha": 92.10800936752418,
      "beta": 102.32733755787046,
      "gamma": 102.32733910905483,
      "volume": 335.6147118811866
    },
    "properties": {},
    "sites": [
      {
        "species": [{ "element": "Rh", "occu": 1 }],
        "abc": [0.0, 0.16044329000000002, 0.83955671],
        "properties": { "magmom": -0.0 },
        "label": "Rh",
        "xyz": [-0.2752900031527062, 1.170712656347063, 6.257107466213602]
      },
      {
        "species": [{ "element": "Rh", "occu": 1 }],
        "abc": [-0.0, 0.83955671, 0.16044329000000002],
        "properties": { "magmom": -0.0 },
        "label": "Rh",
        "xyz": [-1.4159878368472938, 6.135605403652937, 0.973176123786397]
      },
      {
        "species": [{ "element": "Rh", "occu": 1 }],
        "abc": [0.5, 0.0, -0.0],
        "properties": { "magmom": -0.0 },
        "label": "Rh",
        "xyz": [3.061133145, -0.006016485, -0.66649214]
      },
      {
        "species": [{ "element": "Rh", "occu": 1 }],
        "abc": [0.053189799999999, 0.35010935, 0.35010935],
        "properties": { "magmom": -0.0 },
        "label": "Rh",
        "xyz": [-0.26649006571996814, 2.557370235612155, 2.4604887207542236]
      },
      {
        "species": [{ "element": "Rh", "occu": 1 }],
        "abc": [0.946810199999999, 0.64989065, 0.64989065],
        "properties": { "magmom": -0.0 },
        "label": "Rh",
        "xyz": [4.697478515719956, 4.7369148543878445, 3.4368105892457788]
      },
      {
        "species": [{ "element": "Rh", "occu": 1 }],
        "abc": [0.54942704, 0.78340869, 0.49142699],
        "properties": { "magmom": -0.0 },
        "label": "Rh",
        "xyz": [2.040469077447853, 5.717882669039677, 2.7404331189175455]
      },
      {
        "species": [{ "element": "Rh", "occu": 1 }],
        "abc": [0.45057296, 0.50857301, 0.21659131],
        "properties": { "magmom": -0.0 },
        "label": "Rh",
        "xyz": [1.9000815710602212, 3.711035284902313, 0.885064146520917]
      },
      {
        "species": [{ "element": "Rh", "occu": 1 }],
        "abc": [0.45057296, 0.21659131, 0.50857301],
        "properties": { "magmom": -0.0 },
        "label": "Rh",
        "xyz": [2.390519372552147, 1.5764024209603236, 3.156866191082454]
      },
      {
        "species": [{ "element": "Rh", "occu": 1 }],
        "abc": [0.54942704, 0.49142699, 0.78340869],
        "properties": { "magmom": -0.0 },
        "label": "Rh",
        "xyz": [2.5309068789397786, 3.583249805097686, 5.012235163479082]
      },
      {
        "species": [{ "element": "S", "occu": 1 }],
        "abc": [0.89954811, 0.85924658, 0.44068955],
        "properties": { "magmom": 0.0 },
        "label": "S",
        "xyz": [4.056474130060501, 6.268051898523187, 1.8720509155569829]
      },
      {
        "species": [{ "element": "S", "occu": 1 }],
        "abc": [0.10045189, 0.55931045, 0.14075342],
        "properties": { "magmom": 0.0 },
        "label": "S",
        "xyz": [-0.32853039002756407, 4.086238635900053, 0.768610336237298]
      },
      {
        "species": [{ "element": "S", "occu": 1 }],
        "abc": [0.10045189, 0.14075342, 0.55931045],
        "properties": { "magmom": 0.0 },
        "label": "S",
        "xyz": [0.3745143199394994, 1.0262331914768121, 4.025248394443016]
      },
      {
        "species": [{ "element": "S", "occu": 1 }],
        "abc": [0.89954811, 0.44068955, 0.85924658],
        "properties": { "magmom": 0.0 },
        "label": "S",
        "xyz": [4.759518840027565, 3.2080464540999465, 5.128688973762701]
      },
      {
        "species": [{ "element": "S", "occu": 1 }],
        "abc": [0.88875813, 0.11795488, 0.11795488],
        "properties": { "magmom": -0.0 },
        "label": "S",
        "xyz": [5.241719464598579, 0.8511214700935866, -0.33185338278777743]
      },
      {
        "species": [{ "element": "S", "occu": 1 }],
        "abc": [0.11124187, 0.88204512, 0.88204512],
        "properties": { "magmom": -0.0 },
        "label": "S",
        "xyz": [-0.8107310145985787, 6.4431636199064135, 6.229152692787777]
      },
      {
        "species": [{ "element": "S", "occu": 1 }],
        "abc": [0.61406609, 0.03248306, 0.71579577],
        "properties": { "magmom": 0.0 },
        "label": "S",
        "xyz": [3.7005780837755293, 0.2283959737602791, 4.544895863266016]
      },
      {
        "species": [{ "element": "S", "occu": 1 }],
        "abc": [0.38593391, 0.28420423, 0.96751694],
        "properties": { "magmom": 0.0 },
        "label": "S",
        "xyz": [1.8781616918174444, 2.0702960118935834, 6.6690079176747465]
      },
      {
        "species": [{ "element": "S", "occu": 1 }],
        "abc": [0.38593391, 0.96751694, 0.28420423],
        "properties": { "magmom": 0.0 },
        "label": "S",
        "xyz": [0.7304103662244708, 7.06588911623972, 1.3524034467339838]
      },
      {
        "species": [{ "element": "S", "occu": 1 }],
        "abc": [0.27294592, 0.5844092200000001, 0.5844092200000001],
        "properties": { "magmom": -0.0 },
        "label": "S",
        "xyz": [0.6826492417313519, 4.2665952884495315, 3.8616117725605625]
      },
      {
        "species": [{ "element": "S", "occu": 1 }],
        "abc": [0.72705408, 0.41559078, 0.41559078],
        "properties": { "magmom": -0.0 },
        "label": "S",
        "xyz": [3.748339208268648, 3.0276898015504687, 2.035687537439437]
      },
      {
        "species": [{ "element": "S", "occu": 1 }],
        "abc": [0.61406609, 0.71579577, 0.03248306],
        "properties": { "magmom": 0.0 },
        "label": "S",
        "xyz": [2.552826758182555, 5.223989078106416, -0.771708607674747]
      }
    ]
  },
  "task_ids": null,
  "uncorrected_energy_per_atom": null,
  "energy_per_atom": -15.541239350952381,
  "formation_energy_per_atom": -0.60571331970238,
  "energy_above_hull": 0.0,
  "is_stable": true,
  "equilibrium_reaction_energy_per_atom": null,
  "decomposes_to": null,
  "xas": null,
  "grain_boundaries": null,
  "band_gap": 0.0,
  "cbm": null,
  "vbm": null,
  "efermi": 6.33499873,
  "is_gap_direct": null,
  "is_metal": null,
  "es_source_calc_id": null,
  "bandstructure": null,
  "dos": null,
  "dos_energy_up": null,
  "dos_energy_down": null,
  "is_magnetic": null,
  "ordering": null,
  "total_magnetization": 3e-7,
  "total_magnetization_normalized_vol": null,
  "total_magnetization_normalized_formula_units": null,
  "num_magnetic_sites": null,
  "num_unique_magnetic_sites": null,
  "types_of_magnetic_species": null,
  "bulk_modulus": null,
  "shear_modulus": null,
  "universal_anisotropy": null,
  "homogeneous_poisson": null,
  "e_total": null,
  "e_ionic": null,
  "e_electronic": null,
  "n": null,
  "e_ij_max": null,
  "weighted_surface_energy_EV_PER_ANG2": null,
  "weighted_surface_energy": null,
  "weighted_work_function": null,
  "surface_anisotropy": null,
  "shape_factor": null,
  "has_reconstructed": null,
  "possible_species": null,
  "has_props": null,
  "theoretical": null,
  "database_IDs": null,
  "fields_not_requested": [
    "builder_meta",
    "nsites",
    "elements",
    "nelements",
    "composition",
    "composition_reduced",
    "chemsys",
    "symmetry",
    "property_name",
    "deprecated",
    "deprecation_reasons",
    "last_updated",
    "origins",
    "warnings",
    "task_ids",
    "uncorrected_energy_per_atom",
    "equilibrium_reaction_energy_per_atom",
    "decomposes_to",
    "xas",
    "grain_boundaries",
    "cbm",
    "vbm",
    "is_gap_direct",
    "is_metal",
    "es_source_calc_id",
    "bandstructure",
    "dos",
    "dos_energy_up",
    "dos_energy_down",
    "is_magnetic",
    "ordering",
    "total_magnetization_normalized_vol",
    "total_magnetization_normalized_formula_units",
    "num_magnetic_sites",
    "num_unique_magnetic_sites",
    "types_of_magnetic_species",
    "bulk_modulus",
    "shear_modulus",
    "universal_anisotropy",
    "homogeneous_poisson",
    "e_total",
    "e_ionic",
    "e_electronic",
    "n",
    "e_ij_max",
    "weighted_surface_energy_EV_PER_ANG2",
    "weighted_surface_energy",
    "weighted_work_function",
    "surface_anisotropy",
    "shape_factor",
    "has_reconstructed",
    "possible_species",
    "has_props",
    "theoretical",
    "database_IDs"
  ]
}
