{"builder_meta": null, "nsites": null, "elements": null, "nelements": null, "composition": null, "composition_reduced": null, "formula_pretty": "Rh3Se", "formula_anonymous": "AB3", "chemsys": null, "volume": 120.83558765293152, "density": 10.655006293373823, "density_atomic": 15.10444845661644, "symmetry": null, "property_name": null, "material_id": "mp-974372", "deprecated": null, "deprecation_reasons": null, "last_updated": null, "origins": null, "warnings": null, "structure": {"@module": "pymatgen.core.structure", "@class": "Structure", "charge": 0, "lattice": {"matrix": [[2.800142, -4.849989, 0.0], [2.800142, 4.849989, 0.0], [0.0, 0.0, 4.448812]], "pbc": [true, true, true], "a": 5.6002846820751, "b": 5.6002846820751, "c": 4.448812, "alpha": 90.0, "beta": 90.0, "gamma": 120.00000805775547, "volume": 120.83558765293152}, "properties": {}, "sites": [{"species": [{"element": "Rh", "occu": 1}], "abc": [0.164643999999999, 0.329287999999999, 0.25], "properties": {"magmom": -0.0}, "label": "Rh", "xyz": [1.3830797383439946, 0.7985215889160001, 1.112203]}, {"species": [{"element": "Rh", "occu": 1}], "abc": [0.670712, 0.835356, 0.25], "properties": {"magmom": -0.0}, "label": "Rh", "xyz": [4.217204261656, 0.7985215889159996, 1.112203]}, {"species": [{"element": "Rh", "occu": 1}], "abc": [0.164643999999999, 0.835356, 0.25], "properties": {"magmom": -0.0}, "label": "Rh", "xyz": [2.800141999999997, 3.2529458221680043, 1.112203]}, {"species": [{"element": "Rh", "occu": 1}], "abc": [0.835356, 0.670712, 0.75], "properties": {"magmom": -0.0}, "label": "Rh", "xyz": [4.217204261656, -0.7985215889159996, 3.336609]}, {"species": [{"element": "Rh", "occu": 1}], "abc": [0.329287999999999, 0.164643999999999, 0.75], "properties": {"magmom": -0.0}, "label": "Rh", "xyz": [1.3830797383439946, -0.7985215889160001, 3.336609]}, {"species": [{"element": "Rh", "occu": 1}], "abc": [0.835356, 0.164643999999999, 0.75], "properties": {"magmom": -0.0}, "label": "Rh", "xyz": [2.800141999999997, -3.2529458221680043, 3.336609]}, {"species": [{"element": "Se", "occu": 1}], "abc": [0.333333, 0.666667, 0.75], "properties": {"magmom": 0.0}, "label": "Se", "xyz": [2.800142, 1.616666233326, 3.336609]}, {"species": [{"element": "Se", "occu": 1}], "abc": [0.666667, 0.333333, 0.25], "properties": {"magmom": 0.0}, "label": "Se", "xyz": [2.800142, -1.616666233326, 1.112203]}]}, "task_ids": null, "uncorrected_energy_per_atom": null, "energy_per_atom": -21.547617961875, "formation_energy_per_atom": 0.13244356835937401, "energy_above_hull": 0.34583955458333104, "is_stable": false, "equilibrium_reaction_energy_per_atom": null, "decomposes_to": null, "xas": null, "grain_boundaries": null, "band_gap": 0.0, "cbm": null, "vbm": null, "efermi": 7.2241244, "is_gap_direct": null, "is_metal": null, "es_source_calc_id": null, "bandstructure": null, "dos": null, "dos_energy_up": null, "dos_energy_down": null, "is_magnetic": null, "ordering": null, "total_magnetization": 0.003456899999999, "total_magnetization_normalized_vol": null, "total_magnetization_normalized_formula_units": null, "num_magnetic_sites": null, "num_unique_magnetic_sites": null, "types_of_magnetic_species": null, "bulk_modulus": null, "shear_modulus": null, "universal_anisotropy": null, "homogeneous_poisson": null, "e_total": null, "e_ionic": null, "e_electronic": null, "n": null, "e_ij_max": null, "weighted_surface_energy_EV_PER_ANG2": null, "weighted_surface_energy": null, "weighted_work_function": null, "surface_anisotropy": null, "shape_factor": null, "has_reconstructed": null, "possible_species": null, "has_props": null, "theoretical": null, "database_IDs": null, "fields_not_requested": ["builder_meta", "nsites", "elements", "nelements", "composition", "composition_reduced", "chemsys", "symmetry", "property_name", "deprecated", "deprecation_reasons", "last_updated", "origins", "warnings", "task_ids", "uncorrected_energy_per_atom", "equilibrium_reaction_energy_per_atom", "decomposes_to", "xas", "grain_boundaries", "cbm", "vbm", "is_gap_direct", "is_metal", "es_source_calc_id", "bandstructure", "dos", "dos_energy_up", "dos_energy_down", "is_magnetic", "ordering", "total_magnetization_normalized_vol", "total_magnetization_normalized_formula_units", "num_magnetic_sites", "num_unique_magnetic_sites", "types_of_magnetic_species", "bulk_modulus", "shear_modulus", "universal_anisotropy", "homogeneous_poisson", "e_total", "e_ionic", "e_electronic", "n", "e_ij_max", "weighted_surface_energy_EV_PER_ANG2", "weighted_surface_energy", "weighted_work_function", "surface_anisotropy", "shape_factor", "has_reconstructed", "possible_species", "has_props", "theoretical", "database_IDs"]}