{
  "builder_meta": null,
  "nsites": null,
  "elements": null,
  "nelements": null,
  "composition": null,
  "composition_reduced": null,
  "formula_pretty": "Rh3Se8",
  "formula_anonymous": "A3B8",
  "chemsys": null,
  "volume": 218.4025682484411,
  "density": 7.149939393421271,
  "density_atomic": 19.854778931676464,
  "symmetry": null,
  "property_name": null,
  "material_id": "mp-1407",
  "deprecated": null,
  "deprecation_reasons": null,
  "last_updated": null,
  "origins": null,
  "warnings": null,
  "structure": {
    "@module": "pymatgen.core.structure",
    "@class": "Structure",
    "charge": 0,
    "lattice": {
      "matrix": [
        [6.02198334, 0.01243144, -0.09072528],
        [-0.092295099999999, 6.02128713, -0.09088807],
        [0.01221289, 0.01259119, 6.02265462]
      ],
      "pbc": [true, true, true],
      "a": 6.022679550197662,
      "b": 6.0226802778045565,
      "c": 6.0226801645575625,
      "alpha": 90.74669017333896,
      "beta": 90.74669848711801,
      "gamma": 90.74669177392647,
      "volume": 218.40256824844104
    },
    "properties": {},
    "sites": [
      {
        "species": [{ "element": "Rh", "occu": 1 }],
        "abc": [0.5, 0.0, 0.5],
        "properties": { "magmom": 0.0 },
        "label": "Rh",
        "xyz": [3.017098115, 0.012511315, 2.96596467]
      },
      {
        "species": [{ "element": "Rh", "occu": 1 }],
        "abc": [0.0, 0.5, 0.5],
        "properties": { "magmom": 0.0 },
        "label": "Rh",
        "xyz": [-0.0400411049999995, 3.01693916, 2.965883275]
      },
      {
        "species": [{ "element": "Rh", "occu": 1 }],
        "abc": [0.5, 0.5, -0.0],
        "properties": { "magmom": 0.0 },
        "label": "Rh",
        "xyz": [2.9648441200000004, 3.0168592850000002, -0.090806675]
      },
      {
        "species": [{ "element": "Se", "occu": 1 }],
        "abc": [0.88223904, 0.38627267, 0.11297106],
        "properties": { "magmom": 0.0 },
        "label": "Se",
        "xyz": [5.27855742920164, 2.338248598314116, 0.5652367150343192]
      },
      {
        "species": [{ "element": "Se", "occu": 1 }],
        "abc": [0.38627267, 0.11297106, 0.88223904],
        "properties": { "magmom": 0.0 },
        "label": "Se",
        "xyz": [2.3264755965067376, 0.6961415545392602, 5.268108612449013]
      },
      {
        "species": [{ "element": "Se", "occu": 1 }],
        "abc": [0.11297106, 0.88223904, 0.38627267],
        "properties": { "magmom": 0.0 },
        "label": "Se",
        "xyz": [0.6036010064301536, 5.318482602669459, 2.235952545880586]
      },
      {
        "species": [{ "element": "Se", "occu": 1 }],
        "abc": [0.37955474, 0.37955474, 0.37955474],
        "properties": { "magmom": 0.0 },
        "label": "Se",
        "xyz": [2.255276738502857, 2.2949055289162623, 2.21699490056412]
      },
      {
        "species": [{ "element": "Se", "occu": 1 }],
        "abc": [0.62044526, 0.62044526, 0.62044526],
        "properties": { "magmom": 0.0 },
        "label": "Se",
        "xyz": [3.6866243914971446, 3.751404231083738, 3.62404636943588]
      },
      {
        "species": [{ "element": "Se", "occu": 1 }],
        "abc": [0.88702894, 0.11776096, 0.61372733],
        "properties": { "magmom": 0.0 },
        "label": "Se",
        "xyz": [5.338300123569848, 0.7278271573305412, 3.6050887241194145]
      },
      {
        "species": [{ "element": "Se", "occu": 1 }],
        "abc": [0.61372733, 0.88702894, 0.11776096],
        "properties": { "magmom": 0.0 },
        "label": "Se",
        "xyz": [3.615425533493264, 5.35016820546074, 0.572932657550987]
      },
      {
        "species": [{ "element": "Se", "occu": 1 }],
        "abc": [0.11776096, 0.61372733, 0.88702894],
        "properties": { "magmom": 0.0 },
        "label": "Se",
        "xyz": [0.6633437007983607, 3.708061161685884, 5.2758045549656805]
      }
    ]
  },
  "task_ids": null,
  "uncorrected_energy_per_atom": null,
  "energy_per_atom": -17.446014766363636,
  "formation_energy_per_atom": -0.45499951749999906,
  "energy_above_hull": 0.0,
  "is_stable": true,
  "equilibrium_reaction_energy_per_atom": null,
  "decomposes_to": null,
  "xas": null,
  "grain_boundaries": null,
  "band_gap": 0.0,
  "cbm": null,
  "vbm": null,
  "efermi": 5.13895075,
  "is_gap_direct": null,
  "is_metal": null,
  "es_source_calc_id": null,
  "bandstructure": null,
  "dos": null,
  "dos_energy_up": null,
  "dos_energy_down": null,
  "is_magnetic": null,
  "ordering": null,
  "total_magnetization": 0.0,
  "total_magnetization_normalized_vol": null,
  "total_magnetization_normalized_formula_units": null,
  "num_magnetic_sites": null,
  "num_unique_magnetic_sites": null,
  "types_of_magnetic_species": null,
  "bulk_modulus": null,
  "shear_modulus": null,
  "universal_anisotropy": null,
  "homogeneous_poisson": null,
  "e_total": null,
  "e_ionic": null,
  "e_electronic": null,
  "n": null,
  "e_ij_max": null,
  "weighted_surface_energy_EV_PER_ANG2": null,
  "weighted_surface_energy": null,
  "weighted_work_function": null,
  "surface_anisotropy": null,
  "shape_factor": null,
  "has_reconstructed": null,
  "possible_species": null,
  "has_props": null,
  "theoretical": null,
  "database_IDs": null,
  "fields_not_requested": [
    "builder_meta",
    "nsites",
    "elements",
    "nelements",
    "composition",
    "composition_reduced",
    "chemsys",
    "symmetry",
    "property_name",
    "deprecated",
    "deprecation_reasons",
    "last_updated",
    "origins",
    "warnings",
    "task_ids",
    "uncorrected_energy_per_atom",
    "equilibrium_reaction_energy_per_atom",
    "decomposes_to",
    "xas",
    "grain_boundaries",
    "cbm",
    "vbm",
    "is_gap_direct",
    "is_metal",
    "es_source_calc_id",
    "bandstructure",
    "dos",
    "dos_energy_up",
    "dos_energy_down",
    "is_magnetic",
    "ordering",
    "total_magnetization_normalized_vol",
    "total_magnetization_normalized_formula_units",
    "num_magnetic_sites",
    "num_unique_magnetic_sites",
    "types_of_magnetic_species",
    "bulk_modulus",
    "shear_modulus",
    "universal_anisotropy",
    "homogeneous_poisson",
    "e_total",
    "e_ionic",
    "e_electronic",
    "n",
    "e_ij_max",
    "weighted_surface_energy_EV_PER_ANG2",
    "weighted_surface_energy",
    "weighted_work_function",
    "surface_anisotropy",
    "shape_factor",
    "has_reconstructed",
    "possible_species",
    "has_props",
    "theoretical",
    "database_IDs"
  ]
}
