{"builder_meta": null, "nsites": null, "elements": null, "nelements": null, "composition": null, "composition_reduced": null, "formula_pretty": "Rh3W", "formula_anonymous": "AB3", "chemsys": null, "volume": 112.84006632550741, "density": 14.496788904720361, "density_atomic": 14.105008290688426, "symmetry": null, "property_name": null, "material_id": "mp-30866", "deprecated": null, "deprecation_reasons": null, "last_updated": null, "origins": null, "warnings": null, "structure": {"@module": "pymatgen.core.structure", "@class": "Structure", "charge": 0, "lattice": {"matrix": [[5.47692595, -1e-08, -0.0], [-2.73846399, 4.74315713, 0.0], [0.0, 0.0, 4.34369129]], "pbc": [true, true, true], "a": 5.47692595, "b": 5.47692656372135, "c": 4.34369129, "alpha": 90.0, "beta": 90.0, "gamma": 120.00000865870302, "volume": 112.84006632550741}, "properties": {}, "sites": [{"species": [{"element": "Rh", "occu": 1}], "abc": [0.8332961, 0.66659221, 0.25], "properties": {"magmom": -0.0}, "label": "Rh", "xyz": [2.738462271024277, 3.1617515853309963, 1.0859228225]}, {"species": [{"element": "Rh", "occu": 1}], "abc": [0.1667039, 0.8332961, 0.75], "properties": {"magmom": -0.0}, "label": "Rh", "xyz": [-1.3689264469812341, 3.9524543364491542, 3.2577684675]}, {"species": [{"element": "Rh", "occu": 1}], "abc": [0.66659221, 0.8332961, 0.75], "properties": {"magmom": -0.0}, "label": "Rh", "xyz": [1.3689248101594105, 3.952454331450271, 3.2577684675]}, {"species": [{"element": "Rh", "occu": 1}], "abc": [0.33340779, 0.1667039, 0.25], "properties": {"magmom": -0.0}, "label": "Rh", "xyz": [1.3695371498405895, 0.7907027885497291, 1.0859228225]}, {"species": [{"element": "Rh", "occu": 1}], "abc": [0.8332961, 0.1667039, 0.25], "properties": {"magmom": -0.0}, "label": "Rh", "xyz": [4.107388406981234, 0.790702783550846, 1.0859228225]}, {"species": [{"element": "Rh", "occu": 1}], "abc": [0.1667039, 0.33340779, 0.75], "properties": {"magmom": -0.0}, "label": "Rh", "xyz": [-3.110242771109384e-07, 1.5814055346690037, 3.2577684675]}, {"species": [{"element": "W", "occu": 1}], "abc": [0.333333, 0.666667, 0.25], "properties": {"magmom": 0.0}, "label": "W", "xyz": [-3.4151299801443713e-06, 3.1621063310523803, 1.0859228225]}, {"species": [{"element": "W", "occu": 1}], "abc": [0.666667, 0.333333, 0.75], "properties": {"magmom": 0.0}, "label": "W", "xyz": [2.73846537512998, 1.58105078894762, 3.2577684675]}]}, "task_ids": null, "uncorrected_energy_per_atom": null, "energy_per_atom": -31.213149975, "formation_energy_per_atom": -0.269029907499998, "energy_above_hull": 0.0, "is_stable": true, "equilibrium_reaction_energy_per_atom": null, "decomposes_to": null, "xas": null, "grain_boundaries": null, "band_gap": 0.0, "cbm": null, "vbm": null, "efermi": 7.47655925, "is_gap_direct": null, "is_metal": null, "es_source_calc_id": null, "bandstructure": null, "dos": null, "dos_energy_up": null, "dos_energy_down": null, "is_magnetic": null, "ordering": null, "total_magnetization": 2.8e-06, "total_magnetization_normalized_vol": null, "total_magnetization_normalized_formula_units": null, "num_magnetic_sites": null, "num_unique_magnetic_sites": null, "types_of_magnetic_species": null, "bulk_modulus": null, "shear_modulus": null, "universal_anisotropy": null, "homogeneous_poisson": null, "e_total": null, "e_ionic": null, "e_electronic": null, "n": null, "e_ij_max": null, "weighted_surface_energy_EV_PER_ANG2": null, "weighted_surface_energy": null, "weighted_work_function": null, "surface_anisotropy": null, "shape_factor": null, "has_reconstructed": null, "possible_species": null, "has_props": null, "theoretical": null, "database_IDs": null, "fields_not_requested": ["builder_meta", "nsites", "elements", "nelements", "composition", "composition_reduced", "chemsys", "symmetry", "property_name", "deprecated", "deprecation_reasons", "last_updated", "origins", "warnings", "task_ids", "uncorrected_energy_per_atom", "equilibrium_reaction_energy_per_atom", "decomposes_to", "xas", "grain_boundaries", "cbm", "vbm", "is_gap_direct", "is_metal", "es_source_calc_id", "bandstructure", "dos", "dos_energy_up", "dos_energy_down", "is_magnetic", "ordering", "total_magnetization_normalized_vol", "total_magnetization_normalized_formula_units", "num_magnetic_sites", "num_unique_magnetic_sites", "types_of_magnetic_species", "bulk_modulus", "shear_modulus", "universal_anisotropy", "homogeneous_poisson", "e_total", "e_ionic", "e_electronic", "n", "e_ij_max", "weighted_surface_energy_EV_PER_ANG2", "weighted_surface_energy", "weighted_work_function", "surface_anisotropy", "shape_factor", "has_reconstructed", "possible_species", "has_props", "theoretical", "database_IDs"]}