{"builder_meta": null, "nsites": null, "elements": null, "nelements": null, "composition": null, "composition_reduced": null, "formula_pretty": "Rh4Pb5", "formula_anonymous": "A4B5", "chemsys": null, "volume": 382.94250881265685, "density": 12.554536669866694, "density_atomic": 21.27458382292538, "symmetry": null, "property_name": null, "material_id": "mp-569678", "deprecated": null, "deprecation_reasons": null, "last_updated": null, "origins": null, "warnings": null, "structure": {"@module": "pymatgen.core.structure", "@class": "Structure", "charge": 0, "lattice": {"matrix": [[5.69941376, 0.01587312, -0.6097195], [-2.9099647600000003, 4.90057944, -0.6097215], [-0.00600437, -0.01058459, 13.69057277]], "pbc": [true, true, true], "a": 5.731956649547876, "b": 5.7319572625548085, "c": 13.690578178319205, "alpha": 96.13149306551219, "beta": 96.13146721403689, "gamma": 119.4134951989433, "volume": 382.94250881265685}, "properties": {}, "sites": [{"species": [{"element": "Rh", "occu": 1}], "abc": [0.91578686, 0.915786299999999, 0.83127436], "properties": {"magmom": -0.0}, "label": "Rh", "xyz": [2.5495510915914545, 4.493621209658758, 10.263874414513957]}, {"species": [{"element": "Rh", "occu": 1}], "abc": [0.08421352, 0.08421386, 0.16872573], "properties": {"magmom": -0.0}, "label": "Rh", "xyz": [0.23389523805102144, 0.4122475495131201, 2.207258258388742]}, {"species": [{"element": "Rh", "occu": 1}], "abc": [0.75005553, 0.24994427, 0.49999993000000004], "properties": {"magmom": -0.0}, "label": "Rh", "xyz": [3.544545606202474, 1.2314851778830835, 6.235565548715266]}, {"species": [{"element": "Rh", "occu": 1}], "abc": [0.91863154, 0.41840528, 0.83691881], "properties": {"magmom": 0.0}, "label": "Rh", "xyz": [4.013091449052857, 2.05615141895851, 10.642679612704253]}, {"species": [{"element": "Rh", "occu": 1}], "abc": [0.08136836, 0.58159457, 0.16308069], "properties": {"magmom": -0.0}, "label": "Rh", "xyz": [-1.2296469494973352, 2.849715819659557, 1.8284454644395363]}, {"species": [{"element": "Rh", "occu": 1}], "abc": [0.41840584000000003, 0.91863112, 0.83691879], "properties": {"magmom": 0.0}, "label": "Rh", "xyz": [-0.2935413549540853, 4.499607743467747, 10.642678253080389]}, {"species": [{"element": "Rh", "occu": 1}], "abc": [0.58159414, 0.08136835, 0.16308072], "properties": {"magmom": 0.0}, "label": "Rh", "xyz": [3.0769874161892736, 0.40625763409413596, 1.8284471438857393]}, {"species": [{"element": "Rh", "occu": 1}], "abc": [0.24994437, 0.75005565, 0.4999999], "properties": {"magmom": -0.0}, "label": "Rh", "xyz": [-0.7611013123259259, 3.674382400282629, 6.235564003637032]}, {"species": [{"element": "Pb", "occu": 1}], "abc": [0.83609846, 0.16390163, -9e-08], "properties": {"magmom": 0.0}, "label": "Pb", "xyz": [4.288323100772645, 0.8164844503004954, -0.6097211148295644]}, {"species": [{"element": "Pb", "occu": 1}], "abc": [0.9983037300000001, 0.33446915, 0.33192125], "properties": {"magmom": 0.0}, "label": "Pb", "xyz": [4.714459597618308, 1.6514255843634758, 3.731573744088902]}, {"species": [{"element": "Pb", "occu": 1}], "abc": [0.41178753, 0.41178729000000003, 0.8231090600000001], "properties": {"magmom": 0.0}, "label": "Pb", "xyz": [1.14371876081592, 2.0158204079801254, 10.766684032538727]}, {"species": [{"element": "Pb", "occu": 1}], "abc": [0.16390146, 0.83609828, -2.9e-07], "properties": {"magmom": 0.0}, "label": "Pb", "xyz": [-1.4988742925472558, 4.099967671399649, -0.6097249839355933]}, {"species": [{"element": "Pb", "occu": 1}], "abc": [0.58821254, 0.58821258, 0.17689092], "properties": {"magmom": 0.0}, "label": "Pb", "xyz": [1.6397266465585492, 2.890046926267357, 1.7044475002332486]}, {"species": [{"element": "Pb", "occu": 1}], "abc": [0.66553142, 0.0016955100000000001, 0.6680784], "properties": {"magmom": -0.0}, "label": "Pb", "xyz": [3.7841936686075033, 0.011801705587888803, 8.739554677728012]}, {"species": [{"element": "Pb", "occu": 1}], "abc": [0.33446864, 0.99830437, 0.3319214], "properties": {"magmom": 0.0}, "label": "Pb", "xyz": [-1.0007483462460336, 4.8940656794118835, 3.7315743907408425]}, {"species": [{"element": "Pb", "occu": 1}], "abc": [0.0016960999999990002, 0.66553087, 0.66807855], "properties": {"magmom": 0.0}, "label": "Pb", "xyz": [-1.9310159935170745, 3.2544424830666, 8.73955537925443]}, {"species": [{"element": "Pb", "occu": 1}], "abc": [0.28591015000000003, 0.28590999, 0.57158843], "properties": {"magmom": 0.0}, "label": "Pb", "xyz": [0.7941002191802726, 1.39961287562448, 7.476722533734342]}, {"species": [{"element": "Pb", "occu": 1}], "abc": [0.71408981, 0.71408993, 0.42841145], "properties": {"magmom": -0.0}, "label": "Pb", "xyz": [1.989344416360882, 3.50625470296439, 4.994407666563427]}]}, "task_ids": null, "uncorrected_energy_per_atom": null, "energy_per_atom": -42.11952538277777, "formation_energy_per_atom": -0.122793708333328, "energy_above_hull": 0.002735981111115, "is_stable": false, "equilibrium_reaction_energy_per_atom": null, "decomposes_to": null, "xas": null, "grain_boundaries": null, "band_gap": 0.0, "cbm": null, "vbm": null, "efermi": 7.52315395, "is_gap_direct": null, "is_metal": null, "es_source_calc_id": null, "bandstructure": null, "dos": null, "dos_energy_up": null, "dos_energy_down": null, "is_magnetic": null, "ordering": null, "total_magnetization": 0.0, "total_magnetization_normalized_vol": null, "total_magnetization_normalized_formula_units": null, "num_magnetic_sites": null, "num_unique_magnetic_sites": null, "types_of_magnetic_species": null, "bulk_modulus": null, "shear_modulus": null, "universal_anisotropy": null, "homogeneous_poisson": null, "e_total": null, "e_ionic": null, "e_electronic": null, "n": null, "e_ij_max": null, "weighted_surface_energy_EV_PER_ANG2": null, "weighted_surface_energy": null, "weighted_work_function": null, "surface_anisotropy": null, "shape_factor": null, "has_reconstructed": null, "possible_species": null, "has_props": null, "theoretical": null, "database_IDs": null, "fields_not_requested": ["builder_meta", "nsites", "elements", "nelements", "composition", "composition_reduced", "chemsys", "symmetry", "property_name", "deprecated", "deprecation_reasons", "last_updated", "origins", "warnings", "task_ids", "uncorrected_energy_per_atom", "equilibrium_reaction_energy_per_atom", "decomposes_to", "xas", "grain_boundaries", "cbm", "vbm", "is_gap_direct", "is_metal", "es_source_calc_id", "bandstructure", "dos", "dos_energy_up", "dos_energy_down", "is_magnetic", "ordering", "total_magnetization_normalized_vol", "total_magnetization_normalized_formula_units", "num_magnetic_sites", "num_unique_magnetic_sites", "types_of_magnetic_species", "bulk_modulus", "shear_modulus", "universal_anisotropy", "homogeneous_poisson", "e_total", "e_ionic", "e_electronic", "n", "e_ij_max", "weighted_surface_energy_EV_PER_ANG2", "weighted_surface_energy", "weighted_work_function", "surface_anisotropy", "shape_factor", "has_reconstructed", "possible_species", "has_props", "theoretical", "database_IDs"]}