{"builder_meta": null, "nsites": null, "elements": null, "nelements": null, "composition": null, "composition_reduced": null, "formula_pretty": "RhBr3", "formula_anonymous": "AB3", "chemsys": null, "volume": 217.16068197962676, "density": 5.239712257895749, "density_atomic": 27.145085247453345, "symmetry": null, "property_name": null, "material_id": "mp-27871", "deprecated": null, "deprecation_reasons": null, "last_updated": null, "origins": null, "warnings": null, "structure": {"@module": "pymatgen.core.structure", "@class": "Structure", "charge": 0, "lattice": {"matrix": [[6.2690076, 0.00170893, -1.0246555], [-3.38495655, 5.27660129, -1.02465549], [0.031907450000000004, 0.05839777, 6.5410794]], "pbc": [true, true, true], "a": 6.352194746934303, "b": 6.352194179352888, "c": 6.541417896909724, "alpha": 99.00278630193392, "beta": 99.00279754990154, "gamma": 119.97736733796808, "volume": 217.16068197962676}, "properties": {}, "sites": [{"species": [{"element": "Rh", "occu": 1}], "abc": [0.83335669, 0.16664331000000002, 1.0], "properties": {"magmom": 0.0}, "label": "Rh", "xyz": [4.692146509422664, 0.9391322227641117, 5.516423901666434]}, {"species": [{"element": "Rh", "occu": 1}], "abc": [0.16664331000000002, 0.83335669, 0.0], "properties": {"magmom": 0.0}, "label": "Rh", "xyz": [-1.7761880094226634, 4.397575767235889, -1.0246554916664332]}, {"species": [{"element": "Br", "occu": 1}], "abc": [0.77878873, 0.77878873, 0.7734563], "properties": {"magmom": 0.0}, "label": "Br", "xyz": [2.270745472704102, 4.155856635892272, 3.463258767453077]}, {"species": [{"element": "Br", "occu": 1}], "abc": [0.22121127000000002, 0.22121127000000002, 0.2265437], "properties": {"magmom": 0.0}, "label": "Br", "xyz": [0.6452130272958986, 1.1808513541077286, 1.0285096425469225]}, {"species": [{"element": "Br", "occu": 1}], "abc": [0.5726388, 0.92483819, 0.22574853], "properties": {"magmom": -0.0}, "label": "Br", "xyz": [0.4665429602577841, 4.894164196752528, -0.057758965515281036]}, {"species": [{"element": "Br", "occu": 1}], "abc": [0.07516181, 0.4273612, 0.77425147], "properties": {"magmom": -0.0}, "label": "Br", "xyz": [-0.9507047449696525, 2.3003576647551336, 4.549527379037276]}, {"species": [{"element": "Br", "occu": 1}], "abc": [0.4273612, 0.07516181, 0.77425147], "properties": {"magmom": -0.0}, "label": "Br", "xyz": [2.449415539742216, 0.4425437932474728, 4.549527375515281]}, {"species": [{"element": "Br", "occu": 1}], "abc": [0.92483819, 0.5726388, 0.22574853], "properties": {"magmom": -0.0}, "label": "Br", "xyz": [3.8666632449696525, 3.036350325244867, -0.05775896903727484]}]}, "task_ids": null, "uncorrected_energy_per_atom": null, "energy_per_atom": -3.91458344125, "formation_energy_per_atom": -0.8457965725000001, "energy_above_hull": 0.0, "is_stable": true, "equilibrium_reaction_energy_per_atom": null, "decomposes_to": null, "xas": null, "grain_boundaries": null, "band_gap": 1.2584, "cbm": null, "vbm": null, "efermi": 0.72983111, "is_gap_direct": null, "is_metal": null, "es_source_calc_id": null, "bandstructure": null, "dos": null, "dos_energy_up": null, "dos_energy_down": null, "is_magnetic": null, "ordering": null, "total_magnetization": 0.0, "total_magnetization_normalized_vol": null, "total_magnetization_normalized_formula_units": null, "num_magnetic_sites": null, "num_unique_magnetic_sites": null, "types_of_magnetic_species": null, "bulk_modulus": null, "shear_modulus": null, "universal_anisotropy": null, "homogeneous_poisson": null, "e_total": null, "e_ionic": null, "e_electronic": null, "n": null, "e_ij_max": null, "weighted_surface_energy_EV_PER_ANG2": null, "weighted_surface_energy": null, "weighted_work_function": null, "surface_anisotropy": null, "shape_factor": null, "has_reconstructed": null, "possible_species": null, "has_props": null, "theoretical": null, "database_IDs": null, "fields_not_requested": ["builder_meta", "nsites", "elements", "nelements", "composition", "composition_reduced", "chemsys", "symmetry", "property_name", "deprecated", "deprecation_reasons", "last_updated", "origins", "warnings", "task_ids", "uncorrected_energy_per_atom", "equilibrium_reaction_energy_per_atom", "decomposes_to", "xas", "grain_boundaries", "cbm", "vbm", "is_gap_direct", "is_metal", "es_source_calc_id", "bandstructure", "dos", "dos_energy_up", "dos_energy_down", "is_magnetic", "ordering", "total_magnetization_normalized_vol", "total_magnetization_normalized_formula_units", "num_magnetic_sites", "num_unique_magnetic_sites", "types_of_magnetic_species", "bulk_modulus", "shear_modulus", "universal_anisotropy", "homogeneous_poisson", "e_total", "e_ionic", "e_electronic", "n", "e_ij_max", "weighted_surface_energy_EV_PER_ANG2", "weighted_surface_energy", "weighted_work_function", "surface_anisotropy", "shape_factor", "has_reconstructed", "possible_species", "has_props", "theoretical", "database_IDs"]}