{"builder_meta": null, "nsites": null, "elements": null, "nelements": null, "composition": null, "composition_reduced": null, "formula_pretty": "RhCl3", "formula_anonymous": "AB3", "chemsys": null, "volume": 183.44843663475277, "density": 3.788441960880535, "density_atomic": 22.931054579344096, "symmetry": null, "property_name": null, "material_id": "mp-27770", "deprecated": null, "deprecation_reasons": null, "last_updated": null, "origins": null, "warnings": null, "structure": {"@module": "pymatgen.core.structure", "@class": "Structure", "charge": 0, "lattice": {"matrix": [[5.92025337, 0.00132265, -0.97794437], [-3.20348126, 4.97866337, -0.97794439], [0.0310235, 0.05686427, 6.20064808]], "pbc": [true, true, true], "a": 6.000481389456523, "b": 6.000479677899377, "c": 6.200986422720385, "alpha": 99.09263555216033, "beta": 99.09260571084958, "gamma": 119.99922306294364, "volume": 183.44843663475277}, "properties": {}, "sites": [{"species": [{"element": "Rh", "occu": 1}], "abc": [0.16664375, 0.83335625, -0.0], "properties": {"magmom": 0.0}, "label": "Rh", "xyz": [-1.6830679072519374, 4.1492206473915, -0.977944386667125]}, {"species": [{"element": "Rh", "occu": 1}], "abc": [0.83335625, 0.16664375, 0.0], "properties": {"magmom": 0.0}, "label": "Rh", "xyz": [4.399840017251938, 0.8307653726084999, -0.977944373332875]}, {"species": [{"element": "Cl", "occu": 1}], "abc": [0.9242223900000001, 0.57279534, 0.22317285], "properties": {"magmom": -0.0}, "label": "Cl", "xyz": [3.6436151844336013, 2.8656681617078985, -0.08018376843895902]}, {"species": [{"element": "Cl", "occu": 1}], "abc": [0.42720466, 0.07577761, 0.77682715], "properties": {"magmom": -0.0}, "label": "Cl", "xyz": [2.3105075715701404, 0.42200996221762516, 4.3249430954675]}, {"species": [{"element": "Cl", "occu": 1}], "abc": [0.77830611, 0.77830611, 0.77618475], "properties": {"magmom": 0.0}, "label": "Cl", "xyz": [2.1385603002822173, 3.9200907262744646, 3.290568307424456]}, {"species": [{"element": "Cl", "occu": 1}], "abc": [0.22169389, 0.22169389, 0.22381525], "properties": {"magmom": 0.0}, "label": "Cl", "xyz": [0.609235309717783, 1.1167595637255352, 0.9541910125755435]}, {"species": [{"element": "Cl", "occu": 1}], "abc": [0.57279534, 0.9242223900000001, 0.22317285], "properties": {"magmom": -0.0}, "label": "Cl", "xyz": [0.43728803842985897, 4.614840327782375, -0.0801837754675001]}, {"species": [{"element": "Cl", "occu": 1}], "abc": [0.07577761, 0.42720466, 0.77682715], "properties": {"magmom": -0.0}, "label": "Cl", "xyz": [-0.8958195744336009, 2.171182128292101, 4.324943088438959]}]}, "task_ids": null, "uncorrected_energy_per_atom": null, "energy_per_atom": -11.43302078625, "formation_energy_per_atom": -0.784634455624997, "energy_above_hull": 0.0, "is_stable": true, "equilibrium_reaction_energy_per_atom": null, "decomposes_to": null, "xas": null, "grain_boundaries": null, "band_gap": 1.521199999999999, "cbm": null, "vbm": null, "efermi": 0.98383133, "is_gap_direct": null, "is_metal": null, "es_source_calc_id": null, "bandstructure": null, "dos": null, "dos_energy_up": null, "dos_energy_down": null, "is_magnetic": null, "ordering": null, "total_magnetization": 0.0, "total_magnetization_normalized_vol": null, "total_magnetization_normalized_formula_units": null, "num_magnetic_sites": null, "num_unique_magnetic_sites": null, "types_of_magnetic_species": null, "bulk_modulus": null, "shear_modulus": null, "universal_anisotropy": null, "homogeneous_poisson": null, "e_total": null, "e_ionic": null, "e_electronic": null, "n": null, "e_ij_max": null, "weighted_surface_energy_EV_PER_ANG2": null, "weighted_surface_energy": null, "weighted_work_function": null, "surface_anisotropy": null, "shape_factor": null, "has_reconstructed": null, "possible_species": null, "has_props": null, "theoretical": null, "database_IDs": null, "fields_not_requested": ["builder_meta", "nsites", "elements", "nelements", "composition", "composition_reduced", "chemsys", "symmetry", "property_name", "deprecated", "deprecation_reasons", "last_updated", "origins", "warnings", "task_ids", "uncorrected_energy_per_atom", "equilibrium_reaction_energy_per_atom", "decomposes_to", "xas", "grain_boundaries", "cbm", "vbm", "is_gap_direct", "is_metal", "es_source_calc_id", "bandstructure", "dos", "dos_energy_up", "dos_energy_down", "is_magnetic", "ordering", "total_magnetization_normalized_vol", "total_magnetization_normalized_formula_units", "num_magnetic_sites", "num_unique_magnetic_sites", "types_of_magnetic_species", "bulk_modulus", "shear_modulus", "universal_anisotropy", "homogeneous_poisson", "e_total", "e_ionic", "e_electronic", "n", "e_ij_max", "weighted_surface_energy_EV_PER_ANG2", "weighted_surface_energy", "weighted_work_function", "surface_anisotropy", "shape_factor", "has_reconstructed", "possible_species", "has_props", "theoretical", "database_IDs"]}