{"builder_meta": null, "nsites": null, "elements": null, "nelements": null, "composition": null, "composition_reduced": null, "formula_pretty": "RhF3", "formula_anonymous": "AB3", "chemsys": null, "volume": 93.24210571822658, "density": 5.695310568602026, "density_atomic": 11.655263214778323, "symmetry": null, "property_name": null, "material_id": "mp-2068", "deprecated": null, "deprecation_reasons": null, "last_updated": null, "origins": null, "warnings": null, "structure": {"@module": "pymatgen.core.structure", "@class": "Structure", "charge": 0, "lattice": {"matrix": [[4.33873063, 0.00255457, 3.09928736], [1.59627119, 4.03441577, 3.09928736], [0.00375507, 0.00255457, 5.33199196]], "pbc": [true, true, true], "a": 5.331995137411872, "b": 5.331995354190068, "c": 5.33199389420911, "alpha": 54.420265764177564, "beta": 54.420267924872874, "gamma": 54.42026677134043, "volume": 93.24210571822658}, "properties": {}, "sites": [{"species": [{"element": "Rh", "occu": 1}], "abc": [0.5, 0.5, 0.5], "properties": {"magmom": -0.0}, "label": "Rh", "xyz": [2.9693784450000003, 2.019762455, 5.76528334]}, {"species": [{"element": "Rh", "occu": 1}], "abc": [0.0, -0.0, 0.0], "properties": {"magmom": -0.0}, "label": "Rh", "xyz": [0.0, 0.0, 0.0]}, {"species": [{"element": "F", "occu": 1}], "abc": [0.41839041, 0.75, 0.08160959], "properties": {"magmom": 0.0}, "label": "F", "xyz": [3.0127931293883794, 3.0270891125, 4.056319306997114]}, {"species": [{"element": "F", "occu": 1}], "abc": [0.75, 0.08160959, 0.41839041], "properties": {"magmom": 0.0}, "label": "F", "xyz": [3.3858900951215904, 0.332231751968908, 4.808251393002886]}, {"species": [{"element": "F", "occu": 1}], "abc": [0.91839041, 0.58160959, 0.25], "properties": {"magmom": 0.0}, "label": "F", "xyz": [4.913994002009971, 2.349439636968908, 5.98192903]}, {"species": [{"element": "F", "occu": 1}], "abc": [0.25, 0.91839041, 0.58160959], "properties": {"magmom": 0.0}, "label": "F", "xyz": [2.552866794878409, 3.7072931580310913, 6.722315286997114]}, {"species": [{"element": "F", "occu": 1}], "abc": [0.58160959, 0.25, 0.91839041], "properties": {"magmom": 0.0}, "label": "F", "xyz": [2.9259637606116202, 1.0124357975, 7.4742473730028856]}, {"species": [{"element": "F", "occu": 1}], "abc": [0.08160959, 0.41839041, 0.75], "properties": {"magmom": 0.0}, "label": "F", "xyz": [1.0247628879900297, 1.690085273031092, 5.54863765]}]}, "task_ids": null, "uncorrected_energy_per_atom": null, "energy_per_atom": -10.15320715875, "formation_energy_per_atom": -1.7746290387499992, "energy_above_hull": 0.0, "is_stable": true, "equilibrium_reaction_energy_per_atom": null, "decomposes_to": null, "xas": null, "grain_boundaries": null, "band_gap": 0.862599999999999, "cbm": null, "vbm": null, "efermi": 0.83282575, "is_gap_direct": null, "is_metal": null, "es_source_calc_id": null, "bandstructure": null, "dos": null, "dos_energy_up": null, "dos_energy_down": null, "is_magnetic": null, "ordering": null, "total_magnetization": 0.0, "total_magnetization_normalized_vol": null, "total_magnetization_normalized_formula_units": null, "num_magnetic_sites": null, "num_unique_magnetic_sites": null, "types_of_magnetic_species": null, "bulk_modulus": null, "shear_modulus": null, "universal_anisotropy": null, "homogeneous_poisson": null, "e_total": null, "e_ionic": null, "e_electronic": null, "n": null, "e_ij_max": null, "weighted_surface_energy_EV_PER_ANG2": null, "weighted_surface_energy": null, "weighted_work_function": null, "surface_anisotropy": null, "shape_factor": null, "has_reconstructed": null, "possible_species": null, "has_props": null, "theoretical": null, "database_IDs": null, "fields_not_requested": ["builder_meta", "nsites", "elements", "nelements", "composition", "composition_reduced", "chemsys", "symmetry", "property_name", "deprecated", "deprecation_reasons", "last_updated", "origins", "warnings", "task_ids", "uncorrected_energy_per_atom", "equilibrium_reaction_energy_per_atom", "decomposes_to", "xas", "grain_boundaries", "cbm", "vbm", "is_gap_direct", "is_metal", "es_source_calc_id", "bandstructure", "dos", "dos_energy_up", "dos_energy_down", "is_magnetic", "ordering", "total_magnetization_normalized_vol", "total_magnetization_normalized_formula_units", "num_magnetic_sites", "num_unique_magnetic_sites", "types_of_magnetic_species", "bulk_modulus", "shear_modulus", "universal_anisotropy", "homogeneous_poisson", "e_total", "e_ionic", "e_electronic", "n", "e_ij_max", "weighted_surface_energy_EV_PER_ANG2", "weighted_surface_energy", "weighted_work_function", "surface_anisotropy", "shape_factor", "has_reconstructed", "possible_species", "has_props", "theoretical", "database_IDs"]}