{
  "builder_meta": null,
  "nsites": null,
  "elements": null,
  "nelements": null,
  "composition": null,
  "composition_reduced": null,
  "formula_pretty": "RhF5",
  "formula_anonymous": "AB5",
  "chemsys": null,
  "volume": 627.0646179735774,
  "density": 4.19244265527921,
  "density_atomic": 13.063846207782861,
  "symmetry": null,
  "property_name": null,
  "material_id": "mp-540622",
  "deprecated": null,
  "deprecation_reasons": null,
  "last_updated": null,
  "origins": null,
  "warnings": null,
  "structure": {
    "@module": "pymatgen.core.structure",
    "@class": "Structure",
    "charge": 0,
    "lattice": {
      "matrix": [
        [9.73379127, 0.0, 0.0],
        [0.0, 5.40883541, -0.05352265],
        [0.0, 2.19687667, 11.88866523]
      ],
      "pbc": [true, true, true],
      "a": 9.73379127,
      "b": 5.409100217830401,
      "c": 12.089939125330668,
      "alpha": 80.09750179496358,
      "beta": 90.0,
      "gamma": 90.0,
      "volume": 627.0646179735775
    },
    "properties": {},
    "sites": [
      {
        "species": [{ "element": "Rh", "occu": 1 }],
        "abc": [0.24478048, 0.9964599, 0.49625071],
        "properties": { "magmom": 1.191 },
        "label": "Rh",
        "xyz": [2.3826420992904094, 6.479889199034995, 5.8464253868730784]
      },
      {
        "species": [{ "element": "Rh", "occu": 1 }],
        "abc": [0.74478048, 0.0035401, 0.00374929],
        "properties": { "magmom": 1.191 },
        "label": "Rh",
        "xyz": [7.249537734290409, 0.0273845459650053, 0.0443845781269217]
      },
      {
        "species": [{ "element": "Rh", "occu": 1 }],
        "abc": [0.75521952, 0.0035401, 0.50374929],
        "properties": { "magmom": 1.191 },
        "label": "Rh",
        "xyz": [7.35114917070959, 1.1258228809650053, 5.988717193126923]
      },
      {
        "species": [{ "element": "Rh", "occu": 1 }],
        "abc": [0.25521952000000003, 0.9964599, 0.99625071],
        "properties": { "magmom": 1.191 },
        "label": "Rh",
        "xyz": [2.4842535357095907, 7.578327534034994, 11.79075800187308]
      },
      {
        "species": [{ "element": "Rh", "occu": 1 }],
        "abc": [0.49784673, 0.69649295, 0.70257039],
        "properties": { "magmom": 1.189 },
        "label": "Rh",
        "xyz": [4.845936154272047, 5.310676229599161, 8.315346018830223]
      },
      {
        "species": [{ "element": "Rh", "occu": 1 }],
        "abc": [0.99784673, 0.30350705, 0.79742961],
        "properties": { "magmom": 1.189 },
        "label": "Rh",
        "xyz": [9.712831789272046, 3.393474185400839, 9.464129176169779]
      },
      {
        "species": [{ "element": "Rh", "occu": 1 }],
        "abc": [0.50215327, 0.30350705, 0.29742961],
        "properties": { "magmom": 1.189 },
        "label": "Rh",
        "xyz": [4.887855115727953, 2.295035850400839, 3.519796561169778]
      },
      {
        "species": [{ "element": "Rh", "occu": 1 }],
        "abc": [0.00215327, 0.69649295, 0.20257039000000002],
        "properties": { "magmom": 1.189 },
        "label": "Rh",
        "xyz": [0.0209594807279529, 4.212237894599161, 2.3710134038302226]
      },
      {
        "species": [{ "element": "F", "occu": 1 }],
        "abc": [0.16804325, 0.09376132, 0.35672115],
        "properties": { "magmom": 0.115 },
        "label": "F",
        "xyz": [1.6356979198324275, 1.2908119198349117, 4.2359199784967165]
      },
      {
        "species": [{ "element": "F", "occu": 1 }],
        "abc": [0.66804325, 0.9062386800000001, 0.14327885],
        "properties": { "magmom": 0.115 },
        "label": "F",
        "xyz": [6.502593554832427, 5.216461825165089, 1.6548899865032838]
      },
      {
        "species": [{ "element": "F", "occu": 1 }],
        "abc": [0.83195675, 0.9062386800000001, 0.6432788500000001],
        "properties": { "magmom": 0.115 },
        "label": "F",
        "xyz": [8.098093350167572, 6.314900160165089, 7.5992226015032855]
      },
      {
        "species": [{ "element": "F", "occu": 1 }],
        "abc": [0.33195675, 0.09376132, 0.85672115],
        "properties": { "magmom": 0.115 },
        "label": "F",
        "xyz": [3.2311977151675726, 2.389250254834912, 10.180252593496716]
      },
      {
        "species": [{ "element": "F", "occu": 1 }],
        "abc": [0.09155937, 0.8115081, 0.54436552],
        "properties": { "magmom": 0.12 },
        "label": "F",
        "xyz": [0.8912197963926999, 5.585217657622239, 6.428345366026406]
      },
      {
        "species": [{ "element": "F", "occu": 1 }],
        "abc": [0.59155937, 0.1884919, 0.9556344800000001],
        "properties": { "magmom": 0.12 },
        "label": "F",
        "xyz": [5.758115431392699, 3.1189327573777605, 11.351129828973596]
      },
      {
        "species": [{ "element": "F", "occu": 1 }],
        "abc": [0.90844063, 0.1884919, 0.45563448],
        "properties": { "magmom": 0.12 },
        "label": "F",
        "xyz": [8.842571473607299, 2.0204944223777606, 5.406797213973596]
      },
      {
        "species": [{ "element": "F", "occu": 1 }],
        "abc": [0.40844063, 0.8115081, 0.04436552],
        "properties": { "magmom": 0.12 },
        "label": "F",
        "xyz": [3.9756758386073, 4.486779322622239, 0.4840127510264047]
      },
      {
        "species": [{ "element": "F", "occu": 1 }],
        "abc": [0.32964504, 0.7264044, 0.4541188],
        "properties": { "magmom": 0.227 },
        "label": "F",
        "xyz": [3.2086960125508006, 4.926644837828199, 5.3599872993896645]
      },
      {
        "species": [{ "element": "F", "occu": 1 }],
        "abc": [0.8296450400000001, 0.2735956, 0.0458812],
        "properties": { "magmom": 0.227 },
        "label": "F",
        "xyz": [8.075591647550802, 1.5806289071718, 0.5308226656103361]
      },
      {
        "species": [{ "element": "F", "occu": 1 }],
        "abc": [0.67035496, 0.2735956, 0.5458812],
        "properties": { "magmom": 0.227 },
        "label": "F",
        "xyz": [6.525095257449199, 2.6790672421718, 6.475155280610336]
      },
      {
        "species": [{ "element": "F", "occu": 1 }],
        "abc": [0.17035496, 0.7264044, 0.954118799999999],
        "properties": { "magmom": 0.227 },
        "label": "F",
        "xyz": [1.658199622449199, 6.0250831728281975, 11.304319914389653]
      },
      {
        "species": [{ "element": "F", "occu": 1 }],
        "abc": [0.17974223, 0.272009599999999, 0.54680705],
        "properties": { "magmom": 0.242 },
        "label": "F",
        "xyz": [1.749573349224332, 2.6725228074764544, 6.486247288236432]
      },
      {
        "species": [{ "element": "F", "occu": 1 }],
        "abc": [0.67974223, 0.727990399999999, 0.95319295],
        "properties": { "magmom": 0.242 },
        "label": "F",
        "xyz": [6.616468984224332, 6.031627607523536, 11.29322790676357]
      },
      {
        "species": [{ "element": "F", "occu": 1 }],
        "abc": [0.82025777, 0.727990399999999, 0.45319295],
        "properties": { "magmom": 0.242 },
        "label": "F",
        "xyz": [7.984217920775667, 4.933189272523535, 5.348895291763569]
      },
      {
        "species": [{ "element": "F", "occu": 1 }],
        "abc": [0.32025777, 0.272009599999999, 0.04680705],
        "properties": { "magmom": 0.242 },
        "label": "F",
        "xyz": [3.1173222857756677, 1.5740844724764542, 0.5419146732364316]
      },
      {
        "species": [{ "element": "F", "occu": 1 }],
        "abc": [0.32714159, 0.88961691, 0.64956552],
        "properties": { "magmom": 0.024 },
        "label": "F",
        "xyz": [3.1843279527959187, 6.238806780667202, 7.674852357722859]
      },
      {
        "species": [{ "element": "F", "occu": 1 }],
        "abc": [0.82714159, 0.11038309, 0.85043448],
        "properties": { "magmom": 0.024 },
        "label": "F",
        "xyz": [8.051223587795919, 2.4653436343327986, 10.104622837277143]
      },
      {
        "species": [{ "element": "F", "occu": 1 }],
        "abc": [0.67285841, 0.11038309, 0.35043448],
        "properties": { "magmom": 0.024 },
        "label": "F",
        "xyz": [6.54946331720408, 1.3669052993327986, 4.160290222277142]
      },
      {
        "species": [{ "element": "F", "occu": 1 }],
        "abc": [0.17285841, 0.88961691, 0.14956552],
        "properties": { "magmom": 0.024 },
        "label": "F",
        "xyz": [1.6825676822040805, 5.140368445667201, 1.7305197427228585]
      },
      {
        "species": [{ "element": "F", "occu": 1 }],
        "abc": [0.41506849, 0.19477533, 0.44874355],
        "properties": { "magmom": 0.021 },
        "label": "F",
        "xyz": [4.040190044414082, 2.0393419377064137, 5.324536948255542]
      },
      {
        "species": [{ "element": "F", "occu": 1 }],
        "abc": [0.91506849, 0.80522467, 0.05125645],
        "properties": { "magmom": 0.021 },
        "label": "F",
        "xyz": [8.907085679414083, 4.467931807293587, 0.5662730167444581]
      },
      {
        "species": [{ "element": "F", "occu": 1 }],
        "abc": [0.58493151, 0.80522467, 0.55125645],
        "properties": { "magmom": 0.021 },
        "label": "F",
        "xyz": [5.693601225585917, 5.566370142293586, 6.5106056317444585]
      },
      {
        "species": [{ "element": "F", "occu": 1 }],
        "abc": [0.08493151, 0.19477533, 0.94874355],
        "properties": { "magmom": 0.021 },
        "label": "F",
        "xyz": [0.8267055905859176, 3.137780272706414, 11.268869563255542]
      },
      {
        "species": [{ "element": "F", "occu": 1 }],
        "abc": [0.65270882, 0.51845197, 0.7527933800000001],
        "properties": { "magmom": 0.11 },
        "label": "F",
        "xyz": [6.353331413968001, 4.458015587572702, 8.921959558848059]
      },
      {
        "species": [{ "element": "F", "occu": 1 }],
        "abc": [0.15270882, 0.48154803, 0.74720662],
        "properties": { "magmom": 0.11 },
        "label": "F",
        "xyz": [1.4864357789680012, 4.246134827427298, 8.857515636151945]
      },
      {
        "species": [{ "element": "F", "occu": 1 }],
        "abc": [0.34729118000000003, 0.48154803, 0.24720662000000002],
        "properties": { "magmom": 0.11 },
        "label": "F",
        "xyz": [3.3804598560319987, 3.147696492427298, 2.9131830211519434]
      },
      {
        "species": [{ "element": "F", "occu": 1 }],
        "abc": [0.84729118, 0.51845197, 0.25279338],
        "properties": { "magmom": 0.11 },
        "label": "F",
        "xyz": [8.247355491031998, 3.359577252572702, 2.9776269438480574]
      },
      {
        "species": [{ "element": "F", "occu": 1 }],
        "abc": [0.42571073, 0.4316136, 0.64727417],
        "properties": { "magmom": 0.232 },
        "label": "F",
        "xyz": [4.143779387219326, 3.75650844628419, 7.672124815508069]
      },
      {
        "species": [{ "element": "F", "occu": 1 }],
        "abc": [0.92571073, 0.5683864, 0.85272583],
        "properties": { "magmom": 0.232 },
        "label": "F",
        "xyz": [9.010675022219328, 4.947641968715811, 10.107350379491931]
      },
      {
        "species": [{ "element": "F", "occu": 1 }],
        "abc": [0.57428927, 0.5683864, 0.35272583],
        "properties": { "magmom": 0.232 },
        "label": "F",
        "xyz": [5.590011882780672, 3.84920363371581, 4.163017764491932]
      },
      {
        "species": [{ "element": "F", "occu": 1 }],
        "abc": [0.07428927, 0.4316136, 0.14727417],
        "properties": { "magmom": 0.232 },
        "label": "F",
        "xyz": [0.7231162477806728, 2.65807011128419, 1.7277922005080695]
      },
      {
        "species": [{ "element": "F", "occu": 1 }],
        "abc": [0.4145752, 0.60073035, 0.8394389600000001],
        "properties": { "magmom": 0.11900000000000001 },
        "label": "F",
        "xyz": [4.035388462518504, 5.093395456054757, 9.947656096191935]
      },
      {
        "species": [{ "element": "F", "occu": 1 }],
        "abc": [0.914575199999999, 0.39926965000000003, 0.66056104],
        "properties": { "magmom": 0.11900000000000001 },
        "label": "F",
        "xyz": [8.902284097518494, 3.6107549589452437, 7.831819098808068]
      },
      {
        "species": [{ "element": "F", "occu": 1 }],
        "abc": [0.5854248, 0.39926965000000003, 0.16056104000000002],
        "properties": { "magmom": 0.11900000000000001 },
        "label": "F",
        "xyz": [5.698402807481496, 2.5123166239452437, 1.8874864838080672]
      },
      {
        "species": [{ "element": "F", "occu": 1 }],
        "abc": [0.0854248, 0.60073035, 0.33943896],
        "properties": { "magmom": 0.11900000000000001 },
        "label": "F",
        "xyz": [0.8315071724814959, 3.9949571210547568, 4.003323481191934]
      },
      {
        "species": [{ "element": "F", "occu": 1 }],
        "abc": [0.56550398, 0.9843386900000001, 0.7409328900000001],
        "properties": { "magmom": 0.233 },
        "label": "F",
        "xyz": [5.504497703674255, 6.951864141981689, 8.756018671920087]
      },
      {
        "species": [{ "element": "F", "occu": 1 }],
        "abc": [0.06550398, 0.01566131, 0.75906711],
        "properties": { "magmom": 0.233 },
        "label": "F",
        "xyz": [0.6376020686742546, 1.7522862730183109, 9.023456523079917]
      },
      {
        "species": [{ "element": "F", "occu": 1 }],
        "abc": [0.43449602, 0.01566131, 0.25906711],
        "properties": { "magmom": 0.233 },
        "label": "F",
        "xyz": [4.229293566325745, 0.6538479380183109, 3.079123908079914]
      },
      {
        "species": [{ "element": "F", "occu": 1 }],
        "abc": [0.93449602, 0.9843386900000001, 0.24093289],
        "properties": { "magmom": 0.233 },
        "label": "F",
        "xyz": [9.096189201325744, 5.853425806981689, 2.8116860569200863]
      }
    ]
  },
  "task_ids": null,
  "uncorrected_energy_per_atom": null,
  "energy_per_atom": -8.11479200875,
  "formation_energy_per_atom": -1.487063945416666,
  "energy_above_hull": 0.0,
  "is_stable": true,
  "equilibrium_reaction_energy_per_atom": null,
  "decomposes_to": null,
  "xas": null,
  "grain_boundaries": null,
  "band_gap": 0.0,
  "cbm": null,
  "vbm": null,
  "efermi": -2.71703274,
  "is_gap_direct": null,
  "is_metal": null,
  "es_source_calc_id": null,
  "bandstructure": null,
  "dos": null,
  "dos_energy_up": null,
  "dos_energy_down": null,
  "is_magnetic": null,
  "ordering": null,
  "total_magnetization": 15.9999999,
  "total_magnetization_normalized_vol": null,
  "total_magnetization_normalized_formula_units": null,
  "num_magnetic_sites": null,
  "num_unique_magnetic_sites": null,
  "types_of_magnetic_species": null,
  "bulk_modulus": null,
  "shear_modulus": null,
  "universal_anisotropy": null,
  "homogeneous_poisson": null,
  "e_total": null,
  "e_ionic": null,
  "e_electronic": null,
  "n": null,
  "e_ij_max": null,
  "weighted_surface_energy_EV_PER_ANG2": null,
  "weighted_surface_energy": null,
  "weighted_work_function": null,
  "surface_anisotropy": null,
  "shape_factor": null,
  "has_reconstructed": null,
  "possible_species": null,
  "has_props": null,
  "theoretical": null,
  "database_IDs": null,
  "fields_not_requested": [
    "builder_meta",
    "nsites",
    "elements",
    "nelements",
    "composition",
    "composition_reduced",
    "chemsys",
    "symmetry",
    "property_name",
    "deprecated",
    "deprecation_reasons",
    "last_updated",
    "origins",
    "warnings",
    "task_ids",
    "uncorrected_energy_per_atom",
    "equilibrium_reaction_energy_per_atom",
    "decomposes_to",
    "xas",
    "grain_boundaries",
    "cbm",
    "vbm",
    "is_gap_direct",
    "is_metal",
    "es_source_calc_id",
    "bandstructure",
    "dos",
    "dos_energy_up",
    "dos_energy_down",
    "is_magnetic",
    "ordering",
    "total_magnetization_normalized_vol",
    "total_magnetization_normalized_formula_units",
    "num_magnetic_sites",
    "num_unique_magnetic_sites",
    "types_of_magnetic_species",
    "bulk_modulus",
    "shear_modulus",
    "universal_anisotropy",
    "homogeneous_poisson",
    "e_total",
    "e_ionic",
    "e_electronic",
    "n",
    "e_ij_max",
    "weighted_surface_energy_EV_PER_ANG2",
    "weighted_surface_energy",
    "weighted_work_function",
    "surface_anisotropy",
    "shape_factor",
    "has_reconstructed",
    "possible_species",
    "has_props",
    "theoretical",
    "database_IDs"
  ]
}
