{
  "builder_meta": null,
  "nsites": null,
  "elements": null,
  "nelements": null,
  "composition": null,
  "composition_reduced": null,
  "formula_pretty": "RhF6",
  "formula_anonymous": "AB6",
  "chemsys": null,
  "volume": 376.3218799290218,
  "density": 3.828256250055379,
  "density_atomic": 13.440067140322208,
  "symmetry": null,
  "property_name": null,
  "material_id": "mp-1209109",
  "deprecated": null,
  "deprecation_reasons": null,
  "last_updated": null,
  "origins": null,
  "warnings": null,
  "structure": {
    "@module": "pymatgen.core.structure",
    "@class": "Structure",
    "charge": 0,
    "lattice": {
      "matrix": [
        [4.86487498, 4.2770000000000006e-5, -2.4030000000000002e-5],
        [7.422e-5, 8.42400876, -3.2080000000000005e-5],
        [-4.4690000000000014e-5, -3.452e-5, 9.18266997]
      ],
      "pbc": [true, true, true],
      "a": 4.8648749802473565,
      "b": 8.424008760388041,
      "c": 9.182669970173633,
      "alpha": 90.00043358359285,
      "beta": 90.00056185954624,
      "gamma": 89.99899147145048,
      "volume": 376.3218799290218
    },
    "properties": {},
    "sites": [
      {
        "species": [{ "element": "Rh", "occu": 1 }],
        "abc": [0.91750494, 0.7500070400000001, 0.62939937],
        "properties": { "magmom": 1.629 },
        "label": "Rh",
        "xyz": [4.463574364297064, 6.318083389841702, 5.779520586166367]
      },
      {
        "species": [{ "element": "Rh", "occu": 1 }],
        "abc": [0.08249506, 0.24999296000000001, 0.37060063],
        "properties": { "magmom": 1.629 },
        "label": "Rh",
        "xyz": [0.4013301457029353, 2.1059336201582983, 3.403093273833632]
      },
      {
        "species": [{ "element": "Rh", "occu": 1 }],
        "abc": [0.41750218, 0.24999392, 0.87065285],
        "properties": { "magmom": 1.629 },
        "label": "Rh",
        "xyz": [2.031075554650332, 2.105938773658596, 7.994899727607575]
      },
      {
        "species": [{ "element": "Rh", "occu": 1 }],
        "abc": [0.58249782, 0.75000608, 0.12934715],
        "properties": { "magmom": 1.629 },
        "label": "Rh",
        "xyz": [2.833828955349668, 6.318078236341403, 1.1877141323924243]
      },
      {
        "species": [{ "element": "F", "occu": 1 }],
        "abc": [0.22201507, 0.75000778, 0.51127986],
        "properties": { "magmom": 0.201 },
        "label": "F",
        "xyz": [1.0801083757064367, 6.318063954991929, 4.69488482141609]
      },
      {
        "species": [{ "element": "F", "occu": 1 }],
        "abc": [0.77798493, 0.24999222000000001, 0.48872014],
        "properties": { "magmom": 0.201 },
        "label": "F",
        "xyz": [3.784796134293563, 2.105953055008071, 4.48772903858391]
      },
      {
        "species": [{ "element": "F", "occu": 1 }],
        "abc": [0.72201221, 0.24999358, 0.98873151],
        "properties": { "magmom": 0.201 },
        "label": "F",
        "xyz": [3.5124735037958312, 2.105944857314257, 9.0791697755223]
      },
      {
        "species": [{ "element": "F", "occu": 1 }],
        "abc": [0.27798779, 0.7500064200000001, 0.01126849],
        "properties": { "magmom": 0.201 },
        "label": "F",
        "xyz": [1.3524310062041685, 6.318072152685743, 0.103444084477698]
      },
      {
        "species": [{ "element": "F", "occu": 1 }],
        "abc": [0.6119753, 0.75003063, 0.74713041],
        "properties": { "magmom": 0.198 },
        "label": "F",
        "xyz": [2.9772056033633296, 6.318264980630147, 6.860613212831717]
      },
      {
        "species": [{ "element": "F", "occu": 1 }],
        "abc": [0.3880247, 0.24996937, 0.25286959000000003],
        "properties": { "magmom": 0.198 },
        "label": "F",
        "xyz": [1.8876989066366703, 2.105752029369853, 2.3220006471682817]
      },
      {
        "species": [{ "element": "F", "occu": 1 }],
        "abc": [0.11195783000000001, 0.24999097, 0.75286902],
        "properties": { "magmom": 0.198 },
        "label": "F",
        "xyz": [0.544645754595383, 2.1059049205987157, 6.913337031240356]
      },
      {
        "species": [{ "element": "F", "occu": 1 }],
        "abc": [0.88804217, 0.75000903, 0.24713098],
        "properties": { "magmom": 0.198 },
        "label": "F",
        "xyz": [4.320258755404616, 6.318112089401283, 2.2692768287596428]
      },
      {
        "species": [{ "element": "F", "occu": 1 }],
        "abc": [0.75946846, 0.59603773, 0.5152198100000001],
        "properties": { "magmom": 0.202 },
        "label": "F",
        "xyz": [3.6947403219001425, 5.0210417558887075, 4.731056106318634]
      },
      {
        "species": [{ "element": "F", "occu": 1 }],
        "abc": [0.24053154000000002, 0.40396227, 0.48478019],
        "properties": { "magmom": 0.202 },
        "label": "F",
        "xyz": [1.1701641880998574, 3.402975254111292, 4.451557753681366]
      },
      {
        "species": [{ "element": "F", "occu": 1 }],
        "abc": [0.25946566, 0.4039588, 0.98477669],
        "properties": { "magmom": 0.202 },
        "label": "F",
        "xyz": [1.2622539696550468, 3.4029295727340276, 9.042860144460885]
      },
      {
        "species": [{ "element": "F", "occu": 1 }],
        "abc": [0.24050956, 0.09600634, 0.4847785],
        "properties": { "magmom": 0.202 },
        "label": "F",
        "xyz": [1.1700344017341984, 0.8087518012155995, 4.451552114723531]
      },
      {
        "species": [{ "element": "F", "occu": 1 }],
        "abc": [0.7405343400000001, 0.596041199999999, 0.01522331],
        "properties": { "magmom": 0.202 },
        "label": "F",
        "xyz": [3.6026505403449534, 5.021087437265964, 0.1397537155391145]
      },
      {
        "species": [{ "element": "F", "occu": 1 }],
        "abc": [0.75949044, 0.90399366, 0.5152215],
        "properties": { "magmom": 0.202 },
        "label": "F",
        "xyz": [3.694870108265801, 7.6152652087844, 4.7310617452764685]
      },
      {
        "species": [{ "element": "F", "occu": 1 }],
        "abc": [0.7405461600000001, 0.90399001, 0.015212690000000001],
        "properties": { "magmom": 0.202 },
        "label": "F",
        "xyz": [3.602730899602503, 7.615250911209692, 0.1396463163021737]
      },
      {
        "species": [{ "element": "F", "occu": 1 }],
        "abc": [0.25945384, 0.09600999, 0.98478731],
        "properties": { "magmom": 0.202 },
        "label": "F",
        "xyz": [1.262173610397497, 0.8087660987903079, 9.042967543697824]
      },
      {
        "species": [{ "element": "F", "occu": 1 }],
        "abc": [0.07423779, 0.59591007, 0.74362609],
        "properties": { "magmom": 0.20400000000000001 },
        "label": "F",
        "xyz": [0.3611685629369275, 5.019929155029865, 6.828452064822377]
      },
      {
        "species": [{ "element": "F", "occu": 1 }],
        "abc": [0.92576221, 0.40408993, 0.25637391],
        "properties": { "magmom": 0.20400000000000001 },
        "label": "F",
        "xyz": [4.503735947063072, 3.4040878549701348, 2.3541617951776215]
      },
      {
        "species": [{ "element": "F", "occu": 1 }],
        "abc": [0.5742563900000001, 0.40410381, 0.7563892600000001],
        "properties": { "magmom": 0.20400000000000001 },
        "label": "F",
        "xyz": [2.793681733364871, 3.404172485777921, 6.945646180401246]
      },
      {
        "species": [{ "element": "F", "occu": 1 }],
        "abc": [0.92574367, 0.09587555, 0.25636163],
        "properties": { "magmom": 0.20400000000000001 },
        "label": "F",
        "xyz": [4.5036228771584526, 0.8076872175231163, 2.354058919953217]
      },
      {
        "species": [{ "element": "F", "occu": 1 }],
        "abc": [0.42574361, 0.59589619, 0.24361074],
        "properties": { "magmom": 0.20400000000000001 },
        "label": "F",
        "xyz": [2.0712227766351288, 5.019844524222079, 2.236967679598754]
      },
      {
        "species": [{ "element": "F", "occu": 1 }],
        "abc": [0.07425633, 0.90412445, 0.74363837],
        "properties": { "magmom": 0.20400000000000001 },
        "label": "F",
        "xyz": [0.361281632841547, 7.616329792476883, 6.828554940046782]
      },
      {
        "species": [{ "element": "F", "occu": 1 }],
        "abc": [0.42572992, 0.9041296400000001, 0.24362048],
        "properties": { "magmom": 0.20400000000000001 },
        "label": "F",
        "xyz": [2.071179053148031, 7.616405806225356, 2.2370472310041563]
      },
      {
        "species": [{ "element": "F", "occu": 1 }],
        "abc": [0.57427008, 0.09587036, 0.75637952],
        "properties": { "magmom": 0.20400000000000001 },
        "label": "F",
        "xyz": [2.793725456851969, 0.8076112037746448, 6.9455666289958415]
      }
    ]
  },
  "task_ids": null,
  "uncorrected_energy_per_atom": null,
  "energy_per_atom": -7.506231192142857,
  "formation_energy_per_atom": -1.378746002142857,
  "energy_above_hull": 0.0,
  "is_stable": true,
  "equilibrium_reaction_energy_per_atom": null,
  "decomposes_to": null,
  "xas": null,
  "grain_boundaries": null,
  "band_gap": 0.5939999999999991,
  "cbm": null,
  "vbm": null,
  "efermi": -3.53907393,
  "is_gap_direct": null,
  "is_metal": null,
  "es_source_calc_id": null,
  "bandstructure": null,
  "dos": null,
  "dos_energy_up": null,
  "dos_energy_down": null,
  "is_magnetic": null,
  "ordering": null,
  "total_magnetization": 12.0000001,
  "total_magnetization_normalized_vol": null,
  "total_magnetization_normalized_formula_units": null,
  "num_magnetic_sites": null,
  "num_unique_magnetic_sites": null,
  "types_of_magnetic_species": null,
  "bulk_modulus": null,
  "shear_modulus": null,
  "universal_anisotropy": null,
  "homogeneous_poisson": null,
  "e_total": null,
  "e_ionic": null,
  "e_electronic": null,
  "n": null,
  "e_ij_max": null,
  "weighted_surface_energy_EV_PER_ANG2": null,
  "weighted_surface_energy": null,
  "weighted_work_function": null,
  "surface_anisotropy": null,
  "shape_factor": null,
  "has_reconstructed": null,
  "possible_species": null,
  "has_props": null,
  "theoretical": null,
  "database_IDs": null,
  "fields_not_requested": [
    "builder_meta",
    "nsites",
    "elements",
    "nelements",
    "composition",
    "composition_reduced",
    "chemsys",
    "symmetry",
    "property_name",
    "deprecated",
    "deprecation_reasons",
    "last_updated",
    "origins",
    "warnings",
    "task_ids",
    "uncorrected_energy_per_atom",
    "equilibrium_reaction_energy_per_atom",
    "decomposes_to",
    "xas",
    "grain_boundaries",
    "cbm",
    "vbm",
    "is_gap_direct",
    "is_metal",
    "es_source_calc_id",
    "bandstructure",
    "dos",
    "dos_energy_up",
    "dos_energy_down",
    "is_magnetic",
    "ordering",
    "total_magnetization_normalized_vol",
    "total_magnetization_normalized_formula_units",
    "num_magnetic_sites",
    "num_unique_magnetic_sites",
    "types_of_magnetic_species",
    "bulk_modulus",
    "shear_modulus",
    "universal_anisotropy",
    "homogeneous_poisson",
    "e_total",
    "e_ionic",
    "e_electronic",
    "n",
    "e_ij_max",
    "weighted_surface_energy_EV_PER_ANG2",
    "weighted_surface_energy",
    "weighted_work_function",
    "surface_anisotropy",
    "shape_factor",
    "has_reconstructed",
    "possible_species",
    "has_props",
    "theoretical",
    "database_IDs"
  ]
}
