{
  "builder_meta": null,
  "nsites": null,
  "elements": null,
  "nelements": null,
  "composition": null,
  "composition_reduced": null,
  "formula_pretty": "RhI2",
  "formula_anonymous": "AB2",
  "chemsys": null,
  "volume": 171.90425833921688,
  "density": 6.891490286081067,
  "density_atomic": 28.650709723202812,
  "symmetry": null,
  "property_name": null,
  "material_id": "mp-862601",
  "deprecated": null,
  "deprecation_reasons": null,
  "last_updated": null,
  "origins": null,
  "warnings": null,
  "structure": {
    "@module": "pymatgen.core.structure",
    "@class": "Structure",
    "charge": 0,
    "lattice": {
      "matrix": [
        [6.405874, 0.0, 0.0],
        [0.0, 6.405874, 0.0],
        [0.0, 0.0, 4.189188]
      ],
      "pbc": [true, true, true],
      "a": 6.405874,
      "b": 6.405874,
      "c": 4.189188,
      "alpha": 90.0,
      "beta": 90.0,
      "gamma": 90.0,
      "volume": 171.90425833921688
    },
    "properties": {},
    "sites": [
      {
        "species": [{ "element": "Rh", "occu": 1 }],
        "abc": [0.0, 0.0, 0.0],
        "properties": { "magmom": -0.002 },
        "label": "Rh",
        "xyz": [0.0, 0.0, 0.0]
      },
      {
        "species": [{ "element": "Rh", "occu": 1 }],
        "abc": [0.5, 0.5, 0.5],
        "properties": { "magmom": 0.002 },
        "label": "Rh",
        "xyz": [3.202937, 3.202937, 2.094594]
      },
      {
        "species": [{ "element": "I", "occu": 1 }],
        "abc": [0.305036, 0.305036, 0.0],
        "properties": { "magmom": 0.0 },
        "label": "I",
        "xyz": [1.9540221814639998, 1.9540221814639998, 0.0]
      },
      {
        "species": [{ "element": "I", "occu": 1 }],
        "abc": [0.694963999999999, 0.694963999999999, 0.0],
        "properties": { "magmom": -0.0 },
        "label": "I",
        "xyz": [4.451851818535994, 4.451851818535994, 0.0]
      },
      {
        "species": [{ "element": "I", "occu": 1 }],
        "abc": [0.194964, 0.805036, 0.5],
        "properties": { "magmom": 0.0 },
        "label": "I",
        "xyz": [1.248914818536, 5.156959181464, 2.094594]
      },
      {
        "species": [{ "element": "I", "occu": 1 }],
        "abc": [0.805036, 0.194964, 0.5],
        "properties": { "magmom": -0.0 },
        "label": "I",
        "xyz": [5.156959181464, 1.248914818536, 2.094594]
      }
    ]
  },
  "task_ids": null,
  "uncorrected_energy_per_atom": null,
  "energy_per_atom": -3.825897168333333,
  "formation_energy_per_atom": -0.355119468333332,
  "energy_above_hull": 0.14866465944444401,
  "is_stable": false,
  "equilibrium_reaction_energy_per_atom": null,
  "decomposes_to": null,
  "xas": null,
  "grain_boundaries": null,
  "band_gap": 0.0,
  "cbm": null,
  "vbm": null,
  "efermi": 5.29065992,
  "is_gap_direct": null,
  "is_metal": null,
  "es_source_calc_id": null,
  "bandstructure": null,
  "dos": null,
  "dos_energy_up": null,
  "dos_energy_down": null,
  "is_magnetic": null,
  "ordering": null,
  "total_magnetization": 0.003257399999999,
  "total_magnetization_normalized_vol": null,
  "total_magnetization_normalized_formula_units": null,
  "num_magnetic_sites": null,
  "num_unique_magnetic_sites": null,
  "types_of_magnetic_species": null,
  "bulk_modulus": null,
  "shear_modulus": null,
  "universal_anisotropy": null,
  "homogeneous_poisson": null,
  "e_total": null,
  "e_ionic": null,
  "e_electronic": null,
  "n": null,
  "e_ij_max": null,
  "weighted_surface_energy_EV_PER_ANG2": null,
  "weighted_surface_energy": null,
  "weighted_work_function": null,
  "surface_anisotropy": null,
  "shape_factor": null,
  "has_reconstructed": null,
  "possible_species": null,
  "has_props": null,
  "theoretical": null,
  "database_IDs": null,
  "fields_not_requested": [
    "builder_meta",
    "nsites",
    "elements",
    "nelements",
    "composition",
    "composition_reduced",
    "chemsys",
    "symmetry",
    "property_name",
    "deprecated",
    "deprecation_reasons",
    "last_updated",
    "origins",
    "warnings",
    "task_ids",
    "uncorrected_energy_per_atom",
    "equilibrium_reaction_energy_per_atom",
    "decomposes_to",
    "xas",
    "grain_boundaries",
    "cbm",
    "vbm",
    "is_gap_direct",
    "is_metal",
    "es_source_calc_id",
    "bandstructure",
    "dos",
    "dos_energy_up",
    "dos_energy_down",
    "is_magnetic",
    "ordering",
    "total_magnetization_normalized_vol",
    "total_magnetization_normalized_formula_units",
    "num_magnetic_sites",
    "num_unique_magnetic_sites",
    "types_of_magnetic_species",
    "bulk_modulus",
    "shear_modulus",
    "universal_anisotropy",
    "homogeneous_poisson",
    "e_total",
    "e_ionic",
    "e_electronic",
    "n",
    "e_ij_max",
    "weighted_surface_energy_EV_PER_ANG2",
    "weighted_surface_energy",
    "weighted_work_function",
    "surface_anisotropy",
    "shape_factor",
    "has_reconstructed",
    "possible_species",
    "has_props",
    "theoretical",
    "database_IDs"
  ]
}
