{
  "builder_meta": null,
  "nsites": null,
  "elements": null,
  "nelements": null,
  "composition": null,
  "composition_reduced": null,
  "formula_pretty": "RhI3",
  "formula_anonymous": "AB3",
  "chemsys": null,
  "volume": 277.3315105367346,
  "density": 5.791394507225584,
  "density_atomic": 34.66643881709182,
  "symmetry": null,
  "property_name": null,
  "material_id": "mp-1206891",
  "deprecated": null,
  "deprecation_reasons": null,
  "last_updated": null,
  "origins": null,
  "warnings": null,
  "structure": {
    "@module": "pymatgen.core.structure",
    "@class": "Structure",
    "charge": 0,
    "lattice": {
      "matrix": [
        [-3.25416681, -5.94628591, 1.09404283],
        [-3.25416681, 5.94628591, 1.09404283],
        [-0.17812445000000002, 0.0, -7.10622752]
      ],
      "pbc": [true, true, true],
      "a": 6.866210560756532,
      "b": 6.866210560756532,
      "c": 7.108459600060561,
      "alpha": 98.47692929027508,
      "beta": 98.47692929027508,
      "gamma": 119.99910335051385,
      "volume": 277.3315105367346
    },
    "properties": {},
    "sites": [
      {
        "species": [{ "element": "Rh", "occu": 1 }],
        "abc": [0.83336288, 0.16663712, 0.0],
        "properties": { "magmom": 0.0 },
        "label": "Rh",
        "xyz": [-3.25416681, -3.964541992522042, 1.09404283]
      },
      {
        "species": [{ "element": "Rh", "occu": 1 }],
        "abc": [0.16663712, 0.83336288, -0.0],
        "properties": { "magmom": 0.0 },
        "label": "Rh",
        "xyz": [-3.25416681, 3.964541992522042, 1.09404283]
      },
      {
        "species": [{ "element": "I", "occu": 1 }],
        "abc": [0.4326175, 0.07586484, 0.77800227],
        "properties": { "magmom": -0.0 },
        "label": "I",
        "xyz": [-1.793267580741637, -2.1213533155130206, -4.972359683437848]
      },
      {
        "species": [{ "element": "I", "occu": 1 }],
        "abc": [0.5673825, 0.9241351600000001, 0.22199773],
        "properties": { "magmom": -0.0 },
        "label": "I",
        "xyz": [-4.893190489258363, 2.121353315513021, 0.05421782343784831]
      },
      {
        "species": [{ "element": "I", "occu": 1 }],
        "abc": [0.9241351600000001, 0.5673825, 0.22199773],
        "properties": { "magmom": -0.0 },
        "label": "I",
        "xyz": [-4.893190489258363, -2.121353315513021, 0.05421782343784831]
      },
      {
        "species": [{ "element": "I", "occu": 1 }],
        "abc": [0.07586484, 0.4326175, 0.77800227],
        "properties": { "magmom": -0.0 },
        "label": "I",
        "xyz": [-1.793267580741637, 2.1213533155130206, -4.972359683437848]
      },
      {
        "species": [{ "element": "I", "occu": 1 }],
        "abc": [0.78823615, 0.78823615, 0.77715024],
        "properties": { "magmom": -0.0 },
        "label": "I",
        "xyz": [-5.268533294611731, 0.0, -3.797878206153996]
      },
      {
        "species": [{ "element": "I", "occu": 1 }],
        "abc": [0.21176385, 0.21176385, 0.22284976],
        "properties": { "magmom": -0.0 },
        "label": "I",
        "xyz": [-1.417924775388269, 0.0, -1.1202636538460042]
      }
    ]
  },
  "task_ids": null,
  "uncorrected_energy_per_atom": null,
  "energy_per_atom": -3.5508435725,
  "formation_energy_per_atom": -0.5667571437499991,
  "energy_above_hull": 0.0,
  "is_stable": true,
  "equilibrium_reaction_energy_per_atom": null,
  "decomposes_to": null,
  "xas": null,
  "grain_boundaries": null,
  "band_gap": 1.0096,
  "cbm": null,
  "vbm": null,
  "efermi": 3.0137478,
  "is_gap_direct": null,
  "is_metal": null,
  "es_source_calc_id": null,
  "bandstructure": null,
  "dos": null,
  "dos_energy_up": null,
  "dos_energy_down": null,
  "is_magnetic": null,
  "ordering": null,
  "total_magnetization": 0.0,
  "total_magnetization_normalized_vol": null,
  "total_magnetization_normalized_formula_units": null,
  "num_magnetic_sites": null,
  "num_unique_magnetic_sites": null,
  "types_of_magnetic_species": null,
  "bulk_modulus": null,
  "shear_modulus": null,
  "universal_anisotropy": null,
  "homogeneous_poisson": null,
  "e_total": null,
  "e_ionic": null,
  "e_electronic": null,
  "n": null,
  "e_ij_max": null,
  "weighted_surface_energy_EV_PER_ANG2": null,
  "weighted_surface_energy": null,
  "weighted_work_function": null,
  "surface_anisotropy": null,
  "shape_factor": null,
  "has_reconstructed": null,
  "possible_species": null,
  "has_props": null,
  "theoretical": null,
  "database_IDs": null,
  "fields_not_requested": [
    "builder_meta",
    "nsites",
    "elements",
    "nelements",
    "composition",
    "composition_reduced",
    "chemsys",
    "symmetry",
    "property_name",
    "deprecated",
    "deprecation_reasons",
    "last_updated",
    "origins",
    "warnings",
    "task_ids",
    "uncorrected_energy_per_atom",
    "equilibrium_reaction_energy_per_atom",
    "decomposes_to",
    "xas",
    "grain_boundaries",
    "cbm",
    "vbm",
    "is_gap_direct",
    "is_metal",
    "es_source_calc_id",
    "bandstructure",
    "dos",
    "dos_energy_up",
    "dos_energy_down",
    "is_magnetic",
    "ordering",
    "total_magnetization_normalized_vol",
    "total_magnetization_normalized_formula_units",
    "num_magnetic_sites",
    "num_unique_magnetic_sites",
    "types_of_magnetic_species",
    "bulk_modulus",
    "shear_modulus",
    "universal_anisotropy",
    "homogeneous_poisson",
    "e_total",
    "e_ionic",
    "e_electronic",
    "n",
    "e_ij_max",
    "weighted_surface_energy_EV_PER_ANG2",
    "weighted_surface_energy",
    "weighted_work_function",
    "surface_anisotropy",
    "shape_factor",
    "has_reconstructed",
    "possible_species",
    "has_props",
    "theoretical",
    "database_IDs"
  ]
}
