{"builder_meta": null, "nsites": null, "elements": null, "nelements": null, "composition": null, "composition_reduced": null, "formula_pretty": "RhN2", "formula_anonymous": "AB2", "chemsys": null, "volume": 113.87053959642427, "density": 7.636600257688612, "density_atomic": 9.489211633035355, "symmetry": null, "property_name": null, "material_id": "mp-2831849", "deprecated": null, "deprecation_reasons": null, "last_updated": null, "origins": null, "warnings": null, "structure": {"@module": "pymatgen.core.structure", "@class": "Structure", "charge": 0.0, "lattice": {"matrix": [[4.91550137, 0.0, 0.0], [0.0, 4.93471934, -0.02822022], [0.0, 1.59040137, 4.68531585]], "pbc": [true, true, true], "a": 4.91550137, "b": 4.934800030942174, "c": 4.947884510774186, "alpha": 71.57819211488822, "beta": 90.0, "gamma": 90.0, "volume": 113.87053959642427}, "properties": {}, "sites": [{"species": [{"element": "Rh", "occu": 1}], "abc": [0.00062717, 0.75838571, 0.23422374], "properties": {"magmom": -0.0}, "label": "Rh", "xyz": [0.0030828549942229005, 4.114930387299156, 1.076010389887223]}, {"species": [{"element": "Rh", "occu": 1}], "abc": [0.49937283, 0.75838571, 0.73422374], "properties": {"magmom": -0.0}, "label": "Rh", "xyz": [2.454667830005777, 4.910131072299155, 3.4186683148872232]}, {"species": [{"element": "Rh", "occu": 1}], "abc": [0.50062717, 0.24161429, 0.26577626], "properties": {"magmom": -0.0}, "label": "Rh", "xyz": [2.460833539994223, 1.6149896377008448, 1.2384273151127771]}, {"species": [{"element": "Rh", "occu": 1}], "abc": [0.99937283, 0.24161429, 0.76577626], "properties": {"magmom": -0.0}, "label": "Rh", "xyz": [4.912418515005777, 2.4101903227008448, 3.581085240112777]}, {"species": [{"element": "N", "occu": 1}], "abc": [0.41385012, 0.80852841, 0.3036117], "properties": {"magmom": -0.0}, "label": "N", "xyz": [2.0342808318346646, 4.472725245394478, 1.3996998606489948]}, {"species": [{"element": "N", "occu": 1}], "abc": [0.91562685, 0.68631621, 0.67513658], "properties": {"magmom": 0.0}, "label": "N", "xyz": [4.500765035583785, 4.460516016611616, 3.143860124753027]}, {"species": [{"element": "N", "occu": 1}], "abc": [0.08437315000000001, 0.31368379, 0.32486342], "properties": {"magmom": 0.0}, "label": "N", "xyz": [0.41473633441621555, 2.064604693388384, 1.5132355052469733]}, {"species": [{"element": "N", "occu": 1}], "abc": [0.08614988, 0.80852841, 0.803611699999999], "properties": {"magmom": -0.0}, "label": "N", "xyz": [0.42346985316533564, 5.267925930394476, 3.7423577856489905]}, {"species": [{"element": "N", "occu": 1}], "abc": [0.91385012, 0.19147159, 0.1963883], "properties": {"magmom": -0.0}, "label": "N", "xyz": [4.492031516834665, 1.2571947796055216, 0.9147378443510052]}, {"species": [{"element": "N", "occu": 1}], "abc": [0.58614988, 0.19147159, 0.6963883], "properties": {"magmom": -0.0}, "label": "N", "xyz": [2.8812205381653357, 2.0523954646055214, 3.257395769351005]}, {"species": [{"element": "N", "occu": 1}], "abc": [0.41562685, 0.31368379, 0.82486342], "properties": {"magmom": 0.0}, "label": "N", "xyz": [2.0430143505837846, 2.8598053783883843, 3.8558934302469736]}, {"species": [{"element": "N", "occu": 1}], "abc": [0.58437315, 0.68631621, 0.17513658000000001], "properties": {"magmom": 0.0}, "label": "N", "xyz": [2.8724870194162158, 3.665315331611616, 0.8012021997530269]}]}, "task_ids": null, "uncorrected_energy_per_atom": null, "energy_per_atom": -14.01467962416667, "formation_energy_per_atom": 0.11656369999999501, "energy_above_hull": 0.11656369999999801, "is_stable": false, "equilibrium_reaction_energy_per_atom": null, "decomposes_to": null, "xas": null, "grain_boundaries": null, "band_gap": 0.0, "cbm": null, "vbm": null, "efermi": 6.76285915, "is_gap_direct": null, "is_metal": null, "es_source_calc_id": null, "bandstructure": null, "dos": null, "dos_energy_up": null, "dos_energy_down": null, "is_magnetic": null, "ordering": null, "total_magnetization": 0.0, "total_magnetization_normalized_vol": null, "total_magnetization_normalized_formula_units": null, "num_magnetic_sites": null, "num_unique_magnetic_sites": null, "types_of_magnetic_species": null, "bulk_modulus": null, "shear_modulus": null, "universal_anisotropy": null, "homogeneous_poisson": null, "e_total": null, "e_ionic": null, "e_electronic": null, "n": null, "e_ij_max": null, "weighted_surface_energy_EV_PER_ANG2": null, "weighted_surface_energy": null, "weighted_work_function": null, "surface_anisotropy": null, "shape_factor": null, "has_reconstructed": null, "possible_species": null, "has_props": null, "theoretical": null, "database_IDs": null, "fields_not_requested": ["builder_meta", "nsites", "elements", "nelements", "composition", "composition_reduced", "chemsys", "symmetry", "property_name", "deprecated", "deprecation_reasons", "last_updated", "origins", "warnings", "task_ids", "uncorrected_energy_per_atom", "equilibrium_reaction_energy_per_atom", "decomposes_to", "xas", "grain_boundaries", "cbm", "vbm", "is_gap_direct", "is_metal", "es_source_calc_id", "bandstructure", "dos", "dos_energy_up", "dos_energy_down", "is_magnetic", "ordering", "total_magnetization_normalized_vol", "total_magnetization_normalized_formula_units", "num_magnetic_sites", "num_unique_magnetic_sites", "types_of_magnetic_species", "bulk_modulus", "shear_modulus", "universal_anisotropy", "homogeneous_poisson", "e_total", "e_ionic", "e_electronic", "n", "e_ij_max", "weighted_surface_energy_EV_PER_ANG2", "weighted_surface_energy", "weighted_work_function", "surface_anisotropy", "shape_factor", "has_reconstructed", "possible_species", "has_props", "theoretical", "database_IDs"]}