{"builder_meta": null, "nsites": null, "elements": null, "nelements": null, "composition": null, "composition_reduced": null, "formula_pretty": "RhN3", "formula_anonymous": "AB3", "chemsys": null, "volume": 144.25668269023492, "density": 6.6729559022844604, "density_atomic": 9.016042668139683, "symmetry": null, "property_name": null, "material_id": "mp-2118", "deprecated": null, "deprecation_reasons": null, "last_updated": null, "origins": null, "warnings": null, "structure": {"@module": "pymatgen.core.structure", "@class": "Structure", "charge": 0, "lattice": {"matrix": [[-3.303888, 3.303888, 3.303888], [3.303888, -3.303888, 3.303888], [3.303888, 3.303888, -3.303888]], "pbc": [true, true, true], "a": 5.722501878517123, "b": 5.722501878517123, "c": 5.722501878517123, "alpha": 109.47122063449069, "beta": 109.47122063449069, "gamma": 109.47122063449069, "volume": 144.25668269023492}, "properties": {}, "sites": [{"species": [{"element": "Rh", "occu": 1}], "abc": [0.0, 0.0, 0.5], "properties": {"magmom": -0.0}, "label": "Rh", "xyz": [1.651944, 1.651944, -1.651944]}, {"species": [{"element": "Rh", "occu": 1}], "abc": [0.0, 0.5, 0.0], "properties": {"magmom": -0.0}, "label": "Rh", "xyz": [1.651944, -1.651944, 1.651944]}, {"species": [{"element": "Rh", "occu": 1}], "abc": [0.5, 0.0, 0.0], "properties": {"magmom": -0.0}, "label": "Rh", "xyz": [-1.651944, 1.651944, 1.651944]}, {"species": [{"element": "Rh", "occu": 1}], "abc": [0.5, 0.5, 0.5], "properties": {"magmom": -0.0}, "label": "Rh", "xyz": [1.651944, 1.651944, 1.651944]}, {"species": [{"element": "N", "occu": 1}], "abc": [0.889115999999999, 0.616873999999999, 0.505989], "properties": {"magmom": -0.0}, "label": "N", "xyz": [0.772273908336, 2.5711880621280003, 3.303891303887993]}, {"species": [{"element": "N", "occu": 1}], "abc": [0.889115999999999, 0.383125999999999, 0.272242], "properties": {"magmom": -0.0}, "label": "N", "xyz": [-0.7722772122240003, 2.5711913660160004, 3.3038879999999944]}, {"species": [{"element": "N", "occu": 1}], "abc": [0.110884, 0.616873999999999, 0.727758], "properties": {"magmom": -0.0}, "label": "N", "xyz": [4.076165212223996, 0.7326966339840033, -3.1086244689504383e-15]}, {"species": [{"element": "N", "occu": 1}], "abc": [0.383125999999999, 0.494011, 0.110884], "properties": {"magmom": -0.0}, "label": "N", "xyz": [0.7326999378720033, -3.303888003292066e-06, 2.5316140916639966]}, {"species": [{"element": "N", "occu": 1}], "abc": [0.110884, 0.383125999999999, 0.494011], "properties": {"magmom": -0.0}, "label": "N", "xyz": [2.5316140916639966, 0.7326999378720033, -3.3038880031810436e-06]}, {"species": [{"element": "N", "occu": 1}], "abc": [0.616873999999999, 0.727758, 0.110884], "properties": {"magmom": -0.0}, "label": "N", "xyz": [0.7326966339840032, -3.219646771412954e-15, 4.076165212223997]}, {"species": [{"element": "N", "occu": 1}], "abc": [0.272242, 0.889115999999999, 0.383125999999999], "properties": {"magmom": -0.0}, "label": "N", "xyz": [3.303887999999994, -0.7722772122240005, 2.571191366016]}, {"species": [{"element": "N", "occu": 1}], "abc": [0.616873999999999, 0.505989, 0.889115999999999], "properties": {"magmom": -0.0}, "label": "N", "xyz": [2.5711880621280003, 3.3038913038879936, 0.772273908336]}, {"species": [{"element": "N", "occu": 1}], "abc": [0.727758, 0.110884, 0.616873999999999], "properties": {"magmom": -0.0}, "label": "N", "xyz": [-3.1086244689504383e-15, 4.076165212223996, 0.7326966339840033]}, {"species": [{"element": "N", "occu": 1}], "abc": [0.383125999999999, 0.272242, 0.889115999999999], "properties": {"magmom": -0.0}, "label": "N", "xyz": [2.5711913660160004, 3.3038879999999935, -0.772277212224]}, {"species": [{"element": "N", "occu": 1}], "abc": [0.505989, 0.889115999999999, 0.616873999999999], "properties": {"magmom": -0.0}, "label": "N", "xyz": [3.3038913038879936, 0.772273908336, 2.5711880621280003]}, {"species": [{"element": "N", "occu": 1}], "abc": [0.494011, 0.110884, 0.383125999999999], "properties": {"magmom": -0.0}, "label": "N", "xyz": [-3.3038880031810436e-06, 2.5316140916639966, 0.7326999378720034]}]}, "task_ids": null, "uncorrected_energy_per_atom": null, "energy_per_atom": -12.424929769687498, "formation_energy_per_atom": 0.45569039125000105, "energy_above_hull": 0.45569039125000105, "is_stable": false, "equilibrium_reaction_energy_per_atom": null, "decomposes_to": null, "xas": null, "grain_boundaries": null, "band_gap": 0.0, "cbm": null, "vbm": null, "efermi": 8.12667017, "is_gap_direct": null, "is_metal": null, "es_source_calc_id": null, "bandstructure": null, "dos": null, "dos_energy_up": null, "dos_energy_down": null, "is_magnetic": null, "ordering": null, "total_magnetization": 0.0005205, "total_magnetization_normalized_vol": null, "total_magnetization_normalized_formula_units": null, "num_magnetic_sites": null, "num_unique_magnetic_sites": null, "types_of_magnetic_species": null, "bulk_modulus": null, "shear_modulus": null, "universal_anisotropy": null, "homogeneous_poisson": null, "e_total": null, "e_ionic": null, "e_electronic": null, "n": null, "e_ij_max": null, "weighted_surface_energy_EV_PER_ANG2": null, "weighted_surface_energy": null, "weighted_work_function": null, "surface_anisotropy": null, "shape_factor": null, "has_reconstructed": null, "possible_species": null, "has_props": null, "theoretical": null, "database_IDs": null, "fields_not_requested": ["builder_meta", "nsites", "elements", "nelements", "composition", "composition_reduced", "chemsys", "symmetry", "property_name", "deprecated", "deprecation_reasons", "last_updated", "origins", "warnings", "task_ids", "uncorrected_energy_per_atom", "equilibrium_reaction_energy_per_atom", "decomposes_to", "xas", "grain_boundaries", "cbm", "vbm", "is_gap_direct", "is_metal", "es_source_calc_id", "bandstructure", "dos", "dos_energy_up", "dos_energy_down", "is_magnetic", "ordering", "total_magnetization_normalized_vol", "total_magnetization_normalized_formula_units", "num_magnetic_sites", "num_unique_magnetic_sites", "types_of_magnetic_species", "bulk_modulus", "shear_modulus", "universal_anisotropy", "homogeneous_poisson", "e_total", "e_ionic", "e_electronic", "n", "e_ij_max", "weighted_surface_energy_EV_PER_ANG2", "weighted_surface_energy", "weighted_work_function", "surface_anisotropy", "shape_factor", "has_reconstructed", "possible_species", "has_props", "theoretical", "database_IDs"]}