{
  "builder_meta": null,
  "nsites": null,
  "elements": null,
  "nelements": null,
  "composition": null,
  "composition_reduced": null,
  "formula_pretty": "RhO3",
  "formula_anonymous": "AB3",
  "chemsys": null,
  "volume": 103.99192114417295,
  "density": 2.409624578404353,
  "density_atomic": 25.997980286043237,
  "symmetry": null,
  "property_name": null,
  "material_id": "mp-1219486",
  "deprecated": null,
  "deprecation_reasons": null,
  "last_updated": null,
  "origins": null,
  "warnings": null,
  "structure": {
    "@module": "pymatgen.core.structure",
    "@class": "Structure",
    "charge": 0,
    "lattice": {
      "matrix": [
        [0.0, 0.0, -2.934481],
        [-5.539868, -3.198445, -0.97816],
        [-5.539868, 3.198445, 0.978161]
      ],
      "pbc": [true, true, true],
      "a": 2.934481,
      "b": 6.47124291469954,
      "c": 6.471243065854504,
      "alpha": 62.24264634618397,
      "beta": 98.69386870090023,
      "gamma": 81.30614005127545,
      "volume": 103.99192114417295
    },
    "properties": {},
    "sites": [
      {
        "species": [{ "element": "Rh", "occu": 1 }],
        "abc": [0.5, 0.0, 0.0],
        "properties": { "magmom": 0.001 },
        "label": "Rh",
        "xyz": [0.0, 0.0, -1.4672405]
      },
      {
        "species": [{ "element": "O", "occu": 1 }],
        "abc": [0.342269, 0.157730999999999, 0.684538],
        "properties": { "magmom": 0.001 },
        "label": "O",
        "xyz": [-4.666059080491994, 1.684963215115003, -0.48907965773099893]
      },
      {
        "species": [{ "element": "O", "occu": 1 }],
        "abc": [0.5, 0.157730999999999, 0.157730999999999],
        "properties": { "magmom": 0.001 },
        "label": "O",
        "xyz": [-1.747617839015989, 0.0, -1.467240342269]
      },
      {
        "species": [{ "element": "O", "occu": 1 }],
        "abc": [0.657731, 0.684538, 0.157730999999999],
        "properties": { "magmom": 0.001 },
        "label": "O",
        "xyz": [-4.666059080491994, -1.684963215115003, -2.4454005000000008]
      }
    ]
  },
  "task_ids": null,
  "uncorrected_energy_per_atom": null,
  "energy_per_atom": -5.909179975,
  "formation_energy_per_atom": -0.357132253749999,
  "energy_above_hull": 0.5570837924999991,
  "is_stable": false,
  "equilibrium_reaction_energy_per_atom": null,
  "decomposes_to": null,
  "xas": null,
  "grain_boundaries": null,
  "band_gap": 0.0,
  "cbm": null,
  "vbm": null,
  "efermi": -3.22304763,
  "is_gap_direct": null,
  "is_metal": null,
  "es_source_calc_id": null,
  "bandstructure": null,
  "dos": null,
  "dos_energy_up": null,
  "dos_energy_down": null,
  "is_magnetic": null,
  "ordering": null,
  "total_magnetization": 0.0047342,
  "total_magnetization_normalized_vol": null,
  "total_magnetization_normalized_formula_units": null,
  "num_magnetic_sites": null,
  "num_unique_magnetic_sites": null,
  "types_of_magnetic_species": null,
  "bulk_modulus": null,
  "shear_modulus": null,
  "universal_anisotropy": null,
  "homogeneous_poisson": null,
  "e_total": null,
  "e_ionic": null,
  "e_electronic": null,
  "n": null,
  "e_ij_max": null,
  "weighted_surface_energy_EV_PER_ANG2": null,
  "weighted_surface_energy": null,
  "weighted_work_function": null,
  "surface_anisotropy": null,
  "shape_factor": null,
  "has_reconstructed": null,
  "possible_species": null,
  "has_props": null,
  "theoretical": null,
  "database_IDs": null,
  "fields_not_requested": [
    "builder_meta",
    "nsites",
    "elements",
    "nelements",
    "composition",
    "composition_reduced",
    "chemsys",
    "symmetry",
    "property_name",
    "deprecated",
    "deprecation_reasons",
    "last_updated",
    "origins",
    "warnings",
    "task_ids",
    "uncorrected_energy_per_atom",
    "equilibrium_reaction_energy_per_atom",
    "decomposes_to",
    "xas",
    "grain_boundaries",
    "cbm",
    "vbm",
    "is_gap_direct",
    "is_metal",
    "es_source_calc_id",
    "bandstructure",
    "dos",
    "dos_energy_up",
    "dos_energy_down",
    "is_magnetic",
    "ordering",
    "total_magnetization_normalized_vol",
    "total_magnetization_normalized_formula_units",
    "num_magnetic_sites",
    "num_unique_magnetic_sites",
    "types_of_magnetic_species",
    "bulk_modulus",
    "shear_modulus",
    "universal_anisotropy",
    "homogeneous_poisson",
    "e_total",
    "e_ionic",
    "e_electronic",
    "n",
    "e_ij_max",
    "weighted_surface_energy_EV_PER_ANG2",
    "weighted_surface_energy",
    "weighted_work_function",
    "surface_anisotropy",
    "shape_factor",
    "has_reconstructed",
    "possible_species",
    "has_props",
    "theoretical",
    "database_IDs"
  ]
}
