{"builder_meta": null, "nsites": null, "elements": null, "nelements": null, "composition": null, "composition_reduced": null, "formula_pretty": "RhPb2", "formula_anonymous": "AB2", "chemsys": null, "volume": 133.4123147683269, "density": 12.87746177867803, "density_atomic": 22.23538579472115, "symmetry": null, "property_name": null, "material_id": "mp-321", "deprecated": null, "deprecation_reasons": null, "last_updated": null, "origins": null, "warnings": null, "structure": {"@module": "pymatgen.core.structure", "@class": "Structure", "charge": 0, "lattice": {"matrix": [[5.37658451, -0.01440568, -1.55520196], [-3.04167972, 4.43351491, -1.55520196], [0.00761199, 0.01440569, 5.59698647]], "pbc": [true, true, true], "a": 5.597010063701515, "b": 5.597010194080356, "c": 5.597010185059448, "alpha": 106.05512814243824, "beta": 106.05512019429777, "gamma": 116.54341036571488, "volume": 133.4123147683269}, "properties": {}, "sites": [{"species": [{"element": "Rh", "occu": 1}], "abc": [0.75, 0.75, -0.0], "properties": {"magmom": -0.0}, "label": "Rh", "xyz": [1.7511785924999996, 3.3143319225000005, -2.33280294]}, {"species": [{"element": "Rh", "occu": 1}], "abc": [0.25, 0.25, -0.0], "properties": {"magmom": -0.0}, "label": "Rh", "xyz": [0.5837261975, 1.1047773075, -0.77760098]}, {"species": [{"element": "Pb", "occu": 1}], "abc": [0.83461483, 0.66538517, 0.5], "properties": {"magmom": 0.0}, "label": "Pb", "xyz": [2.4672945842165315, 2.9451747229236505, 0.46569029500000036]}, {"species": [{"element": "Pb", "occu": 1}], "abc": [0.33461483000000003, 0.83461483, 0.16923066], "properties": {"magmom": 0.0}, "label": "Pb", "xyz": [-0.7382579085363506, 3.6978948231743365, -0.8712065445929634]}, {"species": [{"element": "Pb", "occu": 1}], "abc": [0.16538517, 0.33461483000000003, 0.5], "properties": {"magmom": 0.0}, "label": "Pb", "xyz": [-0.12477780421653095, 1.48834019707635, 2.0208922549999997]}, {"species": [{"element": "Pb", "occu": 1}], "abc": [0.66538517, 0.16538517, 0.83076934], "properties": {"magmom": 0.0}, "label": "Pb", "xyz": [3.0807746885363505, 0.7356200968256638, 3.357789094592964]}]}, "task_ids": null, "uncorrected_energy_per_atom": null, "energy_per_atom": -45.67203751833333, "formation_energy_per_atom": -0.10320523499999901, "energy_above_hull": 0.0, "is_stable": true, "equilibrium_reaction_energy_per_atom": null, "decomposes_to": null, "xas": null, "grain_boundaries": null, "band_gap": 0.0, "cbm": null, "vbm": null, "efermi": 7.9265972300000005, "is_gap_direct": null, "is_metal": null, "es_source_calc_id": null, "bandstructure": null, "dos": null, "dos_energy_up": null, "dos_energy_down": null, "is_magnetic": null, "ordering": null, "total_magnetization": 0.0, "total_magnetization_normalized_vol": null, "total_magnetization_normalized_formula_units": null, "num_magnetic_sites": null, "num_unique_magnetic_sites": null, "types_of_magnetic_species": null, "bulk_modulus": null, "shear_modulus": null, "universal_anisotropy": null, "homogeneous_poisson": null, "e_total": null, "e_ionic": null, "e_electronic": null, "n": null, "e_ij_max": null, "weighted_surface_energy_EV_PER_ANG2": null, "weighted_surface_energy": null, "weighted_work_function": null, "surface_anisotropy": null, "shape_factor": null, "has_reconstructed": null, "possible_species": null, "has_props": null, "theoretical": null, "database_IDs": null, "fields_not_requested": ["builder_meta", "nsites", "elements", "nelements", "composition", "composition_reduced", "chemsys", "symmetry", "property_name", "deprecated", "deprecation_reasons", "last_updated", "origins", "warnings", "task_ids", "uncorrected_energy_per_atom", "equilibrium_reaction_energy_per_atom", "decomposes_to", "xas", "grain_boundaries", "cbm", "vbm", "is_gap_direct", "is_metal", "es_source_calc_id", "bandstructure", "dos", "dos_energy_up", "dos_energy_down", "is_magnetic", "ordering", "total_magnetization_normalized_vol", "total_magnetization_normalized_formula_units", "num_magnetic_sites", "num_unique_magnetic_sites", "types_of_magnetic_species", "bulk_modulus", "shear_modulus", "universal_anisotropy", "homogeneous_poisson", "e_total", "e_ionic", "e_electronic", "n", "e_ij_max", "weighted_surface_energy_EV_PER_ANG2", "weighted_surface_energy", "weighted_work_function", "surface_anisotropy", "shape_factor", "has_reconstructed", "possible_species", "has_props", "theoretical", "database_IDs"]}