{"builder_meta": null, "nsites": null, "elements": null, "nelements": null, "composition": null, "composition_reduced": null, "formula_pretty": "RhS", "formula_anonymous": "AB", "chemsys": null, "volume": 73.82746310759208, "density": 6.071555994329905, "density_atomic": 18.45686577689802, "symmetry": null, "property_name": null, "material_id": "mp-1186903", "deprecated": null, "deprecation_reasons": null, "last_updated": null, "origins": null, "warnings": null, "structure": {"@module": "pymatgen.core.structure", "@class": "Structure", "charge": 0, "lattice": {"matrix": [[1.820001, -3.152335, 0.0], [1.820001, 3.152335, 0.0], [0.0, 0.0, 6.434043]], "pbc": [true, true, true], "a": 3.6400026912388403, "b": 3.6400026912388403, "c": 6.434043, "alpha": 90.0, "beta": 90.0, "gamma": 120.00001256372481, "volume": 73.82746310759208}, "properties": {}, "sites": [{"species": [{"element": "Rh", "occu": 1}], "abc": [0.0, 0.0, 0.005831999999999], "properties": {"magmom": -0.023}, "label": "Rh", "xyz": [0.0, 0.0, 0.037523338775993564]}, {"species": [{"element": "Rh", "occu": 1}], "abc": [0.333333, 0.666666, 0.505831], "properties": {"magmom": 0.023}, "label": "Rh", "xyz": [1.8199991799989998, 1.050777282555, 3.254538404733]}, {"species": [{"element": "S", "occu": 1}], "abc": [0.0, 0.0, 0.369168], "properties": {"magmom": 0.0}, "label": "S", "xyz": [0.0, 0.0, 2.3752427862239998]}, {"species": [{"element": "S", "occu": 1}], "abc": [0.333333, 0.666666, 0.869169], "properties": {"magmom": -0.0}, "label": "S", "xyz": [1.8199991799989998, 1.050777282555, 5.592270720267]}]}, "task_ids": null, "uncorrected_energy_per_atom": null, "energy_per_atom": -16.423817840615943, "formation_energy_per_atom": -0.338203984522191, "energy_above_hull": 0.222628095652172, "is_stable": false, "equilibrium_reaction_energy_per_atom": null, "decomposes_to": null, "xas": null, "grain_boundaries": null, "band_gap": 0.0, "cbm": null, "vbm": null, "efermi": 5.30522624, "is_gap_direct": null, "is_metal": null, "es_source_calc_id": null, "bandstructure": null, "dos": null, "dos_energy_up": null, "dos_energy_down": null, "is_magnetic": null, "ordering": null, "total_magnetization": 0.0012986, "total_magnetization_normalized_vol": null, "total_magnetization_normalized_formula_units": null, "num_magnetic_sites": null, "num_unique_magnetic_sites": null, "types_of_magnetic_species": null, "bulk_modulus": null, "shear_modulus": null, "universal_anisotropy": null, "homogeneous_poisson": null, "e_total": null, "e_ionic": null, "e_electronic": null, "n": null, "e_ij_max": null, "weighted_surface_energy_EV_PER_ANG2": null, "weighted_surface_energy": null, "weighted_work_function": null, "surface_anisotropy": null, "shape_factor": null, "has_reconstructed": null, "possible_species": null, "has_props": null, "theoretical": null, "database_IDs": null, "fields_not_requested": ["builder_meta", "nsites", "elements", "nelements", "composition", "composition_reduced", "chemsys", "symmetry", "property_name", "deprecated", "deprecation_reasons", "last_updated", "origins", "warnings", "task_ids", "uncorrected_energy_per_atom", "equilibrium_reaction_energy_per_atom", "decomposes_to", "xas", "grain_boundaries", "cbm", "vbm", "is_gap_direct", "is_metal", "es_source_calc_id", "bandstructure", "dos", "dos_energy_up", "dos_energy_down", "is_magnetic", "ordering", "total_magnetization_normalized_vol", "total_magnetization_normalized_formula_units", "num_magnetic_sites", "num_unique_magnetic_sites", "types_of_magnetic_species", "bulk_modulus", "shear_modulus", "universal_anisotropy", "homogeneous_poisson", "e_total", "e_ionic", "e_electronic", "n", "e_ij_max", "weighted_surface_energy_EV_PER_ANG2", "weighted_surface_energy", "weighted_work_function", "surface_anisotropy", "shape_factor", "has_reconstructed", "possible_species", "has_props", "theoretical", "database_IDs"]}