{
  "builder_meta": null,
  "nsites": null,
  "elements": null,
  "nelements": null,
  "composition": null,
  "composition_reduced": null,
  "formula_pretty": "RhS2",
  "formula_anonymous": "AB2",
  "chemsys": null,
  "volume": 188.1063755320369,
  "density": 5.898130193079496,
  "density_atomic": 15.675531294336409,
  "symmetry": null,
  "property_name": null,
  "material_id": "mp-22555",
  "deprecated": null,
  "deprecation_reasons": null,
  "last_updated": null,
  "origins": null,
  "warnings": null,
  "structure": {
    "@module": "pymatgen.core.structure",
    "@class": "Structure",
    "charge": 0,
    "lattice": {
      "matrix": [
        [5.73014691, -6.498e-5, 6.026e-5],
        [-6.500000000000001e-5, 5.72985766, 9.845000000000001e-5],
        [6.026e-5, 9.844e-5, 5.72919924]
      ],
      "pbc": [true, true, true],
      "a": 5.730146910685294,
      "b": 5.729857661214464,
      "c": 5.729199241162615,
      "alpha": 89.9980310898254,
      "beta": 89.99879483116456,
      "gamma": 90.00129969339643,
      "volume": 188.1063755320369
    },
    "properties": {},
    "sites": [
      {
        "species": [{ "element": "Rh", "occu": 1 }],
        "abc": [1.879999999999999e-6, 0.5000109500000001, 0.50000443],
        "properties": { "magmom": 0.001 },
        "label": "Rh",
        "xyz": [8.402231392599992e-6, 2.8650407922553045, 2.8646742265439493]
      },
      {
        "species": [{ "element": "Rh", "occu": 1 }],
        "abc": [0.49999976, 0.5000107, -4.299999999999998e-7],
        "properties": { "magmom": 0.001 },
        "label": "Rh",
        "xyz": [2.86503957904333, 2.8649576494502287, 7.689248327940001e-5]
      },
      {
        "species": [{ "element": "Rh", "occu": 1 }],
        "abc": [0.49999471, -1.4750000000000003e-5, 0.49999799],
        "properties": { "magmom": 0.001 },
        "label": "Rh",
        "xyz": [2.8650732733604736, -6.778525460520002e-5, 2.8646182325386147]
      },
      {
        "species": [{ "element": "Rh", "occu": 1 }],
        "abc": [-2.7e-6, -1.284e-5, -2.809999999999999e-6],
        "properties": { "magmom": 0.001 },
        "label": "Rh",
        "xyz": [
          -1.54707313876e-5, -7.357147352480001e-5, -1.6100476664399993e-5
        ]
      },
      {
        "species": [{ "element": "S", "occu": 1 }],
        "abc": [0.39230946, 0.10757055, 0.89214967],
        "properties": { "magmom": 0.0 },
        "label": "S",
        "xyz": [2.248037608836133, 0.616426270852717, 5.111337442218957]
      },
      {
        "species": [{ "element": "S", "occu": 1 }],
        "abc": [0.10774818, 0.8922675600000001, 0.39240592],
        "properties": { "magmom": 0.0 },
        "label": "S",
        "xyz": [0.6173785496744629, 5.112597740397539, 2.2482660352821093]
      },
      {
        "species": [{ "element": "S", "occu": 1 }],
        "abc": [0.89239631, 0.39230278, 0.10784103],
        "properties": { "magmom": 0.0 },
        "label": "S",
        "xyz": [5.11354295706167, 2.2477917169810646, 0.6179351451271488]
      },
      {
        "species": [{ "element": "S", "occu": 1 }],
        "abc": [0.60774993, 0.60780894, 0.60752912],
        "properties": { "magmom": 0.0 },
        "label": "S",
        "xyz": [3.482493485565888, 3.4826790242516017, 3.4807518343827937]
      },
      {
        "species": [{ "element": "S", "occu": 1 }],
        "abc": [0.39224846, 0.39220954, 0.39246766],
        "properties": { "magmom": 0.0 },
        "label": "S",
        "xyz": [2.2476394575023506, 2.2473179833055967, 2.248587669317991]
      },
      {
        "species": [{ "element": "S", "occu": 1 }],
        "abc": [0.10760526000000001, 0.60771366, 0.89215928],
        "properties": { "magmom": 0.0 },
        "label": "S",
        "xyz": [0.6166082082190595, 3.4821936018073645, 5.111424582637742]
      },
      {
        "species": [{ "element": "S", "occu": 1 }],
        "abc": [0.89225716, 0.10771749, 0.60759723],
        "properties": { "magmom": 0.0 },
        "label": "S",
        "xyz": [5.1127942204716055, 0.6172077181935378, 3.4811099605454574]
      },
      {
        "species": [{ "element": "S", "occu": 1 }],
        "abc": [0.60769258, 0.89241642, 0.10785089],
        "properties": { "magmom": 0.0 },
        "label": "S",
        "xyz": [3.482116251544259, 5.113390189024541, 0.6180237149727434]
      }
    ]
  },
  "task_ids": null,
  "uncorrected_energy_per_atom": null,
  "energy_per_atom": -13.8662713225,
  "formation_energy_per_atom": -0.46419572437500006,
  "energy_above_hull": 0.045008807864585006,
  "is_stable": false,
  "equilibrium_reaction_energy_per_atom": null,
  "decomposes_to": null,
  "xas": null,
  "grain_boundaries": null,
  "band_gap": 0.0,
  "cbm": null,
  "vbm": null,
  "efermi": 7.70502005,
  "is_gap_direct": null,
  "is_metal": null,
  "es_source_calc_id": null,
  "bandstructure": null,
  "dos": null,
  "dos_energy_up": null,
  "dos_energy_down": null,
  "is_magnetic": null,
  "ordering": null,
  "total_magnetization": 0.003079299999999,
  "total_magnetization_normalized_vol": null,
  "total_magnetization_normalized_formula_units": null,
  "num_magnetic_sites": null,
  "num_unique_magnetic_sites": null,
  "types_of_magnetic_species": null,
  "bulk_modulus": null,
  "shear_modulus": null,
  "universal_anisotropy": null,
  "homogeneous_poisson": null,
  "e_total": null,
  "e_ionic": null,
  "e_electronic": null,
  "n": null,
  "e_ij_max": null,
  "weighted_surface_energy_EV_PER_ANG2": null,
  "weighted_surface_energy": null,
  "weighted_work_function": null,
  "surface_anisotropy": null,
  "shape_factor": null,
  "has_reconstructed": null,
  "possible_species": null,
  "has_props": null,
  "theoretical": null,
  "database_IDs": null,
  "fields_not_requested": [
    "builder_meta",
    "nsites",
    "elements",
    "nelements",
    "composition",
    "composition_reduced",
    "chemsys",
    "symmetry",
    "property_name",
    "deprecated",
    "deprecation_reasons",
    "last_updated",
    "origins",
    "warnings",
    "task_ids",
    "uncorrected_energy_per_atom",
    "equilibrium_reaction_energy_per_atom",
    "decomposes_to",
    "xas",
    "grain_boundaries",
    "cbm",
    "vbm",
    "is_gap_direct",
    "is_metal",
    "es_source_calc_id",
    "bandstructure",
    "dos",
    "dos_energy_up",
    "dos_energy_down",
    "is_magnetic",
    "ordering",
    "total_magnetization_normalized_vol",
    "total_magnetization_normalized_formula_units",
    "num_magnetic_sites",
    "num_unique_magnetic_sites",
    "types_of_magnetic_species",
    "bulk_modulus",
    "shear_modulus",
    "universal_anisotropy",
    "homogeneous_poisson",
    "e_total",
    "e_ionic",
    "e_electronic",
    "n",
    "e_ij_max",
    "weighted_surface_energy_EV_PER_ANG2",
    "weighted_surface_energy",
    "weighted_work_function",
    "surface_anisotropy",
    "shape_factor",
    "has_reconstructed",
    "possible_species",
    "has_props",
    "theoretical",
    "database_IDs"
  ]
}
