{
  "builder_meta": null,
  "nsites": null,
  "elements": null,
  "nelements": null,
  "composition": null,
  "composition_reduced": null,
  "formula_pretty": "RhSe2",
  "formula_anonymous": "AB2",
  "chemsys": null,
  "volume": 471.786641303798,
  "density": 7.344183058995681,
  "density_atomic": 19.65777672099158,
  "symmetry": null,
  "property_name": null,
  "material_id": "mp-1192175",
  "deprecated": null,
  "deprecation_reasons": null,
  "last_updated": null,
  "origins": null,
  "warnings": null,
  "structure": {
    "@module": "pymatgen.core.structure",
    "@class": "Structure",
    "charge": 0,
    "lattice": {
      "matrix": [
        [0.0, 3.72899249, -0.0],
        [0.0, -0.0, 5.9953686],
        [21.10271054, 0.0, 0.0]
      ],
      "pbc": [true, true, true],
      "a": 3.72899249,
      "b": 5.9953686,
      "c": 21.10271054,
      "alpha": 90.0,
      "beta": 90.0,
      "gamma": 90.0,
      "volume": 471.786641303798
    },
    "properties": {},
    "sites": [
      {
        "species": [{ "element": "Rh", "occu": 1 }],
        "abc": [0.25, 0.07459657, 0.57554433],
        "properties": { "magmom": -0.0 },
        "label": "Rh",
        "xyz": [12.14554539892824, 0.9322481225, 0.447233933445702]
      },
      {
        "species": [{ "element": "Rh", "occu": 1 }],
        "abc": [0.25, 0.42540343, 0.07554433],
        "properties": { "magmom": -0.0 },
        "label": "Rh",
        "xyz": [1.5941901289282383, 0.9322481225, 2.550450366554298]
      },
      {
        "species": [{ "element": "Rh", "occu": 1 }],
        "abc": [0.75, 0.92540343, 0.42445567],
        "properties": { "magmom": -0.0 },
        "label": "Rh",
        "xyz": [8.957165141071762, 2.7967443675, 5.548134666554298]
      },
      {
        "species": [{ "element": "Rh", "occu": 1 }],
        "abc": [0.75, 0.57459657, 0.9244556700000001],
        "properties": { "magmom": -0.0 },
        "label": "Rh",
        "xyz": [19.508520411071764, 2.7967443675, 3.444918233445702]
      },
      {
        "species": [{ "element": "Rh", "occu": 1 }],
        "abc": [0.25, 0.05615897, 0.80530047],
        "properties": { "magmom": 0.0 },
        "label": "Rh",
        "xyz": [16.994022716135955, 0.9322481225, 0.336693725346342]
      },
      {
        "species": [{ "element": "Rh", "occu": 1 }],
        "abc": [0.25, 0.44384103, 0.30530047],
        "properties": { "magmom": 0.0 },
        "label": "Rh",
        "xyz": [6.442667446135954, 0.9322481225, 2.660990574653658]
      },
      {
        "species": [{ "element": "Rh", "occu": 1 }],
        "abc": [0.75, 0.94384103, 0.19469953],
        "properties": { "magmom": 0.0 },
        "label": "Rh",
        "xyz": [4.108687823864046, 2.7967443675, 5.6586748746536575]
      },
      {
        "species": [{ "element": "Rh", "occu": 1 }],
        "abc": [0.75, 0.55615897, 0.6946995300000001],
        "properties": { "magmom": 0.0 },
        "label": "Rh",
        "xyz": [14.660043093864047, 2.7967443675, 3.334378025346342]
      },
      {
        "species": [{ "element": "Se", "occu": 1 }],
        "abc": [0.25, 0.43028821, 0.8597202700000001],
        "properties": { "magmom": 0.0 },
        "label": "Se",
        "xyz": [18.142428003180648, 0.9322481225, 2.579736423184206]
      },
      {
        "species": [{ "element": "Se", "occu": 1 }],
        "abc": [0.25, 0.06971179, 0.35972027],
        "properties": { "magmom": 0.0 },
        "label": "Se",
        "xyz": [7.5910727331806465, 0.9322481225, 0.417947876815794]
      },
      {
        "species": [{ "element": "Se", "occu": 1 }],
        "abc": [0.75, 0.56971179, 0.14027973],
        "properties": { "magmom": 0.0 },
        "label": "Se",
        "xyz": [2.960282536819354, 2.7967443675, 3.4156321768157945]
      },
      {
        "species": [{ "element": "Se", "occu": 1 }],
        "abc": [0.75, 0.9302882100000001, 0.64027973],
        "properties": { "magmom": 0.0 },
        "label": "Se",
        "xyz": [13.511637806819355, 2.7967443675, 5.577420723184206]
      },
      {
        "species": [{ "element": "Se", "occu": 1 }],
        "abc": [0.75, 0.17925669, 0.73667013],
        "properties": { "magmom": -0.0 },
        "label": "Se",
        "xyz": [15.545736516854172, 2.7967443675, 1.074709930565934]
      },
      {
        "species": [{ "element": "Se", "occu": 1 }],
        "abc": [0.75, 0.32074331, 0.23667013],
        "properties": { "magmom": -0.0 },
        "label": "Se",
        "xyz": [4.994381246854171, 2.7967443675, 1.922974369434066]
      },
      {
        "species": [{ "element": "Se", "occu": 1 }],
        "abc": [0.25, 0.82074331, 0.26332987],
        "properties": { "magmom": -0.0 },
        "label": "Se",
        "xyz": [5.55697402314583, 0.9322481225, 4.920658669434066]
      },
      {
        "species": [{ "element": "Se", "occu": 1 }],
        "abc": [0.25, 0.67925669, 0.76332987],
        "properties": { "magmom": -0.0 },
        "label": "Se",
        "xyz": [16.10832929314583, 0.9322481225, 4.0723942305659335]
      },
      {
        "species": [{ "element": "Se", "occu": 1 }],
        "abc": [0.75, 0.95277866, 0.87858256],
        "properties": { "magmom": 0.0 },
        "label": "Se",
        "xyz": [18.540473449172183, 2.7967443675, 5.712259260914076]
      },
      {
        "species": [{ "element": "Se", "occu": 1 }],
        "abc": [0.75, 0.54722134, 0.37858256],
        "properties": { "magmom": 0.0 },
        "label": "Se",
        "xyz": [7.989118179172182, 2.7967443675, 3.280793639085924]
      },
      {
        "species": [{ "element": "Se", "occu": 1 }],
        "abc": [0.25, 0.04722134, 0.12141744],
        "properties": { "magmom": 0.0 },
        "label": "Se",
        "xyz": [2.562237090827818, 0.9322481225, 0.283109339085924]
      },
      {
        "species": [{ "element": "Se", "occu": 1 }],
        "abc": [0.25, 0.45277866, 0.62141744],
        "properties": { "magmom": 0.0 },
        "label": "Se",
        "xyz": [13.113592360827818, 0.9322481225, 2.714574960914076]
      },
      {
        "species": [{ "element": "Se", "occu": 1 }],
        "abc": [0.75, 0.2238048, 0.50730495],
        "properties": { "magmom": 0.0 },
        "label": "Se",
        "xyz": [10.705509515359173, 2.7967443675, 1.34179227044928]
      },
      {
        "species": [{ "element": "Se", "occu": 1 }],
        "abc": [0.75, 0.2761952, 0.00730495],
        "properties": { "magmom": 0.0 },
        "label": "Se",
        "xyz": [0.154154245359173, 2.7967443675, 1.6558920295507198]
      },
      {
        "species": [{ "element": "Se", "occu": 1 }],
        "abc": [0.25, 0.7761952, 0.49269505],
        "properties": { "magmom": 0.0 },
        "label": "Se",
        "xyz": [10.397201024640827, 0.9322481225, 4.65357632955072]
      },
      {
        "species": [{ "element": "Se", "occu": 1 }],
        "abc": [0.25, 0.723804799999999, 0.99269505],
        "properties": { "magmom": 0.0 },
        "label": "Se",
        "xyz": [20.948556294640827, 0.9322481225, 4.339476570449274]
      }
    ]
  },
  "task_ids": null,
  "uncorrected_energy_per_atom": null,
  "energy_per_atom": -18.10270933,
  "formation_energy_per_atom": -0.5162596327083331,
  "energy_above_hull": 0.0,
  "is_stable": true,
  "equilibrium_reaction_energy_per_atom": null,
  "decomposes_to": null,
  "xas": null,
  "grain_boundaries": null,
  "band_gap": 0.0,
  "cbm": null,
  "vbm": null,
  "efermi": 4.92983096,
  "is_gap_direct": null,
  "is_metal": null,
  "es_source_calc_id": null,
  "bandstructure": null,
  "dos": null,
  "dos_energy_up": null,
  "dos_energy_down": null,
  "is_magnetic": null,
  "ordering": null,
  "total_magnetization": 1e-7,
  "total_magnetization_normalized_vol": null,
  "total_magnetization_normalized_formula_units": null,
  "num_magnetic_sites": null,
  "num_unique_magnetic_sites": null,
  "types_of_magnetic_species": null,
  "bulk_modulus": null,
  "shear_modulus": null,
  "universal_anisotropy": null,
  "homogeneous_poisson": null,
  "e_total": null,
  "e_ionic": null,
  "e_electronic": null,
  "n": null,
  "e_ij_max": null,
  "weighted_surface_energy_EV_PER_ANG2": null,
  "weighted_surface_energy": null,
  "weighted_work_function": null,
  "surface_anisotropy": null,
  "shape_factor": null,
  "has_reconstructed": null,
  "possible_species": null,
  "has_props": null,
  "theoretical": null,
  "database_IDs": null,
  "fields_not_requested": [
    "builder_meta",
    "nsites",
    "elements",
    "nelements",
    "composition",
    "composition_reduced",
    "chemsys",
    "symmetry",
    "property_name",
    "deprecated",
    "deprecation_reasons",
    "last_updated",
    "origins",
    "warnings",
    "task_ids",
    "uncorrected_energy_per_atom",
    "equilibrium_reaction_energy_per_atom",
    "decomposes_to",
    "xas",
    "grain_boundaries",
    "cbm",
    "vbm",
    "is_gap_direct",
    "is_metal",
    "es_source_calc_id",
    "bandstructure",
    "dos",
    "dos_energy_up",
    "dos_energy_down",
    "is_magnetic",
    "ordering",
    "total_magnetization_normalized_vol",
    "total_magnetization_normalized_formula_units",
    "num_magnetic_sites",
    "num_unique_magnetic_sites",
    "types_of_magnetic_species",
    "bulk_modulus",
    "shear_modulus",
    "universal_anisotropy",
    "homogeneous_poisson",
    "e_total",
    "e_ionic",
    "e_electronic",
    "n",
    "e_ij_max",
    "weighted_surface_energy_EV_PER_ANG2",
    "weighted_surface_energy",
    "weighted_work_function",
    "surface_anisotropy",
    "shape_factor",
    "has_reconstructed",
    "possible_species",
    "has_props",
    "theoretical",
    "database_IDs"
  ]
}
