{
  "builder_meta": null,
  "nsites": null,
  "elements": null,
  "nelements": null,
  "composition": null,
  "composition_reduced": null,
  "formula_pretty": "Ru2W3",
  "formula_anonymous": "A2B3",
  "chemsys": null,
  "volume": 462.6587366257022,
  "density": 16.22987018977951,
  "density_atomic": 15.421957887523407,
  "symmetry": null,
  "property_name": null,
  "material_id": "mp-1219644",
  "deprecated": null,
  "deprecation_reasons": null,
  "last_updated": null,
  "origins": null,
  "warnings": null,
  "structure": {
    "@module": "pymatgen.core.structure",
    "@class": "Structure",
    "charge": 0,
    "lattice": {
      "matrix": [
        [0.0, 0.0, 4.981148],
        [9.637569, -0.028050000000000002, 0.0],
        [-0.028050000000000002, 9.637569, 0.0]
      ],
      "pbc": [true, true, true],
      "a": 4.981148,
      "b": 9.637609819465665,
      "c": 9.637609819465665,
      "alpha": 90.33351607181437,
      "beta": 90.0,
      "gamma": 90.0,
      "volume": 462.6587366257022
    },
    "properties": {},
    "sites": [
      {
        "species": [{ "element": "Ru", "occu": 1 }],
        "abc": [0.50814, 0.5, 0.5],
        "properties": { "magmom": -0.0 },
        "label": "Ru",
        "xyz": [4.804759499999999, 4.804759499999999, 2.5311205447200003]
      },
      {
        "species": [{ "element": "Ru", "occu": 1 }],
        "abc": [0.001004, 0.0, 0.0],
        "properties": { "magmom": 0.0 },
        "label": "Ru",
        "xyz": [0.0, 0.0, 0.005001072592]
      },
      {
        "species": [{ "element": "Ru", "occu": 1 }],
        "abc": [0.49828599999999906, 0.433695999999999, 0.235676],
        "properties": { "magmom": -0.0 },
        "label": "Ru",
        "xyz": [4.173164413223991, 2.2591785388439996, 2.4820363123279954]
      },
      {
        "species": [{ "element": "Ru", "occu": 1 }],
        "abc": [0.49828599999999906, 0.566304, 0.764324],
        "properties": { "magmom": -0.0 },
        "label": "Ru",
        "xyz": [5.436354586776, 7.350340461156, 2.4820363123279954]
      },
      {
        "species": [{ "element": "Ru", "occu": 1 }],
        "abc": [0.000932, 0.067858, 0.736317999999999],
        "properties": { "magmom": -0.0 },
        "label": "Ru",
        "xyz": [0.633332437302, 7.094412114041989, 0.004642429936]
      },
      {
        "species": [{ "element": "Ru", "occu": 1 }],
        "abc": [0.000932, 0.932141999999999, 0.26368199999999903],
        "properties": { "magmom": -0.0 },
        "label": "Ru",
        "xyz": [8.97618656269799, 2.5151068859579904, 0.004642429936]
      },
      {
        "species": [{ "element": "Ru", "occu": 1 }],
        "abc": [0.49828599999999906, 0.235676, 0.433695999999999],
        "properties": { "magmom": -0.0 },
        "label": "Ru",
        "xyz": [2.2591785388439996, 4.173164413223991, 2.4820363123279954]
      },
      {
        "species": [{ "element": "Ru", "occu": 1 }],
        "abc": [0.49828599999999906, 0.764324, 0.566304],
        "properties": { "magmom": -0.0 },
        "label": "Ru",
        "xyz": [7.350340461156, 5.436354586776, 2.4820363123279954]
      },
      {
        "species": [{ "element": "Ru", "occu": 1 }],
        "abc": [0.000932, 0.736317999999999, 0.067858],
        "properties": { "magmom": -0.0 },
        "label": "Ru",
        "xyz": [7.094412114041989, 0.633332437302, 0.004642429936]
      },
      {
        "species": [{ "element": "Ru", "occu": 1 }],
        "abc": [0.000932, 0.26368199999999903, 0.932141999999999],
        "properties": { "magmom": -0.0 },
        "label": "Ru",
        "xyz": [2.5151068859579904, 8.97618656269799, 0.004642429936]
      },
      {
        "species": [{ "element": "Ru", "occu": 1 }],
        "abc": [0.250324, 0.317726, 0.682273999999999],
        "properties": { "magmom": -0.0 },
        "label": "Ru",
        "xyz": [3.042968462394, 6.566550537605989, 1.246900891952]
      },
      {
        "species": [{ "element": "Ru", "occu": 1 }],
        "abc": [0.250324, 0.682273999999999, 0.317726],
        "properties": { "magmom": -0.0 },
        "label": "Ru",
        "xyz": [6.566550537605989, 3.042968462394, 1.246900891952]
      },
      {
        "species": [{ "element": "W", "occu": 1 }],
        "abc": [0.498339, 0.102344999999999, 0.897655],
        "properties": { "magmom": -0.0 },
        "label": "W",
        "xyz": [0.9611777765549904, 8.648341223445, 2.482300313172]
      },
      {
        "species": [{ "element": "W", "occu": 1 }],
        "abc": [0.498339, 0.897655, 0.102344999999999],
        "properties": { "magmom": -0.0 },
        "label": "W",
        "xyz": [8.648341223445, 0.9611777765549904, 2.482300313172]
      },
      {
        "species": [{ "element": "W", "occu": 1 }],
        "abc": [0.999046, 0.397088999999999, 0.397088999999999],
        "properties": { "magmom": -0.0 },
        "label": "W",
        "xyz": [3.81583429019099, 3.81583429019099, 4.976395984808]
      },
      {
        "species": [{ "element": "W", "occu": 1 }],
        "abc": [0.999046, 0.602911, 0.602911],
        "properties": { "magmom": -0.0 },
        "label": "W",
        "xyz": [5.793684709808999, 5.793684709808999, 4.976395984808]
      },
      {
        "species": [{ "element": "W", "occu": 1 }],
        "abc": [0.498525, 0.370372, 0.9603900000000001],
        "properties": { "magmom": 0.0 },
        "label": "W",
        "xyz": [3.5425467661679995, 9.24543595731, 2.4832268067]
      },
      {
        "species": [{ "element": "W", "occu": 1 }],
        "abc": [0.498525, 0.629628, 0.039610000000000006],
        "properties": { "magmom": 0.0 },
        "label": "W",
        "xyz": [6.066972233831999, 0.36408304269, 2.4832268067]
      },
      {
        "species": [{ "element": "W", "occu": 1 }],
        "abc": [0.0014429999999990002, 0.131768, 0.464603],
        "properties": { "magmom": 0.0 },
        "label": "W",
        "xyz": [1.2568910778419997, 4.473947377706999, 0.00718779656399502]
      },
      {
        "species": [{ "element": "W", "occu": 1 }],
        "abc": [0.0014429999999990002, 0.868232, 0.535397],
        "properties": { "magmom": 0.0 },
        "label": "W",
        "xyz": [8.352627922158, 5.135571622293, 0.00718779656399502]
      },
      {
        "species": [{ "element": "W", "occu": 1 }],
        "abc": [0.498525, 0.9603900000000001, 0.370372],
        "properties": { "magmom": 0.0 },
        "label": "W",
        "xyz": [9.24543595731, 3.5425467661679995, 2.4832268067]
      },
      {
        "species": [{ "element": "W", "occu": 1 }],
        "abc": [0.498525, 0.039610000000000006, 0.629628],
        "properties": { "magmom": 0.0 },
        "label": "W",
        "xyz": [0.36408304269, 6.066972233831999, 2.4832268067]
      },
      {
        "species": [{ "element": "W", "occu": 1 }],
        "abc": [0.0014429999999990002, 0.464603, 0.131768],
        "properties": { "magmom": 0.0 },
        "label": "W",
        "xyz": [4.473947377706999, 1.2568910778419997, 0.00718779656399502]
      },
      {
        "species": [{ "element": "W", "occu": 1 }],
        "abc": [0.0014429999999990002, 0.535397, 0.868232],
        "properties": { "magmom": 0.0 },
        "label": "W",
        "xyz": [5.135571622293, 8.352627922158, 0.00718779656399502]
      },
      {
        "species": [{ "element": "W", "occu": 1 }],
        "abc": [0.7488800000000001, 0.180895, 0.180895],
        "properties": { "magmom": 0.0 },
        "label": "W",
        "xyz": [1.7383139395049998, 1.7383139395049998, 3.7302821142400004]
      },
      {
        "species": [{ "element": "W", "occu": 1 }],
        "abc": [0.7488800000000001, 0.819105, 0.819105],
        "properties": { "magmom": 0.0 },
        "label": "W",
        "xyz": [7.871205060494999, 7.871205060494999, 3.7302821142400004]
      },
      {
        "species": [{ "element": "W", "occu": 1 }],
        "abc": [0.749772, 0.680678999999999, 0.319320999999999],
        "properties": { "magmom": -0.0 },
        "label": "W",
        "xyz": [6.55113387530099, 3.05838512469899, 3.734725298256]
      },
      {
        "species": [{ "element": "W", "occu": 1 }],
        "abc": [0.749772, 0.319320999999999, 0.680678999999999],
        "properties": { "magmom": -0.0 },
        "label": "W",
        "xyz": [3.05838512469899, 6.55113387530099, 3.734725298256]
      },
      {
        "species": [{ "element": "W", "occu": 1 }],
        "abc": [0.250694, 0.817824, 0.817824],
        "properties": { "magmom": 0.0 },
        "label": "W",
        "xyz": [7.858895266656, 7.858895266656, 1.2487439167119998]
      },
      {
        "species": [{ "element": "W", "occu": 1 }],
        "abc": [0.250694, 0.182176, 0.182176],
        "properties": { "magmom": 0.0 },
        "label": "W",
        "xyz": [1.7506237333439998, 1.7506237333439998, 1.2487439167119998]
      }
    ]
  },
  "task_ids": null,
  "uncorrected_energy_per_atom": null,
  "energy_per_atom": -40.931260740666666,
  "formation_energy_per_atom": 0.059230005333332,
  "energy_above_hull": 0.082516478666669,
  "is_stable": false,
  "equilibrium_reaction_energy_per_atom": null,
  "decomposes_to": null,
  "xas": null,
  "grain_boundaries": null,
  "band_gap": 0.0,
  "cbm": null,
  "vbm": null,
  "efermi": 7.5020634,
  "is_gap_direct": null,
  "is_metal": null,
  "es_source_calc_id": null,
  "bandstructure": null,
  "dos": null,
  "dos_energy_up": null,
  "dos_energy_down": null,
  "is_magnetic": null,
  "ordering": null,
  "total_magnetization": 0.0007084,
  "total_magnetization_normalized_vol": null,
  "total_magnetization_normalized_formula_units": null,
  "num_magnetic_sites": null,
  "num_unique_magnetic_sites": null,
  "types_of_magnetic_species": null,
  "bulk_modulus": null,
  "shear_modulus": null,
  "universal_anisotropy": null,
  "homogeneous_poisson": null,
  "e_total": null,
  "e_ionic": null,
  "e_electronic": null,
  "n": null,
  "e_ij_max": null,
  "weighted_surface_energy_EV_PER_ANG2": null,
  "weighted_surface_energy": null,
  "weighted_work_function": null,
  "surface_anisotropy": null,
  "shape_factor": null,
  "has_reconstructed": null,
  "possible_species": null,
  "has_props": null,
  "theoretical": null,
  "database_IDs": null,
  "fields_not_requested": [
    "builder_meta",
    "nsites",
    "elements",
    "nelements",
    "composition",
    "composition_reduced",
    "chemsys",
    "symmetry",
    "property_name",
    "deprecated",
    "deprecation_reasons",
    "last_updated",
    "origins",
    "warnings",
    "task_ids",
    "uncorrected_energy_per_atom",
    "equilibrium_reaction_energy_per_atom",
    "decomposes_to",
    "xas",
    "grain_boundaries",
    "cbm",
    "vbm",
    "is_gap_direct",
    "is_metal",
    "es_source_calc_id",
    "bandstructure",
    "dos",
    "dos_energy_up",
    "dos_energy_down",
    "is_magnetic",
    "ordering",
    "total_magnetization_normalized_vol",
    "total_magnetization_normalized_formula_units",
    "num_magnetic_sites",
    "num_unique_magnetic_sites",
    "types_of_magnetic_species",
    "bulk_modulus",
    "shear_modulus",
    "universal_anisotropy",
    "homogeneous_poisson",
    "e_total",
    "e_ionic",
    "e_electronic",
    "n",
    "e_ij_max",
    "weighted_surface_energy_EV_PER_ANG2",
    "weighted_surface_energy",
    "weighted_work_function",
    "surface_anisotropy",
    "shape_factor",
    "has_reconstructed",
    "possible_species",
    "has_props",
    "theoretical",
    "database_IDs"
  ]
}
