{"builder_meta": null, "nsites": null, "elements": null, "nelements": null, "composition": null, "composition_reduced": null, "formula_pretty": "Ru3Rh", "formula_anonymous": "AB3", "chemsys": null, "volume": 108.67554317068954, "density": 12.41071603833813, "density_atomic": 13.584442896336192, "symmetry": null, "property_name": null, "material_id": "mp-1186926", "deprecated": null, "deprecation_reasons": null, "last_updated": null, "origins": null, "warnings": null, "structure": {"@module": "pymatgen.core.structure", "@class": "Structure", "charge": 0, "lattice": {"matrix": [[5.41133128, 1.24e-06, -3.18e-06], [-2.7056650700000002, 4.6863489099999995, 4.25e-06], [-2.52e-06, 2.43e-06, 4.28541633]], "pbc": [true, true, true], "a": 5.411331280001076, "b": 5.411329742059188, "c": 4.28541633000143, "alpha": 89.99991001811232, "beta": 90.0000673624482, "gamma": 119.99998930339888, "volume": 108.67554317068951}, "properties": {}, "sites": [{"species": [{"element": "Ru", "occu": 1}], "abc": [0.16664386, 0.33329156, 0.25000121000000003], "properties": {"magmom": -0.0}, "label": "Ru", "xyz": [-1.0829782917691633e-05, 1.5619213530595262, 1.0713601544154148]}, {"species": [{"element": "Ru", "occu": 1}], "abc": [0.66671058, 0.83335636, 0.25000121000000003], "properties": {"magmom": 0.0}, "label": "Ru", "xyz": [1.353007992143548, 3.905400103551627, 1.0713606894786452]}, {"species": [{"element": "Ru", "occu": 1}], "abc": [0.16664421000000001, 0.83335344, 0.25000338], "properties": {"magmom": -0.0}, "label": "Ru", "xyz": [-1.3530088973769698, 3.9053857993357837, 1.0713715790307277]}, {"species": [{"element": "Ru", "occu": 1}], "abc": [0.83335338, 0.666710599999999, 0.75000124], "properties": {"magmom": -0.0}, "label": "Ru", "xyz": [2.705653740265862, 3.1244413494566454, 3.214067744872551]}, {"species": [{"element": "Ru", "occu": 1}], "abc": [0.33329177, 0.16664611000000001, 0.7500034], "properties": {"magmom": -0.0}, "label": "Ru", "xyz": [1.3526617314806195, 0.7809640517442968, 3.2140764662936614]}, {"species": [{"element": "Ru", "occu": 1}], "abc": [0.83335364, 0.16664472, 0.7500034], "properties": {"magmom": -0.0}, "label": "Ru", "xyz": [4.05866593142136, 0.7809581577960307, 3.214074876091007]}, {"species": [{"element": "Rh", "occu": 1}], "abc": [0.33333512, 0.66666881, 0.7499990400000001], "properties": {"magmom": -0.0}, "label": "Rh", "xyz": [2.359105505695509e-06, 3.1242448869077126, 3.2140599068370848]}, {"species": [{"element": "Rh", "occu": 1}], "abc": [0.66666844, 0.33333439, 0.24999912000000002], "properties": {"magmom": -0.0}, "label": "Rh", "xyz": [2.7056719371102633, 1.5621226894087419, 1.071349607999148]}]}, "task_ids": null, "uncorrected_energy_per_atom": null, "energy_per_atom": -25.10356781375, "formation_energy_per_atom": -0.0011091850000000002, "energy_above_hull": 0.0, "is_stable": true, "equilibrium_reaction_energy_per_atom": null, "decomposes_to": null, "xas": null, "grain_boundaries": null, "band_gap": 0.0, "cbm": null, "vbm": null, "efermi": 8.16513356, "is_gap_direct": null, "is_metal": null, "es_source_calc_id": null, "bandstructure": null, "dos": null, "dos_energy_up": null, "dos_energy_down": null, "is_magnetic": null, "ordering": null, "total_magnetization": 1e-07, "total_magnetization_normalized_vol": null, "total_magnetization_normalized_formula_units": null, "num_magnetic_sites": null, "num_unique_magnetic_sites": null, "types_of_magnetic_species": null, "bulk_modulus": null, "shear_modulus": null, "universal_anisotropy": null, "homogeneous_poisson": null, "e_total": null, "e_ionic": null, "e_electronic": null, "n": null, "e_ij_max": null, "weighted_surface_energy_EV_PER_ANG2": null, "weighted_surface_energy": null, "weighted_work_function": null, "surface_anisotropy": null, "shape_factor": null, "has_reconstructed": null, "possible_species": null, "has_props": null, "theoretical": null, "database_IDs": null, "fields_not_requested": ["builder_meta", "nsites", "elements", "nelements", "composition", "composition_reduced", "chemsys", "symmetry", "property_name", "deprecated", "deprecation_reasons", "last_updated", "origins", "warnings", "task_ids", "uncorrected_energy_per_atom", "equilibrium_reaction_energy_per_atom", "decomposes_to", "xas", "grain_boundaries", "cbm", "vbm", "is_gap_direct", "is_metal", "es_source_calc_id", "bandstructure", "dos", "dos_energy_up", "dos_energy_down", "is_magnetic", "ordering", "total_magnetization_normalized_vol", "total_magnetization_normalized_formula_units", "num_magnetic_sites", "num_unique_magnetic_sites", "types_of_magnetic_species", "bulk_modulus", "shear_modulus", "universal_anisotropy", "homogeneous_poisson", "e_total", "e_ionic", "e_electronic", "n", "e_ij_max", "weighted_surface_energy_EV_PER_ANG2", "weighted_surface_energy", "weighted_work_function", "surface_anisotropy", "shape_factor", "has_reconstructed", "possible_species", "has_props", "theoretical", "database_IDs"]}