{"builder_meta": null, "nsites": null, "elements": null, "nelements": null, "composition": null, "composition_reduced": null, "formula_pretty": "RuAu3", "formula_anonymous": "AB3", "chemsys": null, "volume": 68.38006532494207, "density": 16.803767675813184, "density_atomic": 17.095016331235517, "symmetry": null, "property_name": null, "material_id": "mp-974364", "deprecated": null, "deprecation_reasons": null, "last_updated": null, "origins": null, "warnings": null, "structure": {"@module": "pymatgen.core.structure", "@class": "Structure", "charge": 0, "lattice": {"matrix": [[-2.087846, 2.087846, 3.921684], [2.087846, -2.087846, 3.921684], [2.087846, 2.087846, -3.921684]], "pbc": [true, true, true], "a": 4.9089517450559645, "b": 4.9089517450559645, "c": 4.9089517450559645, "alpha": 129.6589170749382, "beta": 129.6589170749382, "gamma": 73.95263349242356, "volume": 68.38006532494207}, "properties": {}, "sites": [{"species": [{"element": "Ru", "occu": 1}], "abc": [0.0, 0.0, 0.0], "properties": {"magmom": 1.397}, "label": "Ru", "xyz": [0.0, 0.0, 0.0]}, {"species": [{"element": "Au", "occu": 1}], "abc": [0.75, 0.25, 0.5], "properties": {"magmom": 0.055}, "label": "Au", "xyz": [0.0, 2.087846, 1.960842]}, {"species": [{"element": "Au", "occu": 1}], "abc": [0.25, 0.75, 0.5], "properties": {"magmom": 0.055}, "label": "Au", "xyz": [2.087846, 0.0, 1.960842]}, {"species": [{"element": "Au", "occu": 1}], "abc": [0.5, 0.5, 0.0], "properties": {"magmom": 0.034}, "label": "Au", "xyz": [0.0, 0.0, 3.921684]}]}, "task_ids": null, "uncorrected_energy_per_atom": null, "energy_per_atom": -43.92906763875, "formation_energy_per_atom": 0.365786297500001, "energy_above_hull": 0.365786297500001, "is_stable": false, "equilibrium_reaction_energy_per_atom": null, "decomposes_to": null, "xas": null, "grain_boundaries": null, "band_gap": 0.0, "cbm": null, "vbm": null, "efermi": 5.52808193, "is_gap_direct": null, "is_metal": null, "es_source_calc_id": null, "bandstructure": null, "dos": null, "dos_energy_up": null, "dos_energy_down": null, "is_magnetic": null, "ordering": null, "total_magnetization": 1.550237, "total_magnetization_normalized_vol": null, "total_magnetization_normalized_formula_units": null, "num_magnetic_sites": null, "num_unique_magnetic_sites": null, "types_of_magnetic_species": null, "bulk_modulus": null, "shear_modulus": null, "universal_anisotropy": null, "homogeneous_poisson": null, "e_total": null, "e_ionic": null, "e_electronic": null, "n": null, "e_ij_max": null, "weighted_surface_energy_EV_PER_ANG2": null, "weighted_surface_energy": null, "weighted_work_function": null, "surface_anisotropy": null, "shape_factor": null, "has_reconstructed": null, "possible_species": null, "has_props": null, "theoretical": null, "database_IDs": null, "fields_not_requested": ["builder_meta", "nsites", "elements", "nelements", "composition", "composition_reduced", "chemsys", "symmetry", "property_name", "deprecated", "deprecation_reasons", "last_updated", "origins", "warnings", "task_ids", "uncorrected_energy_per_atom", "equilibrium_reaction_energy_per_atom", "decomposes_to", "xas", "grain_boundaries", "cbm", "vbm", "is_gap_direct", "is_metal", "es_source_calc_id", "bandstructure", "dos", "dos_energy_up", "dos_energy_down", "is_magnetic", "ordering", "total_magnetization_normalized_vol", "total_magnetization_normalized_formula_units", "num_magnetic_sites", "num_unique_magnetic_sites", "types_of_magnetic_species", "bulk_modulus", "shear_modulus", "universal_anisotropy", "homogeneous_poisson", "e_total", "e_ionic", "e_electronic", "n", "e_ij_max", "weighted_surface_energy_EV_PER_ANG2", "weighted_surface_energy", "weighted_work_function", "surface_anisotropy", "shape_factor", "has_reconstructed", "possible_species", "has_props", "theoretical", "database_IDs"]}