{
  "builder_meta": null,
  "nsites": null,
  "elements": null,
  "nelements": null,
  "composition": null,
  "composition_reduced": null,
  "formula_pretty": "RuBr3",
  "formula_anonymous": "AB3",
  "chemsys": null,
  "volume": 224.75694419123502,
  "density": 5.035500248771838,
  "density_atomic": 28.094618023904378,
  "symmetry": null,
  "property_name": null,
  "material_id": "mp-22892",
  "deprecated": null,
  "deprecation_reasons": null,
  "last_updated": null,
  "origins": null,
  "warnings": null,
  "structure": {
    "@module": "pymatgen.core.structure",
    "@class": "Structure",
    "charge": 0,
    "lattice": {
      "matrix": [
        [3.32440666, -5.75804138, -0.0],
        [3.32440666, 5.75804138, 0.0],
        [-0.0, -0.0, 5.87075826]
      ],
      "pbc": [true, true, true],
      "a": 6.648813441122007,
      "b": 6.648813441122007,
      "c": 5.87075826,
      "alpha": 90.0,
      "beta": 90.0,
      "gamma": 120.0000012052327,
      "volume": 224.75694419123502
    },
    "properties": {},
    "sites": [
      {
        "species": [{ "element": "Ru", "occu": 1 }],
        "abc": [-0.0, 0.0, 0.5],
        "properties": { "magmom": 0.291 },
        "label": "Ru",
        "xyz": [0.0, 0.0, 2.93537913]
      },
      {
        "species": [{ "element": "Ru", "occu": 1 }],
        "abc": [-0.0, 0.0, -0.0],
        "properties": { "magmom": 0.291 },
        "label": "Ru",
        "xyz": [0.0, 0.0, 0.0]
      },
      {
        "species": [{ "element": "Br", "occu": 1 }],
        "abc": [0.69536235, 0.0, 0.75],
        "properties": { "magmom": 0.033 },
        "label": "Br",
        "xyz": [2.3116672274532513, -4.003925185394043, 4.403068695]
      },
      {
        "species": [{ "element": "Br", "occu": 1 }],
        "abc": [0.69536235, 0.69536235, 0.25],
        "properties": { "magmom": 0.033 },
        "label": "Br",
        "xyz": [4.6233344549065025, 0.0, 1.467689565]
      },
      {
        "species": [{ "element": "Br", "occu": 1 }],
        "abc": [0.30463765, -0.0, 0.25],
        "properties": { "magmom": 0.033 },
        "label": "Br",
        "xyz": [1.012739432546749, -1.754116194605957, 1.467689565]
      },
      {
        "species": [{ "element": "Br", "occu": 1 }],
        "abc": [0.30463765, 0.30463765, 0.75],
        "properties": { "magmom": 0.033 },
        "label": "Br",
        "xyz": [2.025478865093498, 0.0, 4.403068695]
      },
      {
        "species": [{ "element": "Br", "occu": 1 }],
        "abc": [0.0, 0.69536235, 0.75],
        "properties": { "magmom": 0.033 },
        "label": "Br",
        "xyz": [2.3116672274532513, 4.003925185394043, 4.403068695]
      },
      {
        "species": [{ "element": "Br", "occu": 1 }],
        "abc": [-0.0, 0.30463765, 0.25],
        "properties": { "magmom": 0.033 },
        "label": "Br",
        "xyz": [1.012739432546749, 1.754116194605957, 1.467689565]
      }
    ]
  },
  "task_ids": null,
  "uncorrected_energy_per_atom": null,
  "energy_per_atom": -4.26961023,
  "formation_energy_per_atom": -0.723299693749999,
  "energy_above_hull": 0.0,
  "is_stable": true,
  "equilibrium_reaction_energy_per_atom": null,
  "decomposes_to": null,
  "xas": null,
  "grain_boundaries": null,
  "band_gap": 0.0,
  "cbm": null,
  "vbm": null,
  "efermi": 0.63148789,
  "is_gap_direct": null,
  "is_metal": null,
  "es_source_calc_id": null,
  "bandstructure": null,
  "dos": null,
  "dos_energy_up": null,
  "dos_energy_down": null,
  "is_magnetic": null,
  "ordering": null,
  "total_magnetization": 0.864902,
  "total_magnetization_normalized_vol": null,
  "total_magnetization_normalized_formula_units": null,
  "num_magnetic_sites": null,
  "num_unique_magnetic_sites": null,
  "types_of_magnetic_species": null,
  "bulk_modulus": null,
  "shear_modulus": null,
  "universal_anisotropy": null,
  "homogeneous_poisson": null,
  "e_total": null,
  "e_ionic": null,
  "e_electronic": null,
  "n": null,
  "e_ij_max": null,
  "weighted_surface_energy_EV_PER_ANG2": null,
  "weighted_surface_energy": null,
  "weighted_work_function": null,
  "surface_anisotropy": null,
  "shape_factor": null,
  "has_reconstructed": null,
  "possible_species": null,
  "has_props": null,
  "theoretical": null,
  "database_IDs": null,
  "fields_not_requested": [
    "builder_meta",
    "nsites",
    "elements",
    "nelements",
    "composition",
    "composition_reduced",
    "chemsys",
    "symmetry",
    "property_name",
    "deprecated",
    "deprecation_reasons",
    "last_updated",
    "origins",
    "warnings",
    "task_ids",
    "uncorrected_energy_per_atom",
    "equilibrium_reaction_energy_per_atom",
    "decomposes_to",
    "xas",
    "grain_boundaries",
    "cbm",
    "vbm",
    "is_gap_direct",
    "is_metal",
    "es_source_calc_id",
    "bandstructure",
    "dos",
    "dos_energy_up",
    "dos_energy_down",
    "is_magnetic",
    "ordering",
    "total_magnetization_normalized_vol",
    "total_magnetization_normalized_formula_units",
    "num_magnetic_sites",
    "num_unique_magnetic_sites",
    "types_of_magnetic_species",
    "bulk_modulus",
    "shear_modulus",
    "universal_anisotropy",
    "homogeneous_poisson",
    "e_total",
    "e_ionic",
    "e_electronic",
    "n",
    "e_ij_max",
    "weighted_surface_energy_EV_PER_ANG2",
    "weighted_surface_energy",
    "weighted_work_function",
    "surface_anisotropy",
    "shape_factor",
    "has_reconstructed",
    "possible_species",
    "has_props",
    "theoretical",
    "database_IDs"
  ]
}
