{
  "builder_meta": null,
  "nsites": null,
  "elements": null,
  "nelements": null,
  "composition": null,
  "composition_reduced": null,
  "formula_pretty": "RuCl3",
  "formula_anonymous": "AB3",
  "chemsys": null,
  "volume": 381.15741229342007,
  "density": 3.614716092999538,
  "density_atomic": 23.822338268338754,
  "symmetry": null,
  "property_name": null,
  "material_id": "mp-22850",
  "deprecated": null,
  "deprecation_reasons": null,
  "last_updated": null,
  "origins": null,
  "warnings": null,
  "structure": {
    "@module": "pymatgen.core.structure",
    "@class": "Structure",
    "charge": 0,
    "lattice": {
      "matrix": [
        [5.67612642, -0.016398140000000002, 1.029999999999998e-6],
        [-0.00041165, 6.23663127, 6.13e-6],
        [2.069999999999999e-6, 1.021e-5, 10.76718872]
      ],
      "pbc": [true, true, true],
      "a": 5.676150106790564,
      "b": 6.23663128358853,
      "c": 10.76718872000504,
      "alpha": 89.999889353773,
      "beta": 89.99997874489844,
      "gamma": 90.16930695492692,
      "volume": 381.1574122934201
    },
    "properties": {},
    "sites": [
      {
        "species": [{ "element": "Ru", "occu": 1 }],
        "abc": [0.00028025, 0.25340963, 0.25],
        "properties": { "magmom": 0.377 },
        "label": "Ru",
        "xyz": [0.0014869358550155, 1.5804203794983953, 2.6917987336896894]
      },
      {
        "species": [{ "element": "Ru", "occu": 1 }],
        "abc": [0.49984813, 0.74662116, 0.75],
        "properties": { "magmom": 0.377 },
        "label": "Ru",
        "xyz": [2.8368953825800807, 4.648211951185195, 8.075396631631286]
      },
      {
        "species": [{ "element": "Ru", "occu": 1 }],
        "abc": [0.50015424, 0.25337946, 0.249999],
        "properties": { "magmom": 0.377 },
        "label": "Ru",
        "xyz": [2.838834909582242, 1.5720352166523908, 2.691788481186237]
      },
      {
        "species": [{ "element": "Ru", "occu": 1 }],
        "abc": [0.99973195, 0.74659884, 0.750000999999999],
        "properties": { "magmom": 0.377 },
        "label": "Ru",
        "xyz": [5.674299149402704, 4.639875584721364, 8.075407913563508]
      },
      {
        "species": [{ "element": "Cl", "occu": 1 }],
        "abc": [0.74873216, 0.44481182, 0.750000999999999],
        "properties": { "magmom": 0.036000000000000004 },
        "label": "Cl",
        "xyz": [4.249716840596035, 2.7618571486056394, 8.075405805079292]
      },
      {
        "species": [{ "element": "Cl", "occu": 1 }],
        "abc": [0.24933861000000002, 0.59565277, 0.59865587],
        "properties": { "magmom": 0.035 },
        "label": "Cl",
        "xyz": [1.415033510501957, 3.710784114286365, 6.445844638796035]
      },
      {
        "species": [{ "element": "Cl", "occu": 1 }],
        "abc": [0.74925032, 0.9516418400000001, 0.249999],
        "properties": { "magmom": 0.035 },
        "label": "Cl",
        "xyz": [4.252448310679949, 5.922755498031723, 2.6917930181035885]
      },
      {
        "species": [{ "element": "Cl", "occu": 1 }],
        "abc": [0.24974106000000001, 0.10217312, 0.40135758],
        "properties": { "magmom": 0.035 },
        "label": "Cl",
        "xyz": [1.417520600070148, 0.6331248841407259, 4.3214936916170155]
      },
      {
        "species": [{ "element": "Cl", "occu": 1 }],
        "abc": [0.24933861000000002, 0.59565377, 0.90134513],
        "properties": { "magmom": 0.035 },
        "label": "Cl",
        "xyz": [1.4150341366570751, 3.7107934413749795, 9.704957024739313]
      },
      {
        "species": [{ "element": "Cl", "occu": 1 }],
        "abc": [0.24974106000000001, 0.10217312, 0.09864142000000001],
        "properties": { "magmom": 0.035 },
        "label": "Cl",
        "xyz": [1.4175199734476966, 0.6331217934087322, 1.0620916683032997]
      },
      {
        "species": [{ "element": "Cl", "occu": 1 }],
        "abc": [0.75066333, 0.40437339, 0.4013193],
        "properties": { "magmom": 0.035 },
        "label": "Cl",
        "xyz": [4.260694330363136, 2.509622343921752, 4.321083892070406]
      },
      {
        "species": [{ "element": "Cl", "occu": 1 }],
        "abc": [0.75024513, 0.89778554, 0.901388099999999],
        "properties": { "magmom": 0.035 },
        "label": "Cl",
        "xyz": [4.258118496325161, 5.586863951014279, 9.705422058840066]
      },
      {
        "species": [{ "element": "Cl", "occu": 1 }],
        "abc": [0.25127608, 0.55516809, 0.25],
        "properties": { "magmom": 0.036000000000000004 },
        "label": "Cl",
        "xyz": [1.426046778957785, 3.458260762361683, 2.691800841994754]
      },
      {
        "species": [{ "element": "Cl", "occu": 1 }],
        "abc": [0.250749599999999, 0.04839851, 0.75],
        "properties": { "magmom": 0.035 },
        "label": "Cl",
        "xyz": [1.4232680586177848, 0.2977394913416637, 8.075392094954955]
      },
      {
        "species": [{ "element": "Cl", "occu": 1 }],
        "abc": [0.75066433, 0.40437339, 0.0986797],
        "properties": { "magmom": 0.035 },
        "label": "Cl",
        "xyz": [4.260699380025584, 2.5096192375732964, 1.0625062047261244]
      },
      {
        "species": [{ "element": "Cl", "occu": 1 }],
        "abc": [0.75024513, 0.89778554, 0.5986129],
        "properties": { "magmom": 0.035 },
        "label": "Cl",
        "xyz": [4.258117869580497, 5.586860859679486, 6.445384340704332]
      }
    ]
  },
  "task_ids": null,
  "uncorrected_energy_per_atom": null,
  "energy_per_atom": -4.71012903625,
  "formation_energy_per_atom": -1.00512590625,
  "energy_above_hull": 0.0,
  "is_stable": true,
  "equilibrium_reaction_energy_per_atom": null,
  "decomposes_to": null,
  "xas": null,
  "grain_boundaries": null,
  "band_gap": 0.0,
  "cbm": null,
  "vbm": null,
  "efermi": 1.10925716,
  "is_gap_direct": null,
  "is_metal": null,
  "es_source_calc_id": null,
  "bandstructure": null,
  "dos": null,
  "dos_energy_up": null,
  "dos_energy_down": null,
  "is_magnetic": null,
  "ordering": null,
  "total_magnetization": 2.0806892,
  "total_magnetization_normalized_vol": null,
  "total_magnetization_normalized_formula_units": null,
  "num_magnetic_sites": null,
  "num_unique_magnetic_sites": null,
  "types_of_magnetic_species": null,
  "bulk_modulus": null,
  "shear_modulus": null,
  "universal_anisotropy": null,
  "homogeneous_poisson": null,
  "e_total": null,
  "e_ionic": null,
  "e_electronic": null,
  "n": null,
  "e_ij_max": null,
  "weighted_surface_energy_EV_PER_ANG2": null,
  "weighted_surface_energy": null,
  "weighted_work_function": null,
  "surface_anisotropy": null,
  "shape_factor": null,
  "has_reconstructed": null,
  "possible_species": null,
  "has_props": null,
  "theoretical": null,
  "database_IDs": null,
  "fields_not_requested": [
    "builder_meta",
    "nsites",
    "elements",
    "nelements",
    "composition",
    "composition_reduced",
    "chemsys",
    "symmetry",
    "property_name",
    "deprecated",
    "deprecation_reasons",
    "last_updated",
    "origins",
    "warnings",
    "task_ids",
    "uncorrected_energy_per_atom",
    "equilibrium_reaction_energy_per_atom",
    "decomposes_to",
    "xas",
    "grain_boundaries",
    "cbm",
    "vbm",
    "is_gap_direct",
    "is_metal",
    "es_source_calc_id",
    "bandstructure",
    "dos",
    "dos_energy_up",
    "dos_energy_down",
    "is_magnetic",
    "ordering",
    "total_magnetization_normalized_vol",
    "total_magnetization_normalized_formula_units",
    "num_magnetic_sites",
    "num_unique_magnetic_sites",
    "types_of_magnetic_species",
    "bulk_modulus",
    "shear_modulus",
    "universal_anisotropy",
    "homogeneous_poisson",
    "e_total",
    "e_ionic",
    "e_electronic",
    "n",
    "e_ij_max",
    "weighted_surface_energy_EV_PER_ANG2",
    "weighted_surface_energy",
    "weighted_work_function",
    "surface_anisotropy",
    "shape_factor",
    "has_reconstructed",
    "possible_species",
    "has_props",
    "theoretical",
    "database_IDs"
  ]
}
