{"builder_meta": null, "nsites": null, "elements": null, "nelements": null, "composition": null, "composition_reduced": null, "formula_pretty": "RuF3", "formula_anonymous": "AB3", "chemsys": null, "volume": 97.55957102503297, "density": 5.380783307129731, "density_atomic": 12.19494637812912, "symmetry": null, "property_name": null, "material_id": "mp-7570", "deprecated": null, "deprecation_reasons": null, "last_updated": null, "origins": null, "warnings": null, "structure": {"@module": "pymatgen.core.structure", "@class": "Structure", "charge": 0, "lattice": {"matrix": [[4.38280664, 0.00107816, 3.13146452], [1.60970827, 4.14363837, 3.12280743], [0.02066938, 0.00502276, 5.38966703]], "pbc": [true, true, true], "a": 5.3865633985014885, "b": 5.432570837154897, "c": 5.389709003801284, "alpha": 54.78311060253349, "beta": 54.234910356606854, "gamma": 54.870907269902865, "volume": 97.55957102503297}, "properties": {}, "sites": [{"species": [{"element": "Ru", "occu": 1}], "abc": [0.5, 0.5, 0.5], "properties": {"magmom": 0.85}, "label": "Ru", "xyz": [3.0065921450000004, 2.0748696449999997, 5.82196949]}, {"species": [{"element": "Ru", "occu": 1}], "abc": [-0.0, -0.0, 0.0], "properties": {"magmom": 0.85}, "label": "Ru", "xyz": [0.0, 0.0, 0.0]}, {"species": [{"element": "F", "occu": 1}], "abc": [0.75174293, 0.08839778, 0.40872681], "properties": {"magmom": 0.037}, "label": "F", "xyz": [3.445486672444774, 0.3691518688604229, 4.833006969769423]}, {"species": [{"element": "F", "occu": 1}], "abc": [0.09028086, 0.41280687, 0.7468149900000001], "properties": {"magmom": 0.038}, "label": "F", "xyz": [1.0756183880427317, 1.7143707956027918, 5.596911799828911]}, {"species": [{"element": "F", "occu": 1}], "abc": [0.5944378, 0.24826295, 0.90604421], "properties": {"magmom": 0.046}, "label": "F", "xyz": [3.023664232729878, 1.0339036271440591, 7.520014871259971]}, {"species": [{"element": "F", "occu": 1}], "abc": [0.90971914, 0.5871931300000001, 0.25318501], "properties": {"magmom": 0.038}, "label": "F", "xyz": [4.937565901957269, 2.435368494397208, 6.0470271801710895]}, {"species": [{"element": "F", "occu": 1}], "abc": [0.24825707, 0.91160222, 0.59127319], "properties": {"magmom": 0.037}, "label": "F", "xyz": [2.5676976175552264, 3.7805874211395767, 6.810932010230577]}, {"species": [{"element": "F", "occu": 1}], "abc": [0.4055622, 0.75173705, 0.09395579], "properties": {"magmom": 0.046}, "label": "F", "xyz": [2.9895200572701213, 3.115835662855941, 4.12392410874003]}]}, "task_ids": null, "uncorrected_energy_per_atom": null, "energy_per_atom": -10.51830418875, "formation_energy_per_atom": -1.8176494025, "energy_above_hull": 0.0, "is_stable": true, "equilibrium_reaction_energy_per_atom": null, "decomposes_to": null, "xas": null, "grain_boundaries": null, "band_gap": 0.0, "cbm": null, "vbm": null, "efermi": 1.52956172, "is_gap_direct": null, "is_metal": null, "es_source_calc_id": null, "bandstructure": null, "dos": null, "dos_energy_up": null, "dos_energy_down": null, "is_magnetic": null, "ordering": null, "total_magnetization": 1.998995799999999, "total_magnetization_normalized_vol": null, "total_magnetization_normalized_formula_units": null, "num_magnetic_sites": null, "num_unique_magnetic_sites": null, "types_of_magnetic_species": null, "bulk_modulus": null, "shear_modulus": null, "universal_anisotropy": null, "homogeneous_poisson": null, "e_total": null, "e_ionic": null, "e_electronic": null, "n": null, "e_ij_max": null, "weighted_surface_energy_EV_PER_ANG2": null, "weighted_surface_energy": null, "weighted_work_function": null, "surface_anisotropy": null, "shape_factor": null, "has_reconstructed": null, "possible_species": null, "has_props": null, "theoretical": null, "database_IDs": null, "fields_not_requested": ["builder_meta", "nsites", "elements", "nelements", "composition", "composition_reduced", "chemsys", "symmetry", "property_name", "deprecated", "deprecation_reasons", "last_updated", "origins", "warnings", "task_ids", "uncorrected_energy_per_atom", "equilibrium_reaction_energy_per_atom", "decomposes_to", "xas", "grain_boundaries", "cbm", "vbm", "is_gap_direct", "is_metal", "es_source_calc_id", "bandstructure", "dos", "dos_energy_up", "dos_energy_down", "is_magnetic", "ordering", "total_magnetization_normalized_vol", "total_magnetization_normalized_formula_units", "num_magnetic_sites", "num_unique_magnetic_sites", "types_of_magnetic_species", "bulk_modulus", "shear_modulus", "universal_anisotropy", "homogeneous_poisson", "e_total", "e_ionic", "e_electronic", "n", "e_ij_max", "weighted_surface_energy_EV_PER_ANG2", "weighted_surface_energy", "weighted_work_function", "surface_anisotropy", "shape_factor", "has_reconstructed", "possible_species", "has_props", "theoretical", "database_IDs"]}