{"builder_meta": null, "nsites": null, "elements": null, "nelements": null, "composition": null, "composition_reduced": null, "formula_pretty": "RuF4", "formula_anonymous": "AB4", "chemsys": null, "volume": 126.86488029743303, "density": 4.635184231260965, "density_atomic": 12.686488029743304, "symmetry": null, "property_name": null, "material_id": "mp-974434", "deprecated": null, "deprecation_reasons": null, "last_updated": null, "origins": null, "warnings": null, "structure": {"@module": "pymatgen.core.structure", "@class": "Structure", "charge": 0, "lattice": {"matrix": [[5.57177742, 6.349e-05, 0.01690825], [6.855000000000001e-05, 4.9505855400000005, -8.923000000000002e-05], [-2.7895032200000003, -0.00010373, 4.590828]], "pbc": [true, true, true], "a": 5.571803075394077, "b": 4.950585541278748, "c": 5.371873970108968, "alpha": 90.00240090634904, "beta": 121.11005347607694, "gamma": 89.99855689337869, "volume": 126.86488029743306}, "properties": {}, "sites": [{"species": [{"element": "Ru", "occu": 1}], "abc": [1.55e-05, -1.8420000000000003e-05, 8.743000000000001e-05], "properties": {"magmom": 1.488999999999999}, "label": "Ru", "xyz": [-0.00015752497920560005, -9.119787066570002e-05, 0.0004016398135316]}, {"species": [{"element": "Ru", "occu": 1}], "abc": [0.50001414, 0.500028599999999, 0.5000727500000001], "properties": {"magmom": 1.488999999999999}, "label": "Ru", "xyz": [1.3910472255339932, 2.475414230097831, 2.3041577292676774]}, {"species": [{"element": "F", "occu": 1}], "abc": [0.12482261, 0.66719726, 0.24294462], "properties": {"magmom": 0.012}, "label": "F", "xyz": [0.017834736503962723, 3.302999832025697, 1.1173679618293826]}, {"species": [{"element": "F", "occu": 1}], "abc": [0.61956091, 0.64468778, 0.26767885], "properties": {"magmom": 0.20700000000000002}, "label": "F", "xyz": [2.705408667999074, 3.1915935710777674, 1.2392857248536984]}, {"species": [{"element": "F", "occu": 1}], "abc": [0.88033312, 0.14490727, 0.23232199], "properties": {"magmom": 0.20700000000000002}, "label": "F", "xyz": [4.256967194305701, 0.7174076290926419, 1.081422259108258]}, {"species": [{"element": "F", "occu": 1}], "abc": [0.375283, 0.16765057, 0.25696066], "properties": {"magmom": 0.012}, "label": "F", "xyz": [1.3742122494731082, 0.8299656598031661, 1.185992612150869]}, {"species": [{"element": "F", "occu": 1}], "abc": [0.62483074, 0.83278423, 0.74294052], "properties": {"magmom": 0.012}, "label": "F", "xyz": [1.409039923004383, 4.122732172261578, 3.421202626573322]}, {"species": [{"element": "F", "occu": 1}], "abc": [0.11956875, 0.85532332, 0.7676884900000001], "properties": {"magmom": 0.20700000000000002}, "label": "F", "xyz": [-1.4752004210107272, 4.234279219109663, 3.526271192987064]}, {"species": [{"element": "F", "occu": 1}], "abc": [0.38030214, 0.35506692, 0.73235444], "properties": {"magmom": 0.20700000000000002}, "label": "F", "xyz": [0.0760781477057475, 1.7577373381411443, 3.368511830113704]}, {"species": [{"element": "F", "occu": 1}], "abc": [0.8752681, 0.33236947, 0.75694925], "properties": {"magmom": 0.012}, "label": "F", "xyz": [2.7653094497018857, 1.6454005445454303, 3.489793406003017]}]}, "task_ids": null, "uncorrected_energy_per_atom": null, "energy_per_atom": -9.470013682, "formation_energy_per_atom": -1.8842842629999992, "energy_above_hull": 0.0, "is_stable": true, "equilibrium_reaction_energy_per_atom": null, "decomposes_to": null, "xas": null, "grain_boundaries": null, "band_gap": 0.18130000000000002, "cbm": null, "vbm": null, "efermi": -0.15343898, "is_gap_direct": null, "is_metal": null, "es_source_calc_id": null, "bandstructure": null, "dos": null, "dos_energy_up": null, "dos_energy_down": null, "is_magnetic": null, "ordering": null, "total_magnetization": 4.0, "total_magnetization_normalized_vol": null, "total_magnetization_normalized_formula_units": null, "num_magnetic_sites": null, "num_unique_magnetic_sites": null, "types_of_magnetic_species": null, "bulk_modulus": null, "shear_modulus": null, "universal_anisotropy": null, "homogeneous_poisson": null, "e_total": null, "e_ionic": null, "e_electronic": null, "n": null, "e_ij_max": null, "weighted_surface_energy_EV_PER_ANG2": null, "weighted_surface_energy": null, "weighted_work_function": null, "surface_anisotropy": null, "shape_factor": null, "has_reconstructed": null, "possible_species": null, "has_props": null, "theoretical": null, "database_IDs": null, "fields_not_requested": ["builder_meta", "nsites", "elements", "nelements", "composition", "composition_reduced", "chemsys", "symmetry", "property_name", "deprecated", "deprecation_reasons", "last_updated", "origins", "warnings", "task_ids", "uncorrected_energy_per_atom", "equilibrium_reaction_energy_per_atom", "decomposes_to", "xas", "grain_boundaries", "cbm", "vbm", "is_gap_direct", "is_metal", "es_source_calc_id", "bandstructure", "dos", "dos_energy_up", "dos_energy_down", "is_magnetic", "ordering", "total_magnetization_normalized_vol", "total_magnetization_normalized_formula_units", "num_magnetic_sites", "num_unique_magnetic_sites", "types_of_magnetic_species", "bulk_modulus", "shear_modulus", "universal_anisotropy", "homogeneous_poisson", "e_total", "e_ionic", "e_electronic", "n", "e_ij_max", "weighted_surface_energy_EV_PER_ANG2", "weighted_surface_energy", "weighted_work_function", "surface_anisotropy", "shape_factor", "has_reconstructed", "possible_species", "has_props", "theoretical", "database_IDs"]}