{"builder_meta": null, "nsites": null, "elements": null, "nelements": null, "composition": null, "composition_reduced": null, "formula_pretty": "RuF6", "formula_anonymous": "AB6", "chemsys": null, "volume": 366.26922283517223, "density": 3.900040795092209, "density_atomic": 13.081043672684723, "symmetry": null, "property_name": null, "material_id": "mp-1209121", "deprecated": null, "deprecation_reasons": null, "last_updated": null, "origins": null, "warnings": null, "structure": {"@module": "pymatgen.core.structure", "@class": "Structure", "charge": 0, "lattice": {"matrix": [[0.0, -0.0, -4.82221923], [0.0, -8.38575766, -0.0], [-9.05755894, 0.0, 0.0]], "pbc": [true, true, true], "a": 4.82221923, "b": 8.38575766, "c": 9.05755894, "alpha": 90.0, "beta": 90.0, "gamma": 90.0, "volume": 366.26922283517223}, "properties": {}, "sites": [{"species": [{"element": "Ru", "occu": 1}], "abc": [0.58117892, 0.75, 0.87170548], "properties": {"magmom": 1.484}, "label": "Ru", "xyz": [-7.895523763420991, -6.289318245, -2.8025721640946317]}, {"species": [{"element": "Ru", "occu": 1}], "abc": [0.41882108, 0.25, 0.12829452], "properties": {"magmom": 1.484}, "label": "Ru", "xyz": [-1.1620351765790087, -2.096439415, -2.0196470659053682]}, {"species": [{"element": "Ru", "occu": 1}], "abc": [0.08117892, 0.25, 0.62829452], "properties": {"magmom": 1.484}, "label": "Ru", "xyz": [-5.690814646579009, -2.096439415, -0.39146254909463163]}, {"species": [{"element": "Ru", "occu": 1}], "abc": [0.9188210800000001, 0.75, 0.37170548000000003], "properties": {"magmom": 1.484}, "label": "Ru", "xyz": [-3.3667442934209912, -6.289318245, -4.430756680905369]}, {"species": [{"element": "F", "occu": 1}], "abc": [0.27081409, 0.75, 0.98848141], "properties": {"magmom": 0.073}, "label": "F", "xyz": [-8.953228632169305, -6.289318245, -1.3059249125529506]}, {"species": [{"element": "F", "occu": 1}], "abc": [0.72918591, 0.25, 0.01151859], "properties": {"magmom": 0.073}, "label": "F", "xyz": [-0.10433030783069461, -2.096439415, -3.5162943174470493]}, {"species": [{"element": "F", "occu": 1}], "abc": [0.77081409, 0.25, 0.51151859], "properties": {"magmom": 0.073}, "label": "F", "xyz": [-4.633109777830694, -2.096439415, -3.7170345275529506]}, {"species": [{"element": "F", "occu": 1}], "abc": [0.22918591, 0.75, 0.48848141], "properties": {"magmom": 0.073}, "label": "F", "xyz": [-4.424449162169306, -6.289318245, -1.1051847024470494]}, {"species": [{"element": "F", "occu": 1}], "abc": [0.89165037, 0.75, 0.75452348], "properties": {"magmom": 0.067}, "label": "F", "xyz": [-6.834140891713911, -6.289318245, -4.2997335606506155]}, {"species": [{"element": "F", "occu": 1}], "abc": [0.10834963, 0.25, 0.24547652], "properties": {"magmom": 0.067}, "label": "F", "xyz": [-2.2234180482860886, -2.096439415, -0.5224856693493849]}, {"species": [{"element": "F", "occu": 1}], "abc": [0.39165037, 0.25, 0.74547652], "properties": {"magmom": 0.067}, "label": "F", "xyz": [-6.7521975182860885, -2.096439415, -1.8886239456506153]}, {"species": [{"element": "F", "occu": 1}], "abc": [0.60834963, 0.75, 0.25452348], "properties": {"magmom": 0.067}, "label": "F", "xyz": [-2.3053614217139113, -6.289318245, -2.933595284349385]}, {"species": [{"element": "F", "occu": 1}], "abc": [0.7366079600000001, 0.90396643, 0.98910433], "properties": {"magmom": 0.067}, "label": "F", "xyz": [-8.95887076678421, -7.580443414755353, -3.5520850696830713]}, {"species": [{"element": "F", "occu": 1}], "abc": [0.26339204, 0.09603357, 0.01089567], "properties": {"magmom": 0.067}, "label": "F", "xyz": [-0.09868817321578979, -0.8053142452446461, -1.2701341603169292]}, {"species": [{"element": "F", "occu": 1}], "abc": [0.23660796, 0.09603357, 0.51089567], "properties": {"magmom": 0.067}, "label": "F", "xyz": [-4.62746764321579, -0.8053142452446461, -1.1409754546830708]}, {"species": [{"element": "F", "occu": 1}], "abc": [0.26339204, 0.40396643, 0.01089567], "properties": {"magmom": 0.067}, "label": "F", "xyz": [-0.09868817321578979, -3.3875645847553533, -1.2701341603169292]}, {"species": [{"element": "F", "occu": 1}], "abc": [0.76339204, 0.90396643, 0.48910433000000003], "properties": {"magmom": 0.067}, "label": "F", "xyz": [-4.4300912967842105, -7.580443414755353, -3.6812437753169296]}, {"species": [{"element": "F", "occu": 1}], "abc": [0.7366079600000001, 0.59603357, 0.98910433], "properties": {"magmom": 0.067}, "label": "F", "xyz": [-8.95887076678421, -4.998193075244646, -3.5520850696830713]}, {"species": [{"element": "F", "occu": 1}], "abc": [0.76339204, 0.59603357, 0.48910433000000003], "properties": {"magmom": 0.067}, "label": "F", "xyz": [-4.4300912967842105, -4.998193075244646, -3.6812437753169296]}, {"species": [{"element": "F", "occu": 1}], "abc": [0.23660796, 0.40396643, 0.51089567], "properties": {"magmom": 0.067}, "label": "F", "xyz": [-4.62746764321579, -3.3875645847553533, -1.1409754546830708]}, {"species": [{"element": "F", "occu": 1}], "abc": [0.42630967000000003, 0.9040585800000001, 0.75466522], "properties": {"magmom": 0.08}, "label": "F", "xyz": [-6.835424710118067, -7.581216162323723, -2.0557586886089543]}, {"species": [{"element": "F", "occu": 1}], "abc": [0.57369033, 0.09594142, 0.24533478], "properties": {"magmom": 0.08}, "label": "F", "xyz": [-2.222134229881933, -0.8045414976762771, -2.766460541391046]}, {"species": [{"element": "F", "occu": 1}], "abc": [0.92630967, 0.09594142, 0.74533478], "properties": {"magmom": 0.08}, "label": "F", "xyz": [-6.750913699881933, -0.8045414976762771, -4.466868303608954]}, {"species": [{"element": "F", "occu": 1}], "abc": [0.57369033, 0.40405858, 0.24533478], "properties": {"magmom": 0.08}, "label": "F", "xyz": [-2.222134229881933, -3.3883373323237227, -2.766460541391046]}, {"species": [{"element": "F", "occu": 1}], "abc": [0.07369033, 0.9040585800000001, 0.25466522], "properties": {"magmom": 0.08}, "label": "F", "xyz": [-2.306645240118067, -7.581216162323723, -0.3553509263910459]}, {"species": [{"element": "F", "occu": 1}], "abc": [0.42630967000000003, 0.59594142, 0.75466522], "properties": {"magmom": 0.08}, "label": "F", "xyz": [-6.835424710118067, -4.997420327676277, -2.0557586886089543]}, {"species": [{"element": "F", "occu": 1}], "abc": [0.07369033, 0.59594142, 0.25466522], "properties": {"magmom": 0.08}, "label": "F", "xyz": [-2.306645240118067, -4.997420327676277, -0.3553509263910459]}, {"species": [{"element": "F", "occu": 1}], "abc": [0.92630967, 0.40405858, 0.74533478], "properties": {"magmom": 0.08}, "label": "F", "xyz": [-6.750913699881933, -3.3883373323237227, -4.466868303608954]}]}, "task_ids": null, "uncorrected_energy_per_atom": null, "energy_per_atom": -7.991077771785714, "formation_energy_per_atom": -1.6795487725, "energy_above_hull": 0.0, "is_stable": true, "equilibrium_reaction_energy_per_atom": null, "decomposes_to": null, "xas": null, "grain_boundaries": null, "band_gap": 0.0, "cbm": null, "vbm": null, "efermi": -2.53075822, "is_gap_direct": null, "is_metal": null, "es_source_calc_id": null, "bandstructure": null, "dos": null, "dos_energy_up": null, "dos_energy_down": null, "is_magnetic": null, "ordering": null, "total_magnetization": 8.0, "total_magnetization_normalized_vol": null, "total_magnetization_normalized_formula_units": null, "num_magnetic_sites": null, "num_unique_magnetic_sites": null, "types_of_magnetic_species": null, "bulk_modulus": null, "shear_modulus": null, "universal_anisotropy": null, "homogeneous_poisson": null, "e_total": null, "e_ionic": null, "e_electronic": null, "n": null, "e_ij_max": null, "weighted_surface_energy_EV_PER_ANG2": null, "weighted_surface_energy": null, "weighted_work_function": null, "surface_anisotropy": null, "shape_factor": null, "has_reconstructed": null, "possible_species": null, "has_props": null, "theoretical": null, "database_IDs": null, "fields_not_requested": ["builder_meta", "nsites", "elements", "nelements", "composition", "composition_reduced", "chemsys", "symmetry", "property_name", "deprecated", "deprecation_reasons", "last_updated", "origins", "warnings", "task_ids", "uncorrected_energy_per_atom", "equilibrium_reaction_energy_per_atom", "decomposes_to", "xas", "grain_boundaries", "cbm", "vbm", "is_gap_direct", "is_metal", "es_source_calc_id", "bandstructure", "dos", "dos_energy_up", "dos_energy_down", "is_magnetic", "ordering", "total_magnetization_normalized_vol", "total_magnetization_normalized_formula_units", "num_magnetic_sites", "num_unique_magnetic_sites", "types_of_magnetic_species", "bulk_modulus", "shear_modulus", "universal_anisotropy", "homogeneous_poisson", "e_total", "e_ionic", "e_electronic", "n", "e_ij_max", "weighted_surface_energy_EV_PER_ANG2", "weighted_surface_energy", "weighted_work_function", "surface_anisotropy", "shape_factor", "has_reconstructed", "possible_species", "has_props", "theoretical", "database_IDs"]}