{"builder_meta": null, "nsites": null, "elements": null, "nelements": null, "composition": null, "composition_reduced": null, "formula_pretty": "RuN2", "formula_anonymous": "AB2", "chemsys": null, "volume": 55.11223275016047, "density": 7.77860078800492, "density_atomic": 9.185372125026745, "symmetry": null, "property_name": null, "material_id": "mp-607371", "deprecated": null, "deprecation_reasons": null, "last_updated": null, "origins": null, "warnings": null, "structure": {"@module": "pymatgen.core.structure", "@class": "Structure", "charge": 0, "lattice": {"matrix": [[2.717092, 0.0, 0.0], [0.0, 4.113222, 0.0], [0.0, 0.0, 4.9313009999999995]], "pbc": [true, true, true], "a": 2.717092, "b": 4.113222, "c": 4.9313009999999995, "alpha": 90.0, "beta": 90.0, "gamma": 90.0, "volume": 55.112232750160466}, "properties": {}, "sites": [{"species": [{"element": "Ru", "occu": 1}], "abc": [0.0, 0.0, 0.0], "properties": {"magmom": 0.0}, "label": "Ru", "xyz": [0.0, 0.0, 0.0]}, {"species": [{"element": "Ru", "occu": 1}], "abc": [0.5, 0.5, 0.5], "properties": {"magmom": 0.0}, "label": "Ru", "xyz": [1.358546, 2.056611, 2.4656504999999997]}, {"species": [{"element": "N", "occu": 1}], "abc": [0.5, 0.379393, 0.908843], "properties": {"magmom": -0.0}, "label": "N", "xyz": [1.358546, 1.5605276342460002, 4.481778394742999]}, {"species": [{"element": "N", "occu": 1}], "abc": [0.0, 0.120606999999999, 0.408842999999999], "properties": {"magmom": -0.0}, "label": "N", "xyz": [0.0, 0.496083365753996, 2.016127894742995]}, {"species": [{"element": "N", "occu": 1}], "abc": [0.5, 0.620607, 0.091157], "properties": {"magmom": -0.0}, "label": "N", "xyz": [1.358546, 2.552694365754, 0.44952260525699994]}, {"species": [{"element": "N", "occu": 1}], "abc": [0.0, 0.879393, 0.591156999999999], "properties": {"magmom": -0.0}, "label": "N", "xyz": [0.0, 3.6171386342460004, 2.915173105256995]}]}, "task_ids": null, "uncorrected_energy_per_atom": null, "energy_per_atom": -14.4357652075, "formation_energy_per_atom": 0.124913671666665, "energy_above_hull": 0.12491367166666802, "is_stable": false, "equilibrium_reaction_energy_per_atom": null, "decomposes_to": null, "xas": null, "grain_boundaries": null, "band_gap": 0.0, "cbm": null, "vbm": null, "efermi": 7.34106251, "is_gap_direct": null, "is_metal": null, "es_source_calc_id": null, "bandstructure": null, "dos": null, "dos_energy_up": null, "dos_energy_down": null, "is_magnetic": null, "ordering": null, "total_magnetization": 0.0005334, "total_magnetization_normalized_vol": null, "total_magnetization_normalized_formula_units": null, "num_magnetic_sites": null, "num_unique_magnetic_sites": null, "types_of_magnetic_species": null, "bulk_modulus": null, "shear_modulus": null, "universal_anisotropy": null, "homogeneous_poisson": null, "e_total": null, "e_ionic": null, "e_electronic": null, "n": null, "e_ij_max": null, "weighted_surface_energy_EV_PER_ANG2": null, "weighted_surface_energy": null, "weighted_work_function": null, "surface_anisotropy": null, "shape_factor": null, "has_reconstructed": null, "possible_species": null, "has_props": null, "theoretical": null, "database_IDs": null, "fields_not_requested": ["builder_meta", "nsites", "elements", "nelements", "composition", "composition_reduced", "chemsys", "symmetry", "property_name", "deprecated", "deprecation_reasons", "last_updated", "origins", "warnings", "task_ids", "uncorrected_energy_per_atom", "equilibrium_reaction_energy_per_atom", "decomposes_to", "xas", "grain_boundaries", "cbm", "vbm", "is_gap_direct", "is_metal", "es_source_calc_id", "bandstructure", "dos", "dos_energy_up", "dos_energy_down", "is_magnetic", "ordering", "total_magnetization_normalized_vol", "total_magnetization_normalized_formula_units", "num_magnetic_sites", "num_unique_magnetic_sites", "types_of_magnetic_species", "bulk_modulus", "shear_modulus", "universal_anisotropy", "homogeneous_poisson", "e_total", "e_ionic", "e_electronic", "n", "e_ij_max", "weighted_surface_energy_EV_PER_ANG2", "weighted_surface_energy", "weighted_work_function", "surface_anisotropy", "shape_factor", "has_reconstructed", "possible_species", "has_props", "theoretical", "database_IDs"]}