{"builder_meta": null, "nsites": null, "elements": null, "nelements": null, "composition": null, "composition_reduced": null, "formula_pretty": "RuO2", "formula_anonymous": "AB2", "chemsys": null, "volume": 62.515586451455455, "density": 7.0691471835481, "density_atomic": 10.41926440857591, "symmetry": null, "property_name": null, "material_id": "mp-825", "deprecated": null, "deprecation_reasons": null, "last_updated": null, "origins": null, "warnings": null, "structure": {"@module": "pymatgen.core.structure", "@class": "Structure", "charge": 0, "lattice": {"matrix": [[3.1113414, 0.0, 0.0], [0.0, 4.48164753, -0.0], [0.0, 0.0, 4.4833531]], "pbc": [true, true, true], "a": 3.1113414, "b": 4.48164753, "c": 4.4833531, "alpha": 90.0, "beta": 90.0, "gamma": 90.0, "volume": 62.515586451455455}, "properties": {}, "sites": [{"species": [{"element": "Ru", "occu": 1}], "abc": [0.5, 0.5, 0.5], "properties": {"magmom": -0.0}, "label": "Ru", "xyz": [1.5556707, 2.240823765, 2.24167655]}, {"species": [{"element": "Ru", "occu": 1}], "abc": [-0.0, 0.0, -0.0], "properties": {"magmom": -0.0}, "label": "Ru", "xyz": [0.0, 0.0, 0.0]}, {"species": [{"element": "O", "occu": 1}], "abc": [0.5, 0.80536187, 0.19447755], "properties": {"magmom": -0.0}, "label": "O", "xyz": [1.5556707, 3.6093480354416814, 0.8719115266729051]}, {"species": [{"element": "O", "occu": 1}], "abc": [0.5, 0.19463813, 0.80552245], "properties": {"magmom": -0.0}, "label": "O", "xyz": [1.5556707, 0.8722994945583189, 3.6114415733270953]}, {"species": [{"element": "O", "occu": 1}], "abc": [0.0, 0.69463813, 0.69447755], "properties": {"magmom": -0.0}, "label": "O", "xyz": [0.0, 3.1131232595583187, 3.1135880766729054]}, {"species": [{"element": "O", "occu": 1}], "abc": [-0.0, 0.30536187, 0.30552245], "properties": {"magmom": -0.0}, "label": "O", "xyz": [0.0, 1.3685242704416811, 1.369765023327095]}]}, "task_ids": null, "uncorrected_energy_per_atom": null, "energy_per_atom": -7.847770081666667, "formation_energy_per_atom": -1.457661898333333, "energy_above_hull": 0.0, "is_stable": true, "equilibrium_reaction_energy_per_atom": null, "decomposes_to": null, "xas": null, "grain_boundaries": null, "band_gap": 0.0, "cbm": null, "vbm": null, "efermi": 4.57067993, "is_gap_direct": null, "is_metal": null, "es_source_calc_id": null, "bandstructure": null, "dos": null, "dos_energy_up": null, "dos_energy_down": null, "is_magnetic": null, "ordering": null, "total_magnetization": 1e-07, "total_magnetization_normalized_vol": null, "total_magnetization_normalized_formula_units": null, "num_magnetic_sites": null, "num_unique_magnetic_sites": null, "types_of_magnetic_species": null, "bulk_modulus": null, "shear_modulus": null, "universal_anisotropy": null, "homogeneous_poisson": null, "e_total": null, "e_ionic": null, "e_electronic": null, "n": null, "e_ij_max": null, "weighted_surface_energy_EV_PER_ANG2": null, "weighted_surface_energy": null, "weighted_work_function": null, "surface_anisotropy": null, "shape_factor": null, "has_reconstructed": null, "possible_species": null, "has_props": null, "theoretical": null, "database_IDs": null, "fields_not_requested": ["builder_meta", "nsites", "elements", "nelements", "composition", "composition_reduced", "chemsys", "symmetry", "property_name", "deprecated", "deprecation_reasons", "last_updated", "origins", "warnings", "task_ids", "uncorrected_energy_per_atom", "equilibrium_reaction_energy_per_atom", "decomposes_to", "xas", "grain_boundaries", "cbm", "vbm", "is_gap_direct", "is_metal", "es_source_calc_id", "bandstructure", "dos", "dos_energy_up", "dos_energy_down", "is_magnetic", "ordering", "total_magnetization_normalized_vol", "total_magnetization_normalized_formula_units", "num_magnetic_sites", "num_unique_magnetic_sites", "types_of_magnetic_species", "bulk_modulus", "shear_modulus", "universal_anisotropy", "homogeneous_poisson", "e_total", "e_ionic", "e_electronic", "n", "e_ij_max", "weighted_surface_energy_EV_PER_ANG2", "weighted_surface_energy", "weighted_work_function", "surface_anisotropy", "shape_factor", "has_reconstructed", "possible_species", "has_props", "theoretical", "database_IDs"]}