{
  "builder_meta": null,
  "nsites": null,
  "elements": null,
  "nelements": null,
  "composition": null,
  "composition_reduced": null,
  "formula_pretty": "RuO4",
  "formula_anonymous": "AB4",
  "chemsys": null,
  "volume": 606.9473917988681,
  "density": 3.612849510630859,
  "density_atomic": 15.173684794971702,
  "symmetry": null,
  "property_name": null,
  "material_id": "mp-554791",
  "deprecated": null,
  "deprecation_reasons": null,
  "last_updated": null,
  "origins": null,
  "warnings": null,
  "structure": {
    "@module": "pymatgen.core.structure",
    "@class": "Structure",
    "charge": 0,
    "lattice": {
      "matrix": [
        [8.46675546, -0.0, -0.0],
        [0.0, 8.46675546, -0.0],
        [-0.0, -0.0, 8.46675546]
      ],
      "pbc": [true, true, true],
      "a": 8.46675546,
      "b": 8.46675546,
      "c": 8.46675546,
      "alpha": 90.0,
      "beta": 90.0,
      "gamma": 90.0,
      "volume": 606.9473917988681
    },
    "properties": {},
    "sites": [
      {
        "species": [{ "element": "Ru", "occu": 1 }],
        "abc": [0.75, 0.5, -0.0],
        "properties": { "magmom": -0.0 },
        "label": "Ru",
        "xyz": [6.3500665949999995, 4.23337773, 0.0]
      },
      {
        "species": [{ "element": "Ru", "occu": 1 }],
        "abc": [0.5, 0.5, 0.5],
        "properties": { "magmom": -0.0 },
        "label": "Ru",
        "xyz": [4.23337773, 4.23337773, 4.23337773]
      },
      {
        "species": [{ "element": "Ru", "occu": 1 }],
        "abc": [0.5, -0.0, 0.25],
        "properties": { "magmom": -0.0 },
        "label": "Ru",
        "xyz": [4.23337773, 0.0, 2.116688865]
      },
      {
        "species": [{ "element": "Ru", "occu": 1 }],
        "abc": [0.0, 0.25, 0.5],
        "properties": { "magmom": -0.0 },
        "label": "Ru",
        "xyz": [0.0, 2.116688865, 4.23337773]
      },
      {
        "species": [{ "element": "Ru", "occu": 1 }],
        "abc": [0.0, -0.0, -0.0],
        "properties": { "magmom": -0.0 },
        "label": "Ru",
        "xyz": [0.0, 0.0, 0.0]
      },
      {
        "species": [{ "element": "Ru", "occu": 1 }],
        "abc": [0.25, 0.5, -0.0],
        "properties": { "magmom": -0.0 },
        "label": "Ru",
        "xyz": [2.116688865, 4.23337773, 0.0]
      },
      {
        "species": [{ "element": "Ru", "occu": 1 }],
        "abc": [0.5, -0.0, 0.75],
        "properties": { "magmom": -0.0 },
        "label": "Ru",
        "xyz": [4.23337773, 0.0, 6.3500665949999995]
      },
      {
        "species": [{ "element": "Ru", "occu": 1 }],
        "abc": [0.0, 0.75, 0.5],
        "properties": { "magmom": -0.0 },
        "label": "Ru",
        "xyz": [0.0, 6.3500665949999995, 4.23337773]
      },
      {
        "species": [{ "element": "O", "occu": 1 }],
        "abc": [0.61535784, 0.88468163, 0.63526662],
        "properties": { "magmom": 0.0 },
        "label": "O",
        "xyz": [5.210084351673807, 7.4903830211642, 5.378647123440746]
      },
      {
        "species": [{ "element": "O", "occu": 1 }],
        "abc": [0.11531837, 0.36473338, 0.61535784],
        "properties": { "magmom": 0.0 },
        "label": "O",
        "xyz": [0.9763724388358003, 3.0881083365592548, 5.210084351673807]
      },
      {
        "species": [{ "element": "O", "occu": 1 }],
        "abc": [0.38468163, 0.8846421600000001, 0.86473338],
        "properties": { "magmom": 0.0 },
        "label": "O",
        "xyz": [3.2570052911642, 7.490048838326194, 7.321486066559254]
      },
      {
        "species": [{ "element": "O", "occu": 1 }],
        "abc": [0.61517395, 0.38482605000000003, 0.61517395],
        "properties": { "magmom": 0.0 },
        "label": "O",
        "xyz": [5.208527400012267, 3.2582280599877333, 5.208527400012267]
      },
      {
        "species": [{ "element": "O", "occu": 1 }],
        "abc": [0.88482605, 0.11517395, 0.11517395],
        "properties": { "magmom": 0.0 },
        "label": "O",
        "xyz": [7.491605789987733, 0.9751496700122669, 0.9751496700122669]
      },
      {
        "species": [{ "element": "O", "occu": 1 }],
        "abc": [0.61535784, 0.11531837, 0.36473338],
        "properties": { "magmom": 0.0 },
        "label": "O",
        "xyz": [5.210084351673807, 0.9763724388358003, 3.0881083365592548]
      },
      {
        "species": [{ "element": "O", "occu": 1 }],
        "abc": [0.61531837, 0.11535784, 0.86473338],
        "properties": { "magmom": 0.0 },
        "label": "O",
        "xyz": [5.2097501688358, 0.9767066216738064, 7.321486066559254]
      },
      {
        "species": [{ "element": "O", "occu": 1 }],
        "abc": [0.11535784, 0.86473338, 0.61531837],
        "properties": { "magmom": 0.0 },
        "label": "O",
        "xyz": [0.9767066216738064, 7.321486066559254, 5.2097501688358]
      },
      {
        "species": [{ "element": "O", "occu": 1 }],
        "abc": [0.11517395, 0.11517395, 0.88482605],
        "properties": { "magmom": 0.0 },
        "label": "O",
        "xyz": [0.9751496700122669, 0.9751496700122669, 7.491605789987733]
      },
      {
        "species": [{ "element": "O", "occu": 1 }],
        "abc": [0.13526662, 0.61531837, 0.8846421600000001],
        "properties": { "magmom": 0.0 },
        "label": "O",
        "xyz": [1.1452693934407452, 5.2097501688358, 7.490048838326194]
      },
      {
        "species": [{ "element": "O", "occu": 1 }],
        "abc": [0.88468163, 0.36473338, 0.38464216],
        "properties": { "magmom": 0.0 },
        "label": "O",
        "xyz": [7.4903830211642, 3.0881083365592548, 3.2566711083261937]
      },
      {
        "species": [{ "element": "O", "occu": 1 }],
        "abc": [0.13526662, 0.38468163, 0.11535784],
        "properties": { "magmom": 0.0 },
        "label": "O",
        "xyz": [1.1452693934407452, 3.2570052911642, 0.9767066216738064]
      },
      {
        "species": [{ "element": "O", "occu": 1 }],
        "abc": [0.11517395, 0.88482605, 0.11517395],
        "properties": { "magmom": 0.0 },
        "label": "O",
        "xyz": [0.9751496700122669, 7.491605789987733, 0.9751496700122669]
      },
      {
        "species": [{ "element": "O", "occu": 1 }],
        "abc": [0.36473338, 0.61535784, 0.11531837],
        "properties": { "magmom": 0.0 },
        "label": "O",
        "xyz": [3.0881083365592548, 5.210084351673807, 0.9763724388358003]
      },
      {
        "species": [{ "element": "O", "occu": 1 }],
        "abc": [0.38464216, 0.88468163, 0.36473338],
        "properties": { "magmom": 0.0 },
        "label": "O",
        "xyz": [3.2566711083261937, 7.4903830211642, 3.0881083365592548]
      },
      {
        "species": [{ "element": "O", "occu": 1 }],
        "abc": [0.11531837, 0.63526662, 0.38464216],
        "properties": { "magmom": 0.0 },
        "label": "O",
        "xyz": [0.9763724388358003, 5.378647123440746, 3.2566711083261937]
      },
      {
        "species": [{ "element": "O", "occu": 1 }],
        "abc": [0.38482605000000003, 0.61517395, 0.61517395],
        "properties": { "magmom": 0.0 },
        "label": "O",
        "xyz": [3.2582280599877333, 5.208527400012267, 5.208527400012267]
      },
      {
        "species": [{ "element": "O", "occu": 1 }],
        "abc": [0.8846421600000001, 0.86473338, 0.38468163],
        "properties": { "magmom": 0.0 },
        "label": "O",
        "xyz": [7.490048838326194, 7.321486066559254, 3.2570052911642]
      },
      {
        "species": [{ "element": "O", "occu": 1 }],
        "abc": [0.63526662, 0.61535784, 0.88468163],
        "properties": { "magmom": 0.0 },
        "label": "O",
        "xyz": [5.378647123440746, 5.210084351673807, 7.4903830211642]
      },
      {
        "species": [{ "element": "O", "occu": 1 }],
        "abc": [0.36473338, 0.38464216, 0.88468163],
        "properties": { "magmom": 0.0 },
        "label": "O",
        "xyz": [3.0881083365592548, 3.2566711083261937, 7.4903830211642]
      },
      {
        "species": [{ "element": "O", "occu": 1 }],
        "abc": [0.86473338, 0.38468163, 0.8846421600000001],
        "properties": { "magmom": 0.0 },
        "label": "O",
        "xyz": [7.321486066559254, 3.2570052911642, 7.490048838326194]
      },
      {
        "species": [{ "element": "O", "occu": 1 }],
        "abc": [0.61531837, 0.8846421600000001, 0.13526662],
        "properties": { "magmom": 0.0 },
        "label": "O",
        "xyz": [5.2097501688358, 7.490048838326194, 1.1452693934407452]
      },
      {
        "species": [{ "element": "O", "occu": 1 }],
        "abc": [0.38482605000000003, 0.38482605000000003, 0.38482605000000003],
        "properties": { "magmom": 0.0 },
        "label": "O",
        "xyz": [3.2582280599877333, 3.2582280599877333, 3.2582280599877333]
      },
      {
        "species": [{ "element": "O", "occu": 1 }],
        "abc": [0.61517395, 0.61517395, 0.38482605000000003],
        "properties": { "magmom": 0.0 },
        "label": "O",
        "xyz": [5.208527400012267, 5.208527400012267, 3.2582280599877333]
      },
      {
        "species": [{ "element": "O", "occu": 1 }],
        "abc": [0.63526662, 0.38464216, 0.11531837],
        "properties": { "magmom": 0.0 },
        "label": "O",
        "xyz": [5.378647123440746, 3.2566711083261937, 0.9763724388358003]
      },
      {
        "species": [{ "element": "O", "occu": 1 }],
        "abc": [0.8846421600000001, 0.13526662, 0.61531837],
        "properties": { "magmom": 0.0 },
        "label": "O",
        "xyz": [7.490048838326194, 1.1452693934407452, 5.2097501688358]
      },
      {
        "species": [{ "element": "O", "occu": 1 }],
        "abc": [0.11535784, 0.13526662, 0.38468163],
        "properties": { "magmom": 0.0 },
        "label": "O",
        "xyz": [0.9767066216738064, 1.1452693934407452, 3.2570052911642]
      },
      {
        "species": [{ "element": "O", "occu": 1 }],
        "abc": [0.38464216, 0.11531837, 0.63526662],
        "properties": { "magmom": 0.0 },
        "label": "O",
        "xyz": [3.2566711083261937, 0.9763724388358003, 5.378647123440746]
      },
      {
        "species": [{ "element": "O", "occu": 1 }],
        "abc": [0.86473338, 0.61531837, 0.11535784],
        "properties": { "magmom": 0.0 },
        "label": "O",
        "xyz": [7.321486066559254, 5.2097501688358, 0.9767066216738064]
      },
      {
        "species": [{ "element": "O", "occu": 1 }],
        "abc": [0.88468163, 0.63526662, 0.61535784],
        "properties": { "magmom": 0.0 },
        "label": "O",
        "xyz": [7.4903830211642, 5.378647123440746, 5.210084351673807]
      },
      {
        "species": [{ "element": "O", "occu": 1 }],
        "abc": [0.38468163, 0.11535784, 0.13526662],
        "properties": { "magmom": 0.0 },
        "label": "O",
        "xyz": [3.2570052911642, 0.9767066216738064, 1.1452693934407452]
      },
      {
        "species": [{ "element": "O", "occu": 1 }],
        "abc": [0.88482605, 0.88482605, 0.88482605],
        "properties": { "magmom": 0.0 },
        "label": "O",
        "xyz": [7.491605789987733, 7.491605789987733, 7.491605789987733]
      }
    ]
  },
  "task_ids": null,
  "uncorrected_energy_per_atom": null,
  "energy_per_atom": -6.99522299375,
  "formation_energy_per_atom": -1.181973681749999,
  "energy_above_hull": 0.0,
  "is_stable": true,
  "equilibrium_reaction_energy_per_atom": null,
  "decomposes_to": null,
  "xas": null,
  "grain_boundaries": null,
  "band_gap": 2.4654,
  "cbm": null,
  "vbm": null,
  "efermi": -2.96590731,
  "is_gap_direct": null,
  "is_metal": null,
  "es_source_calc_id": null,
  "bandstructure": null,
  "dos": null,
  "dos_energy_up": null,
  "dos_energy_down": null,
  "is_magnetic": null,
  "ordering": null,
  "total_magnetization": 0.0,
  "total_magnetization_normalized_vol": null,
  "total_magnetization_normalized_formula_units": null,
  "num_magnetic_sites": null,
  "num_unique_magnetic_sites": null,
  "types_of_magnetic_species": null,
  "bulk_modulus": null,
  "shear_modulus": null,
  "universal_anisotropy": null,
  "homogeneous_poisson": null,
  "e_total": null,
  "e_ionic": null,
  "e_electronic": null,
  "n": null,
  "e_ij_max": null,
  "weighted_surface_energy_EV_PER_ANG2": null,
  "weighted_surface_energy": null,
  "weighted_work_function": null,
  "surface_anisotropy": null,
  "shape_factor": null,
  "has_reconstructed": null,
  "possible_species": null,
  "has_props": null,
  "theoretical": null,
  "database_IDs": null,
  "fields_not_requested": [
    "builder_meta",
    "nsites",
    "elements",
    "nelements",
    "composition",
    "composition_reduced",
    "chemsys",
    "symmetry",
    "property_name",
    "deprecated",
    "deprecation_reasons",
    "last_updated",
    "origins",
    "warnings",
    "task_ids",
    "uncorrected_energy_per_atom",
    "equilibrium_reaction_energy_per_atom",
    "decomposes_to",
    "xas",
    "grain_boundaries",
    "cbm",
    "vbm",
    "is_gap_direct",
    "is_metal",
    "es_source_calc_id",
    "bandstructure",
    "dos",
    "dos_energy_up",
    "dos_energy_down",
    "is_magnetic",
    "ordering",
    "total_magnetization_normalized_vol",
    "total_magnetization_normalized_formula_units",
    "num_magnetic_sites",
    "num_unique_magnetic_sites",
    "types_of_magnetic_species",
    "bulk_modulus",
    "shear_modulus",
    "universal_anisotropy",
    "homogeneous_poisson",
    "e_total",
    "e_ionic",
    "e_electronic",
    "n",
    "e_ij_max",
    "weighted_surface_energy_EV_PER_ANG2",
    "weighted_surface_energy",
    "weighted_work_function",
    "surface_anisotropy",
    "shape_factor",
    "has_reconstructed",
    "possible_species",
    "has_props",
    "theoretical",
    "database_IDs"
  ]
}
