{
  "builder_meta": null,
  "nsites": null,
  "elements": null,
  "nelements": null,
  "composition": null,
  "composition_reduced": null,
  "formula_pretty": "RuRh4",
  "formula_anonymous": "AB4",
  "chemsys": null,
  "volume": 70.91636772492515,
  "density": 12.004916811807648,
  "density_atomic": 14.183273544985031,
  "symmetry": null,
  "property_name": null,
  "material_id": "mp-1219522",
  "deprecated": null,
  "deprecation_reasons": null,
  "last_updated": null,
  "origins": null,
  "warnings": null,
  "structure": {
    "@module": "pymatgen.core.structure",
    "@class": "Structure",
    "charge": 0,
    "lattice": {
      "matrix": [
        [11.075439, -1.361273999999999, 0.0],
        [11.075439, 1.361273999999999, 0.0],
        [10.908125, 0.0, 2.351852]
      ],
      "pbc": [true, true, true],
      "a": 11.158782009959554,
      "b": 11.158782009959554,
      "c": 11.158781243734865,
      "alpha": 14.014078427711313,
      "beta": 14.014078427711313,
      "gamma": 14.014076903569647,
      "volume": 70.91636772492511
    },
    "properties": {},
    "sites": [
      {
        "species": [{ "element": "Ru", "occu": 1 }],
        "abc": [0.0, 0.0, 0.0],
        "properties": { "magmom": -0.0 },
        "label": "Ru",
        "xyz": [0.0, 0.0, 0.0]
      },
      {
        "species": [{ "element": "Rh", "occu": 1 }],
        "abc": [0.601067, 0.601067, 0.601067],
        "properties": { "magmom": 0.0 },
        "label": "Rh",
        "xyz": [19.870675756201003, 0.0, 1.413620626084]
      },
      {
        "species": [{ "element": "Rh", "occu": 1 }],
        "abc": [0.199809, 0.199809, 0.199809],
        "properties": { "magmom": -0.0 },
        "label": "Rh",
        "xyz": [6.6054863304269995, 0.0, 0.469921196268]
      },
      {
        "species": [{ "element": "Rh", "occu": 1 }],
        "abc": [0.800191, 0.800191, 0.800191],
        "properties": { "magmom": -0.0 },
        "label": "Rh",
        "xyz": [26.453516669573, 0.0, 1.881930803732]
      },
      {
        "species": [{ "element": "Rh", "occu": 1 }],
        "abc": [0.398933, 0.398933, 0.398933],
        "properties": { "magmom": 0.0 },
        "label": "Rh",
        "xyz": [13.188327243798998, 0.0, 0.938231373916]
      }
    ]
  },
  "task_ids": null,
  "uncorrected_energy_per_atom": null,
  "energy_per_atom": -24.38063655966667,
  "formation_energy_per_atom": 0.013253403333331,
  "energy_above_hull": 0.013549185999998001,
  "is_stable": false,
  "equilibrium_reaction_energy_per_atom": null,
  "decomposes_to": null,
  "xas": null,
  "grain_boundaries": null,
  "band_gap": 0.0,
  "cbm": null,
  "vbm": null,
  "efermi": 6.9783865,
  "is_gap_direct": null,
  "is_metal": null,
  "es_source_calc_id": null,
  "bandstructure": null,
  "dos": null,
  "dos_energy_up": null,
  "dos_energy_down": null,
  "is_magnetic": null,
  "ordering": null,
  "total_magnetization": 0.0002524,
  "total_magnetization_normalized_vol": null,
  "total_magnetization_normalized_formula_units": null,
  "num_magnetic_sites": null,
  "num_unique_magnetic_sites": null,
  "types_of_magnetic_species": null,
  "bulk_modulus": null,
  "shear_modulus": null,
  "universal_anisotropy": null,
  "homogeneous_poisson": null,
  "e_total": null,
  "e_ionic": null,
  "e_electronic": null,
  "n": null,
  "e_ij_max": null,
  "weighted_surface_energy_EV_PER_ANG2": null,
  "weighted_surface_energy": null,
  "weighted_work_function": null,
  "surface_anisotropy": null,
  "shape_factor": null,
  "has_reconstructed": null,
  "possible_species": null,
  "has_props": null,
  "theoretical": null,
  "database_IDs": null,
  "fields_not_requested": [
    "builder_meta",
    "nsites",
    "elements",
    "nelements",
    "composition",
    "composition_reduced",
    "chemsys",
    "symmetry",
    "property_name",
    "deprecated",
    "deprecation_reasons",
    "last_updated",
    "origins",
    "warnings",
    "task_ids",
    "uncorrected_energy_per_atom",
    "equilibrium_reaction_energy_per_atom",
    "decomposes_to",
    "xas",
    "grain_boundaries",
    "cbm",
    "vbm",
    "is_gap_direct",
    "is_metal",
    "es_source_calc_id",
    "bandstructure",
    "dos",
    "dos_energy_up",
    "dos_energy_down",
    "is_magnetic",
    "ordering",
    "total_magnetization_normalized_vol",
    "total_magnetization_normalized_formula_units",
    "num_magnetic_sites",
    "num_unique_magnetic_sites",
    "types_of_magnetic_species",
    "bulk_modulus",
    "shear_modulus",
    "universal_anisotropy",
    "homogeneous_poisson",
    "e_total",
    "e_ionic",
    "e_electronic",
    "n",
    "e_ij_max",
    "weighted_surface_energy_EV_PER_ANG2",
    "weighted_surface_energy",
    "weighted_work_function",
    "surface_anisotropy",
    "shape_factor",
    "has_reconstructed",
    "possible_species",
    "has_props",
    "theoretical",
    "database_IDs"
  ]
}
