{
  "builder_meta": null,
  "nsites": null,
  "elements": null,
  "nelements": null,
  "composition": null,
  "composition_reduced": null,
  "formula_pretty": "RuS2",
  "formula_anonymous": "AB2",
  "chemsys": null,
  "volume": 178.51153198083136,
  "density": 6.146853388312788,
  "density_atomic": 14.875960998402613,
  "symmetry": null,
  "property_name": null,
  "material_id": "mp-2030",
  "deprecated": null,
  "deprecation_reasons": null,
  "last_updated": null,
  "origins": null,
  "warnings": null,
  "structure": {
    "@module": "pymatgen.core.structure",
    "@class": "Structure",
    "charge": 0,
    "lattice": {
      "matrix": [
        [5.63060972, -0.0, -0.0],
        [0.0, 5.63060972, 0.0],
        [-0.0, 0.0, 5.63060972]
      ],
      "pbc": [true, true, true],
      "a": 5.63060972,
      "b": 5.63060972,
      "c": 5.63060972,
      "alpha": 90.0,
      "beta": 90.0,
      "gamma": 90.0,
      "volume": 178.51153198083136
    },
    "properties": {},
    "sites": [
      {
        "species": [{ "element": "Ru", "occu": 1 }],
        "abc": [0.0, 0.5, 0.5],
        "properties": { "magmom": -0.0 },
        "label": "Ru",
        "xyz": [0.0, 2.81530486, 2.81530486]
      },
      {
        "species": [{ "element": "Ru", "occu": 1 }],
        "abc": [0.5, 0.5, 0.0],
        "properties": { "magmom": -0.0 },
        "label": "Ru",
        "xyz": [2.81530486, 2.81530486, 0.0]
      },
      {
        "species": [{ "element": "Ru", "occu": 1 }],
        "abc": [0.5, -0.0, 0.5],
        "properties": { "magmom": -0.0 },
        "label": "Ru",
        "xyz": [2.81530486, 0.0, 2.81530486]
      },
      {
        "species": [{ "element": "Ru", "occu": 1 }],
        "abc": [0.0, -0.0, 0.0],
        "properties": { "magmom": -0.0 },
        "label": "Ru",
        "xyz": [0.0, 0.0, 0.0]
      },
      {
        "species": [{ "element": "S", "occu": 1 }],
        "abc": [0.38820417, 0.11179583, 0.8882041700000001],
        "properties": { "magmom": 0.0 },
        "label": "S",
        "xyz": [2.1858261729465323, 0.6294786870534675, 5.001131032946533]
      },
      {
        "species": [{ "element": "S", "occu": 1 }],
        "abc": [0.11179583, 0.8882041700000001, 0.38820417],
        "properties": { "magmom": 0.0 },
        "label": "S",
        "xyz": [0.6294786870534675, 5.001131032946533, 2.1858261729465323]
      },
      {
        "species": [{ "element": "S", "occu": 1 }],
        "abc": [0.8882041700000001, 0.38820417, 0.11179583],
        "properties": { "magmom": 0.0 },
        "label": "S",
        "xyz": [5.001131032946533, 2.1858261729465323, 0.6294786870534675]
      },
      {
        "species": [{ "element": "S", "occu": 1 }],
        "abc": [0.61179583, 0.61179583, 0.61179583],
        "properties": { "magmom": 0.0 },
        "label": "S",
        "xyz": [3.4447835470534676, 3.4447835470534676, 3.4447835470534676]
      },
      {
        "species": [{ "element": "S", "occu": 1 }],
        "abc": [0.38820417, 0.38820417, 0.38820417],
        "properties": { "magmom": 0.0 },
        "label": "S",
        "xyz": [2.1858261729465323, 2.1858261729465323, 2.1858261729465323]
      },
      {
        "species": [{ "element": "S", "occu": 1 }],
        "abc": [0.11179583, 0.61179583, 0.8882041700000001],
        "properties": { "magmom": 0.0 },
        "label": "S",
        "xyz": [0.6294786870534675, 3.4447835470534676, 5.001131032946533]
      },
      {
        "species": [{ "element": "S", "occu": 1 }],
        "abc": [0.8882041700000001, 0.11179583, 0.61179583],
        "properties": { "magmom": 0.0 },
        "label": "S",
        "xyz": [5.001131032946533, 0.6294786870534675, 3.4447835470534676]
      },
      {
        "species": [{ "element": "S", "occu": 1 }],
        "abc": [0.61179583, 0.8882041700000001, 0.11179583],
        "properties": { "magmom": 0.0 },
        "label": "S",
        "xyz": [3.4447835470534676, 5.001131032946533, 0.6294786870534675]
      }
    ]
  },
  "task_ids": null,
  "uncorrected_energy_per_atom": null,
  "energy_per_atom": -14.518220976666667,
  "formation_energy_per_atom": -0.6867098235416661,
  "energy_above_hull": 0.0,
  "is_stable": true,
  "equilibrium_reaction_energy_per_atom": null,
  "decomposes_to": null,
  "xas": null,
  "grain_boundaries": null,
  "band_gap": 0.6683999999999991,
  "cbm": null,
  "vbm": null,
  "efermi": 7.57206877,
  "is_gap_direct": null,
  "is_metal": null,
  "es_source_calc_id": null,
  "bandstructure": null,
  "dos": null,
  "dos_energy_up": null,
  "dos_energy_down": null,
  "is_magnetic": null,
  "ordering": null,
  "total_magnetization": 0.0,
  "total_magnetization_normalized_vol": null,
  "total_magnetization_normalized_formula_units": null,
  "num_magnetic_sites": null,
  "num_unique_magnetic_sites": null,
  "types_of_magnetic_species": null,
  "bulk_modulus": null,
  "shear_modulus": null,
  "universal_anisotropy": null,
  "homogeneous_poisson": null,
  "e_total": null,
  "e_ionic": null,
  "e_electronic": null,
  "n": null,
  "e_ij_max": null,
  "weighted_surface_energy_EV_PER_ANG2": null,
  "weighted_surface_energy": null,
  "weighted_work_function": null,
  "surface_anisotropy": null,
  "shape_factor": null,
  "has_reconstructed": null,
  "possible_species": null,
  "has_props": null,
  "theoretical": null,
  "database_IDs": null,
  "fields_not_requested": [
    "builder_meta",
    "nsites",
    "elements",
    "nelements",
    "composition",
    "composition_reduced",
    "chemsys",
    "symmetry",
    "property_name",
    "deprecated",
    "deprecation_reasons",
    "last_updated",
    "origins",
    "warnings",
    "task_ids",
    "uncorrected_energy_per_atom",
    "equilibrium_reaction_energy_per_atom",
    "decomposes_to",
    "xas",
    "grain_boundaries",
    "cbm",
    "vbm",
    "is_gap_direct",
    "is_metal",
    "es_source_calc_id",
    "bandstructure",
    "dos",
    "dos_energy_up",
    "dos_energy_down",
    "is_magnetic",
    "ordering",
    "total_magnetization_normalized_vol",
    "total_magnetization_normalized_formula_units",
    "num_magnetic_sites",
    "num_unique_magnetic_sites",
    "types_of_magnetic_species",
    "bulk_modulus",
    "shear_modulus",
    "universal_anisotropy",
    "homogeneous_poisson",
    "e_total",
    "e_ionic",
    "e_electronic",
    "n",
    "e_ij_max",
    "weighted_surface_energy_EV_PER_ANG2",
    "weighted_surface_energy",
    "weighted_work_function",
    "surface_anisotropy",
    "shape_factor",
    "has_reconstructed",
    "possible_species",
    "has_props",
    "theoretical",
    "database_IDs"
  ]
}
