{"builder_meta": null, "nsites": null, "elements": null, "nelements": null, "composition": null, "composition_reduced": null, "formula_pretty": "RuSe2", "formula_anonymous": "AB2", "chemsys": null, "volume": 212.95075599608094, "density": 8.078168322945961, "density_atomic": 17.745896333006744, "symmetry": null, "property_name": null, "material_id": "mp-1922", "deprecated": null, "deprecation_reasons": null, "last_updated": null, "origins": null, "warnings": null, "structure": {"@module": "pymatgen.core.structure", "@class": "Structure", "charge": 0, "lattice": {"matrix": [[5.97163235, 0.0, -0.0], [-0.0, 5.97163235, -0.0], [-0.0, -0.0, 5.97163235]], "pbc": [true, true, true], "a": 5.97163235, "b": 5.97163235, "c": 5.97163235, "alpha": 90.0, "beta": 90.0, "gamma": 90.0, "volume": 212.95075599608094}, "properties": {}, "sites": [{"species": [{"element": "Ru", "occu": 1}], "abc": [-0.0, 0.5, 0.5], "properties": {"magmom": -0.0}, "label": "Ru", "xyz": [0.0, 2.985816175, 2.985816175]}, {"species": [{"element": "Ru", "occu": 1}], "abc": [0.5, 0.5, -0.0], "properties": {"magmom": -0.0}, "label": "Ru", "xyz": [2.985816175, 2.985816175, 0.0]}, {"species": [{"element": "Ru", "occu": 1}], "abc": [0.5, -0.0, 0.5], "properties": {"magmom": -0.0}, "label": "Ru", "xyz": [2.985816175, 0.0, 2.985816175]}, {"species": [{"element": "Ru", "occu": 1}], "abc": [-0.0, 0.0, -0.0], "properties": {"magmom": -0.0}, "label": "Ru", "xyz": [0.0, 0.0, 0.0]}, {"species": [{"element": "Se", "occu": 1}], "abc": [0.38058187, 0.11941813, 0.88058187], "properties": {"magmom": 0.0}, "label": "Se", "xyz": [2.2726950067154945, 0.7131211682845054, 5.258511181715495]}, {"species": [{"element": "Se", "occu": 1}], "abc": [0.11941813, 0.88058187, 0.38058187], "properties": {"magmom": 0.0}, "label": "Se", "xyz": [0.7131211682845054, 5.258511181715495, 2.2726950067154945]}, {"species": [{"element": "Se", "occu": 1}], "abc": [0.88058187, 0.38058187, 0.11941813], "properties": {"magmom": 0.0}, "label": "Se", "xyz": [5.258511181715495, 2.2726950067154945, 0.7131211682845054]}, {"species": [{"element": "Se", "occu": 1}], "abc": [0.61941813, 0.61941813, 0.61941813], "properties": {"magmom": 0.0}, "label": "Se", "xyz": [3.6989373432845056, 3.6989373432845056, 3.6989373432845056]}, {"species": [{"element": "Se", "occu": 1}], "abc": [0.38058187, 0.38058187, 0.38058187], "properties": {"magmom": 0.0}, "label": "Se", "xyz": [2.2726950067154945, 2.2726950067154945, 2.2726950067154945]}, {"species": [{"element": "Se", "occu": 1}], "abc": [0.11941813, 0.61941813, 0.88058187], "properties": {"magmom": 0.0}, "label": "Se", "xyz": [0.7131211682845054, 3.6989373432845056, 5.258511181715495]}, {"species": [{"element": "Se", "occu": 1}], "abc": [0.88058187, 0.11941813, 0.61941813], "properties": {"magmom": 0.0}, "label": "Se", "xyz": [5.258511181715495, 0.7131211682845054, 3.6989373432845056]}, {"species": [{"element": "Se", "occu": 1}], "abc": [0.61941813, 0.88058187, 0.11941813], "properties": {"magmom": 0.0}, "label": "Se", "xyz": [3.6989373432845056, 5.258511181715495, 0.7131211682845054]}]}, "task_ids": null, "uncorrected_energy_per_atom": null, "energy_per_atom": -18.5393966125, "formation_energy_per_atom": -0.523511360208331, "energy_above_hull": 0.0, "is_stable": true, "equilibrium_reaction_energy_per_atom": null, "decomposes_to": null, "xas": null, "grain_boundaries": null, "band_gap": 0.313799999999999, "cbm": null, "vbm": null, "efermi": 5.90710577, "is_gap_direct": null, "is_metal": null, "es_source_calc_id": null, "bandstructure": null, "dos": null, "dos_energy_up": null, "dos_energy_down": null, "is_magnetic": null, "ordering": null, "total_magnetization": 0.0, "total_magnetization_normalized_vol": null, "total_magnetization_normalized_formula_units": null, "num_magnetic_sites": null, "num_unique_magnetic_sites": null, "types_of_magnetic_species": null, "bulk_modulus": null, "shear_modulus": null, "universal_anisotropy": null, "homogeneous_poisson": null, "e_total": null, "e_ionic": null, "e_electronic": null, "n": null, "e_ij_max": null, "weighted_surface_energy_EV_PER_ANG2": null, "weighted_surface_energy": null, "weighted_work_function": null, "surface_anisotropy": null, "shape_factor": null, "has_reconstructed": null, "possible_species": null, "has_props": null, "theoretical": null, "database_IDs": null, "fields_not_requested": ["builder_meta", "nsites", "elements", "nelements", "composition", "composition_reduced", "chemsys", "symmetry", "property_name", "deprecated", "deprecation_reasons", "last_updated", "origins", "warnings", "task_ids", "uncorrected_energy_per_atom", "equilibrium_reaction_energy_per_atom", "decomposes_to", "xas", "grain_boundaries", "cbm", "vbm", "is_gap_direct", "is_metal", "es_source_calc_id", "bandstructure", "dos", "dos_energy_up", "dos_energy_down", "is_magnetic", "ordering", "total_magnetization_normalized_vol", "total_magnetization_normalized_formula_units", "num_magnetic_sites", "num_unique_magnetic_sites", "types_of_magnetic_species", "bulk_modulus", "shear_modulus", "universal_anisotropy", "homogeneous_poisson", "e_total", "e_ionic", "e_electronic", "n", "e_ij_max", "weighted_surface_energy_EV_PER_ANG2", "weighted_surface_energy", "weighted_work_function", "surface_anisotropy", "shape_factor", "has_reconstructed", "possible_species", "has_props", "theoretical", "database_IDs"]}