{"builder_meta": null, "nsites": null, "elements": null, "nelements": null, "composition": null, "composition_reduced": null, "formula_pretty": "S2N", "formula_anonymous": "AB2", "chemsys": null, "volume": 598.3706195874307, "density": 1.73469804349237, "density_atomic": 24.93210914947628, "symmetry": null, "property_name": null, "material_id": "mp-2565", "deprecated": null, "deprecation_reasons": null, "last_updated": null, "origins": null, "warnings": null, "structure": {"@module": "pymatgen.core.structure", "@class": "Structure", "charge": 0, "lattice": {"matrix": [[11.868408, 0.0, 0.0], [0.0, 11.868408, 0.0], [0.0, 0.0, 4.248008]], "pbc": [true, true, true], "a": 11.868408, "b": 11.868408, "c": 4.248008, "alpha": 90.0, "beta": 90.0, "gamma": 90.0, "volume": 598.3706195874307}, "properties": {}, "sites": [{"species": [{"element": "S", "occu": 1}], "abc": [0.153827, 0.348616, 0.312073999999999], "properties": {"magmom": 0.0}, "label": "S", "xyz": [1.825681597416, 4.137516923328, 1.3256928485919957]}, {"species": [{"element": "S", "occu": 1}], "abc": [0.848615999999999, 0.346173, 0.812074], "properties": {"magmom": 0.0}, "label": "S", "xyz": [10.07172092332799, 4.108522402584001, 3.4496968485919997]}, {"species": [{"element": "S", "occu": 1}], "abc": [0.151384, 0.653826999999999, 0.812074], "properties": {"magmom": 0.0}, "label": "S", "xyz": [1.796687076672, 7.759885597415989, 3.4496968485919997]}, {"species": [{"element": "S", "occu": 1}], "abc": [0.846173, 0.651384, 0.312073999999999], "properties": {"magmom": 0.0}, "label": "S", "xyz": [10.042726402584, 7.730891076672, 1.3256928485919957]}, {"species": [{"element": "S", "occu": 1}], "abc": [0.653826999999999, 0.151384, 0.812074], "properties": {"magmom": 0.0}, "label": "S", "xyz": [7.759885597415989, 1.796687076672, 3.4496968485919997]}, {"species": [{"element": "S", "occu": 1}], "abc": [0.346173, 0.848615999999999, 0.812074], "properties": {"magmom": 0.0}, "label": "S", "xyz": [4.108522402584001, 10.07172092332799, 3.4496968485919997]}, {"species": [{"element": "S", "occu": 1}], "abc": [0.651384, 0.846173, 0.312073999999999], "properties": {"magmom": 0.0}, "label": "S", "xyz": [7.730891076672, 10.042726402584, 1.3256928485919957]}, {"species": [{"element": "S", "occu": 1}], "abc": [0.348616, 0.153827, 0.312073999999999], "properties": {"magmom": 0.0}, "label": "S", "xyz": [4.137516923328, 1.825681597416, 1.3256928485919957]}, {"species": [{"element": "S", "occu": 1}], "abc": [0.680873, 0.680873, 0.174102999999999], "properties": {"magmom": 0.0}, "label": "S", "xyz": [8.080878560183999, 8.080878560183999, 0.7395909368239957]}, {"species": [{"element": "S", "occu": 1}], "abc": [0.180872999999999, 0.819126999999999, 0.674103], "properties": {"magmom": 0.0}, "label": "S", "xyz": [2.1466745601839885, 9.721733439815988, 2.8635949368239997]}, {"species": [{"element": "S", "occu": 1}], "abc": [0.819126999999999, 0.180872999999999, 0.674103], "properties": {"magmom": 0.0}, "label": "S", "xyz": [9.721733439815988, 2.1466745601839885, 2.8635949368239997]}, {"species": [{"element": "S", "occu": 1}], "abc": [0.319127, 0.319127, 0.174102999999999], "properties": {"magmom": 0.0}, "label": "S", "xyz": [3.787529439816, 3.787529439816, 0.7395909368239957]}, {"species": [{"element": "S", "occu": 1}], "abc": [0.882455, 0.882455, 0.110513], "properties": {"magmom": 0.0}, "label": "S", "xyz": [10.47333598164, 10.47333598164, 0.46946010810399996]}, {"species": [{"element": "S", "occu": 1}], "abc": [0.382455, 0.617545, 0.610513], "properties": {"magmom": 0.0}, "label": "S", "xyz": [4.53913198164, 7.329276018360001, 2.5934641081039995]}, {"species": [{"element": "S", "occu": 1}], "abc": [0.617545, 0.382455, 0.610513], "properties": {"magmom": 0.0}, "label": "S", "xyz": [7.329276018360001, 4.53913198164, 2.5934641081039995]}, {"species": [{"element": "S", "occu": 1}], "abc": [0.117545, 0.117545, 0.110513], "properties": {"magmom": 0.0}, "label": "S", "xyz": [1.39507201836, 1.39507201836, 0.46946010810399996]}, {"species": [{"element": "N", "occu": 1}], "abc": [0.243734999999999, 0.079030999999999, 0.161268], "properties": {"magmom": -0.0}, "label": "N", "xyz": [2.8927464238799883, 0.9379721526479883, 0.6850677541439999]}, {"species": [{"element": "N", "occu": 1}], "abc": [0.756265, 0.920968999999999, 0.161268], "properties": {"magmom": -0.0}, "label": "N", "xyz": [8.97566157612, 10.930435847351989, 0.6850677541439999]}, {"species": [{"element": "N", "occu": 1}], "abc": [0.420969, 0.743734999999999, 0.661268], "properties": {"magmom": -0.0}, "label": "N", "xyz": [4.996231847352, 8.826950423879989, 2.8090717541439996]}, {"species": [{"element": "N", "occu": 1}], "abc": [0.579031, 0.256264999999999, 0.661268], "properties": {"magmom": -0.0}, "label": "N", "xyz": [6.872176152648, 3.0414575761199885, 2.8090717541439996]}, {"species": [{"element": "N", "occu": 1}], "abc": [0.920968999999999, 0.756265, 0.161268], "properties": {"magmom": -0.0}, "label": "N", "xyz": [10.930435847351989, 8.97566157612, 0.6850677541439999]}, {"species": [{"element": "N", "occu": 1}], "abc": [0.256264999999999, 0.579031, 0.661268], "properties": {"magmom": -0.0}, "label": "N", "xyz": [3.0414575761199885, 6.872176152648, 2.8090717541439996]}, {"species": [{"element": "N", "occu": 1}], "abc": [0.743734999999999, 0.420969, 0.661268], "properties": {"magmom": -0.0}, "label": "N", "xyz": [8.826950423879989, 4.996231847352, 2.8090717541439996]}, {"species": [{"element": "N", "occu": 1}], "abc": [0.079030999999999, 0.243734999999999, 0.161268], "properties": {"magmom": -0.0}, "label": "N", "xyz": [0.9379721526479883, 2.8927464238799883, 0.6850677541439999]}]}, "task_ids": null, "uncorrected_energy_per_atom": null, "energy_per_atom": -8.091720461458333, "formation_energy_per_atom": 0.307862483749999, "energy_above_hull": 0.307862483749999, "is_stable": false, "equilibrium_reaction_energy_per_atom": null, "decomposes_to": null, "xas": null, "grain_boundaries": null, "band_gap": 1.4408, "cbm": null, "vbm": null, "efermi": 1.14998021, "is_gap_direct": null, "is_metal": null, "es_source_calc_id": null, "bandstructure": null, "dos": null, "dos_energy_up": null, "dos_energy_down": null, "is_magnetic": null, "ordering": null, "total_magnetization": 0.0, "total_magnetization_normalized_vol": null, "total_magnetization_normalized_formula_units": null, "num_magnetic_sites": null, "num_unique_magnetic_sites": null, "types_of_magnetic_species": null, "bulk_modulus": null, "shear_modulus": null, "universal_anisotropy": null, "homogeneous_poisson": null, "e_total": null, "e_ionic": null, "e_electronic": null, "n": null, "e_ij_max": null, "weighted_surface_energy_EV_PER_ANG2": null, "weighted_surface_energy": null, "weighted_work_function": null, "surface_anisotropy": null, "shape_factor": null, "has_reconstructed": null, "possible_species": null, "has_props": null, "theoretical": null, "database_IDs": null, "fields_not_requested": ["builder_meta", "nsites", "elements", "nelements", "composition", "composition_reduced", "chemsys", "symmetry", "property_name", "deprecated", "deprecation_reasons", "last_updated", "origins", "warnings", "task_ids", "uncorrected_energy_per_atom", "equilibrium_reaction_energy_per_atom", "decomposes_to", "xas", "grain_boundaries", "cbm", "vbm", "is_gap_direct", "is_metal", "es_source_calc_id", "bandstructure", "dos", "dos_energy_up", "dos_energy_down", "is_magnetic", "ordering", "total_magnetization_normalized_vol", "total_magnetization_normalized_formula_units", "num_magnetic_sites", "num_unique_magnetic_sites", "types_of_magnetic_species", "bulk_modulus", "shear_modulus", "universal_anisotropy", "homogeneous_poisson", "e_total", "e_ionic", "e_electronic", "n", "e_ij_max", "weighted_surface_energy_EV_PER_ANG2", "weighted_surface_energy", "weighted_work_function", "surface_anisotropy", "shape_factor", "has_reconstructed", "possible_species", "has_props", "theoretical", "database_IDs"]}