{"builder_meta": null, "nsites": null, "elements": null, "nelements": null, "composition": null, "composition_reduced": null, "formula_pretty": "S3Cl", "formula_anonymous": "AB3", "chemsys": null, "volume": 198.74095391314745, "density": 2.199915445060115, "density_atomic": 24.84261923914343, "symmetry": null, "property_name": null, "material_id": "mp-1186934", "deprecated": null, "deprecation_reasons": null, "last_updated": null, "origins": null, "warnings": null, "structure": {"@module": "pymatgen.core.structure", "@class": "Structure", "charge": 0, "lattice": {"matrix": [[4.420362, -7.656292, 0.0], [4.420362, 7.656292, 0.0], [0.0, 0.0, 2.936169]], "pbc": [true, true, true], "a": 8.84072437079157, "b": 8.84072437079157, "c": 2.936169, "alpha": 90.0, "beta": 90.0, "gamma": 120.00000277481477, "volume": 198.74095391314745}, "properties": {}, "sites": [{"species": [{"element": "S", "occu": 1}], "abc": [0.120353999999999, 0.240708999999999, 0.25], "properties": {"magmom": -0.001}, "label": "S", "xyz": [1.5960291648059912, 0.9214730236600001, 0.73404225]}, {"species": [{"element": "S", "occu": 1}], "abc": [0.759290999999999, 0.879645999999999, 0.25], "properties": {"magmom": 0.0}, "label": "S", "xyz": [7.244694835193991, 0.92147302366, 0.73404225]}, {"species": [{"element": "S", "occu": 1}], "abc": [0.120353999999999, 0.879645999999999, 0.25], "properties": {"magmom": 0.0}, "label": "S", "xyz": [4.420361999999991, 5.813361265264, 0.73404225]}, {"species": [{"element": "S", "occu": 1}], "abc": [0.879645999999999, 0.759290999999999, 0.75], "properties": {"magmom": -0.001}, "label": "S", "xyz": [7.244694835193991, -0.92147302366, 2.20212675]}, {"species": [{"element": "S", "occu": 1}], "abc": [0.240708999999999, 0.120353999999999, 0.75], "properties": {"magmom": 0.0}, "label": "S", "xyz": [1.5960291648059912, -0.9214730236600001, 2.20212675]}, {"species": [{"element": "S", "occu": 1}], "abc": [0.879645999999999, 0.120353999999999, 0.75], "properties": {"magmom": 0.0}, "label": "S", "xyz": [4.420361999999991, -5.813361265264, 2.20212675]}, {"species": [{"element": "Cl", "occu": 1}], "abc": [0.333333, 0.666667, 0.75], "properties": {"magmom": -0.0}, "label": "Cl", "xyz": [4.420362, 2.552102437528, 2.20212675]}, {"species": [{"element": "Cl", "occu": 1}], "abc": [0.666667, 0.333333, 0.25], "properties": {"magmom": 0.0}, "label": "Cl", "xyz": [4.420362, -2.552102437528, 0.73404225]}]}, "task_ids": null, "uncorrected_energy_per_atom": null, "energy_per_atom": -3.488492372499999, "formation_energy_per_atom": 0.077413003125001, "energy_above_hull": 0.31394444125000004, "is_stable": false, "equilibrium_reaction_energy_per_atom": null, "decomposes_to": null, "xas": null, "grain_boundaries": null, "band_gap": 0.0, "cbm": null, "vbm": null, "efermi": 2.33779464, "is_gap_direct": null, "is_metal": null, "es_source_calc_id": null, "bandstructure": null, "dos": null, "dos_energy_up": null, "dos_energy_down": null, "is_magnetic": null, "ordering": null, "total_magnetization": 0.0001474, "total_magnetization_normalized_vol": null, "total_magnetization_normalized_formula_units": null, "num_magnetic_sites": null, "num_unique_magnetic_sites": null, "types_of_magnetic_species": null, "bulk_modulus": null, "shear_modulus": null, "universal_anisotropy": null, "homogeneous_poisson": null, "e_total": null, "e_ionic": null, "e_electronic": null, "n": null, "e_ij_max": null, "weighted_surface_energy_EV_PER_ANG2": null, "weighted_surface_energy": null, "weighted_work_function": null, "surface_anisotropy": null, "shape_factor": null, "has_reconstructed": null, "possible_species": null, "has_props": null, "theoretical": null, "database_IDs": null, "fields_not_requested": ["builder_meta", "nsites", "elements", "nelements", "composition", "composition_reduced", "chemsys", "symmetry", "property_name", "deprecated", "deprecation_reasons", "last_updated", "origins", "warnings", "task_ids", "uncorrected_energy_per_atom", "equilibrium_reaction_energy_per_atom", "decomposes_to", "xas", "grain_boundaries", "cbm", "vbm", "is_gap_direct", "is_metal", "es_source_calc_id", "bandstructure", "dos", "dos_energy_up", "dos_energy_down", "is_magnetic", "ordering", "total_magnetization_normalized_vol", "total_magnetization_normalized_formula_units", "num_magnetic_sites", "num_unique_magnetic_sites", "types_of_magnetic_species", "bulk_modulus", "shear_modulus", "universal_anisotropy", "homogeneous_poisson", "e_total", "e_ionic", "e_electronic", "n", "e_ij_max", "weighted_surface_energy_EV_PER_ANG2", "weighted_surface_energy", "weighted_work_function", "surface_anisotropy", "shape_factor", "has_reconstructed", "possible_species", "has_props", "theoretical", "database_IDs"]}