{"builder_meta": null, "nsites": null, "elements": null, "nelements": null, "composition": null, "composition_reduced": null, "formula_pretty": "S3N", "formula_anonymous": "AB3", "chemsys": null, "volume": 1645.4643083442081, "density": 1.779380831321717, "density_atomic": 25.710379817878252, "symmetry": null, "property_name": null, "material_id": "mp-1209413", "deprecated": null, "deprecation_reasons": null, "last_updated": null, "origins": null, "warnings": null, "structure": {"@module": "pymatgen.core.structure", "@class": "Structure", "charge": 0, "lattice": {"matrix": [[8.410512, 0.0, 0.0], [0.0, 13.380115, 0.0], [0.0, 0.0, 14.62198]], "pbc": [true, true, true], "a": 8.410512, "b": 13.380115, "c": 14.62198, "alpha": 90.0, "beta": 90.0, "gamma": 90.0, "volume": 1645.4643083442081}, "properties": {}, "sites": [{"species": [{"element": "S", "occu": 1}], "abc": [0.105826999999999, 0.145867, 0.491745999999999], "properties": {"magmom": -0.0}, "label": "S", "xyz": [0.8900592534239917, 1.951717234705, 7.190300177079986]}, {"species": [{"element": "S", "occu": 1}], "abc": [0.894173, 0.854132999999999, 0.508254], "properties": {"magmom": -0.0}, "label": "S", "xyz": [7.520452746576001, 11.428397765294987, 7.4316798229200005]}, {"species": [{"element": "S", "occu": 1}], "abc": [0.394173, 0.854132999999999, 0.9917459999999991], "properties": {"magmom": -0.0}, "label": "S", "xyz": [3.3151967465760004, 11.428397765294987, 14.501290177079987]}, {"species": [{"element": "S", "occu": 1}], "abc": [0.894173, 0.645867, 0.008254], "properties": {"magmom": -0.0}, "label": "S", "xyz": [7.520452746576001, 8.641774734704999, 0.12068982292]}, {"species": [{"element": "S", "occu": 1}], "abc": [0.605827, 0.145867, 0.008254], "properties": {"magmom": -0.0}, "label": "S", "xyz": [5.095315253424, 1.951717234705, 0.12068982292]}, {"species": [{"element": "S", "occu": 1}], "abc": [0.105826999999999, 0.354133, 0.9917459999999991], "properties": {"magmom": -0.0}, "label": "S", "xyz": [0.8900592534239917, 4.738340265294999, 14.501290177079987]}, {"species": [{"element": "S", "occu": 1}], "abc": [0.605827, 0.354133, 0.508254], "properties": {"magmom": -0.0}, "label": "S", "xyz": [5.095315253424, 4.738340265294999, 7.4316798229200005]}, {"species": [{"element": "S", "occu": 1}], "abc": [0.394173, 0.645867, 0.491745999999999], "properties": {"magmom": -0.0}, "label": "S", "xyz": [3.3151967465760004, 8.641774734704999, 7.190300177079986]}, {"species": [{"element": "S", "occu": 1}], "abc": [0.390575, 0.397793, 0.311741999999999], "properties": {"magmom": -0.0}, "label": "S", "xyz": [3.2849357244000004, 5.322516086195, 4.558285289159985]}, {"species": [{"element": "S", "occu": 1}], "abc": [0.609425, 0.602206999999999, 0.688257999999999], "properties": {"magmom": -0.0}, "label": "S", "xyz": [5.1255762756, 8.057598913804988, 10.063694710839986]}, {"species": [{"element": "S", "occu": 1}], "abc": [0.109425, 0.602206999999999, 0.811742], "properties": {"magmom": -0.0}, "label": "S", "xyz": [0.9203202756000001, 8.057598913804988, 11.86927528916]}, {"species": [{"element": "S", "occu": 1}], "abc": [0.609425, 0.897793, 0.188257999999999], "properties": {"magmom": -0.0}, "label": "S", "xyz": [5.1255762756, 12.012573586195, 2.7527047108399856]}, {"species": [{"element": "S", "occu": 1}], "abc": [0.890575, 0.397793, 0.188257999999999], "properties": {"magmom": -0.0}, "label": "S", "xyz": [7.490191724400001, 5.322516086195, 2.7527047108399856]}, {"species": [{"element": "S", "occu": 1}], "abc": [0.390575, 0.10220699999999901, 0.811742], "properties": {"magmom": -0.0}, "label": "S", "xyz": [3.2849357244000004, 1.3675414138049866, 11.86927528916]}, {"species": [{"element": "S", "occu": 1}], "abc": [0.890575, 0.10220699999999901, 0.688257999999999], "properties": {"magmom": -0.0}, "label": "S", "xyz": [7.490191724400001, 1.3675414138049866, 10.063694710839986]}, {"species": [{"element": "S", "occu": 1}], "abc": [0.109425, 0.897793, 0.311741999999999], "properties": {"magmom": -0.0}, "label": "S", "xyz": [0.9203202756000001, 12.012573586195, 4.558285289159985]}, {"species": [{"element": "S", "occu": 1}], "abc": [0.099064, 0.130562999999999, 0.036066], "properties": {"magmom": -0.0}, "label": "S", "xyz": [0.833178960768, 1.7469479547449869, 0.52735633068]}, {"species": [{"element": "S", "occu": 1}], "abc": [0.900936, 0.869437, 0.963934], "properties": {"magmom": -0.0}, "label": "S", "xyz": [7.577333039232, 11.633167045255, 14.09462366932]}, {"species": [{"element": "S", "occu": 1}], "abc": [0.400935999999999, 0.869437, 0.536065999999999], "properties": {"magmom": -0.0}, "label": "S", "xyz": [3.372077039231992, 11.633167045255, 7.838346330679986]}, {"species": [{"element": "S", "occu": 1}], "abc": [0.900936, 0.630563, 0.463933999999999], "properties": {"magmom": -0.0}, "label": "S", "xyz": [7.577333039232, 8.437005454745, 6.783633669319986]}, {"species": [{"element": "S", "occu": 1}], "abc": [0.599063999999999, 0.130562999999999, 0.463933999999999], "properties": {"magmom": -0.0}, "label": "S", "xyz": [5.038434960767992, 1.7469479547449869, 6.783633669319986]}, {"species": [{"element": "S", "occu": 1}], "abc": [0.099064, 0.369436999999999, 0.536065999999999], "properties": {"magmom": -0.0}, "label": "S", "xyz": [0.833178960768, 4.943109545254987, 7.838346330679986]}, {"species": [{"element": "S", "occu": 1}], "abc": [0.599063999999999, 0.369436999999999, 0.963934], "properties": {"magmom": -0.0}, "label": "S", "xyz": [5.038434960767992, 4.943109545254987, 14.09462366932]}, {"species": [{"element": "S", "occu": 1}], "abc": [0.400935999999999, 0.630563, 0.036066], "properties": {"magmom": -0.0}, "label": "S", "xyz": [3.372077039231992, 8.437005454745, 0.52735633068]}, {"species": [{"element": "S", "occu": 1}], "abc": [0.400648, 0.142968999999999, 0.288263], "properties": {"magmom": 0.0}, "label": "S", "xyz": [3.3696548117760003, 1.9129416614349868, 4.21497582074]}, {"species": [{"element": "S", "occu": 1}], "abc": [0.599352, 0.857031, 0.711737], "properties": {"magmom": 0.0}, "label": "S", "xyz": [5.040857188224001, 11.467173338564999, 10.40700417926]}, {"species": [{"element": "S", "occu": 1}], "abc": [0.099352, 0.857031, 0.788262999999999], "properties": {"magmom": 0.0}, "label": "S", "xyz": [0.835601188224, 11.467173338564999, 11.525965820739987]}, {"species": [{"element": "S", "occu": 1}], "abc": [0.599352, 0.642969, 0.211736999999999], "properties": {"magmom": 0.0}, "label": "S", "xyz": [5.040857188224001, 8.602999161435001, 3.096014179259986]}, {"species": [{"element": "S", "occu": 1}], "abc": [0.900648, 0.142968999999999, 0.211736999999999], "properties": {"magmom": 0.0}, "label": "S", "xyz": [7.574910811776, 1.9129416614349868, 3.096014179259986]}, {"species": [{"element": "S", "occu": 1}], "abc": [0.400648, 0.357031, 0.788262999999999], "properties": {"magmom": 0.0}, "label": "S", "xyz": [3.3696548117760003, 4.777115838565, 11.525965820739987]}, {"species": [{"element": "S", "occu": 1}], "abc": [0.900648, 0.357031, 0.711737], "properties": {"magmom": 0.0}, "label": "S", "xyz": [7.574910811776, 4.777115838565, 10.40700417926]}, {"species": [{"element": "S", "occu": 1}], "abc": [0.099352, 0.642969, 0.288263], "properties": {"magmom": 0.0}, "label": "S", "xyz": [0.835601188224, 8.602999161435001, 4.21497582074]}, {"species": [{"element": "S", "occu": 1}], "abc": [0.46245, 0.278699, 0.231507], "properties": {"magmom": 0.0}, "label": "S", "xyz": [3.8894412744000006, 3.729024670385, 3.38509072386]}, {"species": [{"element": "S", "occu": 1}], "abc": [0.5375500000000001, 0.721301, 0.768493], "properties": {"magmom": 0.0}, "label": "S", "xyz": [4.521070725600001, 9.651090329615, 11.23688927614]}, {"species": [{"element": "S", "occu": 1}], "abc": [0.03755, 0.721301, 0.731507], "properties": {"magmom": 0.0}, "label": "S", "xyz": [0.3158147256, 9.651090329615, 10.696080723860002]}, {"species": [{"element": "S", "occu": 1}], "abc": [0.5375500000000001, 0.778698999999999, 0.268493], "properties": {"magmom": 0.0}, "label": "S", "xyz": [4.521070725600001, 10.419082170384987, 3.92589927614]}, {"species": [{"element": "S", "occu": 1}], "abc": [0.96245, 0.278699, 0.268493], "properties": {"magmom": 0.0}, "label": "S", "xyz": [8.094697274400001, 3.729024670385, 3.92589927614]}, {"species": [{"element": "S", "occu": 1}], "abc": [0.46245, 0.221301, 0.731507], "properties": {"magmom": 0.0}, "label": "S", "xyz": [3.8894412744000006, 2.961032829615, 10.696080723860002]}, {"species": [{"element": "S", "occu": 1}], "abc": [0.96245, 0.221301, 0.768493], "properties": {"magmom": 0.0}, "label": "S", "xyz": [8.094697274400001, 2.961032829615, 11.23688927614]}, {"species": [{"element": "S", "occu": 1}], "abc": [0.03755, 0.778698999999999, 0.231507], "properties": {"magmom": 0.0}, "label": "S", "xyz": [0.3158147256, 10.419082170384987, 3.38509072386]}, {"species": [{"element": "S", "occu": 1}], "abc": [0.093834, 0.43011699999999903, 0.11477000000000001], "properties": {"magmom": -0.0}, "label": "S", "xyz": [0.7891919830080001, 5.755014923454987, 1.6781646446000003]}, {"species": [{"element": "S", "occu": 1}], "abc": [0.906165999999999, 0.569883, 0.8852300000000001], "properties": {"magmom": -0.0}, "label": "S", "xyz": [7.621320016991993, 7.625100076545, 12.943815355400002]}, {"species": [{"element": "S", "occu": 1}], "abc": [0.40616599999999903, 0.569883, 0.61477], "properties": {"magmom": -0.0}, "label": "S", "xyz": [3.4160640169919922, 7.625100076545, 8.989154644600001]}, {"species": [{"element": "S", "occu": 1}], "abc": [0.906165999999999, 0.930117, 0.38523], "properties": {"magmom": -0.0}, "label": "S", "xyz": [7.621320016991993, 12.445072423454999, 5.6328253554000005]}, {"species": [{"element": "S", "occu": 1}], "abc": [0.593834, 0.43011699999999903, 0.38523], "properties": {"magmom": -0.0}, "label": "S", "xyz": [4.994447983008, 5.755014923454987, 5.6328253554000005]}, {"species": [{"element": "S", "occu": 1}], "abc": [0.093834, 0.069883, 0.61477], "properties": {"magmom": -0.0}, "label": "S", "xyz": [0.7891919830080001, 0.935042576545, 8.989154644600001]}, {"species": [{"element": "S", "occu": 1}], "abc": [0.593834, 0.069883, 0.8852300000000001], "properties": {"magmom": -0.0}, "label": "S", "xyz": [4.994447983008, 0.935042576545, 12.943815355400002]}, {"species": [{"element": "S", "occu": 1}], "abc": [0.40616599999999903, 0.930117, 0.11477000000000001], "properties": {"magmom": -0.0}, "label": "S", "xyz": [3.4160640169919922, 12.445072423454999, 1.6781646446000003]}, {"species": [{"element": "N", "occu": 1}], "abc": [0.016401, 0.103370999999999, 0.128712], "properties": {"magmom": 0.0}, "label": "N", "xyz": [0.137940807312, 1.3831158676649866, 1.88202428976]}, {"species": [{"element": "N", "occu": 1}], "abc": [0.983599, 0.896629, 0.871288], "properties": {"magmom": 0.0}, "label": "N", "xyz": [8.272571192688, 11.996999132335, 12.73995571024]}, {"species": [{"element": "N", "occu": 1}], "abc": [0.483599, 0.896629, 0.628711999999999], "properties": {"magmom": 0.0}, "label": "N", "xyz": [4.0673151926880005, 11.996999132335, 9.193014289759986]}, {"species": [{"element": "N", "occu": 1}], "abc": [0.983599, 0.603371, 0.371288], "properties": {"magmom": 0.0}, "label": "N", "xyz": [8.272571192688, 8.073173367665, 5.42896571024]}, {"species": [{"element": "N", "occu": 1}], "abc": [0.516401, 0.103370999999999, 0.371288], "properties": {"magmom": 0.0}, "label": "N", "xyz": [4.343196807312, 1.3831158676649866, 5.42896571024]}, {"species": [{"element": "N", "occu": 1}], "abc": [0.016401, 0.396629, 0.628711999999999], "properties": {"magmom": 0.0}, "label": "N", "xyz": [0.137940807312, 5.3069416323350005, 9.193014289759986]}, {"species": [{"element": "N", "occu": 1}], "abc": [0.516401, 0.396629, 0.871288], "properties": {"magmom": 0.0}, "label": "N", "xyz": [4.343196807312, 5.3069416323350005, 12.73995571024]}, {"species": [{"element": "N", "occu": 1}], "abc": [0.483599, 0.603371, 0.128712], "properties": {"magmom": 0.0}, "label": "N", "xyz": [4.0673151926880005, 8.073173367665, 1.88202428976]}, {"species": [{"element": "N", "occu": 1}], "abc": [0.151237999999999, 0.234576999999999, 0.998954], "properties": {"magmom": -0.0}, "label": "N", "xyz": [1.2719890138559917, 3.1386672363549866, 14.60668540892]}, {"species": [{"element": "N", "occu": 1}], "abc": [0.848762, 0.765423, 0.001046], "properties": {"magmom": -0.0}, "label": "N", "xyz": [7.138522986144, 10.241447763644999, 0.015294591080000001]}, {"species": [{"element": "N", "occu": 1}], "abc": [0.348761999999999, 0.765423, 0.49895399999999906], "properties": {"magmom": -0.0}, "label": "N", "xyz": [2.933266986143992, 10.241447763644999, 7.295695408919987]}, {"species": [{"element": "N", "occu": 1}], "abc": [0.848762, 0.734576999999999, 0.501046], "properties": {"magmom": -0.0}, "label": "N", "xyz": [7.138522986144, 9.828724736354987, 7.32628459108]}, {"species": [{"element": "N", "occu": 1}], "abc": [0.651238, 0.234576999999999, 0.501046], "properties": {"magmom": -0.0}, "label": "N", "xyz": [5.477245013856001, 3.1386672363549866, 7.32628459108]}, {"species": [{"element": "N", "occu": 1}], "abc": [0.151237999999999, 0.265422999999999, 0.49895399999999906], "properties": {"magmom": -0.0}, "label": "N", "xyz": [1.2719890138559917, 3.5513902636449868, 7.295695408919987]}, {"species": [{"element": "N", "occu": 1}], "abc": [0.651238, 0.265422999999999, 0.001046], "properties": {"magmom": -0.0}, "label": "N", "xyz": [5.477245013856001, 3.5513902636449868, 0.015294591080000001]}, {"species": [{"element": "N", "occu": 1}], "abc": [0.348761999999999, 0.734576999999999, 0.998954], "properties": {"magmom": -0.0}, "label": "N", "xyz": [2.933266986143992, 9.828724736354987, 14.60668540892]}]}, "task_ids": null, "uncorrected_energy_per_atom": null, "energy_per_atom": -8.049507983984375, "formation_energy_per_atom": 0.25892899546875003, "energy_above_hull": 0.25892899546875003, "is_stable": false, "equilibrium_reaction_energy_per_atom": null, "decomposes_to": null, "xas": null, "grain_boundaries": null, "band_gap": 1.6651, "cbm": null, "vbm": null, "efermi": 1.06354009, "is_gap_direct": null, "is_metal": null, "es_source_calc_id": null, "bandstructure": null, "dos": null, "dos_energy_up": null, "dos_energy_down": null, "is_magnetic": null, "ordering": null, "total_magnetization": 0.0, "total_magnetization_normalized_vol": null, "total_magnetization_normalized_formula_units": null, "num_magnetic_sites": null, "num_unique_magnetic_sites": null, "types_of_magnetic_species": null, "bulk_modulus": null, "shear_modulus": null, "universal_anisotropy": null, "homogeneous_poisson": null, "e_total": null, "e_ionic": null, "e_electronic": null, "n": null, "e_ij_max": null, "weighted_surface_energy_EV_PER_ANG2": null, "weighted_surface_energy": null, "weighted_work_function": null, "surface_anisotropy": null, "shape_factor": null, "has_reconstructed": null, "possible_species": null, "has_props": null, "theoretical": null, "database_IDs": null, "fields_not_requested": ["builder_meta", "nsites", "elements", "nelements", "composition", "composition_reduced", "chemsys", "symmetry", "property_name", "deprecated", "deprecation_reasons", "last_updated", "origins", "warnings", "task_ids", "uncorrected_energy_per_atom", "equilibrium_reaction_energy_per_atom", "decomposes_to", "xas", "grain_boundaries", "cbm", "vbm", "is_gap_direct", "is_metal", "es_source_calc_id", "bandstructure", "dos", "dos_energy_up", "dos_energy_down", "is_magnetic", "ordering", "total_magnetization_normalized_vol", "total_magnetization_normalized_formula_units", "num_magnetic_sites", "num_unique_magnetic_sites", "types_of_magnetic_species", "bulk_modulus", "shear_modulus", "universal_anisotropy", "homogeneous_poisson", "e_total", "e_ionic", "e_electronic", "n", "e_ij_max", "weighted_surface_energy_EV_PER_ANG2", "weighted_surface_energy", "weighted_work_function", "surface_anisotropy", "shape_factor", "has_reconstructed", "possible_species", "has_props", "theoretical", "database_IDs"]}