{
  "builder_meta": null,
  "nsites": null,
  "elements": null,
  "nelements": null,
  "composition": null,
  "composition_reduced": null,
  "formula_pretty": "S3N2",
  "formula_anonymous": "A2B3",
  "chemsys": null,
  "volume": 916.8521102446007,
  "density": 0.44991530977630506,
  "density_atomic": 91.68521102446007,
  "symmetry": null,
  "property_name": null,
  "material_id": "mp-1120742",
  "deprecated": null,
  "deprecation_reasons": null,
  "last_updated": null,
  "origins": null,
  "warnings": null,
  "structure": {
    "@module": "pymatgen.core.structure",
    "@class": "Structure",
    "charge": 0,
    "lattice": {
      "matrix": [
        [4.297634, 0.0, 0.0],
        [0.0, 8.736303, 0.0],
        [0.0, 0.0, 24.419804]
      ],
      "pbc": [true, true, true],
      "a": 4.297634,
      "b": 8.736303,
      "c": 24.419804,
      "alpha": 90.0,
      "beta": 90.0,
      "gamma": 90.0,
      "volume": 916.8521102446007
    },
    "properties": {},
    "sites": [
      {
        "species": [{ "element": "S", "occu": 1 }],
        "abc": [0.061042, 0.272696999999999, 0.457966],
        "properties": { "magmom": 0.0 },
        "label": "S",
        "xyz": [0.262336174628, 2.382363619190991, 11.183439958664]
      },
      {
        "species": [{ "element": "S", "occu": 1 }],
        "abc": [0.561041999999999, 0.227302999999999, 0.542034],
        "properties": { "magmom": 0.0 },
        "label": "S",
        "xyz": [2.411153174627996, 1.9857878808089913, 13.236364041336]
      },
      {
        "species": [{ "element": "S", "occu": 1 }],
        "abc": [0.561041999999999, 0.772697, 0.542034],
        "properties": { "magmom": 0.0 },
        "label": "S",
        "xyz": [2.411153174627996, 6.750515119190999, 13.236364041336]
      },
      {
        "species": [{ "element": "S", "occu": 1 }],
        "abc": [0.061042, 0.727302999999999, 0.457966],
        "properties": { "magmom": 0.0 },
        "label": "S",
        "xyz": [0.262336174628, 6.353939380808991, 11.183439958664]
      },
      {
        "species": [{ "element": "S", "occu": 1 }],
        "abc": [0.133372, 0.5, 0.544376],
        "properties": { "magmom": -0.0 },
        "label": "S",
        "xyz": [0.573184041848, 4.3681515, 13.293555222303999]
      },
      {
        "species": [{ "element": "S", "occu": 1 }],
        "abc": [0.633371999999999, 0.0, 0.455624],
        "properties": { "magmom": -0.0 },
        "label": "S",
        "xyz": [2.7220010418479963, 0.0, 11.126248777695999]
      },
      {
        "species": [{ "element": "N", "occu": 1 }],
        "abc": [0.267377, 0.342707999999999, 0.509694],
        "properties": { "magmom": -0.0 },
        "label": "N",
        "xyz": [1.149088486018, 2.9940009285239912, 12.446627579975999]
      },
      {
        "species": [{ "element": "N", "occu": 1 }],
        "abc": [0.767377, 0.157292, 0.490305999999999],
        "properties": { "magmom": -0.0 },
        "label": "N",
        "xyz": [3.297905486018, 1.3741505714759998, 11.973176420023975]
      },
      {
        "species": [{ "element": "N", "occu": 1 }],
        "abc": [0.767377, 0.842708, 0.490305999999999],
        "properties": { "magmom": -0.0 },
        "label": "N",
        "xyz": [3.297905486018, 7.362152428523999, 11.973176420023975]
      },
      {
        "species": [{ "element": "N", "occu": 1 }],
        "abc": [0.267377, 0.657292, 0.509694],
        "properties": { "magmom": -0.0 },
        "label": "N",
        "xyz": [1.149088486018, 5.742302071476, 12.446627579975999]
      }
    ]
  },
  "task_ids": null,
  "uncorrected_energy_per_atom": null,
  "energy_per_atom": -8.0275252526875,
  "formation_energy_per_atom": 0.44497446512500005,
  "energy_above_hull": 0.44497446512500005,
  "is_stable": false,
  "equilibrium_reaction_energy_per_atom": null,
  "decomposes_to": null,
  "xas": null,
  "grain_boundaries": null,
  "band_gap": 1.9797999999999991,
  "cbm": null,
  "vbm": null,
  "efermi": -3.71127892,
  "is_gap_direct": null,
  "is_metal": null,
  "es_source_calc_id": null,
  "bandstructure": null,
  "dos": null,
  "dos_energy_up": null,
  "dos_energy_down": null,
  "is_magnetic": null,
  "ordering": null,
  "total_magnetization": 0.0001869,
  "total_magnetization_normalized_vol": null,
  "total_magnetization_normalized_formula_units": null,
  "num_magnetic_sites": null,
  "num_unique_magnetic_sites": null,
  "types_of_magnetic_species": null,
  "bulk_modulus": null,
  "shear_modulus": null,
  "universal_anisotropy": null,
  "homogeneous_poisson": null,
  "e_total": null,
  "e_ionic": null,
  "e_electronic": null,
  "n": null,
  "e_ij_max": null,
  "weighted_surface_energy_EV_PER_ANG2": null,
  "weighted_surface_energy": null,
  "weighted_work_function": null,
  "surface_anisotropy": null,
  "shape_factor": null,
  "has_reconstructed": null,
  "possible_species": null,
  "has_props": null,
  "theoretical": null,
  "database_IDs": null,
  "fields_not_requested": [
    "builder_meta",
    "nsites",
    "elements",
    "nelements",
    "composition",
    "composition_reduced",
    "chemsys",
    "symmetry",
    "property_name",
    "deprecated",
    "deprecation_reasons",
    "last_updated",
    "origins",
    "warnings",
    "task_ids",
    "uncorrected_energy_per_atom",
    "equilibrium_reaction_energy_per_atom",
    "decomposes_to",
    "xas",
    "grain_boundaries",
    "cbm",
    "vbm",
    "is_gap_direct",
    "is_metal",
    "es_source_calc_id",
    "bandstructure",
    "dos",
    "dos_energy_up",
    "dos_energy_down",
    "is_magnetic",
    "ordering",
    "total_magnetization_normalized_vol",
    "total_magnetization_normalized_formula_units",
    "num_magnetic_sites",
    "num_unique_magnetic_sites",
    "types_of_magnetic_species",
    "bulk_modulus",
    "shear_modulus",
    "universal_anisotropy",
    "homogeneous_poisson",
    "e_total",
    "e_ionic",
    "e_electronic",
    "n",
    "e_ij_max",
    "weighted_surface_energy_EV_PER_ANG2",
    "weighted_surface_energy",
    "weighted_work_function",
    "surface_anisotropy",
    "shape_factor",
    "has_reconstructed",
    "possible_species",
    "has_props",
    "theoretical",
    "database_IDs"
  ]
}
