{
  "builder_meta": null,
  "nsites": null,
  "elements": null,
  "nelements": null,
  "composition": null,
  "composition_reduced": null,
  "formula_pretty": "S5N6",
  "formula_anonymous": "A5B6",
  "chemsys": null,
  "volume": 439.62943253213854,
  "density": 1.8459999767547792,
  "density_atomic": 19.983156024188116,
  "symmetry": null,
  "property_name": null,
  "material_id": "mp-1419",
  "deprecated": null,
  "deprecation_reasons": null,
  "last_updated": null,
  "origins": null,
  "warnings": null,
  "structure": {
    "@module": "pymatgen.core.structure",
    "@class": "Structure",
    "charge": 0,
    "lattice": {
      "matrix": [
        [6.001448, 4.797837, 0.0],
        [-6.001448, 4.797837, 0.0],
        [0.0, 2.101695, 7.634054]
      ],
      "pbc": [true, true, true],
      "a": 7.683529005299127,
      "b": 7.683529005299127,
      "c": 7.918074409093476,
      "alpha": 80.45960773210048,
      "beta": 80.45960773210048,
      "gamma": 102.71906390981212,
      "volume": 439.62943253213854
    },
    "properties": {},
    "sites": [
      {
        "species": [{ "element": "S", "occu": 1 }],
        "abc": [0.284176, 0.447594999999999, 0.822687],
        "properties": { "magmom": 0.0 },
        "label": "S",
        "xyz": [-0.980750630711994, 5.239955133791995, 6.280436983097999]
      },
      {
        "species": [{ "element": "S", "occu": 1 }],
        "abc": [0.552404999999999, 0.715824, 0.677312999999999],
        "properties": { "magmom": 0.0 },
        "label": "S",
        "xyz": [-0.9807506307120062, 7.508261366207995, 5.170644016901993]
      },
      {
        "species": [{ "element": "S", "occu": 1 }],
        "abc": [0.715824, 0.552404999999999, 0.177313],
        "properties": { "magmom": 0.0 },
        "label": "S",
        "xyz": [0.9807506307120062, 6.457413866207996, 1.3536170169019999]
      },
      {
        "species": [{ "element": "S", "occu": 1 }],
        "abc": [0.447594999999999, 0.284176, 0.322687],
        "properties": { "magmom": 0.0 },
        "label": "S",
        "xyz": [0.980750630711994, 4.189107633791996, 2.463409983098]
      },
      {
        "species": [{ "element": "S", "occu": 1 }],
        "abc": [0.246829, 0.675798999999999, 0.514954],
        "properties": { "magmom": 0.0 },
        "label": "S",
        "xyz": [-2.574441148559994, 5.508895002665996, 3.9311866435160003]
      },
      {
        "species": [{ "element": "S", "occu": 1 }],
        "abc": [0.324200999999999, 0.753170999999999, 0.985046],
        "properties": { "magmom": 0.0 },
        "label": "S",
        "xyz": [-2.57444114856, 7.23932149733399, 7.5198943564839995]
      },
      {
        "species": [{ "element": "S", "occu": 1 }],
        "abc": [0.753170999999999, 0.324200999999999, 0.485046],
        "properties": { "magmom": 0.0 },
        "label": "S",
        "xyz": [2.57444114856, 6.188473997333991, 3.7028673564839996]
      },
      {
        "species": [{ "element": "S", "occu": 1 }],
        "abc": [0.675798999999999, 0.246829, 0.014953999999999001],
        "properties": { "magmom": 0.0 },
        "label": "S",
        "xyz": [2.574441148559994, 4.458047502665994, 0.11415964351599238]
      },
      {
        "species": [{ "element": "S", "occu": 1 }],
        "abc": [0.093218, 0.906782, 0.75],
        "properties": { "magmom": 0.0 },
        "label": "S",
        "xyz": [-4.882562040671999, 6.374108250000001, 5.7255405]
      },
      {
        "species": [{ "element": "S", "occu": 1 }],
        "abc": [0.906782, 0.093218, 0.25],
        "properties": { "magmom": 0.0 },
        "label": "S",
        "xyz": [4.882562040671999, 5.32326075, 1.9085135]
      },
      {
        "species": [{ "element": "N", "occu": 1 }],
        "abc": [0.463765, 0.756683999999999, 0.5083529999999991],
        "properties": { "magmom": -0.0 },
        "label": "N",
        "xyz": [-1.7579381467119939, 6.923918327147994, 3.8807942530619925]
      },
      {
        "species": [{ "element": "N", "occu": 1 }],
        "abc": [0.243315999999999, 0.536235, 0.991647],
        "properties": { "magmom": -0.0 },
        "label": "N",
        "xyz": [-1.7579381467120059, 5.824298172851996, 7.570286746938]
      },
      {
        "species": [{ "element": "N", "occu": 1 }],
        "abc": [0.536235, 0.243315999999999, 0.491647],
        "properties": { "magmom": -0.0 },
        "label": "N",
        "xyz": [1.7579381467120059, 4.773450672851996, 3.753259746938]
      },
      {
        "species": [{ "element": "N", "occu": 1 }],
        "abc": [0.756683999999999, 0.463765, 0.008353],
        "properties": { "magmom": -0.0 },
        "label": "N",
        "xyz": [1.7579381467119939, 5.873070827147996, 0.063767253062]
      },
      {
        "species": [{ "element": "N", "occu": 1 }],
        "abc": [0.182021, 0.486328999999999, 0.663076999999999],
        "properties": { "magmom": -0.0 },
        "label": "N",
        "xyz": [-1.826288637983994, 4.600219974464993, 5.061965624157993]
      },
      {
        "species": [{ "element": "N", "occu": 1 }],
        "abc": [0.513671, 0.817979, 0.836923],
        "properties": { "magmom": -0.0 },
        "label": "N",
        "xyz": [-1.8262886379839998, 8.147996525535001, 6.389115375842]
      },
      {
        "species": [{ "element": "N", "occu": 1 }],
        "abc": [0.817979, 0.513671, 0.336923],
        "properties": { "magmom": -0.0 },
        "label": "N",
        "xyz": [1.8262886379839998, 7.097149025535001, 2.5720883758419997]
      },
      {
        "species": [{ "element": "N", "occu": 1 }],
        "abc": [0.486328999999999, 0.182021, 0.163077],
        "properties": { "magmom": -0.0 },
        "label": "N",
        "xyz": [1.826288637983994, 3.5493724744649953, 1.244938624158]
      },
      {
        "species": [{ "element": "N", "occu": 1 }],
        "abc": [0.131659, 0.830106999999999, 0.582156],
        "properties": { "magmom": 0.0 },
        "label": "N",
        "xyz": [-4.191699352703995, 5.837910854561995, 4.444210340424]
      },
      {
        "species": [{ "element": "N", "occu": 1 }],
        "abc": [0.169893, 0.868340999999999, 0.917844],
        "properties": { "magmom": 0.0 },
        "label": "N",
        "xyz": [-4.191699352703994, 6.910305645437996, 7.006870659576]
      },
      {
        "species": [{ "element": "N", "occu": 1 }],
        "abc": [0.830106999999999, 0.131659, 0.08215599999999901],
        "properties": { "magmom": 0.0 },
        "label": "N",
        "xyz": [4.191699352703995, 4.787063354561994, 0.6271833404239924]
      },
      {
        "species": [{ "element": "N", "occu": 1 }],
        "abc": [0.868340999999999, 0.169893, 0.417844],
        "properties": { "magmom": 0.0 },
        "label": "N",
        "xyz": [4.191699352703994, 5.859458145437995, 3.189843659576]
      }
    ]
  },
  "task_ids": null,
  "uncorrected_energy_per_atom": null,
  "energy_per_atom": -8.18139350900568,
  "formation_energy_per_atom": 0.45019734903409003,
  "energy_above_hull": 0.45019734903409103,
  "is_stable": false,
  "equilibrium_reaction_energy_per_atom": null,
  "decomposes_to": null,
  "xas": null,
  "grain_boundaries": null,
  "band_gap": 2.2957,
  "cbm": null,
  "vbm": null,
  "efermi": 0.18542584,
  "is_gap_direct": null,
  "is_metal": null,
  "es_source_calc_id": null,
  "bandstructure": null,
  "dos": null,
  "dos_energy_up": null,
  "dos_energy_down": null,
  "is_magnetic": null,
  "ordering": null,
  "total_magnetization": 0.00024329999999900002,
  "total_magnetization_normalized_vol": null,
  "total_magnetization_normalized_formula_units": null,
  "num_magnetic_sites": null,
  "num_unique_magnetic_sites": null,
  "types_of_magnetic_species": null,
  "bulk_modulus": null,
  "shear_modulus": null,
  "universal_anisotropy": null,
  "homogeneous_poisson": null,
  "e_total": null,
  "e_ionic": null,
  "e_electronic": null,
  "n": null,
  "e_ij_max": null,
  "weighted_surface_energy_EV_PER_ANG2": null,
  "weighted_surface_energy": null,
  "weighted_work_function": null,
  "surface_anisotropy": null,
  "shape_factor": null,
  "has_reconstructed": null,
  "possible_species": null,
  "has_props": null,
  "theoretical": null,
  "database_IDs": null,
  "fields_not_requested": [
    "builder_meta",
    "nsites",
    "elements",
    "nelements",
    "composition",
    "composition_reduced",
    "chemsys",
    "symmetry",
    "property_name",
    "deprecated",
    "deprecation_reasons",
    "last_updated",
    "origins",
    "warnings",
    "task_ids",
    "uncorrected_energy_per_atom",
    "equilibrium_reaction_energy_per_atom",
    "decomposes_to",
    "xas",
    "grain_boundaries",
    "cbm",
    "vbm",
    "is_gap_direct",
    "is_metal",
    "es_source_calc_id",
    "bandstructure",
    "dos",
    "dos_energy_up",
    "dos_energy_down",
    "is_magnetic",
    "ordering",
    "total_magnetization_normalized_vol",
    "total_magnetization_normalized_formula_units",
    "num_magnetic_sites",
    "num_unique_magnetic_sites",
    "types_of_magnetic_species",
    "bulk_modulus",
    "shear_modulus",
    "universal_anisotropy",
    "homogeneous_poisson",
    "e_total",
    "e_ionic",
    "e_electronic",
    "n",
    "e_ij_max",
    "weighted_surface_energy_EV_PER_ANG2",
    "weighted_surface_energy",
    "weighted_work_function",
    "surface_anisotropy",
    "shape_factor",
    "has_reconstructed",
    "possible_species",
    "has_props",
    "theoretical",
    "database_IDs"
  ]
}
