{"builder_meta": null, "nsites": null, "elements": null, "nelements": null, "composition": null, "composition_reduced": null, "formula_pretty": "S7N", "formula_anonymous": "AB7", "chemsys": null, "volume": 835.8410146655773, "density": 1.8949774504486592, "density_atomic": 26.12003170829929, "symmetry": null, "property_name": null, "material_id": "mp-728449", "deprecated": null, "deprecation_reasons": null, "last_updated": null, "origins": null, "warnings": null, "structure": {"@module": "pymatgen.core.structure", "@class": "Structure", "charge": 0, "lattice": {"matrix": [[8.19446076, -0.0, 0.0], [-0.0, 7.79243781, 0.0], [0.0, 0.0, 13.08970784]], "pbc": [true, true, true], "a": 8.19446076, "b": 7.79243781, "c": 13.08970784, "alpha": 90.0, "beta": 90.0, "gamma": 90.0, "volume": 835.8410146655773}, "properties": {}, "sites": [{"species": [{"element": "S", "occu": 1}], "abc": [0.24247266, 0.66239951, 0.13507856000000001], "properties": {"magmom": 0.11900000000000001}, "label": "S", "xyz": [1.9869326977428217, 5.161706987049473, 1.7681388858479108]}, {"species": [{"element": "S", "occu": 1}], "abc": [0.25752734, 0.16239951, 0.36492144], "properties": {"magmom": 0.11900000000000001}, "label": "S", "xyz": [2.1102976822571784, 1.2654880820494732, 4.776715034152089]}, {"species": [{"element": "S", "occu": 1}], "abc": [0.75752734, 0.33760049000000003, 0.63507856], "properties": {"magmom": 0.11900000000000001}, "label": "S", "xyz": [6.207528062257178, 2.630730822950527, 8.31299280584791]}, {"species": [{"element": "S", "occu": 1}], "abc": [0.74247266, 0.83760049, 0.86492144], "properties": {"magmom": 0.11900000000000001}, "label": "S", "xyz": [6.084163077742822, 6.5269497279505275, 11.321568954152092]}, {"species": [{"element": "S", "occu": 1}], "abc": [0.75752734, 0.33760049000000003, 0.86492144], "properties": {"magmom": 0.11900000000000001}, "label": "S", "xyz": [6.207528062257178, 2.630730822950527, 11.321568954152092]}, {"species": [{"element": "S", "occu": 1}], "abc": [0.74247266, 0.83760049, 0.63507856], "properties": {"magmom": 0.11900000000000001}, "label": "S", "xyz": [6.084163077742822, 6.5269497279505275, 8.31299280584791]}, {"species": [{"element": "S", "occu": 1}], "abc": [0.24247266, 0.66239951, 0.36492144], "properties": {"magmom": 0.11900000000000001}, "label": "S", "xyz": [1.9869326977428217, 5.161706987049473, 4.776715034152089]}, {"species": [{"element": "S", "occu": 1}], "abc": [0.25752734, 0.16239951, 0.13507856000000001], "properties": {"magmom": 0.11900000000000001}, "label": "S", "xyz": [2.1102976822571784, 1.2654880820494732, 1.7681388858479108]}, {"species": [{"element": "S", "occu": 1}], "abc": [0.01176879, 0.74194782, 0.0925184], "properties": {"magmom": -0.003}, "label": "S", "xyz": [0.0964388878476804, 5.781582245615074, 1.2110388258242561]}, {"species": [{"element": "S", "occu": 1}], "abc": [0.48823121, 0.24194782, 0.4074816], "properties": {"magmom": -0.003}, "label": "S", "xyz": [4.00079149215232, 1.8853633406150743, 5.333815094175744]}, {"species": [{"element": "S", "occu": 1}], "abc": [0.98823121, 0.25805218, 0.5925184], "properties": {"magmom": -0.003}, "label": "S", "xyz": [8.09802187215232, 2.0108555643849257, 7.755892745824257]}, {"species": [{"element": "S", "occu": 1}], "abc": [0.51176879, 0.75805218, 0.9074816], "properties": {"magmom": -0.003}, "label": "S", "xyz": [4.19366926784768, 5.907074469384925, 11.878669014175745]}, {"species": [{"element": "S", "occu": 1}], "abc": [0.98823121, 0.25805218, 0.9074816], "properties": {"magmom": -0.003}, "label": "S", "xyz": [8.09802187215232, 2.0108555643849257, 11.878669014175745]}, {"species": [{"element": "S", "occu": 1}], "abc": [0.51176879, 0.75805218, 0.5925184], "properties": {"magmom": -0.003}, "label": "S", "xyz": [4.19366926784768, 5.907074469384925, 7.755892745824257]}, {"species": [{"element": "S", "occu": 1}], "abc": [0.01176879, 0.74194782, 0.4074816], "properties": {"magmom": -0.003}, "label": "S", "xyz": [0.0964388878476804, 5.781582245615074, 5.333815094175744]}, {"species": [{"element": "S", "occu": 1}], "abc": [0.48823121, 0.24194782, 0.0925184], "properties": {"magmom": -0.003}, "label": "S", "xyz": [4.00079149215232, 1.8853633406150743, 1.2110388258242561]}, {"species": [{"element": "S", "occu": 1}], "abc": [0.84725955, 0.54794321, 0.12388223], "properties": {"magmom": 0.021}, "label": "S", "xyz": [6.942835136010258, 4.26981338733677, 1.6215821972676832]}, {"species": [{"element": "S", "occu": 1}], "abc": [0.65274045, 0.04794321, 0.37611777], "properties": {"magmom": 0.021}, "label": "S", "xyz": [5.348856003989742, 0.3735944823367701, 4.923271722732317]}, {"species": [{"element": "S", "occu": 1}], "abc": [0.15274045, 0.45205679, 0.62388223], "properties": {"magmom": 0.021}, "label": "S", "xyz": [1.251625623989742, 3.5226244226632297, 8.166436117267683]}, {"species": [{"element": "S", "occu": 1}], "abc": [0.34725955000000003, 0.95205679, 0.87611777], "properties": {"magmom": 0.021}, "label": "S", "xyz": [2.845604756010258, 7.41884332766323, 11.468125642732318]}, {"species": [{"element": "S", "occu": 1}], "abc": [0.15274045, 0.45205679, 0.87611777], "properties": {"magmom": 0.021}, "label": "S", "xyz": [1.251625623989742, 3.5226244226632297, 11.468125642732318]}, {"species": [{"element": "S", "occu": 1}], "abc": [0.34725955000000003, 0.95205679, 0.62388223], "properties": {"magmom": 0.021}, "label": "S", "xyz": [2.845604756010258, 7.41884332766323, 8.166436117267683]}, {"species": [{"element": "S", "occu": 1}], "abc": [0.84725955, 0.54794321, 0.37611777], "properties": {"magmom": 0.021}, "label": "S", "xyz": [6.942835136010258, 4.26981338733677, 4.923271722732317]}, {"species": [{"element": "S", "occu": 1}], "abc": [0.65274045, 0.04794321, 0.12388223], "properties": {"magmom": 0.021}, "label": "S", "xyz": [5.348856003989742, 0.3735944823367701, 1.6215821972676832]}, {"species": [{"element": "S", "occu": 1}], "abc": [0.72035713, 0.62436292, 0.25], "properties": {"magmom": 0.009000000000000001}, "label": "S", "xyz": [5.902938234971219, 4.865309224970005, 3.27242696]}, {"species": [{"element": "S", "occu": 1}], "abc": [0.77964287, 0.12436292, 0.25], "properties": {"magmom": 0.009000000000000001}, "label": "S", "xyz": [6.388752905028781, 0.9690903199700052, 3.27242696]}, {"species": [{"element": "S", "occu": 1}], "abc": [0.27964287, 0.37563708, 0.75], "properties": {"magmom": 0.009000000000000001}, "label": "S", "xyz": [2.291522525028781, 2.927128585029995, 9.81728088]}, {"species": [{"element": "S", "occu": 1}], "abc": [0.22035713, 0.8756370800000001, 0.75], "properties": {"magmom": 0.009000000000000001}, "label": "S", "xyz": [1.8057078549712189, 6.823347490029995, 9.81728088]}, {"species": [{"element": "N", "occu": 1}], "abc": [0.29725829, 0.70238506, 0.25], "properties": {"magmom": 0.35000000000000003}, "label": "N", "xyz": [2.4358713929897005, 5.473291898723119, 3.27242696]}, {"species": [{"element": "N", "occu": 1}], "abc": [0.20274171, 0.20238506, 0.25], "properties": {"magmom": 0.35000000000000003}, "label": "N", "xyz": [1.6613589870102996, 1.5770729937231187, 3.27242696]}, {"species": [{"element": "N", "occu": 1}], "abc": [0.70274171, 0.29761494, 0.75], "properties": {"magmom": 0.35000000000000003}, "label": "N", "xyz": [5.758589367010299, 2.3191459112768813, 9.81728088]}, {"species": [{"element": "N", "occu": 1}], "abc": [0.79725829, 0.79761494, 0.75], "properties": {"magmom": 0.35000000000000003}, "label": "N", "xyz": [6.533101772989701, 6.215364816276882, 9.81728088]}]}, "task_ids": null, "uncorrected_energy_per_atom": null, "energy_per_atom": -7.94194464625, "formation_energy_per_atom": 0.22977338457031402, "energy_above_hull": 0.22977338457031402, "is_stable": false, "equilibrium_reaction_energy_per_atom": null, "decomposes_to": null, "xas": null, "grain_boundaries": null, "band_gap": 0.672999999999999, "cbm": null, "vbm": null, "efermi": 0.9604895800000001, "is_gap_direct": null, "is_metal": null, "es_source_calc_id": null, "bandstructure": null, "dos": null, "dos_energy_up": null, "dos_energy_down": null, "is_magnetic": null, "ordering": null, "total_magnetization": 4.0000001, "total_magnetization_normalized_vol": null, "total_magnetization_normalized_formula_units": null, "num_magnetic_sites": null, "num_unique_magnetic_sites": null, "types_of_magnetic_species": null, "bulk_modulus": null, "shear_modulus": null, "universal_anisotropy": null, "homogeneous_poisson": null, "e_total": null, "e_ionic": null, "e_electronic": null, "n": null, "e_ij_max": null, "weighted_surface_energy_EV_PER_ANG2": null, "weighted_surface_energy": null, "weighted_work_function": null, "surface_anisotropy": null, "shape_factor": null, "has_reconstructed": null, "possible_species": null, "has_props": null, "theoretical": null, "database_IDs": null, "fields_not_requested": ["builder_meta", "nsites", "elements", "nelements", "composition", "composition_reduced", "chemsys", "symmetry", "property_name", "deprecated", "deprecation_reasons", "last_updated", "origins", "warnings", "task_ids", "uncorrected_energy_per_atom", "equilibrium_reaction_energy_per_atom", "decomposes_to", "xas", "grain_boundaries", "cbm", "vbm", "is_gap_direct", "is_metal", "es_source_calc_id", "bandstructure", "dos", "dos_energy_up", "dos_energy_down", "is_magnetic", "ordering", "total_magnetization_normalized_vol", "total_magnetization_normalized_formula_units", "num_magnetic_sites", "num_unique_magnetic_sites", "types_of_magnetic_species", "bulk_modulus", "shear_modulus", "universal_anisotropy", "homogeneous_poisson", "e_total", "e_ionic", "e_electronic", "n", "e_ij_max", "weighted_surface_energy_EV_PER_ANG2", "weighted_surface_energy", "weighted_work_function", "surface_anisotropy", "shape_factor", "has_reconstructed", "possible_species", "has_props", "theoretical", "database_IDs"]}