{"builder_meta": null, "nsites": null, "elements": null, "nelements": null, "composition": null, "composition_reduced": null, "formula_pretty": "S8O", "formula_anonymous": "AB8", "chemsys": null, "volume": 905.3354579557856, "density": 1.999387546924036, "density_atomic": 25.14820716543849, "symmetry": null, "property_name": null, "material_id": "mp-27465", "deprecated": null, "deprecation_reasons": null, "last_updated": null, "origins": null, "warnings": null, "structure": {"@module": "pymatgen.core.structure", "@class": "Structure", "charge": 0, "lattice": {"matrix": [[8.24946036, 0.0, 0.0], [0.0, 8.16610734, 0.0], [0.0, 0.0, 13.4390604]], "pbc": [true, true, true], "a": 8.24946036, "b": 8.16610734, "c": 13.4390604, "alpha": 90.0, "beta": 90.0, "gamma": 90.0, "volume": 905.3354579557856}, "properties": {}, "sites": [{"species": [{"element": "S", "occu": 1}], "abc": [0.52313341, 0.49816817, 0.35755132], "properties": {"magmom": -0.0}, "label": "S", "xyz": [4.315568328786628, 4.068094749591368, 4.805153785579728]}, {"species": [{"element": "S", "occu": 1}], "abc": [0.47686659000000003, -0.00183183, 0.64244868], "properties": {"magmom": -0.0}, "label": "S", "xyz": [3.933892031213373, -0.0149589204086322, 8.633906614420273]}, {"species": [{"element": "S", "occu": 1}], "abc": [0.47686659000000003, 0.49816817, 0.85755132], "properties": {"magmom": -0.0}, "label": "S", "xyz": [3.933892031213373, 4.068094749591368, 11.52468398557973]}, {"species": [{"element": "S", "occu": 1}], "abc": [0.52313341, -0.00183183, 0.14244868], "properties": {"magmom": -0.0}, "label": "S", "xyz": [4.315568328786628, -0.0149589204086322, 1.914376414420272]}, {"species": [{"element": "S", "occu": 1}], "abc": [0.48089369, 0.35567184, 0.47498684], "properties": {"magmom": -0.0}, "label": "S", "xyz": [3.9671134330291284, 2.904454423255306, 6.383376831965137]}, {"species": [{"element": "S", "occu": 1}], "abc": [0.51910631, 0.85567284, 0.52501316], "properties": {"magmom": -0.0}, "label": "S", "xyz": [4.282346926970871, 6.987516259362645, 7.055683568034864]}, {"species": [{"element": "S", "occu": 1}], "abc": [0.51910631, 0.35567184, 0.97498684], "properties": {"magmom": -0.0}, "label": "S", "xyz": [4.282346926970871, 2.904454423255306, 13.102907031965136]}, {"species": [{"element": "S", "occu": 1}], "abc": [0.48089369, 0.85567284, 0.02501316], "properties": {"magmom": -0.0}, "label": "S", "xyz": [3.9671134330291284, 6.987516259362645, 0.336153368034864]}, {"species": [{"element": "S", "occu": 1}], "abc": [0.63952602, 0.41750649, 0.58895188], "properties": {"magmom": 0.0}, "label": "S", "xyz": [5.275744551178568, 3.4094028124866367, 7.914959888013552]}, {"species": [{"element": "S", "occu": 1}], "abc": [0.36047398, 0.9175064900000001, 0.41104812], "properties": {"magmom": 0.0}, "label": "S", "xyz": [2.9737158088214333, 7.492456482486637, 5.524100511986449]}, {"species": [{"element": "S", "occu": 1}], "abc": [0.36047398, 0.41750649, 0.08895188], "properties": {"magmom": 0.0}, "label": "S", "xyz": [2.9737158088214333, 3.4094028124866367, 1.195429688013552]}, {"species": [{"element": "S", "occu": 1}], "abc": [0.63952602, 0.9175064900000001, 0.91104812], "properties": {"magmom": 0.0}, "label": "S", "xyz": [5.275744551178568, 7.492456482486637, 12.243630711986448]}, {"species": [{"element": "S", "occu": 1}], "abc": [0.8218086800000001, 0.24821531, 0.58920363], "properties": {"magmom": -0.0}, "label": "S", "xyz": [6.779478129163926, 2.0269528648913755, 7.918343171469252]}, {"species": [{"element": "S", "occu": 1}], "abc": [0.17819132000000001, 0.74821431, 0.41079637], "properties": {"magmom": -0.0}, "label": "S", "xyz": [1.4699822308360755, 6.109998368784035, 5.520717228530748]}, {"species": [{"element": "S", "occu": 1}], "abc": [0.17819132000000001, 0.24821531, 0.08920363], "properties": {"magmom": -0.0}, "label": "S", "xyz": [1.4699822308360755, 2.0269528648913755, 1.1988129714692521]}, {"species": [{"element": "S", "occu": 1}], "abc": [0.8218086800000001, 0.74821431, 0.91079637], "properties": {"magmom": -0.0}, "label": "S", "xyz": [6.779478129163926, 6.109998368784035, 12.240247428530749]}, {"species": [{"element": "S", "occu": 1}], "abc": [0.02239219, 0.35243649, 0.52726941], "properties": {"magmom": 0.0}, "label": "S", "xyz": [0.1847234837785884, 2.8780342078728367, 7.086005448062365]}, {"species": [{"element": "S", "occu": 1}], "abc": [0.97760781, 0.85243649, 0.47273059], "properties": {"magmom": 0.0}, "label": "S", "xyz": [8.064736876221412, 6.961087877872837, 6.3530549519376365]}, {"species": [{"element": "S", "occu": 1}], "abc": [0.97760781, 0.35243649, 0.02726941], "properties": {"magmom": 0.0}, "label": "S", "xyz": [8.064736876221412, 2.8780342078728367, 0.36647524806236403]}, {"species": [{"element": "S", "occu": 1}], "abc": [0.02239219, 0.85243649, 0.9727305900000001], "properties": {"magmom": 0.0}, "label": "S", "xyz": [0.1847234837785884, 6.961087877872837, 13.072585151937638]}, {"species": [{"element": "S", "occu": 1}], "abc": [0.03535758, 0.28402226, 0.37858211], "properties": {"magmom": 0.0}, "label": "S", "xyz": [0.2916809546355288, 2.3193562621093884, 5.087787842649445]}, {"species": [{"element": "S", "occu": 1}], "abc": [0.96464242, 0.78402226, 0.62141789], "properties": {"magmom": 0.0}, "label": "S", "xyz": [7.957779405364471, 6.402409932109388, 8.351272557350557]}, {"species": [{"element": "S", "occu": 1}], "abc": [0.96464242, 0.28402226, 0.87858211], "properties": {"magmom": 0.0}, "label": "S", "xyz": [7.957779405364471, 2.3193562621093884, 11.807318042649444]}, {"species": [{"element": "S", "occu": 1}], "abc": [0.03535758, 0.78402226, 0.12141789], "properties": {"magmom": 0.0}, "label": "S", "xyz": [0.2916809546355288, 6.402409932109388, 1.631742357350556]}, {"species": [{"element": "S", "occu": 1}], "abc": [0.92938393, 0.45601755, 0.29587196], "properties": {"magmom": -0.0}, "label": "S", "xyz": [7.666915889756015, 3.723888262223817, 3.9762411411063843]}, {"species": [{"element": "S", "occu": 1}], "abc": [0.07061607, 0.95601755, 0.7041280400000001], "properties": {"magmom": -0.0}, "label": "S", "xyz": [0.5825444702439853, 7.8069419322238165, 9.462819258893617]}, {"species": [{"element": "S", "occu": 1}], "abc": [0.07061607, 0.45601755, 0.79587196], "properties": {"magmom": -0.0}, "label": "S", "xyz": [0.5825444702439853, 3.723888262223817, 10.695771341106385]}, {"species": [{"element": "S", "occu": 1}], "abc": [0.92938393, 0.95601755, 0.20412804], "properties": {"magmom": -0.0}, "label": "S", "xyz": [7.666915889756015, 7.8069419322238165, 2.743289058893616]}, {"species": [{"element": "S", "occu": 1}], "abc": [0.68722989, 0.8462097900000001, 0.23599786], "properties": {"magmom": 0.0}, "label": "S", "xyz": [5.669275735762161, 6.910239977298859, 3.1715894948107444]}, {"species": [{"element": "S", "occu": 1}], "abc": [0.31277011, 0.34620979, 0.76400214], "properties": {"magmom": 0.0}, "label": "S", "xyz": [2.5801846242378397, 2.8271863072988586, 10.267470905189256]}, {"species": [{"element": "S", "occu": 1}], "abc": [0.31277011, 0.8462097900000001, 0.73599786], "properties": {"magmom": 0.0}, "label": "S", "xyz": [2.5801846242378397, 6.910239977298859, 9.891119694810744]}, {"species": [{"element": "S", "occu": 1}], "abc": [0.68722989, 0.34620979, 0.26400214], "properties": {"magmom": 0.0}, "label": "S", "xyz": [5.669275735762161, 2.8271863072988586, 3.547940705189256]}, {"species": [{"element": "O", "occu": 1}], "abc": [0.68908607, 0.68295109, 0.1889468], "properties": {"magmom": 0.0}, "label": "O", "xyz": [5.684588219093185, 5.577051908910001, 2.5392674575867202]}, {"species": [{"element": "O", "occu": 1}], "abc": [0.31091393, 0.18295109, 0.811053199999999], "properties": {"magmom": 0.0}, "label": "O", "xyz": [2.564872140906815, 1.4939982389100006, 10.899792942413267]}, {"species": [{"element": "O", "occu": 1}], "abc": [0.31091393, 0.68295109, 0.6889468], "properties": {"magmom": 0.0}, "label": "O", "xyz": [2.564872140906815, 5.577051908910001, 9.25879765758672]}, {"species": [{"element": "O", "occu": 1}], "abc": [0.68908607, 0.18295109, 0.3110532], "properties": {"magmom": 0.0}, "label": "O", "xyz": [5.684588219093185, 1.4939982389100006, 4.18026274241328]}]}, "task_ids": null, "uncorrected_energy_per_atom": null, "energy_per_atom": -4.423317835833333, "formation_energy_per_atom": -0.195002553055553, "energy_above_hull": 0.058590745694445, "is_stable": false, "equilibrium_reaction_energy_per_atom": null, "decomposes_to": null, "xas": null, "grain_boundaries": null, "band_gap": 2.4523, "cbm": null, "vbm": null, "efermi": 0.11385205, "is_gap_direct": null, "is_metal": null, "es_source_calc_id": null, "bandstructure": null, "dos": null, "dos_energy_up": null, "dos_energy_down": null, "is_magnetic": null, "ordering": null, "total_magnetization": 0.0, "total_magnetization_normalized_vol": null, "total_magnetization_normalized_formula_units": null, "num_magnetic_sites": null, "num_unique_magnetic_sites": null, "types_of_magnetic_species": null, "bulk_modulus": null, "shear_modulus": null, "universal_anisotropy": null, "homogeneous_poisson": null, "e_total": null, "e_ionic": null, "e_electronic": null, "n": null, "e_ij_max": null, "weighted_surface_energy_EV_PER_ANG2": null, "weighted_surface_energy": null, "weighted_work_function": null, "surface_anisotropy": null, "shape_factor": null, "has_reconstructed": null, "possible_species": null, "has_props": null, "theoretical": null, "database_IDs": null, "fields_not_requested": ["builder_meta", "nsites", "elements", "nelements", "composition", "composition_reduced", "chemsys", "symmetry", "property_name", "deprecated", "deprecation_reasons", "last_updated", "origins", "warnings", "task_ids", "uncorrected_energy_per_atom", "equilibrium_reaction_energy_per_atom", "decomposes_to", "xas", "grain_boundaries", "cbm", "vbm", "is_gap_direct", "is_metal", "es_source_calc_id", "bandstructure", "dos", "dos_energy_up", "dos_energy_down", "is_magnetic", "ordering", "total_magnetization_normalized_vol", "total_magnetization_normalized_formula_units", "num_magnetic_sites", "num_unique_magnetic_sites", "types_of_magnetic_species", "bulk_modulus", "shear_modulus", "universal_anisotropy", "homogeneous_poisson", "e_total", "e_ionic", "e_electronic", "n", "e_ij_max", "weighted_surface_energy_EV_PER_ANG2", "weighted_surface_energy", "weighted_work_function", "surface_anisotropy", "shape_factor", "has_reconstructed", "possible_species", "has_props", "theoretical", "database_IDs"]}