{"builder_meta": null, "nsites": null, "elements": null, "nelements": null, "composition": null, "composition_reduced": null, "formula_pretty": "Sb2Ir", "formula_anonymous": "AB2", "chemsys": null, "volume": 268.6611816641244, "density": 10.772800250207554, "density_atomic": 22.3884318053437, "symmetry": null, "property_name": null, "material_id": "mp-1247", "deprecated": null, "deprecation_reasons": null, "last_updated": null, "origins": null, "warnings": null, "structure": {"@module": "pymatgen.core.structure", "@class": "Structure", "charge": 0, "lattice": {"matrix": [[6.59216251, 0.0, 0.0], [0.0, 6.031361, -2.8067465], [0.0, 0.02113503, 6.74728557]], "pbc": [true, true, true], "a": 6.59216251, "b": 6.652453789962261, "c": 6.747318671340737, "alpha": 114.77585368267206, "beta": 90.0, "gamma": 90.0, "volume": 268.66118166412434}, "properties": {}, "sites": [{"species": [{"element": "Sb", "occu": 1}], "abc": [0.13402256, 0.85087818, 0.12204261], "properties": {"magmom": -0.0}, "label": "Sb", "xyz": [0.8834984955262256, 5.134532844826609, -1.5647430122632326]}, {"species": [{"element": "Sb", "occu": 1}], "abc": [0.63402356, 0.14912182000000002, 0.37795739], "properties": {"magmom": -0.0}, "label": "Sb", "xyz": [4.179586342688736, 0.9073956701733918, 2.1316392972632325]}, {"species": [{"element": "Sb", "occu": 1}], "abc": [0.8659764400000001, 0.14912182000000002, 0.8779573900000001], "properties": {"magmom": -0.0}, "label": "Sb", "xyz": [5.708657422311265, 0.9179631851733919, 5.505282082263232]}, {"species": [{"element": "Sb", "occu": 1}], "abc": [0.36597744, 0.85087818, 0.62204261], "properties": {"magmom": -0.0}, "label": "Sb", "xyz": [2.412582759473774, 5.145100359826609, 1.8088997727367677]}, {"species": [{"element": "Sb", "occu": 1}], "abc": [0.63704584, 0.65488906, 0.82195573], "properties": {"magmom": -0.0}, "label": "Sb", "xyz": [4.199509703599458, 3.967244394822882, 3.707862459164526]}, {"species": [{"element": "Sb", "occu": 1}], "abc": [0.13704584, 0.34511094000000003, 0.67804427], "properties": {"magmom": -0.0}, "label": "Sb", "xyz": [0.9034284485994584, 2.0958191501771184, 3.6063193958354733]}, {"species": [{"element": "Sb", "occu": 1}], "abc": [0.36295416, 0.34511094000000003, 0.17804427], "properties": {"magmom": -0.0}, "label": "Sb", "xyz": [2.3926528064005415, 2.0852516351771184, 0.23267661083547386]}, {"species": [{"element": "Sb", "occu": 1}], "abc": [0.86295416, 0.65488906, 0.32195573], "properties": {"magmom": -0.0}, "label": "Sb", "xyz": [5.688734061400542, 3.956676879822882, 0.334219674164526]}, {"species": [{"element": "Ir", "occu": 1}], "abc": [0.49931821, 0.72879468, 0.20974719], "properties": {"magmom": 0.0}, "label": "Ir", "xyz": [3.291586784522307, 4.400056823112546, -0.630317728873572]}, {"species": [{"element": "Ir", "occu": 1}], "abc": [0.99931821, 0.27120532, 0.29025281], "properties": {"magmom": 0.0}, "label": "Ir", "xyz": [6.587668039522307, 1.6418716918874545, 1.1972140138735718]}, {"species": [{"element": "Ir", "occu": 1}], "abc": [0.50068179, 0.27120532, 0.79025281], "properties": {"magmom": 0.0}, "label": "Ir", "xyz": [3.300575725477693, 1.6524392068874545, 4.570856798873572]}, {"species": [{"element": "Ir", "occu": 1}], "abc": [0.00068179, 0.72879468, 0.70974719], "properties": {"magmom": 0.0}, "label": "Ir", "xyz": [0.0044944704776929, 4.410624338112546, 2.7433250561264275]}]}, "task_ids": null, "uncorrected_energy_per_atom": null, "energy_per_atom": -35.04348429583333, "formation_energy_per_atom": -0.45282265916666603, "energy_above_hull": 0.0, "is_stable": true, "equilibrium_reaction_energy_per_atom": null, "decomposes_to": null, "xas": null, "grain_boundaries": null, "band_gap": 0.5099, "cbm": null, "vbm": null, "efermi": 8.32211357, "is_gap_direct": null, "is_metal": null, "es_source_calc_id": null, "bandstructure": null, "dos": null, "dos_energy_up": null, "dos_energy_down": null, "is_magnetic": null, "ordering": null, "total_magnetization": 0.0, "total_magnetization_normalized_vol": null, "total_magnetization_normalized_formula_units": null, "num_magnetic_sites": null, "num_unique_magnetic_sites": null, "types_of_magnetic_species": null, "bulk_modulus": null, "shear_modulus": null, "universal_anisotropy": null, "homogeneous_poisson": null, "e_total": null, "e_ionic": null, "e_electronic": null, "n": null, "e_ij_max": null, "weighted_surface_energy_EV_PER_ANG2": null, "weighted_surface_energy": null, "weighted_work_function": null, "surface_anisotropy": null, "shape_factor": null, "has_reconstructed": null, "possible_species": null, "has_props": null, "theoretical": null, "database_IDs": null, "fields_not_requested": ["builder_meta", "nsites", "elements", "nelements", "composition", "composition_reduced", "chemsys", "symmetry", "property_name", "deprecated", "deprecation_reasons", "last_updated", "origins", "warnings", "task_ids", "uncorrected_energy_per_atom", "equilibrium_reaction_energy_per_atom", "decomposes_to", "xas", "grain_boundaries", "cbm", "vbm", "is_gap_direct", "is_metal", "es_source_calc_id", "bandstructure", "dos", "dos_energy_up", "dos_energy_down", "is_magnetic", "ordering", "total_magnetization_normalized_vol", "total_magnetization_normalized_formula_units", "num_magnetic_sites", "num_unique_magnetic_sites", "types_of_magnetic_species", "bulk_modulus", "shear_modulus", "universal_anisotropy", "homogeneous_poisson", "e_total", "e_ionic", "e_electronic", "n", "e_ij_max", "weighted_surface_energy_EV_PER_ANG2", "weighted_surface_energy", "weighted_work_function", "surface_anisotropy", "shape_factor", "has_reconstructed", "possible_species", "has_props", "theoretical", "database_IDs"]}