{"builder_meta": null, "nsites": null, "elements": null, "nelements": null, "composition": null, "composition_reduced": null, "formula_pretty": "Sb2O3", "formula_anonymous": "A2B3", "chemsys": null, "volume": 331.9848734985325, "density": 5.832523086050206, "density_atomic": 16.599243674926626, "symmetry": null, "property_name": null, "material_id": "mp-2136", "deprecated": null, "deprecation_reasons": null, "last_updated": null, "origins": null, "warnings": null, "structure": {"@module": "pymatgen.core.structure", "@class": "Structure", "charge": 0, "lattice": {"matrix": [[4.96361487, 0.0, 0.0], [0.0, 5.40283676, 0.0], [0.0, 0.0, 12.37936514]], "pbc": [true, true, true], "a": 4.96361487, "b": 5.40283676, "c": 12.37936514, "alpha": 90.0, "beta": 90.0, "gamma": 90.0, "volume": 331.9848734985325}, "properties": {}, "sites": [{"species": [{"element": "Sb", "occu": 1}], "abc": [0.958525899999999, 0.82224158, 0.87261043], "properties": {"magmom": -0.0}, "label": "Sb", "xyz": [4.757753410520128, 4.442437034024481, 10.802363137942411]}, {"species": [{"element": "Sb", "occu": 1}], "abc": [0.4585259, 0.67775842, 0.12738957], "properties": {"magmom": -0.0}, "label": "Sb", "xyz": [2.275945975520133, 3.661818105975519, 1.5770020020575901]}, {"species": [{"element": "Sb", "occu": 1}], "abc": [0.5414741, 0.82224158, 0.6273895700000001], "properties": {"magmom": -0.0}, "label": "Sb", "xyz": [2.6876688944798666, 4.442437034024481, 7.766684572057591]}, {"species": [{"element": "Sb", "occu": 1}], "abc": [0.0414741, 0.67775842, 0.37261043], "properties": {"magmom": -0.0}, "label": "Sb", "xyz": [0.205861459479867, 3.661818105975519, 4.6126805679424105]}, {"species": [{"element": "Sb", "occu": 1}], "abc": [0.0414741, 0.17775842, 0.12738957], "properties": {"magmom": -0.0}, "label": "Sb", "xyz": [0.205861459479867, 0.9603997259755191, 1.5770020020575901]}, {"species": [{"element": "Sb", "occu": 1}], "abc": [0.5414741, 0.32224158, 0.87261043], "properties": {"magmom": -0.0}, "label": "Sb", "xyz": [2.6876688944798666, 1.7410186540244807, 10.802363137942411]}, {"species": [{"element": "Sb", "occu": 1}], "abc": [0.4585259, 0.17775842, 0.37261043], "properties": {"magmom": -0.0}, "label": "Sb", "xyz": [2.275945975520133, 0.9603997259755191, 4.6126805679424105]}, {"species": [{"element": "Sb", "occu": 1}], "abc": [0.958525899999999, 0.32224158, 0.6273895700000001], "properties": {"magmom": -0.0}, "label": "Sb", "xyz": [4.757753410520128, 1.7410186540244807, 7.766684572057591]}, {"species": [{"element": "O", "occu": 1}], "abc": [0.75, 0.98466754, 0.75], "properties": {"magmom": 0.0}, "label": "O", "xyz": [3.7227111524999996, 5.31999798149077, 9.284523855]}, {"species": [{"element": "O", "occu": 1}], "abc": [0.25, 0.51533246, 0.25], "properties": {"magmom": 0.0}, "label": "O", "xyz": [1.2409037175, 2.7842571585092295, 3.094841285]}, {"species": [{"element": "O", "occu": 1}], "abc": [0.25, 0.015332460000000001, 0.25], "properties": {"magmom": 0.0}, "label": "O", "xyz": [1.2409037175, 0.0828387785092296, 3.094841285]}, {"species": [{"element": "O", "occu": 1}], "abc": [0.75, 0.48466754, 0.75], "properties": {"magmom": 0.0}, "label": "O", "xyz": [3.7227111524999996, 2.61857960149077, 9.284523855]}, {"species": [{"element": "O", "occu": 1}], "abc": [0.85085753, 0.14750802, 0.94200839], "properties": {"magmom": 0.0}, "label": "O", "xyz": [4.2233290881594705, 0.796961752850815, 11.661465824753526]}, {"species": [{"element": "O", "occu": 1}], "abc": [0.35085753000000003, 0.35249198, 0.05799161], "properties": {"magmom": 0.0}, "label": "O", "xyz": [1.7415216531594713, 1.9044566271491845, 0.7178993152464754]}, {"species": [{"element": "O", "occu": 1}], "abc": [0.64914247, 0.14750802, 0.55799161], "properties": {"magmom": 0.0}, "label": "O", "xyz": [3.2220932168405287, 0.796961752850815, 6.907581885246476]}, {"species": [{"element": "O", "occu": 1}], "abc": [0.14914247, 0.35249198, 0.44200839000000003], "properties": {"magmom": 0.0}, "label": "O", "xyz": [0.7402857818405288, 1.9044566271491845, 5.471783254753525]}, {"species": [{"element": "O", "occu": 1}], "abc": [0.14914247, 0.85249198, 0.05799161], "properties": {"magmom": 0.0}, "label": "O", "xyz": [0.7402857818405288, 4.6058750071491845, 0.7178993152464754]}, {"species": [{"element": "O", "occu": 1}], "abc": [0.64914247, 0.64750802, 0.94200839], "properties": {"magmom": 0.0}, "label": "O", "xyz": [3.2220932168405287, 3.498380132850815, 11.661465824753526]}, {"species": [{"element": "O", "occu": 1}], "abc": [0.35085753000000003, 0.85249198, 0.44200839000000003], "properties": {"magmom": 0.0}, "label": "O", "xyz": [1.7415216531594713, 4.6058750071491845, 5.471783254753525]}, {"species": [{"element": "O", "occu": 1}], "abc": [0.85085753, 0.64750802, 0.55799161], "properties": {"magmom": 0.0}, "label": "O", "xyz": [4.2233290881594705, 3.498380132850815, 6.907581885246476]}]}, "task_ids": null, "uncorrected_energy_per_atom": null, "energy_per_atom": -6.372114600999998, "formation_energy_per_atom": -1.751737501999998, "energy_above_hull": 0.0, "is_stable": true, "equilibrium_reaction_energy_per_atom": null, "decomposes_to": null, "xas": null, "grain_boundaries": null, "band_gap": 2.2239, "cbm": null, "vbm": null, "efermi": 4.28242699, "is_gap_direct": null, "is_metal": null, "es_source_calc_id": null, "bandstructure": null, "dos": null, "dos_energy_up": null, "dos_energy_down": null, "is_magnetic": null, "ordering": null, "total_magnetization": 0.0, "total_magnetization_normalized_vol": null, "total_magnetization_normalized_formula_units": null, "num_magnetic_sites": null, "num_unique_magnetic_sites": null, "types_of_magnetic_species": null, "bulk_modulus": null, "shear_modulus": null, "universal_anisotropy": null, "homogeneous_poisson": null, "e_total": null, "e_ionic": null, "e_electronic": null, "n": null, "e_ij_max": null, "weighted_surface_energy_EV_PER_ANG2": null, "weighted_surface_energy": null, "weighted_work_function": null, "surface_anisotropy": null, "shape_factor": null, "has_reconstructed": null, "possible_species": null, "has_props": null, "theoretical": null, "database_IDs": null, "fields_not_requested": ["builder_meta", "nsites", "elements", "nelements", "composition", "composition_reduced", "chemsys", "symmetry", "property_name", "deprecated", "deprecation_reasons", "last_updated", "origins", "warnings", "task_ids", "uncorrected_energy_per_atom", "equilibrium_reaction_energy_per_atom", "decomposes_to", "xas", "grain_boundaries", "cbm", "vbm", "is_gap_direct", "is_metal", "es_source_calc_id", "bandstructure", "dos", "dos_energy_up", "dos_energy_down", "is_magnetic", "ordering", "total_magnetization_normalized_vol", "total_magnetization_normalized_formula_units", "num_magnetic_sites", "num_unique_magnetic_sites", "types_of_magnetic_species", "bulk_modulus", "shear_modulus", "universal_anisotropy", "homogeneous_poisson", "e_total", "e_ionic", "e_electronic", "n", "e_ij_max", "weighted_surface_energy_EV_PER_ANG2", "weighted_surface_energy", "weighted_work_function", "surface_anisotropy", "shape_factor", "has_reconstructed", "possible_species", "has_props", "theoretical", "database_IDs"]}