{
  "builder_meta": null,
  "nsites": null,
  "elements": null,
  "nelements": null,
  "composition": null,
  "composition_reduced": null,
  "formula_pretty": "Sb2O5",
  "formula_anonymous": "A2B5",
  "chemsys": null,
  "volume": 160.9217283676086,
  "density": 6.67669459753784,
  "density_atomic": 11.4944091691149,
  "symmetry": null,
  "property_name": null,
  "material_id": "mp-1705",
  "deprecated": null,
  "deprecation_reasons": null,
  "last_updated": null,
  "origins": null,
  "warnings": null,
  "structure": {
    "@module": "pymatgen.core.structure",
    "@class": "Structure",
    "charge": 0,
    "lattice": {
      "matrix": [
        [4.48561979, -0.0, -1.6963416100000002],
        [-0.46208201, 5.28844371, -1.22188136],
        [0.0012942, 0.00355428, 6.78223614]
      ],
      "pbc": [true, true, true],
      "a": 4.795660513240803,
      "b": 5.447398527344925,
      "c": 6.782237194803943,
      "alpha": 102.93308047516437,
      "beta": 110.70434303487451,
      "gamma": 89.99999126041615,
      "volume": 160.9217283676086
    },
    "properties": {},
    "sites": [
      {
        "species": [{ "element": "Sb", "occu": 1 }],
        "abc": [0.62049034, 0.21993211000000001, 0.72392107],
        "properties": { "magmom": -0.0 },
        "label": "Sb",
        "xyz": [2.6825939758042816, 1.1656716019372078, 3.5885091154419526]
      },
      {
        "species": [{ "element": "Sb", "occu": 1 }],
        "abc": [0.89656927, 0.28006789, 0.27607893],
        "properties": { "magmom": -0.0 },
        "label": "Sb",
        "xyz": [3.8926118284214004, 1.4821045330627922, 0.009335003264675068]
      },
      {
        "species": [{ "element": "Sb", "occu": 1 }],
        "abc": [0.37951066, 0.78006789, 0.27607893],
        "properties": { "magmom": -0.0 },
        "label": "Sb",
        "xyz": [1.3422424898155088, 4.126326388062792, 0.2755023582164371]
      },
      {
        "species": [{ "element": "Sb", "occu": 1 }],
        "abc": [0.10343073, 0.71993211, 0.72392107],
        "properties": { "magmom": -0.0 },
        "label": "Sb",
        "xyz": [0.13222015157859965, 3.809893456937208, 3.854678166735325]
      },
      {
        "species": [{ "element": "O", "occu": 1 }],
        "abc": [0.57837323, 0.25, 0.0],
        "properties": { "magmom": 0.0 },
        "label": "O",
        "xyz": [2.4788419039942218, 1.3221109275, -1.2865889161591004]
      },
      {
        "species": [{ "element": "O", "occu": 1 }],
        "abc": [0.42162677, 0.75, -0.0],
        "properties": { "magmom": 0.0 },
        "label": "O",
        "xyz": [1.5446958760057785, 3.9663327825000003, -1.6316340538408998]
      },
      {
        "species": [{ "element": "O", "occu": 1 }],
        "abc": [0.18833446, 0.44940541, 0.20509376],
        "properties": { "magmom": -0.0 },
        "label": "O",
        "xyz": [0.6374000581014814, 2.3773841744037636, 0.5223946365034482]
      },
      {
        "species": [{ "element": "O", "occu": 1 }],
        "abc": [0.9832407, 0.05059459, 0.79490624],
        "properties": { "magmom": -0.0 },
        "label": "O",
        "xyz": [4.3880938600669355, 0.2703919605962361, 3.661509130346144]
      },
      {
        "species": [{ "element": "O", "occu": 1 }],
        "abc": [0.78235593, 0.62383948, 0.40569304],
        "properties": { "magmom": 0.0 },
        "label": "O",
        "xyz": [3.221611289528468, 3.3005819207138822, 0.6621052475011253]
      },
      {
        "species": [{ "element": "O", "occu": 1 }],
        "abc": [0.37666289000000003, 0.87616052, 0.59430696],
        "properties": { "magmom": 0.0 },
        "label": "O",
        "xyz": [1.2854776514459803, 4.635637924286119, 2.3212170013597744]
      },
      {
        "species": [{ "element": "O", "occu": 1 }],
        "abc": [0.21764407, 0.37616052, 0.59430696],
        "properties": { "magmom": 0.0 },
        "label": "O",
        "xyz": [0.8032206904715321, 1.991416069286118, 3.201907922498875]
      },
      {
        "species": [{ "element": "O", "occu": 1 }],
        "abc": [0.62333711, 0.12383948, 0.40569304],
        "properties": { "magmom": 0.0 },
        "label": "O",
        "xyz": [2.7393543285540205, 0.6563600657138821, 1.5427961686402256]
      },
      {
        "species": [{ "element": "O", "occu": 1 }],
        "abc": [0.016759299999999002, 0.94940541, 0.20509376],
        "properties": { "magmom": -0.0 },
        "label": "O",
        "xyz": [-0.36326188006693955, 5.021606029403764, 0.20250403965385777]
      },
      {
        "species": [{ "element": "O", "occu": 1 }],
        "abc": [0.81166554, 0.55059459, 0.79490624],
        "properties": { "magmom": -0.0 },
        "label": "O",
        "xyz": [3.387431921898519, 2.9146138155962364, 3.3416185334965514]
      }
    ]
  },
  "task_ids": null,
  "uncorrected_energy_per_atom": null,
  "energy_per_atom": -6.462006590714286,
  "formation_energy_per_atom": -1.74803409,
  "energy_above_hull": 0.0,
  "is_stable": true,
  "equilibrium_reaction_energy_per_atom": null,
  "decomposes_to": null,
  "xas": null,
  "grain_boundaries": null,
  "band_gap": 0.5057,
  "cbm": null,
  "vbm": null,
  "efermi": 5.09677719,
  "is_gap_direct": null,
  "is_metal": null,
  "es_source_calc_id": null,
  "bandstructure": null,
  "dos": null,
  "dos_energy_up": null,
  "dos_energy_down": null,
  "is_magnetic": null,
  "ordering": null,
  "total_magnetization": 0.0,
  "total_magnetization_normalized_vol": null,
  "total_magnetization_normalized_formula_units": null,
  "num_magnetic_sites": null,
  "num_unique_magnetic_sites": null,
  "types_of_magnetic_species": null,
  "bulk_modulus": null,
  "shear_modulus": null,
  "universal_anisotropy": null,
  "homogeneous_poisson": null,
  "e_total": null,
  "e_ionic": null,
  "e_electronic": null,
  "n": null,
  "e_ij_max": null,
  "weighted_surface_energy_EV_PER_ANG2": null,
  "weighted_surface_energy": null,
  "weighted_work_function": null,
  "surface_anisotropy": null,
  "shape_factor": null,
  "has_reconstructed": null,
  "possible_species": null,
  "has_props": null,
  "theoretical": null,
  "database_IDs": null,
  "fields_not_requested": [
    "builder_meta",
    "nsites",
    "elements",
    "nelements",
    "composition",
    "composition_reduced",
    "chemsys",
    "symmetry",
    "property_name",
    "deprecated",
    "deprecation_reasons",
    "last_updated",
    "origins",
    "warnings",
    "task_ids",
    "uncorrected_energy_per_atom",
    "equilibrium_reaction_energy_per_atom",
    "decomposes_to",
    "xas",
    "grain_boundaries",
    "cbm",
    "vbm",
    "is_gap_direct",
    "is_metal",
    "es_source_calc_id",
    "bandstructure",
    "dos",
    "dos_energy_up",
    "dos_energy_down",
    "is_magnetic",
    "ordering",
    "total_magnetization_normalized_vol",
    "total_magnetization_normalized_formula_units",
    "num_magnetic_sites",
    "num_unique_magnetic_sites",
    "types_of_magnetic_species",
    "bulk_modulus",
    "shear_modulus",
    "universal_anisotropy",
    "homogeneous_poisson",
    "e_total",
    "e_ionic",
    "e_electronic",
    "n",
    "e_ij_max",
    "weighted_surface_energy_EV_PER_ANG2",
    "weighted_surface_energy",
    "weighted_work_function",
    "surface_anisotropy",
    "shape_factor",
    "has_reconstructed",
    "possible_species",
    "has_props",
    "theoretical",
    "database_IDs"
  ]
}
