{
  "builder_meta": null,
  "nsites": null,
  "elements": null,
  "nelements": null,
  "composition": null,
  "composition_reduced": null,
  "formula_pretty": "Sb2O7",
  "formula_anonymous": "A2B7",
  "chemsys": null,
  "volume": 286.1023168261375,
  "density": 4.12683043774373,
  "density_atomic": 15.894573157007638,
  "symmetry": null,
  "property_name": null,
  "material_id": "mp-1219528",
  "deprecated": null,
  "deprecation_reasons": null,
  "last_updated": null,
  "origins": null,
  "warnings": null,
  "structure": {
    "@module": "pymatgen.core.structure",
    "@class": "Structure",
    "charge": 0,
    "lattice": {
      "matrix": [
        [-3.681331, 3.723824, 5.217559],
        [3.681331, -3.723824, 5.217559],
        [3.681331, 3.723824, -5.217559]
      ],
      "pbc": [true, true, true],
      "a": 7.3920217148638026,
      "b": 7.3920217148638026,
      "c": 7.3920217148638026,
      "alpha": 120.2625994279534,
      "beta": 119.50151061484885,
      "gamma": 90.20566761712192,
      "volume": 286.1023168261375
    },
    "properties": {},
    "sites": [
      {
        "species": [{ "element": "Sb", "occu": 1 }],
        "abc": [0.997369, 0.47776, 0.9803909999999991],
        "properties": { "magmom": -0.021 },
        "label": "Sb",
        "xyz": [1.6962910608419968, 5.585735999999997, 2.5813247045420047]
      },
      {
        "species": [{ "element": "Sb", "occu": 1 }],
        "abc": [0.002631, 0.983022, 0.480390999999999],
        "properties": { "magmom": -0.021 },
        "label": "Sb",
        "xyz": [5.377622060841996, -1.8619120000000033, 2.636234295458005]
      },
      {
        "species": [{ "element": "Sb", "occu": 1 }],
        "abc": [0.5, 0.980907, 0.480907],
        "properties": { "magmom": -0.02 },
        "label": "Sb",
        "xyz": [3.540755694434, 2.220446049250313e-16, 5.217559]
      },
      {
        "species": [{ "element": "Sb", "occu": 1 }],
        "abc": [0.0, 0.980907, 0.980907],
        "properties": { "magmom": -0.02 },
        "label": "Sb",
        "xyz": [7.222086694434, 0.0, 0.0]
      },
      {
        "species": [{ "element": "O", "occu": 1 }],
        "abc": [0.325003999999999, 0.051912, 0.226908],
        "properties": { "magmom": 0.387 },
        "label": "O",
        "xyz": [-0.1700185909039963, 1.8619119999999962, 0.7826755904719949]
      },
      {
        "species": [{ "element": "O", "occu": 1 }],
        "abc": [0.927388999999999, 0.659056, 0.231666999999999],
        "properties": { "magmom": 0.242 },
        "label": "O",
        "xyz": [-0.1349796824459999, 1.8619119999999925, 7.068634146901999]
      },
      {
        "species": [{ "element": "O", "occu": 1 }],
        "abc": [0.931203, 0.054672, 0.231963999999999],
        "properties": { "magmom": 0.21 },
        "label": "O",
        "xyz": [-2.3728644786770037, 4.127840284879996, 3.933575123249005]
      },
      {
        "species": [{ "element": "O", "occu": 1 }],
        "abc": [0.321876, 0.656615, 0.230327999999999],
        "properties": { "magmom": 0.28500000000000003 },
        "label": "O",
        "xyz": [2.0801986641769963, -0.3888081876640035, 3.903584594117005]
      },
      {
        "species": [{ "element": "O", "occu": 1 }],
        "abc": [0.926287, 0.656615, 0.834739],
        "properties": { "magmom": 0.28500000000000003 },
        "label": "O",
        "xyz": [2.080198664177, 4.1126321876639995, 3.9035845941169995]
      },
      {
        "species": [{ "element": "O", "occu": 1 }],
        "abc": [0.322706999999999, 0.054672, 0.623468999999999],
        "properties": { "magmom": 0.21 },
        "label": "O",
        "xyz": [1.308470202654, 3.3198039912959927, -1.2839890943100003]
      },
      {
        "species": [{ "element": "O", "occu": 1 }],
        "abc": [0.674995999999999, 0.901905, 0.726908],
        "properties": { "magmom": 0.387 },
        "label": "O",
        "xyz": [3.511316090427003, 1.8619082761759964, 4.434888627086995]
      },
      {
        "species": [{ "element": "O", "occu": 1 }],
        "abc": [0.072611, 0.304276999999999, 0.731667],
        "properties": { "magmom": 0.242 },
        "label": "O",
        "xyz": [3.5463476362229964, 1.8619157238240034, -1.851080364461005]
      },
      {
        "species": [{ "element": "O", "occu": 1 }],
        "abc": [0.073713, 0.908451999999999, 0.730328],
        "properties": { "magmom": 0.28500000000000003 },
        "label": "O",
        "xyz": [5.761529664176996, -0.3888081876639964, 1.3139744058829952]
      },
      {
        "species": [{ "element": "O", "occu": 1 }],
        "abc": [0.677292999999999, 0.300761, 0.731964],
        "properties": { "magmom": 0.21 },
        "label": "O",
        "xyz": [1.3084628399920035, 4.127844008703996, 1.283989094309995]
      },
      {
        "species": [{ "element": "O", "occu": 1 }],
        "abc": [0.068797, 0.300761, 0.123469],
        "properties": { "magmom": 0.21 },
        "label": "O",
        "xyz": [1.308466521323, -0.4040162848800002, 1.283983876751]
      },
      {
        "species": [{ "element": "O", "occu": 1 }],
        "abc": [0.678124, 0.908451999999999, 0.334739],
        "properties": { "magmom": 0.28500000000000003 },
        "label": "O",
        "xyz": [2.080198664176997, 0.3888081876640035, 6.531533405882994]
      },
      {
        "species": [{ "element": "O", "occu": 1 }],
        "abc": [0.454972, 0.970198999999999, 0.015227],
        "properties": { "magmom": 1.766 },
        "label": "O",
        "xyz": [1.9527767542739967, -1.8619119999999962, 7.356466006695995]
      },
      {
        "species": [{ "element": "O", "occu": 1 }],
        "abc": [0.545028, 0.560255, 0.515227],
        "properties": { "magmom": 1.766 },
        "label": "O",
        "xyz": [1.952776754274, 1.861912, 3.0786519933039997]
      }
    ]
  },
  "task_ids": null,
  "uncorrected_energy_per_atom": null,
  "energy_per_atom": -5.790505892777777,
  "formation_energy_per_atom": -1.024535946666666,
  "energy_above_hull": 0.335046123333333,
  "is_stable": false,
  "equilibrium_reaction_energy_per_atom": null,
  "decomposes_to": null,
  "xas": null,
  "grain_boundaries": null,
  "band_gap": 0.0,
  "cbm": null,
  "vbm": null,
  "efermi": 0.62362653,
  "is_gap_direct": null,
  "is_metal": null,
  "es_source_calc_id": null,
  "bandstructure": null,
  "dos": null,
  "dos_energy_up": null,
  "dos_energy_down": null,
  "is_magnetic": null,
  "ordering": null,
  "total_magnetization": 8.0000969,
  "total_magnetization_normalized_vol": null,
  "total_magnetization_normalized_formula_units": null,
  "num_magnetic_sites": null,
  "num_unique_magnetic_sites": null,
  "types_of_magnetic_species": null,
  "bulk_modulus": null,
  "shear_modulus": null,
  "universal_anisotropy": null,
  "homogeneous_poisson": null,
  "e_total": null,
  "e_ionic": null,
  "e_electronic": null,
  "n": null,
  "e_ij_max": null,
  "weighted_surface_energy_EV_PER_ANG2": null,
  "weighted_surface_energy": null,
  "weighted_work_function": null,
  "surface_anisotropy": null,
  "shape_factor": null,
  "has_reconstructed": null,
  "possible_species": null,
  "has_props": null,
  "theoretical": null,
  "database_IDs": null,
  "fields_not_requested": [
    "builder_meta",
    "nsites",
    "elements",
    "nelements",
    "composition",
    "composition_reduced",
    "chemsys",
    "symmetry",
    "property_name",
    "deprecated",
    "deprecation_reasons",
    "last_updated",
    "origins",
    "warnings",
    "task_ids",
    "uncorrected_energy_per_atom",
    "equilibrium_reaction_energy_per_atom",
    "decomposes_to",
    "xas",
    "grain_boundaries",
    "cbm",
    "vbm",
    "is_gap_direct",
    "is_metal",
    "es_source_calc_id",
    "bandstructure",
    "dos",
    "dos_energy_up",
    "dos_energy_down",
    "is_magnetic",
    "ordering",
    "total_magnetization_normalized_vol",
    "total_magnetization_normalized_formula_units",
    "num_magnetic_sites",
    "num_unique_magnetic_sites",
    "types_of_magnetic_species",
    "bulk_modulus",
    "shear_modulus",
    "universal_anisotropy",
    "homogeneous_poisson",
    "e_total",
    "e_ionic",
    "e_electronic",
    "n",
    "e_ij_max",
    "weighted_surface_energy_EV_PER_ANG2",
    "weighted_surface_energy",
    "weighted_work_function",
    "surface_anisotropy",
    "shape_factor",
    "has_reconstructed",
    "possible_species",
    "has_props",
    "theoretical",
    "database_IDs"
  ]
}
