{"builder_meta": null, "nsites": null, "elements": null, "nelements": null, "composition": null, "composition_reduced": null, "formula_pretty": "Sb2Pd5", "formula_anonymous": "A2B5", "chemsys": null, "volume": 714.1663135436173, "density": 10.82056618811073, "density_atomic": 17.003959846276604, "symmetry": null, "property_name": null, "material_id": "mp-569451", "deprecated": null, "deprecation_reasons": null, "last_updated": null, "origins": null, "warnings": null, "structure": {"@module": "pymatgen.core.structure", "@class": "Structure", "charge": 0, "lattice": {"matrix": [[7.66593984, 0.00023969, 6.151e-05], [-3.83276322, 6.63901858, 6.151e-05], [0.0001126, 0.00019568, 14.03208579]], "pbc": [true, true, true], "a": 7.665939843993951, "b": 7.665940360448512, "c": 14.032085791816174, "alpha": 89.99907817468228, "beta": 89.99908047685044, "gamma": 119.99642241905782, "volume": 714.1663135436173}, "properties": {}, "sites": [{"species": [{"element": "Sb", "occu": 1}], "abc": [0.66666266, 0.33331301, 0.28992237], "properties": {"magmom": 0.0}, "label": "Sb", "xyz": [3.8331186449177435, 2.213087790728063, 4.068277076783584]}, {"species": [{"element": "Sb", "occu": 1}], "abc": [0.33334323, 0.66674563, 0.79005366], "properties": {"magmom": 0.0}, "label": "Sb", "xyz": [-2.046632941317102e-08, 4.426771122442793, 11.08616225128927]}, {"species": [{"element": "Sb", "occu": 1}], "abc": [0.3310063, 0.3310063, 0.01690305], "properties": {"magmom": -0.0}, "label": "Sb", "xyz": [1.2688075135161359, 2.197639622285925, 0.2372257681076855]}, {"species": [{"element": "Sb", "occu": 1}], "abc": [-2.7090000000000003e-05, 0.66906307, 0.01689953], "properties": {"magmom": 0.0}, "label": "Sb", "xyz": [-2.5645660939794728, 4.441925453328668, 0.23717680717380848]}, {"species": [{"element": "Sb", "occu": 1}], "abc": [-1.029e-05, -1.029e-05, 0.74327027], "properties": {"magmom": 0.0}, "label": "Sb", "xyz": [4.42488449822e-05, 7.71251588353e-05, 10.429632192530587]}, {"species": [{"element": "Sb", "occu": 1}], "abc": [3.813e-05, 3.813e-05, 0.24337143], "properties": {"magmom": 0.0}, "label": "Sb", "xyz": [0.00017356264753860001, 0.0003007778392575, 3.4150087892857326]}, {"species": [{"element": "Sb", "occu": 1}], "abc": [0.6690530100000001, 0.6690530100000001, 0.5169313], "properties": {"magmom": -0.0}, "label": "Sb", "xyz": [2.5646565619370065, 4.442116882827677, 7.253706656037517]}, {"species": [{"element": "Sb", "occu": 1}], "abc": [0.33091076, 8.599999999999999e-06, 0.51693512], "properties": {"magmom": -0.0}, "label": "Sb", "xyz": [2.5367672236994987, 0.000237565424134, 7.253698306553778]}, {"species": [{"element": "Sb", "occu": 1}], "abc": [8.599999999999999e-06, 0.33091076, 0.51693512], "properties": {"magmom": -0.0}, "label": "Sb", "xyz": [-1.2681784560531113, 2.197023839887537, 7.253698306553778]}, {"species": [{"element": "Sb", "occu": 1}], "abc": [0.66674563, 0.33334323, 0.79005366], "properties": {"magmom": 0.0}, "label": "Sb", "xyz": [3.8336951766250142, 2.2133863074474567, 11.08616225128927]}, {"species": [{"element": "Sb", "occu": 1}], "abc": [0.66906307, -2.7090000000000003e-05, 0.01689953], "properties": {"magmom": 0.0}, "label": "Sb", "xyz": [5.129102976228417, -1.6176386053500022e-05, 0.23717680717380848]}, {"species": [{"element": "Sb", "occu": 1}], "abc": [0.33331301, 0.66666266, 0.28992237], "properties": {"magmom": 0.0}, "label": "Sb", "xyz": [3.0004412815713213e-05, 4.4261224101369505, 4.068277076783584]}, {"species": [{"element": "Pd", "occu": 1}], "abc": [0.62720201, 0.62720201, 0.92375883], "properties": {"magmom": 0.0}, "label": "Pd", "xyz": [2.404280095993265, 4.164336892980977, 12.962340310221297]}, {"species": [{"element": "Pd", "occu": 1}], "abc": [0.62912534, -1.853e-05, 0.21302242000000002], "properties": {"magmom": 0.0}, "label": "Pd", "xyz": [4.822932015686504, 6.94582656028e-05, 2.989187568993295]}, {"species": [{"element": "Pd", "occu": 1}], "abc": [0.3333562, 0.66666359, 0.08929519], "properties": {"magmom": 0.0}, "label": "Pd", "xyz": [0.0003349412642422863, 4.426089336049859, 1.253059277931633]}, {"species": [{"element": "Pd", "occu": 1}], "abc": [0.7380315, 0.7380315, 0.11486801], "properties": {"magmom": -0.0}, "label": "Pd", "xyz": [2.829018024761456, 4.900004217267701, 1.611928563481708]}, {"species": [{"element": "Pd", "occu": 1}], "abc": [0.30970797, -8e-08, 0.32224561], "properties": {"magmom": -0.0}, "label": "Pd", "xyz": [2.374239257465268, 0.0001367598028077, 4.521797095103197]}, {"species": [{"element": "Pd", "occu": 1}], "abc": [0.30968734000000003, 0.30968734000000003, 0.82217701], "properties": {"magmom": 0.0}, "label": "Pd", "xyz": [1.187178848329317, 2.0562551168066188, 11.536896436622255]}, {"species": [{"element": "Pd", "occu": 1}], "abc": [0.66666359, 0.3333562, 0.08929519], "properties": {"magmom": 0.0}, "label": "Pd", "xyz": [3.832937646577855, 2.2133352714368626, 1.253059277931633]}, {"species": [{"element": "Pd", "occu": 1}], "abc": [0.26197526, 7.2e-06, 0.11488628000000001], "properties": {"magmom": -0.0}, "label": "Pd", "xyz": [2.0082719230283024, 0.0001330747311158, 1.6121102515950758]}, {"species": [{"element": "Pd", "occu": 1}], "abc": [0.26202899, 0.26202899, 0.6148836], "properties": {"magmom": -0.0}, "label": "Pd", "xyz": [1.0044726341235741, 1.7397984592600955, 8.628131660870393]}, {"species": [{"element": "Pd", "occu": 1}], "abc": [0.37275358000000003, 0.37275358000000003, 0.42378655], "properties": {"magmom": 0.0}, "label": "Pd", "xyz": [1.42887802624283, 2.4748902152392107, 5.946655082393536]}, {"species": [{"element": "Pd", "occu": 1}], "abc": [-8e-08, 0.30970797, 0.32224561], "properties": {"magmom": -0.0}, "label": "Pd", "xyz": [-1.1870016447763645, 2.056220024205872, 4.521797095103197]}, {"species": [{"element": "Pd", "occu": 1}], "abc": [0.99997654, 0.37279009, 0.92373516], "properties": {"magmom": -0.0}, "label": "Pd", "xyz": [6.237047863897881, 2.475380774822854, 12.962015451234787]}, {"species": [{"element": "Pd", "occu": 1}], "abc": [0.69026558, 0.69026558, 0.32225557], "properties": {"magmom": -0.0}, "label": "Pd", "xyz": [2.6459461688239223, 4.582914519481284, 4.522002721017002]}, {"species": [{"element": "Pd", "occu": 1}], "abc": [0.37097289, 4.21e-05, 0.71300633], "properties": {"magmom": 0.0}, "label": "Pd", "xyz": [2.8437747821921335, 0.0005079422528765001, 10.004988812505086]}, {"species": [{"element": "Pd", "occu": 1}], "abc": [1.883e-05, 0.62724505, 0.42377555], "properties": {"magmom": -0.0}, "label": "Pd", "xyz": [-2.4038896907929432, 4.164374470076016, 5.946493456305693]}, {"species": [{"element": "Pd", "occu": 1}], "abc": [0.66665233, 0.33333088, 0.58933513], "properties": {"magmom": -0.0}, "label": "Pd", "xyz": [3.8330046781572316, 2.2132650166029664, 8.269662612188052]}, {"species": [{"element": "Pd", "occu": 1}], "abc": [0.62903491, 0.62903491, 0.71301477], "properties": {"magmom": -0.0}, "label": "Pd", "xyz": [2.4112821956389063, 4.176464751066399, 10.005161806051747]}, {"species": [{"element": "Pd", "occu": 1}], "abc": [-1.762e-05, -1.762e-05, 0.943689599999999], "properties": {"magmom": 0.0}, "label": "Pd", "xyz": [3.871887691559987e-05, 6.767745021059978e-05, 13.24193342416316]}, {"species": [{"element": "Pd", "occu": 1}], "abc": [0.73795427, -3.4160000000000005e-05, 0.61486894], "properties": {"magmom": -0.0}, "label": "Pd", "xyz": [5.657313199925356, 7.040893846269999e-05, 8.627939105152329]}, {"species": [{"element": "Pd", "occu": 1}], "abc": [-3.4160000000000005e-05, 0.73795427, 0.61486894], "properties": {"magmom": -0.0}, "label": "Pd", "xyz": [-2.82859661836024, 4.899412419086706, 8.627939105152329]}, {"species": [{"element": "Pd", "occu": 1}], "abc": [0.33333088, 0.66665233, 0.58933513], "properties": {"magmom": -0.0}, "label": "Pd", "xyz": [0.0002403010785947235, 4.426112422447157, 8.269662612188052]}, {"species": [{"element": "Pd", "occu": 1}], "abc": [0.69035647, -1.6850000000000003e-05, 0.82220284], "properties": {"magmom": -0.0}, "label": "Pd", "xyz": [5.2923883292748055, 0.00021449273095249996, 11.53726325045167]}, {"species": [{"element": "Pd", "occu": 1}], "abc": [0.62724505, 1.883e-05, 0.42377555], "properties": {"magmom": -0.0}, "label": "Pd", "xyz": [4.808398364433288, 0.0003582814855199, 5.946493456305693]}, {"species": [{"element": "Pd", "occu": 1}], "abc": [-3.231e-05, -3.231e-05, 0.44370748], "properties": {"magmom": 0.0}, "label": "Pd", "xyz": [-7.38884743442e-05, -0.00012768975501730004, 6.226141421049933]}, {"species": [{"element": "Pd", "occu": 1}], "abc": [0.37082963, 0.37082963, 0.2130183], "properties": {"magmom": -0.0}, "label": "Pd", "xyz": [1.4214794535798307, 2.462075371159484, 2.9891366799010393]}, {"species": [{"element": "Pd", "occu": 1}], "abc": [0.37279109, 0.99997654, 0.92373516], "properties": {"magmom": -0.0}, "label": "Pd", "xyz": [-0.9747752219678171, 6.6391329394165846, 12.962015451296297]}, {"species": [{"element": "Pd", "occu": 1}], "abc": [-1.853e-05, 0.62912534, 0.21302242000000002], "properties": {"magmom": 0.0}, "label": "Pd", "xyz": [-2.411406527462738, 4.176816501194507, 2.989187568993295]}, {"species": [{"element": "Pd", "occu": 1}], "abc": [4.21e-05, 0.37097289, 0.71300633], "properties": {"magmom": 0.0}, "label": "Pd", "xyz": [-1.4214482278290836, 2.4630354405558994, 10.004988812505086]}, {"species": [{"element": "Pd", "occu": 1}], "abc": [-1.6850000000000003e-05, 0.69035647, 0.82220284], "properties": {"magmom": -0.0}, "label": "Pd", "xyz": [-2.6460094779515533, 4.583450315766167, 11.53726325045167]}, {"species": [{"element": "Pd", "occu": 1}], "abc": [7.2e-06, 0.26197526, 0.11488628000000001], "properties": {"magmom": -0.0}, "label": "Pd", "xyz": [-1.0040210101159612, 1.739281101313369, 1.6121102515950758]}]}, "task_ids": null, "uncorrected_energy_per_atom": null, "energy_per_atom": -24.19105940809524, "formation_energy_per_atom": -0.446073763809522, "energy_above_hull": 0.0011261276190450001, "is_stable": false, "equilibrium_reaction_energy_per_atom": null, "decomposes_to": null, "xas": null, "grain_boundaries": null, "band_gap": 0.0, "cbm": null, "vbm": null, "efermi": 7.11643584, "is_gap_direct": null, "is_metal": null, "es_source_calc_id": null, "bandstructure": null, "dos": null, "dos_energy_up": null, "dos_energy_down": null, "is_magnetic": null, "ordering": null, "total_magnetization": 0.0, "total_magnetization_normalized_vol": null, "total_magnetization_normalized_formula_units": null, "num_magnetic_sites": null, "num_unique_magnetic_sites": null, "types_of_magnetic_species": null, "bulk_modulus": null, "shear_modulus": null, "universal_anisotropy": null, "homogeneous_poisson": null, "e_total": null, "e_ionic": null, "e_electronic": null, "n": null, "e_ij_max": null, "weighted_surface_energy_EV_PER_ANG2": null, "weighted_surface_energy": null, "weighted_work_function": null, "surface_anisotropy": null, "shape_factor": null, "has_reconstructed": null, "possible_species": null, "has_props": null, "theoretical": null, "database_IDs": null, "fields_not_requested": ["builder_meta", "nsites", "elements", "nelements", "composition", "composition_reduced", "chemsys", "symmetry", "property_name", "deprecated", "deprecation_reasons", "last_updated", "origins", "warnings", "task_ids", "uncorrected_energy_per_atom", "equilibrium_reaction_energy_per_atom", "decomposes_to", "xas", "grain_boundaries", "cbm", "vbm", "is_gap_direct", "is_metal", "es_source_calc_id", "bandstructure", "dos", "dos_energy_up", "dos_energy_down", "is_magnetic", "ordering", "total_magnetization_normalized_vol", "total_magnetization_normalized_formula_units", "num_magnetic_sites", "num_unique_magnetic_sites", "types_of_magnetic_species", "bulk_modulus", "shear_modulus", "universal_anisotropy", "homogeneous_poisson", "e_total", "e_ionic", "e_electronic", "n", "e_ij_max", "weighted_surface_energy_EV_PER_ANG2", "weighted_surface_energy", "weighted_work_function", "surface_anisotropy", "shape_factor", "has_reconstructed", "possible_species", "has_props", "theoretical", "database_IDs"]}