{
  "builder_meta": null,
  "nsites": null,
  "elements": null,
  "nelements": null,
  "composition": null,
  "composition_reduced": null,
  "formula_pretty": "Sb2Pt3",
  "formula_anonymous": "A2B3",
  "chemsys": null,
  "volume": 192.849626706266,
  "density": 14.272345835549388,
  "density_atomic": 19.2849626706266,
  "symmetry": null,
  "property_name": null,
  "material_id": "mp-15659",
  "deprecated": null,
  "deprecation_reasons": null,
  "last_updated": null,
  "origins": null,
  "warnings": null,
  "structure": {
    "@module": "pymatgen.core.structure",
    "@class": "Structure",
    "charge": 0,
    "lattice": {
      "matrix": [
        [4.93340733, -0.0005527700000000001, -2.06807233],
        [-1.2828862, 5.63523191, -3.06291065],
        [0.008220410000000001, -0.01921881, 6.94582452]
      ],
      "pbc": [true, true, true],
      "a": 5.349339337840144,
      "b": 6.540875884124091,
      "c": 6.945855973199532,
      "alpha": 118.09182981245849,
      "beta": 112.67539311370678,
      "gamma": 89.99638829479522,
      "volume": 192.849626706266
    },
    "properties": {},
    "sites": [
      {
        "species": [{ "element": "Sb", "occu": 1 }],
        "abc": [0.34564768, 0.60639961, 0.69110656],
        "properties": { "magmom": 0.0 },
        "label": "Sb",
        "xyz": [0.932960286032002, 3.4037291231490876, 2.2281326638193106]
      },
      {
        "species": [{ "element": "Sb", "occu": 1 }],
        "abc": [0.6543520700000001, 0.39359979, 0.30889283],
        "properties": { "magmom": -0.0 },
        "label": "Sb",
        "xyz": [2.7257807853334355, 2.2117278375734326, -0.4132930060077955]
      },
      {
        "species": [{ "element": "Sb", "occu": 1 }],
        "abc": [0.15449178, 0.91526202, 0.30898769],
        "properties": { "magmom": 0.0 },
        "label": "Sb",
        "xyz": [-0.40946612946862376, 5.151689966987379, -0.9766916904488019]
      },
      {
        "species": [{ "element": "Sb", "occu": 1 }],
        "abc": [0.8455078500000001, 0.08473783, 0.6910117100000001],
        "properties": { "magmom": 0.0 },
        "label": "Sb",
        "xyz": [4.068206031608596, 0.4637695294636457, 2.7915302875774493]
      },
      {
        "species": [{ "element": "Pt", "occu": 1 }],
        "abc": [0.88938623, 0.51728028, 0.77873095],
        "properties": { "magmom": -0.0 },
        "label": "Pt",
        "xyz": [3.7304943012276195, 2.8995364320742083, 1.9852301953998959]
      },
      {
        "species": [{ "element": "Pt", "occu": 1 }],
        "abc": [0.11061327, 0.48271924, 0.22126815],
        "properties": { "magmom": 0.0 },
        "label": "Pt",
        "xyz": [-0.07175461954427753, 2.7159212105877892, -0.17039240240868714]
      },
      {
        "species": [{ "element": "Pt", "occu": 1 }],
        "abc": [0.38941585, 0.26151509, 0.7788613400000001],
        "properties": { "magmom": 0.0 },
        "label": "Pt",
        "xyz": [1.5920554683033716, 1.4585141346053119, 3.8034966945069186]
      },
      {
        "species": [{ "element": "Pt", "occu": 1 }],
        "abc": [0.61058583, 0.73848674, 0.22114184],
        "properties": { "magmom": 0.0 },
        "label": "Pt",
        "xyz": [2.0666920382800997, 4.156956445824613, -1.988642146272948]
      },
      {
        "species": [{ "element": "Pt", "occu": 1 }],
        "abc": [0.7500382, 5.7960000000000014e-5, -2.061e-5],
        "properties": { "magmom": -0.0 },
        "label": "Pt",
        "xyz": [3.7001694281532034, -8.758447463629994e-5, -1.5514539276076371]
      },
      {
        "species": [{ "element": "Pt", "occu": 1 }],
        "abc": [0.24996126000000002, -5.856e-5, 1.955e-5],
        "properties": { "magmom": 0.0 },
        "label": "Pt",
        "xyz": [
          1.2332359988249233, -0.00046854599407530006, -0.5166228104609059
        ]
      }
    ]
  },
  "task_ids": null,
  "uncorrected_energy_per_atom": null,
  "energy_per_atom": -41.572818645,
  "formation_energy_per_atom": -0.39766221300000104,
  "energy_above_hull": 0.0,
  "is_stable": true,
  "equilibrium_reaction_energy_per_atom": null,
  "decomposes_to": null,
  "xas": null,
  "grain_boundaries": null,
  "band_gap": 0.0,
  "cbm": null,
  "vbm": null,
  "efermi": 8.07847022,
  "is_gap_direct": null,
  "is_metal": null,
  "es_source_calc_id": null,
  "bandstructure": null,
  "dos": null,
  "dos_energy_up": null,
  "dos_energy_down": null,
  "is_magnetic": null,
  "ordering": null,
  "total_magnetization": 0.0,
  "total_magnetization_normalized_vol": null,
  "total_magnetization_normalized_formula_units": null,
  "num_magnetic_sites": null,
  "num_unique_magnetic_sites": null,
  "types_of_magnetic_species": null,
  "bulk_modulus": null,
  "shear_modulus": null,
  "universal_anisotropy": null,
  "homogeneous_poisson": null,
  "e_total": null,
  "e_ionic": null,
  "e_electronic": null,
  "n": null,
  "e_ij_max": null,
  "weighted_surface_energy_EV_PER_ANG2": null,
  "weighted_surface_energy": null,
  "weighted_work_function": null,
  "surface_anisotropy": null,
  "shape_factor": null,
  "has_reconstructed": null,
  "possible_species": null,
  "has_props": null,
  "theoretical": null,
  "database_IDs": null,
  "fields_not_requested": [
    "builder_meta",
    "nsites",
    "elements",
    "nelements",
    "composition",
    "composition_reduced",
    "chemsys",
    "symmetry",
    "property_name",
    "deprecated",
    "deprecation_reasons",
    "last_updated",
    "origins",
    "warnings",
    "task_ids",
    "uncorrected_energy_per_atom",
    "equilibrium_reaction_energy_per_atom",
    "decomposes_to",
    "xas",
    "grain_boundaries",
    "cbm",
    "vbm",
    "is_gap_direct",
    "is_metal",
    "es_source_calc_id",
    "bandstructure",
    "dos",
    "dos_energy_up",
    "dos_energy_down",
    "is_magnetic",
    "ordering",
    "total_magnetization_normalized_vol",
    "total_magnetization_normalized_formula_units",
    "num_magnetic_sites",
    "num_unique_magnetic_sites",
    "types_of_magnetic_species",
    "bulk_modulus",
    "shear_modulus",
    "universal_anisotropy",
    "homogeneous_poisson",
    "e_total",
    "e_ionic",
    "e_electronic",
    "n",
    "e_ij_max",
    "weighted_surface_energy_EV_PER_ANG2",
    "weighted_surface_energy",
    "weighted_work_function",
    "surface_anisotropy",
    "shape_factor",
    "has_reconstructed",
    "possible_species",
    "has_props",
    "theoretical",
    "database_IDs"
  ]
}
