{
  "builder_meta": null,
  "nsites": null,
  "elements": null,
  "nelements": null,
  "composition": null,
  "composition_reduced": null,
  "formula_pretty": "Sb2Ru",
  "formula_anonymous": "AB2",
  "chemsys": null,
  "volume": 129.0524346923498,
  "density": 8.86779328609775,
  "density_atomic": 21.508739115391634,
  "symmetry": null,
  "property_name": null,
  "material_id": "mp-20928",
  "deprecated": null,
  "deprecation_reasons": null,
  "last_updated": null,
  "origins": null,
  "warnings": null,
  "structure": {
    "@module": "pymatgen.core.structure",
    "@class": "Structure",
    "charge": 0,
    "lattice": {
      "matrix": [
        [3.21424796, 0.0, 0.0],
        [0.0, 5.9768655200000005, -0.0],
        [0.0, 0.0, 6.71758764]
      ],
      "pbc": [true, true, true],
      "a": 3.21424796,
      "b": 5.9768655200000005,
      "c": 6.71758764,
      "alpha": 90.0,
      "beta": 90.0,
      "gamma": 90.0,
      "volume": 129.05243469234983
    },
    "properties": {},
    "sites": [
      {
        "species": [{ "element": "Sb", "occu": 1 }],
        "abc": [-0.0, 0.18251975, 0.35842278],
        "properties": { "magmom": 0.0 },
        "label": "Sb",
        "xyz": [0.0, 1.0908960004940202, 2.407736436822439]
      },
      {
        "species": [{ "element": "Sb", "occu": 1 }],
        "abc": [-0.0, 0.81748025, 0.6415772200000001],
        "properties": { "magmom": 0.0 },
        "label": "Sb",
        "xyz": [0.0, 4.885969519505981, 4.309851203177561]
      },
      {
        "species": [{ "element": "Sb", "occu": 1 }],
        "abc": [0.5, 0.68251975, 0.14157722],
        "properties": { "magmom": 0.0 },
        "label": "Sb",
        "xyz": [1.60712398, 4.07932876049402, 0.9510573831775607]
      },
      {
        "species": [{ "element": "Sb", "occu": 1 }],
        "abc": [0.5, 0.31748025, 0.85842278],
        "properties": { "magmom": 0.0 },
        "label": "Sb",
        "xyz": [1.60712398, 1.8975367595059802, 5.766530256822439]
      },
      {
        "species": [{ "element": "Ru", "occu": 1 }],
        "abc": [0.0, 0.0, -0.0],
        "properties": { "magmom": -0.0 },
        "label": "Ru",
        "xyz": [0.0, 0.0, 0.0]
      },
      {
        "species": [{ "element": "Ru", "occu": 1 }],
        "abc": [0.5, 0.5, 0.5],
        "properties": { "magmom": -0.0 },
        "label": "Ru",
        "xyz": [1.60712398, 2.9884327600000002, 3.35879382]
      }
    ]
  },
  "task_ids": null,
  "uncorrected_energy_per_atom": null,
  "energy_per_atom": -25.90136487166667,
  "formation_energy_per_atom": -0.28897595333333403,
  "energy_above_hull": 0.0,
  "is_stable": true,
  "equilibrium_reaction_energy_per_atom": null,
  "decomposes_to": null,
  "xas": null,
  "grain_boundaries": null,
  "band_gap": 0.0034999999999980004,
  "cbm": null,
  "vbm": null,
  "efermi": 8.27765618,
  "is_gap_direct": null,
  "is_metal": null,
  "es_source_calc_id": null,
  "bandstructure": null,
  "dos": null,
  "dos_energy_up": null,
  "dos_energy_down": null,
  "is_magnetic": null,
  "ordering": null,
  "total_magnetization": 0.0,
  "total_magnetization_normalized_vol": null,
  "total_magnetization_normalized_formula_units": null,
  "num_magnetic_sites": null,
  "num_unique_magnetic_sites": null,
  "types_of_magnetic_species": null,
  "bulk_modulus": null,
  "shear_modulus": null,
  "universal_anisotropy": null,
  "homogeneous_poisson": null,
  "e_total": null,
  "e_ionic": null,
  "e_electronic": null,
  "n": null,
  "e_ij_max": null,
  "weighted_surface_energy_EV_PER_ANG2": null,
  "weighted_surface_energy": null,
  "weighted_work_function": null,
  "surface_anisotropy": null,
  "shape_factor": null,
  "has_reconstructed": null,
  "possible_species": null,
  "has_props": null,
  "theoretical": null,
  "database_IDs": null,
  "fields_not_requested": [
    "builder_meta",
    "nsites",
    "elements",
    "nelements",
    "composition",
    "composition_reduced",
    "chemsys",
    "symmetry",
    "property_name",
    "deprecated",
    "deprecation_reasons",
    "last_updated",
    "origins",
    "warnings",
    "task_ids",
    "uncorrected_energy_per_atom",
    "equilibrium_reaction_energy_per_atom",
    "decomposes_to",
    "xas",
    "grain_boundaries",
    "cbm",
    "vbm",
    "is_gap_direct",
    "is_metal",
    "es_source_calc_id",
    "bandstructure",
    "dos",
    "dos_energy_up",
    "dos_energy_down",
    "is_magnetic",
    "ordering",
    "total_magnetization_normalized_vol",
    "total_magnetization_normalized_formula_units",
    "num_magnetic_sites",
    "num_unique_magnetic_sites",
    "types_of_magnetic_species",
    "bulk_modulus",
    "shear_modulus",
    "universal_anisotropy",
    "homogeneous_poisson",
    "e_total",
    "e_ionic",
    "e_electronic",
    "n",
    "e_ij_max",
    "weighted_surface_energy_EV_PER_ANG2",
    "weighted_surface_energy",
    "weighted_work_function",
    "surface_anisotropy",
    "shape_factor",
    "has_reconstructed",
    "possible_species",
    "has_props",
    "theoretical",
    "database_IDs"
  ]
}
