{"builder_meta": null, "nsites": null, "elements": null, "nelements": null, "composition": null, "composition_reduced": null, "formula_pretty": "Sb2Rh", "formula_anonymous": "AB2", "chemsys": null, "volume": 265.70668472573783, "density": 8.659971457025462, "density_atomic": 22.14222372714482, "symmetry": null, "property_name": null, "material_id": "mp-2682", "deprecated": null, "deprecation_reasons": null, "last_updated": null, "origins": null, "warnings": null, "structure": {"@module": "pymatgen.core.structure", "@class": "Structure", "charge": 0, "lattice": {"matrix": [[6.60559764, 0.0, 0.0], [0.0, 5.95491685, -2.96841527], [0.0, 0.04313352, 6.73333246]], "pbc": [true, true, true], "a": 6.60559764, "b": 6.653760132855941, "c": 6.733470614581847, "alpha": 116.1283712905065, "beta": 90.0, "gamma": 90.0, "volume": 265.70668472573783}, "properties": {}, "sites": [{"species": [{"element": "Sb", "occu": 1}], "abc": [0.63784241, 0.6549125100000001, 0.82435448], "properties": {"magmom": -0.0}, "label": "Sb", "xyz": [4.2133303181879125, 3.935506851524963, 3.606600483532393]}, {"species": [{"element": "Sb", "occu": 1}], "abc": [0.13784241, 0.34508749, 0.67564552], "properties": {"magmom": -0.0}, "label": "Sb", "xyz": [0.9105314981879123, 2.0841102784750367, 3.524982936467606]}, {"species": [{"element": "Sb", "occu": 1}], "abc": [0.36215233, 0.3450959, 0.17562413000000002], "properties": {"magmom": -0.0}, "label": "Sb", "xyz": [2.3922325763685013, 2.0625926766997527, 0.1581477161138667]}, {"species": [{"element": "Sb", "occu": 1}], "abc": [0.86215233, 0.6549041, 0.32437587], "properties": {"magmom": -0.0}, "label": "Sb", "xyz": [5.695031396368502, 3.9138909333002476, 0.24010324388613324]}, {"species": [{"element": "Sb", "occu": 1}], "abc": [0.3639404, 0.84941755, 0.62694797], "properties": {"magmom": -0.0}, "label": "Sb", "xyz": [2.404043847340656, 5.085253353983672, 1.7000250911061183]}, {"species": [{"element": "Sb", "occu": 1}], "abc": [0.863940399999999, 0.15058245, 0.87305203], "properties": {"magmom": -0.0}, "label": "Sb", "xyz": [5.706842667340649, 0.9343637760163281, 5.431558328893882]}, {"species": [{"element": "Sb", "occu": 1}], "abc": [0.63606473, 0.15058027000000002, 0.37305092], "properties": {"magmom": -0.0}, "label": "Sb", "xyz": [4.201587679375237, 0.912783986419388, 2.06489109604014]}, {"species": [{"element": "Sb", "occu": 1}], "abc": [0.13606473, 0.84941973, 0.12694908], "properties": {"magmom": -0.0}, "label": "Sb", "xyz": [0.8987888593752372, 5.063699623580612, -1.6666401360401404]}, {"species": [{"element": "Rh", "occu": 1}], "abc": [8.968000000000002e-05, 0.72838294, 0.71258031], "properties": {"magmom": 0.0}, "label": "Rh", "xyz": [0.0005923899963552002, 4.368195939711531, 2.635897090176368]}, {"species": [{"element": "Rh", "occu": 1}], "abc": [0.50008968, 0.27161706, 0.78741969], "properties": {"magmom": 0.0}, "label": "Rh", "xyz": [3.303391209996355, 1.65142119028847, 4.495686329823632]}, {"species": [{"element": "Rh", "occu": 1}], "abc": [0.99990944, 0.27161893, 0.28741836], "properties": {"magmom": -0.0}, "label": "Rh", "xyz": [6.604999437077722, 1.6298655086153975, 1.1290055935549046]}, {"species": [{"element": "Rh", "occu": 1}], "abc": [0.49990944, 0.72838107, 0.21258164000000002], "properties": {"magmom": -0.0}, "label": "Rh", "xyz": [3.3022006170777214, 4.346618101384602, -0.7307546335549042]}]}, "task_ids": null, "uncorrected_energy_per_atom": null, "energy_per_atom": -25.691597821666665, "formation_energy_per_atom": -0.508644458333331, "energy_above_hull": 0.0, "is_stable": true, "equilibrium_reaction_energy_per_atom": null, "decomposes_to": null, "xas": null, "grain_boundaries": null, "band_gap": 0.0, "cbm": null, "vbm": null, "efermi": 7.91085358, "is_gap_direct": null, "is_metal": null, "es_source_calc_id": null, "bandstructure": null, "dos": null, "dos_energy_up": null, "dos_energy_down": null, "is_magnetic": null, "ordering": null, "total_magnetization": 0.0, "total_magnetization_normalized_vol": null, "total_magnetization_normalized_formula_units": null, "num_magnetic_sites": null, "num_unique_magnetic_sites": null, "types_of_magnetic_species": null, "bulk_modulus": null, "shear_modulus": null, "universal_anisotropy": null, "homogeneous_poisson": null, "e_total": null, "e_ionic": null, "e_electronic": null, "n": null, "e_ij_max": null, "weighted_surface_energy_EV_PER_ANG2": null, "weighted_surface_energy": null, "weighted_work_function": null, "surface_anisotropy": null, "shape_factor": null, "has_reconstructed": null, "possible_species": null, "has_props": null, "theoretical": null, "database_IDs": null, "fields_not_requested": ["builder_meta", "nsites", "elements", "nelements", "composition", "composition_reduced", "chemsys", "symmetry", "property_name", "deprecated", "deprecation_reasons", "last_updated", "origins", "warnings", "task_ids", "uncorrected_energy_per_atom", "equilibrium_reaction_energy_per_atom", "decomposes_to", "xas", "grain_boundaries", "cbm", "vbm", "is_gap_direct", "is_metal", "es_source_calc_id", "bandstructure", "dos", "dos_energy_up", "dos_energy_down", "is_magnetic", "ordering", "total_magnetization_normalized_vol", "total_magnetization_normalized_formula_units", "num_magnetic_sites", "num_unique_magnetic_sites", "types_of_magnetic_species", "bulk_modulus", "shear_modulus", "universal_anisotropy", "homogeneous_poisson", "e_total", "e_ionic", "e_electronic", "n", "e_ij_max", "weighted_surface_energy_EV_PER_ANG2", "weighted_surface_energy", "weighted_work_function", "surface_anisotropy", "shape_factor", "has_reconstructed", "possible_species", "has_props", "theoretical", "database_IDs"]}