{"builder_meta": null, "nsites": null, "elements": null, "nelements": null, "composition": null, "composition_reduced": null, "formula_pretty": "Sb2S3", "formula_anonymous": "A2B3", "chemsys": null, "volume": 515.7079119701428, "density": 4.375422722175947, "density_atomic": 25.785395598507144, "symmetry": null, "property_name": null, "material_id": "mp-2809", "deprecated": null, "deprecation_reasons": null, "last_updated": null, "origins": null, "warnings": null, "structure": {"@module": "pymatgen.core.structure", "@class": "Structure", "charge": 0, "lattice": {"matrix": [[3.8447329100000003, -0.0, 0.0], [0.0, 11.36714114, 0.0], [0.0, 0.0, 11.80011845]], "pbc": [true, true, true], "a": 3.8447329100000003, "b": 11.36714114, "c": 11.80011845, "alpha": 90.0, "beta": 90.0, "gamma": 90.0, "volume": 515.7079119701428}, "properties": {}, "sites": [{"species": [{"element": "Sb", "occu": 1}], "abc": [0.75, 0.46558362000000003, 0.8573504], "properties": {"magmom": 0.0}, "label": "Sb", "xyz": [2.8835496825, 5.292354721012127, 10.11683627315488]}, {"species": [{"element": "Sb", "occu": 1}], "abc": [0.25, 0.53441638, 0.1426496], "properties": {"magmom": 0.0}, "label": "Sb", "xyz": [0.9611832275000001, 6.074786418987873, 1.6832821768451198]}, {"species": [{"element": "Sb", "occu": 1}], "abc": [0.25, 0.96558362, 0.642649599999999], "properties": {"magmom": 0.0}, "label": "Sb", "xyz": [0.9611832275000001, 10.975925291012127, 7.583341401845108]}, {"species": [{"element": "Sb", "occu": 1}], "abc": [0.75, 0.03441638, 0.357350399999999], "properties": {"magmom": 0.0}, "label": "Sb", "xyz": [2.8835496825, 0.3912158489878732, 4.216777048154868]}, {"species": [{"element": "Sb", "occu": 1}], "abc": [0.25, 0.17308267, 0.9669435999999991], "properties": {"magmom": -0.0}, "label": "Sb", "xyz": [0.9611832275000001, 1.9674551387780437, 11.41004901446941]}, {"species": [{"element": "Sb", "occu": 1}], "abc": [0.75, 0.82691733, 0.0330564], "properties": {"magmom": -0.0}, "label": "Sb", "xyz": [2.8835496825, 9.399686001221955, 0.39006943553058]}, {"species": [{"element": "Sb", "occu": 1}], "abc": [0.75, 0.67308267, 0.5330564], "properties": {"magmom": -0.0}, "label": "Sb", "xyz": [2.8835496825, 7.651025708778043, 6.29012866053058]}, {"species": [{"element": "Sb", "occu": 1}], "abc": [0.25, 0.32691733, 0.466943599999999], "properties": {"magmom": -0.0}, "label": "Sb", "xyz": [0.9611832275000001, 3.716115431221956, 5.509989789469408]}, {"species": [{"element": "S", "occu": 1}], "abc": [0.75, 0.06146949, 0.87592716], "properties": {"magmom": -0.0}, "label": "S", "xyz": [2.8835496825, 0.6987323686338186, 10.336044241572102]}, {"species": [{"element": "S", "occu": 1}], "abc": [0.25, 0.93853051, 0.12407284], "properties": {"magmom": -0.0}, "label": "S", "xyz": [0.9611832275000001, 10.668408771366181, 1.464074208427898]}, {"species": [{"element": "S", "occu": 1}], "abc": [0.25, 0.56146949, 0.62407284], "properties": {"magmom": -0.0}, "label": "S", "xyz": [0.9611832275000001, 6.382302938633819, 7.364133433427897]}, {"species": [{"element": "S", "occu": 1}], "abc": [0.75, 0.43853051, 0.37592716], "properties": {"magmom": -0.0}, "label": "S", "xyz": [2.8835496825, 4.9848382013661805, 4.4359850165721015]}, {"species": [{"element": "S", "occu": 1}], "abc": [0.75, 0.37923204, 0.04854145], "properties": {"magmom": 0.0}, "label": "S", "xyz": [2.8835496825, 4.310784123490126, 0.5727948597347524]}, {"species": [{"element": "S", "occu": 1}], "abc": [0.25, 0.62076796, 0.95145855], "properties": {"magmom": 0.0}, "label": "S", "xyz": [0.9611832275000001, 7.056357016509874, 11.227323590265247]}, {"species": [{"element": "S", "occu": 1}], "abc": [0.25, 0.87923204, 0.45145855], "properties": {"magmom": 0.0}, "label": "S", "xyz": [0.9611832275000001, 9.994354693490125, 5.327264365265247]}, {"species": [{"element": "S", "occu": 1}], "abc": [0.75, 0.12076796000000001, 0.54854145], "properties": {"magmom": 0.0}, "label": "S", "xyz": [2.8835496825, 1.3727864465098745, 6.472854084734752]}, {"species": [{"element": "S", "occu": 1}], "abc": [0.25, 0.18854761, 0.30024927], "properties": {"magmom": -0.0}, "label": "S", "xyz": [0.9611832275000001, 2.1432472944796754, 3.5429769505260316]}, {"species": [{"element": "S", "occu": 1}], "abc": [0.75, 0.81145239, 0.69975073], "properties": {"magmom": -0.0}, "label": "S", "xyz": [2.8835496825, 9.223893845520324, 8.257141499473969]}, {"species": [{"element": "S", "occu": 1}], "abc": [0.75, 0.68854761, 0.19975073000000002], "properties": {"magmom": -0.0}, "label": "S", "xyz": [2.8835496825, 7.826817864479675, 2.3570822744739686]}, {"species": [{"element": "S", "occu": 1}], "abc": [0.25, 0.31145239, 0.80024927], "properties": {"magmom": -0.0}, "label": "S", "xyz": [0.9611832275000001, 3.5403232755203247, 9.44303617552603]}]}, "task_ids": null, "uncorrected_energy_per_atom": null, "energy_per_atom": -15.3901916535, "formation_energy_per_atom": -0.28666591218749804, "energy_above_hull": 0.0, "is_stable": true, "equilibrium_reaction_energy_per_atom": null, "decomposes_to": null, "xas": null, "grain_boundaries": null, "band_gap": 1.2866, "cbm": null, "vbm": null, "efermi": 4.40757171, "is_gap_direct": null, "is_metal": null, "es_source_calc_id": null, "bandstructure": null, "dos": null, "dos_energy_up": null, "dos_energy_down": null, "is_magnetic": null, "ordering": null, "total_magnetization": 0.0, "total_magnetization_normalized_vol": null, "total_magnetization_normalized_formula_units": null, "num_magnetic_sites": null, "num_unique_magnetic_sites": null, "types_of_magnetic_species": null, "bulk_modulus": null, "shear_modulus": null, "universal_anisotropy": null, "homogeneous_poisson": null, "e_total": null, "e_ionic": null, "e_electronic": null, "n": null, "e_ij_max": null, "weighted_surface_energy_EV_PER_ANG2": null, "weighted_surface_energy": null, "weighted_work_function": null, "surface_anisotropy": null, "shape_factor": null, "has_reconstructed": null, "possible_species": null, "has_props": null, "theoretical": null, "database_IDs": null, "fields_not_requested": ["builder_meta", "nsites", "elements", "nelements", "composition", "composition_reduced", "chemsys", "symmetry", "property_name", "deprecated", "deprecation_reasons", "last_updated", "origins", "warnings", "task_ids", "uncorrected_energy_per_atom", "equilibrium_reaction_energy_per_atom", "decomposes_to", "xas", "grain_boundaries", "cbm", "vbm", "is_gap_direct", "is_metal", "es_source_calc_id", "bandstructure", "dos", "dos_energy_up", "dos_energy_down", "is_magnetic", "ordering", "total_magnetization_normalized_vol", "total_magnetization_normalized_formula_units", "num_magnetic_sites", "num_unique_magnetic_sites", "types_of_magnetic_species", "bulk_modulus", "shear_modulus", "universal_anisotropy", "homogeneous_poisson", "e_total", "e_ionic", "e_electronic", "n", "e_ij_max", "weighted_surface_energy_EV_PER_ANG2", "weighted_surface_energy", "weighted_work_function", "surface_anisotropy", "shape_factor", "has_reconstructed", "possible_species", "has_props", "theoretical", "database_IDs"]}