{
  "builder_meta": null,
  "nsites": null,
  "elements": null,
  "nelements": null,
  "composition": null,
  "composition_reduced": null,
  "formula_pretty": "Sb2Se3",
  "formula_anonymous": "A2B3",
  "chemsys": null,
  "volume": 579.4444338187419,
  "density": 5.506812533083567,
  "density_atomic": 28.972221690937097,
  "symmetry": null,
  "property_name": null,
  "material_id": "mp-2160",
  "deprecated": null,
  "deprecation_reasons": null,
  "last_updated": null,
  "origins": null,
  "warnings": null,
  "structure": {
    "@module": "pymatgen.core.structure",
    "@class": "Structure",
    "charge": 0,
    "lattice": {
      "matrix": [
        [4.00155687, 0.0, 0.0],
        [0.0, 11.71362971, 0.0],
        [0.0, 0.0, 12.3620732]
      ],
      "pbc": [true, true, true],
      "a": 4.00155687,
      "b": 11.71362971,
      "c": 12.3620732,
      "alpha": 90.0,
      "beta": 90.0,
      "gamma": 90.0,
      "volume": 579.4444338187419
    },
    "properties": {},
    "sites": [
      {
        "species": [{ "element": "Sb", "occu": 1 }],
        "abc": [0.75, 0.0380946, 0.14032237],
        "properties": { "magmom": -0.0 },
        "label": "Sb",
        "xyz": [3.0011676525, 0.44622603835056596, 1.734675409537484]
      },
      {
        "species": [{ "element": "Sb", "occu": 1 }],
        "abc": [0.25, 0.961905399999999, 0.85967763],
        "properties": { "magmom": -0.0 },
        "label": "Sb",
        "xyz": [1.0003892175, 11.267403671649422, 10.627397790462515]
      },
      {
        "species": [{ "element": "Sb", "occu": 1 }],
        "abc": [0.25, 0.5380946, 0.35967763],
        "properties": { "magmom": -0.0 },
        "label": "Sb",
        "xyz": [1.0003892175, 6.303040893350565, 4.446361190462516]
      },
      {
        "species": [{ "element": "Sb", "occu": 1 }],
        "abc": [0.75, 0.461905399999999, 0.64032237],
        "properties": { "magmom": -0.0 },
        "label": "Sb",
        "xyz": [3.0011676525, 5.4105888166494225, 7.915712009537484]
      },
      {
        "species": [{ "element": "Sb", "occu": 1 }],
        "abc": [0.25, 0.32959138, 0.033812840000000004],
        "properties": { "magmom": -0.0 },
        "label": "Sb",
        "xyz": [1.0003892175, 3.8607113809278992, 0.417996803179888]
      },
      {
        "species": [{ "element": "Sb", "occu": 1 }],
        "abc": [0.75, 0.67040862, 0.96618716],
        "properties": { "magmom": -0.0 },
        "label": "Sb",
        "xyz": [3.0011676525, 7.8529183290721, 11.944076396820112]
      },
      {
        "species": [{ "element": "Sb", "occu": 1 }],
        "abc": [0.75, 0.82959138, 0.46618716],
        "properties": { "magmom": -0.0 },
        "label": "Sb",
        "xyz": [3.0011676525, 9.717526235927899, 5.763039796820111]
      },
      {
        "species": [{ "element": "Sb", "occu": 1 }],
        "abc": [0.25, 0.17040862, 0.5338128400000001],
        "properties": { "magmom": -0.0 },
        "label": "Sb",
        "xyz": [1.0003892175, 1.9961034740721002, 6.599033403179888]
      },
      {
        "species": [{ "element": "Se", "occu": 1 }],
        "abc": [0.75, 0.12752536, 0.9483452],
        "properties": { "magmom": 0.0 },
        "label": "Se",
        "xyz": [3.0011676525, 1.4937848456744456, 11.723512781268639]
      },
      {
        "species": [{ "element": "Se", "occu": 1 }],
        "abc": [0.25, 0.87247464, 0.0516548],
        "properties": { "magmom": 0.0 },
        "label": "Se",
        "xyz": [1.0003892175, 10.219844864325554, 0.6385604187313599]
      },
      {
        "species": [{ "element": "Se", "occu": 1 }],
        "abc": [0.25, 0.62752536, 0.5516548],
        "properties": { "magmom": 0.0 },
        "label": "Se",
        "xyz": [1.0003892175, 7.3505997006744455, 6.8195970187313595]
      },
      {
        "species": [{ "element": "Se", "occu": 1 }],
        "abc": [0.75, 0.37247464, 0.4483452],
        "properties": { "magmom": 0.0 },
        "label": "Se",
        "xyz": [3.0011676525, 4.363030009325555, 5.54247618126864]
      },
      {
        "species": [{ "element": "Se", "occu": 1 }],
        "abc": [0.25, 0.19210067, 0.20533132],
        "properties": { "magmom": 0.0 },
        "label": "Se",
        "xyz": [1.0003892175, 2.2501961154229058, 2.538320808092624]
      },
      {
        "species": [{ "element": "Se", "occu": 1 }],
        "abc": [0.75, 0.80789933, 0.79466868],
        "properties": { "magmom": 0.0 },
        "label": "Se",
        "xyz": [3.0011676525, 9.463433594577094, 9.823752391907375]
      },
      {
        "species": [{ "element": "Se", "occu": 1 }],
        "abc": [0.75, 0.69210067, 0.29466868],
        "properties": { "magmom": 0.0 },
        "label": "Se",
        "xyz": [3.0011676525, 8.107010970422905, 3.642715791907376]
      },
      {
        "species": [{ "element": "Se", "occu": 1 }],
        "abc": [0.25, 0.30789933, 0.70533132],
        "properties": { "magmom": 0.0 },
        "label": "Se",
        "xyz": [1.0003892175, 3.6066187395770943, 8.719357408092623]
      },
      {
        "species": [{ "element": "Se", "occu": 1 }],
        "abc": [0.75, 0.05409869, 0.62734915],
        "properties": { "magmom": -0.0 },
        "label": "Se",
        "xyz": [3.0011676525, 0.6336920224560798, 7.75533611425778]
      },
      {
        "species": [{ "element": "Se", "occu": 1 }],
        "abc": [0.25, 0.94590131, 0.37265085000000003],
        "properties": { "magmom": -0.0 },
        "label": "Se",
        "xyz": [1.0003892175, 11.07993768754392, 4.60673708574222]
      },
      {
        "species": [{ "element": "Se", "occu": 1 }],
        "abc": [0.25, 0.55409869, 0.87265085],
        "properties": { "magmom": -0.0 },
        "label": "Se",
        "xyz": [1.0003892175, 6.490506877456079, 10.78777368574222]
      },
      {
        "species": [{ "element": "Se", "occu": 1 }],
        "abc": [0.75, 0.44590131, 0.12734915],
        "properties": { "magmom": -0.0 },
        "label": "Se",
        "xyz": [3.0011676525, 5.22312283254392, 1.5742995142577798]
      }
    ]
  },
  "task_ids": null,
  "uncorrected_energy_per_atom": null,
  "energy_per_atom": -19.1539570185,
  "formation_energy_per_atom": -0.28449458793750104,
  "energy_above_hull": 0.0,
  "is_stable": true,
  "equilibrium_reaction_energy_per_atom": null,
  "decomposes_to": null,
  "xas": null,
  "grain_boundaries": null,
  "band_gap": 0.7564000000000001,
  "cbm": null,
  "vbm": null,
  "efermi": 3.80523339,
  "is_gap_direct": null,
  "is_metal": null,
  "es_source_calc_id": null,
  "bandstructure": null,
  "dos": null,
  "dos_energy_up": null,
  "dos_energy_down": null,
  "is_magnetic": null,
  "ordering": null,
  "total_magnetization": 0.0,
  "total_magnetization_normalized_vol": null,
  "total_magnetization_normalized_formula_units": null,
  "num_magnetic_sites": null,
  "num_unique_magnetic_sites": null,
  "types_of_magnetic_species": null,
  "bulk_modulus": null,
  "shear_modulus": null,
  "universal_anisotropy": null,
  "homogeneous_poisson": null,
  "e_total": null,
  "e_ionic": null,
  "e_electronic": null,
  "n": null,
  "e_ij_max": null,
  "weighted_surface_energy_EV_PER_ANG2": null,
  "weighted_surface_energy": null,
  "weighted_work_function": null,
  "surface_anisotropy": null,
  "shape_factor": null,
  "has_reconstructed": null,
  "possible_species": null,
  "has_props": null,
  "theoretical": null,
  "database_IDs": null,
  "fields_not_requested": [
    "builder_meta",
    "nsites",
    "elements",
    "nelements",
    "composition",
    "composition_reduced",
    "chemsys",
    "symmetry",
    "property_name",
    "deprecated",
    "deprecation_reasons",
    "last_updated",
    "origins",
    "warnings",
    "task_ids",
    "uncorrected_energy_per_atom",
    "equilibrium_reaction_energy_per_atom",
    "decomposes_to",
    "xas",
    "grain_boundaries",
    "cbm",
    "vbm",
    "is_gap_direct",
    "is_metal",
    "es_source_calc_id",
    "bandstructure",
    "dos",
    "dos_energy_up",
    "dos_energy_down",
    "is_magnetic",
    "ordering",
    "total_magnetization_normalized_vol",
    "total_magnetization_normalized_formula_units",
    "num_magnetic_sites",
    "num_unique_magnetic_sites",
    "types_of_magnetic_species",
    "bulk_modulus",
    "shear_modulus",
    "universal_anisotropy",
    "homogeneous_poisson",
    "e_total",
    "e_ionic",
    "e_electronic",
    "n",
    "e_ij_max",
    "weighted_surface_energy_EV_PER_ANG2",
    "weighted_surface_energy",
    "weighted_work_function",
    "surface_anisotropy",
    "shape_factor",
    "has_reconstructed",
    "possible_species",
    "has_props",
    "theoretical",
    "database_IDs"
  ]
}
