{"builder_meta": null, "nsites": null, "elements": null, "nelements": null, "composition": null, "composition_reduced": null, "formula_pretty": "Sb2S5", "formula_anonymous": "A2B5", "chemsys": null, "volume": 937.7153850925454, "density": 2.860571171219053, "density_atomic": 33.48983518187662, "symmetry": null, "property_name": null, "material_id": "mp-1359089", "deprecated": null, "deprecation_reasons": null, "last_updated": null, "origins": null, "warnings": null, "structure": {"@module": "pymatgen.core.structure", "@class": "Structure", "charge": 0, "lattice": {"matrix": [[7.822434, 0.0, 0.0], [0.0, 8.96168, 0.0], [0.0, 3.052032, 13.376414]], "pbc": [true, true, true], "a": 7.822434, "b": 8.96168, "c": 13.72018042258993, "alpha": 77.14712065531774, "beta": 90.0, "gamma": 90.0, "volume": 937.7153850925454}, "properties": {}, "sites": [{"species": [{"element": "Sb", "occu": 1}], "abc": [0.09787799999999901, 0.461219, 0.618487], "properties": {"magmom": -0.0}, "label": "Sb", "xyz": [0.7656441950519922, 6.020939203504, 8.273138165618]}, {"species": [{"element": "Sb", "occu": 1}], "abc": [0.597878, 0.038780999999999004, 0.381513], "properties": {"magmom": -0.0}, "label": "Sb", "xyz": [4.676861195052, 1.5119327964959912, 5.103275834382]}, {"species": [{"element": "Sb", "occu": 1}], "abc": [0.902122, 0.538781, 0.381513], "properties": {"magmom": -0.0}, "label": "Sb", "xyz": [7.056789804948, 5.992772796495999, 5.103275834382]}, {"species": [{"element": "Sb", "occu": 1}], "abc": [0.402122, 0.961218999999999, 0.618487], "properties": {"magmom": -0.0}, "label": "Sb", "xyz": [3.145572804948, 10.501779203503991, 8.273138165618]}, {"species": [{"element": "Sb", "occu": 1}], "abc": [0.177757, 0.589974, 0.8811100000000001], "properties": {"magmom": 0.0}, "label": "Sb", "xyz": [1.390492400538, 7.97633411184, 11.786092139540001]}, {"species": [{"element": "Sb", "occu": 1}], "abc": [0.677756999999999, 0.910026, 0.11889000000000001], "properties": {"magmom": 0.0}, "label": "Sb", "xyz": [5.301709400537993, 8.51821788816, 1.5903218604600002]}, {"species": [{"element": "Sb", "occu": 1}], "abc": [0.822243, 0.410026, 0.11889000000000001], "properties": {"magmom": 0.0}, "label": "Sb", "xyz": [6.431941599462, 4.03737788816, 1.5903218604600002]}, {"species": [{"element": "Sb", "occu": 1}], "abc": [0.322243, 0.089974, 0.8811100000000001], "properties": {"magmom": 0.0}, "label": "Sb", "xyz": [2.520724599462, 3.4954941118400003, 11.786092139540001]}, {"species": [{"element": "S", "occu": 1}], "abc": [0.282792999999999, 0.64573, 0.711245], "properties": {"magmom": -0.0}, "label": "S", "xyz": [2.2121295781619925, 7.95756812624, 9.51390757543]}, {"species": [{"element": "S", "occu": 1}], "abc": [0.782793, 0.8542700000000001, 0.288755], "properties": {"magmom": -0.0}, "label": "S", "xyz": [6.123346578162, 8.53698387376, 3.86250642457]}, {"species": [{"element": "S", "occu": 1}], "abc": [0.717206999999999, 0.35427000000000003, 0.288755], "properties": {"magmom": -0.0}, "label": "S", "xyz": [5.610304421837993, 4.05614387376, 3.86250642457]}, {"species": [{"element": "S", "occu": 1}], "abc": [0.217206999999999, 0.14573, 0.711245], "properties": {"magmom": -0.0}, "label": "S", "xyz": [1.6990874218379923, 3.4767281262400003, 9.51390757543]}, {"species": [{"element": "S", "occu": 1}], "abc": [0.364738, 0.929516, 0.167358999999999], "properties": {"magmom": 0.0}, "label": "S", "xyz": [2.853138932292, 8.840809970367998, 2.238663270625987]}, {"species": [{"element": "S", "occu": 1}], "abc": [0.864738, 0.570484, 0.832641], "properties": {"magmom": 0.0}, "label": "S", "xyz": [6.764355932292, 7.653742029631999, 11.137750729374]}, {"species": [{"element": "S", "occu": 1}], "abc": [0.635262, 0.070483999999999, 0.832641], "properties": {"magmom": 0.0}, "label": "S", "xyz": [4.969295067708, 3.1729020296319908, 11.137750729374]}, {"species": [{"element": "S", "occu": 1}], "abc": [0.135262, 0.429515999999999, 0.167358999999999], "properties": {"magmom": 0.0}, "label": "S", "xyz": [1.058078067708, 4.359969970367988, 2.238663270625987]}, {"species": [{"element": "S", "occu": 1}], "abc": [0.36120599999999903, 0.088632, 0.249548], "properties": {"magmom": 0.0}, "label": "S", "xyz": [2.8255100954039927, 1.5559201032960002, 3.338057360872]}, {"species": [{"element": "S", "occu": 1}], "abc": [0.861205999999999, 0.411367999999999, 0.750452], "properties": {"magmom": 0.0}, "label": "S", "xyz": [6.736727095403992, 5.976951896703991, 10.038356639128]}, {"species": [{"element": "S", "occu": 1}], "abc": [0.638794, 0.911368, 0.750452], "properties": {"magmom": 0.0}, "label": "S", "xyz": [4.996923904596, 10.457791896703998, 10.038356639128]}, {"species": [{"element": "S", "occu": 1}], "abc": [0.138794, 0.588631999999999, 0.249548], "properties": {"magmom": 0.0}, "label": "S", "xyz": [1.085706904596, 6.036760103295991, 3.338057360872]}, {"species": [{"element": "S", "occu": 1}], "abc": [0.052677999999999, 0.694956, 0.488851], "properties": {"magmom": -0.0}, "label": "S", "xyz": [0.4120701782519922, 7.719962181312, 6.539073360314]}, {"species": [{"element": "S", "occu": 1}], "abc": [0.552678, 0.805044, 0.511149], "properties": {"magmom": -0.0}, "label": "S", "xyz": [4.323287178252, 8.774589818688, 6.8373406396859995]}, {"species": [{"element": "S", "occu": 1}], "abc": [0.947322, 0.305044, 0.511149], "properties": {"magmom": -0.0}, "label": "S", "xyz": [7.410363821748001, 4.293749818687999, 6.8373406396859995]}, {"species": [{"element": "S", "occu": 1}], "abc": [0.447322, 0.194956, 0.488851], "properties": {"magmom": -0.0}, "label": "S", "xyz": [3.499146821748, 3.2391221813119997, 6.539073360314]}, {"species": [{"element": "S", "occu": 1}], "abc": [0.780810999999999, 0.173258, 0.048429], "properties": {"magmom": 0.0}, "label": "S", "xyz": [6.107842513973993, 1.700489611168, 0.647806353606]}, {"species": [{"element": "S", "occu": 1}], "abc": [0.280811, 0.326742, 0.951571], "properties": {"magmom": 0.0}, "label": "S", "xyz": [2.196625513974, 5.832382388831999, 12.728607646394]}, {"species": [{"element": "S", "occu": 1}], "abc": [0.219189, 0.826742, 0.951571], "properties": {"magmom": 0.0}, "label": "S", "xyz": [1.714591486026, 10.313222388832, 12.728607646394]}, {"species": [{"element": "S", "occu": 1}], "abc": [0.719189, 0.673258, 0.048429], "properties": {"magmom": 0.0}, "label": "S", "xyz": [5.625808486026, 6.181329611168, 0.647806353606]}]}, "task_ids": null, "uncorrected_energy_per_atom": null, "energy_per_atom": -13.208586157232142, "formation_energy_per_atom": -0.12463946138392701, "energy_above_hull": 0.080121904464286, "is_stable": false, "equilibrium_reaction_energy_per_atom": null, "decomposes_to": null, "xas": null, "grain_boundaries": null, "band_gap": 0.0, "cbm": null, "vbm": null, "efermi": 1.76437902, "is_gap_direct": null, "is_metal": null, "es_source_calc_id": null, "bandstructure": null, "dos": null, "dos_energy_up": null, "dos_energy_down": null, "is_magnetic": null, "ordering": null, "total_magnetization": 0.0002957, "total_magnetization_normalized_vol": null, "total_magnetization_normalized_formula_units": null, "num_magnetic_sites": null, "num_unique_magnetic_sites": null, "types_of_magnetic_species": null, "bulk_modulus": null, "shear_modulus": null, "universal_anisotropy": null, "homogeneous_poisson": null, "e_total": null, "e_ionic": null, "e_electronic": null, "n": null, "e_ij_max": null, "weighted_surface_energy_EV_PER_ANG2": null, "weighted_surface_energy": null, "weighted_work_function": null, "surface_anisotropy": null, "shape_factor": null, "has_reconstructed": null, "possible_species": null, "has_props": null, "theoretical": null, "database_IDs": null, "fields_not_requested": ["builder_meta", "nsites", "elements", "nelements", "composition", "composition_reduced", "chemsys", "symmetry", "property_name", "deprecated", "deprecation_reasons", "last_updated", "origins", "warnings", "task_ids", "uncorrected_energy_per_atom", "equilibrium_reaction_energy_per_atom", "decomposes_to", "xas", "grain_boundaries", "cbm", "vbm", "is_gap_direct", "is_metal", "es_source_calc_id", "bandstructure", "dos", "dos_energy_up", "dos_energy_down", "is_magnetic", "ordering", "total_magnetization_normalized_vol", "total_magnetization_normalized_formula_units", "num_magnetic_sites", "num_unique_magnetic_sites", "types_of_magnetic_species", "bulk_modulus", "shear_modulus", "universal_anisotropy", "homogeneous_poisson", "e_total", "e_ionic", "e_electronic", "n", "e_ij_max", "weighted_surface_energy_EV_PER_ANG2", "weighted_surface_energy", "weighted_work_function", "surface_anisotropy", "shape_factor", "has_reconstructed", "possible_species", "has_props", "theoretical", "database_IDs"]}