{"builder_meta": null, "nsites": null, "elements": null, "nelements": null, "composition": null, "composition_reduced": null, "formula_pretty": "Sb2Te", "formula_anonymous": "AB2", "chemsys": null, "volume": 295.83900991676705, "density": 6.249269748806694, "density_atomic": 32.87100110186301, "symmetry": null, "property_name": null, "material_id": "mp-6997", "deprecated": null, "deprecation_reasons": null, "last_updated": null, "origins": null, "warnings": null, "structure": {"@module": "pymatgen.core.structure", "@class": "Structure", "charge": 0, "lattice": {"matrix": [[4.32239714, 0.0, 0.0], [-2.16119807, 3.74330596, -0.0], [-0.0, 0.0, 18.28417829]], "pbc": [true, true, true], "a": 4.32239714, "b": 4.322397090497731, "c": 18.28417829, "alpha": 90.0, "beta": 90.0, "gamma": 119.99999272574686, "volume": 295.83900991676705}, "properties": {}, "sites": [{"species": [{"element": "Sb", "occu": 1}], "abc": [0.0, 0.0, 0.649583999999999], "properties": {"magmom": 0.0}, "label": "Sb", "xyz": [0.0, 0.0, 11.877109670331343]}, {"species": [{"element": "Sb", "occu": 1}], "abc": [-0.0, -0.0, 0.350416], "properties": {"magmom": 0.0}, "label": "Sb", "xyz": [0.0, 0.0, 6.40706861966864]}, {"species": [{"element": "Sb", "occu": 1}], "abc": [0.666667, 0.333333, 0.43376804], "properties": {"magmom": 0.0}, "label": "Sb", "xyz": [2.1612008978650694, 1.24776740556468, 7.931092179863852]}, {"species": [{"element": "Sb", "occu": 1}], "abc": [0.333333, 0.666667, 0.89230134], "properties": {"magmom": -0.0}, "label": "Sb", "xyz": [-1.827865070413992e-06, 2.49553855443532, 16.31499678896591]}, {"species": [{"element": "Sb", "occu": 1}], "abc": [0.666667, 0.333333, 0.10769866], "properties": {"magmom": -0.0}, "label": "Sb", "xyz": [2.1612008978650694, 1.24776740556468, 1.9691815010340914]}, {"species": [{"element": "Sb", "occu": 1}], "abc": [0.333333, 0.666667, 0.56623196], "properties": {"magmom": 0.0}, "label": "Sb", "xyz": [-1.827865070413992e-06, 2.49553855443532, 10.353086110136148]}, {"species": [{"element": "Te", "occu": 1}], "abc": [0.0, 0.0, 0.0], "properties": {"magmom": 0.0}, "label": "Te", "xyz": [0.0, 0.0, 0.0]}, {"species": [{"element": "Te", "occu": 1}], "abc": [0.666667, 0.333333, 0.79978928], "properties": {"magmom": 0.0}, "label": "Te", "xyz": [2.1612008978650694, 1.24776740556468, 14.623489789950732]}, {"species": [{"element": "Te", "occu": 1}], "abc": [0.333333, 0.666667, 0.20021072], "properties": {"magmom": 0.0}, "label": "Te", "xyz": [-1.827865070413992e-06, 2.49553855443532, 3.660688500049269]}]}, "task_ids": null, "uncorrected_energy_per_atom": null, "energy_per_atom": -4.004537735555554, "formation_energy_per_atom": -0.20410161111110803, "energy_above_hull": 0.016421579206351, "is_stable": false, "equilibrium_reaction_energy_per_atom": null, "decomposes_to": null, "xas": null, "grain_boundaries": null, "band_gap": 0.0, "cbm": null, "vbm": null, "efermi": 6.4204866, "is_gap_direct": null, "is_metal": null, "es_source_calc_id": null, "bandstructure": null, "dos": null, "dos_energy_up": null, "dos_energy_down": null, "is_magnetic": null, "ordering": null, "total_magnetization": 0.0, "total_magnetization_normalized_vol": null, "total_magnetization_normalized_formula_units": null, "num_magnetic_sites": null, "num_unique_magnetic_sites": null, "types_of_magnetic_species": null, "bulk_modulus": null, "shear_modulus": null, "universal_anisotropy": null, "homogeneous_poisson": null, "e_total": null, "e_ionic": null, "e_electronic": null, "n": null, "e_ij_max": null, "weighted_surface_energy_EV_PER_ANG2": null, "weighted_surface_energy": null, "weighted_work_function": null, "surface_anisotropy": null, "shape_factor": null, "has_reconstructed": null, "possible_species": null, "has_props": null, "theoretical": null, "database_IDs": null, "fields_not_requested": ["builder_meta", "nsites", "elements", "nelements", "composition", "composition_reduced", "chemsys", "symmetry", "property_name", "deprecated", "deprecation_reasons", "last_updated", "origins", "warnings", "task_ids", "uncorrected_energy_per_atom", "equilibrium_reaction_energy_per_atom", "decomposes_to", "xas", "grain_boundaries", "cbm", "vbm", "is_gap_direct", "is_metal", "es_source_calc_id", "bandstructure", "dos", "dos_energy_up", "dos_energy_down", "is_magnetic", "ordering", "total_magnetization_normalized_vol", "total_magnetization_normalized_formula_units", "num_magnetic_sites", "num_unique_magnetic_sites", "types_of_magnetic_species", "bulk_modulus", "shear_modulus", "universal_anisotropy", "homogeneous_poisson", "e_total", "e_ionic", "e_electronic", "n", "e_ij_max", "weighted_surface_energy_EV_PER_ANG2", "weighted_surface_energy", "weighted_work_function", "surface_anisotropy", "shape_factor", "has_reconstructed", "possible_species", "has_props", "theoretical", "database_IDs"]}