{
  "builder_meta": null,
  "nsites": null,
  "elements": null,
  "nelements": null,
  "composition": null,
  "composition_reduced": null,
  "formula_pretty": "Sb2Te3",
  "formula_anonymous": "A2B3",
  "chemsys": null,
  "volume": 169.92445719025892,
  "density": 6.120536415946441,
  "density_atomic": 33.98489143805178,
  "symmetry": null,
  "property_name": null,
  "material_id": "mp-1201",
  "deprecated": null,
  "deprecation_reasons": null,
  "last_updated": null,
  "origins": null,
  "warnings": null,
  "structure": {
    "@module": "pymatgen.core.structure",
    "@class": "Structure",
    "charge": 0,
    "lattice": {
      "matrix": [
        [4.3092916, 0.05841938, 9.99007579],
        [2.10986356, 3.75790937, 9.99007579],
        [0.09826349000000001, 0.05841939, 10.87942885]
      ],
      "pbc": [true, true, true],
      "a": 10.880028548112099,
      "b": 10.880028555334485,
      "c": 10.880029441173736,
      "alpha": 22.815486827777406,
      "beta": 22.815484831711007,
      "gamma": 22.815487820524144,
      "volume": 169.92445719025892
    },
    "properties": {},
    "sites": [
      {
        "species": [{ "element": "Sb", "occu": 1 }],
        "abc": [0.60420277, 0.60420277, 0.60420277],
        "properties": { "magmom": 0.0 },
        "label": "Sb",
        "xyz": [3.9378424015796605, 2.3411335592403484, 18.64544397684379]
      },
      {
        "species": [{ "element": "Sb", "occu": 1 }],
        "abc": [0.39579723, 0.39579723, 0.39579723],
        "properties": { "magmom": 0.0 },
        "label": "Sb",
        "xyz": [2.5795762484203393, 1.5336145807596524, 12.21413645315621]
      },
      {
        "species": [{ "element": "Te", "occu": 1 }],
        "abc": [0.78254621, 0.78254621, 0.78254621],
        "properties": { "magmom": 0.0 },
        "label": "Te",
        "xyz": [5.100181263540816, 3.0321694716615495, 24.14904770768667]
      },
      {
        "species": [{ "element": "Te", "occu": 1 }],
        "abc": [0.21745379, 0.21745379, 0.21745379],
        "properties": { "magmom": 0.0 },
        "label": "Te",
        "xyz": [1.4172373864591834, 0.8425786683384507, 6.71053272231333]
      },
      {
        "species": [{ "element": "Te", "occu": 1 }],
        "abc": [0.0, -0.0, 0.0],
        "properties": { "magmom": 0.0 },
        "label": "Te",
        "xyz": [0.0, 0.0, 0.0]
      }
    ]
  },
  "task_ids": null,
  "uncorrected_energy_per_atom": null,
  "energy_per_atom": -3.920783878000003,
  "formation_energy_per_atom": -0.383199846000002,
  "energy_above_hull": 0.0,
  "is_stable": true,
  "equilibrium_reaction_energy_per_atom": null,
  "decomposes_to": null,
  "xas": null,
  "grain_boundaries": null,
  "band_gap": 0.13140000000000002,
  "cbm": null,
  "vbm": null,
  "efermi": 6.00628528,
  "is_gap_direct": null,
  "is_metal": null,
  "es_source_calc_id": null,
  "bandstructure": null,
  "dos": null,
  "dos_energy_up": null,
  "dos_energy_down": null,
  "is_magnetic": null,
  "ordering": null,
  "total_magnetization": 0.0,
  "total_magnetization_normalized_vol": null,
  "total_magnetization_normalized_formula_units": null,
  "num_magnetic_sites": null,
  "num_unique_magnetic_sites": null,
  "types_of_magnetic_species": null,
  "bulk_modulus": null,
  "shear_modulus": null,
  "universal_anisotropy": null,
  "homogeneous_poisson": null,
  "e_total": null,
  "e_ionic": null,
  "e_electronic": null,
  "n": null,
  "e_ij_max": null,
  "weighted_surface_energy_EV_PER_ANG2": null,
  "weighted_surface_energy": null,
  "weighted_work_function": null,
  "surface_anisotropy": null,
  "shape_factor": null,
  "has_reconstructed": null,
  "possible_species": null,
  "has_props": null,
  "theoretical": null,
  "database_IDs": null,
  "fields_not_requested": [
    "builder_meta",
    "nsites",
    "elements",
    "nelements",
    "composition",
    "composition_reduced",
    "chemsys",
    "symmetry",
    "property_name",
    "deprecated",
    "deprecation_reasons",
    "last_updated",
    "origins",
    "warnings",
    "task_ids",
    "uncorrected_energy_per_atom",
    "equilibrium_reaction_energy_per_atom",
    "decomposes_to",
    "xas",
    "grain_boundaries",
    "cbm",
    "vbm",
    "is_gap_direct",
    "is_metal",
    "es_source_calc_id",
    "bandstructure",
    "dos",
    "dos_energy_up",
    "dos_energy_down",
    "is_magnetic",
    "ordering",
    "total_magnetization_normalized_vol",
    "total_magnetization_normalized_formula_units",
    "num_magnetic_sites",
    "num_unique_magnetic_sites",
    "types_of_magnetic_species",
    "bulk_modulus",
    "shear_modulus",
    "universal_anisotropy",
    "homogeneous_poisson",
    "e_total",
    "e_ionic",
    "e_electronic",
    "n",
    "e_ij_max",
    "weighted_surface_energy_EV_PER_ANG2",
    "weighted_surface_energy",
    "weighted_work_function",
    "surface_anisotropy",
    "shape_factor",
    "has_reconstructed",
    "possible_species",
    "has_props",
    "theoretical",
    "database_IDs"
  ]
}
