{
  "builder_meta": null,
  "nsites": null,
  "elements": null,
  "nelements": null,
  "composition": null,
  "composition_reduced": null,
  "formula_pretty": "Sb3Ir",
  "formula_anonymous": "AB3",
  "chemsys": null,
  "volume": 405.6802607522815,
  "density": 9.127834283044729,
  "density_atomic": 25.355016297017595,
  "symmetry": null,
  "property_name": null,
  "material_id": "mp-1239",
  "deprecated": null,
  "deprecation_reasons": null,
  "last_updated": null,
  "origins": null,
  "warnings": null,
  "structure": {
    "@module": "pymatgen.core.structure",
    "@class": "Structure",
    "charge": 0,
    "lattice": {
      "matrix": [
        [7.61539336, 1e-8, -2.692448139999999],
        [-3.80769466, 6.59512435, -2.692448139999999],
        [-0.0, -0.0, 8.0773434]
      ],
      "pbc": [true, true, true],
      "a": 8.077344428345341,
      "b": 8.077343672417616,
      "c": 8.0773434,
      "alpha": 109.47122250934765,
      "beta": 109.47122061356146,
      "gamma": 109.47120816112052,
      "volume": 405.6802607522815
    },
    "properties": {},
    "sites": [
      {
        "species": [{ "element": "Sb", "occu": 1 }],
        "abc": [0.50657057, 0.84634833, 0.66022424],
        "properties": { "magmom": -0.0 },
        "label": "Sb",
        "xyz": [0.6350981385084973, 5.581772484830541, 1.6901939316081722]
      },
      {
        "species": [{ "element": "Sb", "occu": 1 }],
        "abc": [0.18612609, 0.84634833, 0.33977576],
        "properties": { "magmom": -0.0 },
        "label": "Sb",
        "xyz": [-1.8052126267321558, 5.581772481626095, -0.03539833921059321]
      },
      {
        "species": [{ "element": "Sb", "occu": 1 }],
        "abc": [0.81387391, 0.15365167, 0.66022424],
        "properties": { "magmom": -0.0 },
        "label": "Sb",
        "xyz": [5.612911326732155, 1.0133518783739035, 2.7278454592105965]
      },
      {
        "species": [{ "element": "Sb", "occu": 1 }],
        "abc": [0.15365167, 0.33977576, 0.49342943],
        "properties": { "magmom": -0.0 },
        "label": "Sb",
        "xyz": [-0.12364443947853032, 2.2408633898522727, 2.6570711836477825]
      },
      {
        "species": [{ "element": "Sb", "occu": 1 }],
        "abc": [0.49342943, 0.15365167, 0.33977576],
        "properties": { "magmom": -0.0 },
        "label": "Sb",
        "xyz": [3.1726005614915027, 1.0133518751694588, 1.0022531883918309]
      },
      {
        "species": [{ "element": "Sb", "occu": 1 }],
        "abc": [0.15365167, 0.66022424, 0.81387391],
        "properties": { "magmom": -0.0 },
        "label": "Sb",
        "xyz": [-1.3438144055796473, 4.354260963220761, 4.382620375300387]
      },
      {
        "species": [{ "element": "Sb", "occu": 1 }],
        "abc": [0.33977576, 0.18612609, 0.84634833],
        "properties": { "magmom": -0.0 },
        "label": "Sb",
        "xyz": [1.878814747613274, 1.2275247117270491, 5.420282639571464]
      },
      {
        "species": [{ "element": "Sb", "occu": 1 }],
        "abc": [0.84634833, 0.66022424, 0.50657057],
        "properties": { "magmom": -0.0 },
        "label": "Sb",
        "xyz": [3.93134313947853, 4.3542609701477275, 0.035375936352220805]
      },
      {
        "species": [{ "element": "Sb", "occu": 1 }],
        "abc": [0.66022424, 0.81387391, 0.15365167],
        "properties": { "magmom": -0.0 },
        "label": "Sb",
        "xyz": [1.9288839523867263, 5.36759964827295, -2.727835519571461]
      },
      {
        "species": [{ "element": "Sb", "occu": 1 }],
        "abc": [0.84634833, 0.33977576, 0.18612609],
        "properties": { "magmom": -0.0 },
        "label": "Sb",
        "xyz": [5.151513105579647, 2.2408633967792393, -1.6901732553003852]
      },
      {
        "species": [{ "element": "Sb", "occu": 1 }],
        "abc": [0.66022424, 0.50657057, 0.84634833],
        "properties": { "magmom": -0.0 },
        "label": "Sb",
        "xyz": [3.09900123910489, 3.340895907802622, 3.6947115814803695]
      },
      {
        "species": [{ "element": "Sb", "occu": 1 }],
        "abc": [0.33977576, 0.49342943, 0.15365167],
        "properties": { "magmom": -0.0 },
        "label": "Sb",
        "xyz": [0.7086974608951095, 3.254228452197378, -1.0022644614803677]
      },
      {
        "species": [{ "element": "Ir", "occu": 1 }],
        "abc": [0.5, -0.0, -0.0],
        "properties": { "magmom": -0.0 },
        "label": "Ir",
        "xyz": [3.80769668, 5e-9, -1.3462240699999994]
      },
      {
        "species": [{ "element": "Ir", "occu": 1 }],
        "abc": [-0.0, -0.0, 0.5],
        "properties": { "magmom": -0.0 },
        "label": "Ir",
        "xyz": [0.0, 0.0, 4.0386717]
      },
      {
        "species": [{ "element": "Ir", "occu": 1 }],
        "abc": [-0.0, 0.5, -0.0],
        "properties": { "magmom": -0.0 },
        "label": "Ir",
        "xyz": [-1.90384733, 3.297562175, -1.3462240699999994]
      },
      {
        "species": [{ "element": "Ir", "occu": 1 }],
        "abc": [0.5, 0.5, 0.5],
        "properties": { "magmom": -0.0 },
        "label": "Ir",
        "xyz": [1.9038493499999998, 3.29756218, 1.3462235600000012]
      }
    ]
  },
  "task_ids": null,
  "uncorrected_energy_per_atom": null,
  "energy_per_atom": -32.785307391875,
  "formation_energy_per_atom": -0.415732231875004,
  "energy_above_hull": 0.0,
  "is_stable": true,
  "equilibrium_reaction_energy_per_atom": null,
  "decomposes_to": null,
  "xas": null,
  "grain_boundaries": null,
  "band_gap": 0.053699999999999005,
  "cbm": null,
  "vbm": null,
  "efermi": 7.70117787,
  "is_gap_direct": null,
  "is_metal": null,
  "es_source_calc_id": null,
  "bandstructure": null,
  "dos": null,
  "dos_energy_up": null,
  "dos_energy_down": null,
  "is_magnetic": null,
  "ordering": null,
  "total_magnetization": 0.0,
  "total_magnetization_normalized_vol": null,
  "total_magnetization_normalized_formula_units": null,
  "num_magnetic_sites": null,
  "num_unique_magnetic_sites": null,
  "types_of_magnetic_species": null,
  "bulk_modulus": null,
  "shear_modulus": null,
  "universal_anisotropy": null,
  "homogeneous_poisson": null,
  "e_total": null,
  "e_ionic": null,
  "e_electronic": null,
  "n": null,
  "e_ij_max": null,
  "weighted_surface_energy_EV_PER_ANG2": null,
  "weighted_surface_energy": null,
  "weighted_work_function": null,
  "surface_anisotropy": null,
  "shape_factor": null,
  "has_reconstructed": null,
  "possible_species": null,
  "has_props": null,
  "theoretical": null,
  "database_IDs": null,
  "fields_not_requested": [
    "builder_meta",
    "nsites",
    "elements",
    "nelements",
    "composition",
    "composition_reduced",
    "chemsys",
    "symmetry",
    "property_name",
    "deprecated",
    "deprecation_reasons",
    "last_updated",
    "origins",
    "warnings",
    "task_ids",
    "uncorrected_energy_per_atom",
    "equilibrium_reaction_energy_per_atom",
    "decomposes_to",
    "xas",
    "grain_boundaries",
    "cbm",
    "vbm",
    "is_gap_direct",
    "is_metal",
    "es_source_calc_id",
    "bandstructure",
    "dos",
    "dos_energy_up",
    "dos_energy_down",
    "is_magnetic",
    "ordering",
    "total_magnetization_normalized_vol",
    "total_magnetization_normalized_formula_units",
    "num_magnetic_sites",
    "num_unique_magnetic_sites",
    "types_of_magnetic_species",
    "bulk_modulus",
    "shear_modulus",
    "universal_anisotropy",
    "homogeneous_poisson",
    "e_total",
    "e_ionic",
    "e_electronic",
    "n",
    "e_ij_max",
    "weighted_surface_energy_EV_PER_ANG2",
    "weighted_surface_energy",
    "weighted_work_function",
    "surface_anisotropy",
    "shape_factor",
    "has_reconstructed",
    "possible_species",
    "has_props",
    "theoretical",
    "database_IDs"
  ]
}
