{"builder_meta": null, "nsites": null, "elements": null, "nelements": null, "composition": null, "composition_reduced": null, "formula_pretty": "Sb3N5", "formula_anonymous": "A3B5", "chemsys": null, "volume": 435.509646340438, "density": 6.639164749093278, "density_atomic": 13.609676448138687, "symmetry": null, "property_name": null, "material_id": "mp-1271281", "deprecated": null, "deprecation_reasons": null, "last_updated": null, "origins": null, "warnings": null, "structure": {"@module": "pymatgen.core.structure", "@class": "Structure", "charge": 0, "lattice": {"matrix": [[3.991740779999999, 0.0, 0.0], [0.0, 10.53318861, -0.0], [0.0, -0.0, 10.35799238]], "pbc": [true, true, true], "a": 3.991740779999999, "b": 10.53318861, "c": 10.35799238, "alpha": 90.0, "beta": 90.0, "gamma": 90.0, "volume": 435.5096463404379}, "properties": {}, "sites": [{"species": [{"element": "Sb", "occu": 1}], "abc": [0.0, 0.81655984, 0.25], "properties": {"magmom": -0.0}, "label": "Sb", "xyz": [0.0, 8.600978806071423, 2.589498095]}, {"species": [{"element": "Sb", "occu": 1}], "abc": [-0.0, 0.18344016, 0.75], "properties": {"magmom": -0.0}, "label": "Sb", "xyz": [0.0, 1.9322098039285776, 7.768494285000001]}, {"species": [{"element": "Sb", "occu": 1}], "abc": [0.5, 0.31655984, 0.25], "properties": {"magmom": -0.0}, "label": "Sb", "xyz": [1.9958703899999994, 3.334384501071422, 2.589498095]}, {"species": [{"element": "Sb", "occu": 1}], "abc": [0.5, 0.68344016, 0.75], "properties": {"magmom": -0.0}, "label": "Sb", "xyz": [1.9958703899999994, 7.198804108928577, 7.768494285000001]}, {"species": [{"element": "Sb", "occu": 1}], "abc": [-0.0, 0.13598527, 0.43594908], "properties": {"magmom": -0.0}, "label": "Sb", "xyz": [0.0, 1.4323584970917747, 4.515557248708011]}, {"species": [{"element": "Sb", "occu": 1}], "abc": [0.0, 0.8640147300000001, 0.56405092], "properties": {"magmom": -0.0}, "label": "Sb", "xyz": [0.0, 9.100830112908225, 5.84243513129199]}, {"species": [{"element": "Sb", "occu": 1}], "abc": [0.0, 0.13598527, 0.06405092], "properties": {"magmom": -0.0}, "label": "Sb", "xyz": [0.0, 1.4323584970917747, 0.6634389412919897]}, {"species": [{"element": "Sb", "occu": 1}], "abc": [0.0, 0.8640147300000001, 0.93594908], "properties": {"magmom": -0.0}, "label": "Sb", "xyz": [0.0, 9.100830112908225, 9.694553438708011]}, {"species": [{"element": "Sb", "occu": 1}], "abc": [0.5, 0.63598527, 0.43594908], "properties": {"magmom": -0.0}, "label": "Sb", "xyz": [1.9958703899999994, 6.6989528020917755, 4.515557248708011]}, {"species": [{"element": "Sb", "occu": 1}], "abc": [0.5, 0.36401473, 0.56405092], "properties": {"magmom": -0.0}, "label": "Sb", "xyz": [1.9958703899999994, 3.8342358079082253, 5.84243513129199]}, {"species": [{"element": "Sb", "occu": 1}], "abc": [0.5, 0.63598527, 0.06405092], "properties": {"magmom": -0.0}, "label": "Sb", "xyz": [1.9958703899999994, 6.6989528020917755, 0.6634389412919897]}, {"species": [{"element": "Sb", "occu": 1}], "abc": [0.5, 0.36401473, 0.93594908], "properties": {"magmom": -0.0}, "label": "Sb", "xyz": [1.9958703899999994, 3.8342358079082253, 9.694553438708011]}, {"species": [{"element": "N", "occu": 1}], "abc": [-0.0, 0.24047092, 0.25], "properties": {"magmom": -0.0}, "label": "N", "xyz": [0.0, 2.532925555580221, 2.589498095]}, {"species": [{"element": "N", "occu": 1}], "abc": [0.0, 0.75952808, 0.75], "properties": {"magmom": -0.0}, "label": "N", "xyz": [0.0, 8.00025252123117, 7.768494285000001]}, {"species": [{"element": "N", "occu": 1}], "abc": [0.5, 0.7404719200000001, 0.25], "properties": {"magmom": -0.0}, "label": "N", "xyz": [1.9958703899999994, 7.799530393768832, 2.589498095]}, {"species": [{"element": "N", "occu": 1}], "abc": [0.5, 0.25952808, 0.75], "properties": {"magmom": -0.0}, "label": "N", "xyz": [1.9958703899999994, 2.7336582162311687, 7.768494285000001]}, {"species": [{"element": "N", "occu": 1}], "abc": [0.0, 0.95023965, 0.38706573], "properties": {"magmom": -0.0}, "label": "N", "xyz": [0.0, 10.009053458150387, 4.009223881899137]}, {"species": [{"element": "N", "occu": 1}], "abc": [-0.0, 0.04976035, 0.61293427], "properties": {"magmom": -0.0}, "label": "N", "xyz": [0.0, 0.5241351518496135, 6.348768498100863]}, {"species": [{"element": "N", "occu": 1}], "abc": [-0.0, 0.95023965, 0.11293427], "properties": {"magmom": -0.0}, "label": "N", "xyz": [0.0, 10.009053458150387, 1.1697723081008626]}, {"species": [{"element": "N", "occu": 1}], "abc": [-0.0, 0.04976035, 0.88706573], "properties": {"magmom": -0.0}, "label": "N", "xyz": [0.0, 0.5241351518496135, 9.188220071899138]}, {"species": [{"element": "N", "occu": 1}], "abc": [0.5, 0.45023965, 0.38706573], "properties": {"magmom": -0.0}, "label": "N", "xyz": [1.9958703899999994, 4.742459153150386, 4.009223881899137]}, {"species": [{"element": "N", "occu": 1}], "abc": [0.5, 0.54976035, 0.61293427], "properties": {"magmom": -0.0}, "label": "N", "xyz": [1.9958703899999994, 5.790729456849614, 6.348768498100863]}, {"species": [{"element": "N", "occu": 1}], "abc": [0.5, 0.45023965, 0.11293427], "properties": {"magmom": -0.0}, "label": "N", "xyz": [1.9958703899999994, 4.742459153150386, 1.1697723081008626]}, {"species": [{"element": "N", "occu": 1}], "abc": [0.5, 0.54976035, 0.88706573], "properties": {"magmom": -0.0}, "label": "N", "xyz": [1.9958703899999994, 5.790729456849614, 9.188220071899138]}, {"species": [{"element": "N", "occu": 1}], "abc": [0.0, 0.69675373, 0.42564097], "properties": {"magmom": 0.0}, "label": "N", "xyz": [0.0, 7.339038452811015, 4.408785923875809]}, {"species": [{"element": "N", "occu": 1}], "abc": [0.0, 0.30324627, 0.57435903], "properties": {"magmom": 0.0}, "label": "N", "xyz": [0.0, 3.1941501571889845, 5.949206456124192]}, {"species": [{"element": "N", "occu": 1}], "abc": [-0.0, 0.69675373, 0.07435903], "properties": {"magmom": 0.0}, "label": "N", "xyz": [0.0, 7.339038452811015, 0.7702102661241915]}, {"species": [{"element": "N", "occu": 1}], "abc": [-0.0, 0.30324627, 0.92564097], "properties": {"magmom": 0.0}, "label": "N", "xyz": [0.0, 3.1941501571889845, 9.587782113875809]}, {"species": [{"element": "N", "occu": 1}], "abc": [0.5, 0.19675373000000002, 0.42564097], "properties": {"magmom": 0.0}, "label": "N", "xyz": [1.9958703899999994, 2.0724441478110154, 4.408785923875809]}, {"species": [{"element": "N", "occu": 1}], "abc": [0.5, 0.80324627, 0.57435903], "properties": {"magmom": 0.0}, "label": "N", "xyz": [1.9958703899999994, 8.460744462188986, 5.949206456124192]}, {"species": [{"element": "N", "occu": 1}], "abc": [0.5, 0.19675373000000002, 0.07435903], "properties": {"magmom": 0.0}, "label": "N", "xyz": [1.9958703899999994, 2.0724441478110154, 0.7702102661241915]}, {"species": [{"element": "N", "occu": 1}], "abc": [0.5, 0.80324627, 0.92564097], "properties": {"magmom": 0.0}, "label": "N", "xyz": [1.9958703899999994, 8.460744462188986, 9.587782113875809]}]}, "task_ids": null, "uncorrected_energy_per_atom": null, "energy_per_atom": -14.821769725625, "formation_energy_per_atom": 0.52356784265625, "energy_above_hull": 0.52356784265625, "is_stable": false, "equilibrium_reaction_energy_per_atom": null, "decomposes_to": null, "xas": null, "grain_boundaries": null, "band_gap": 0.09289999999999901, "cbm": null, "vbm": null, "efermi": 6.65781004, "is_gap_direct": null, "is_metal": null, "es_source_calc_id": null, "bandstructure": null, "dos": null, "dos_energy_up": null, "dos_energy_down": null, "is_magnetic": null, "ordering": null, "total_magnetization": 0.0, "total_magnetization_normalized_vol": null, "total_magnetization_normalized_formula_units": null, "num_magnetic_sites": null, "num_unique_magnetic_sites": null, "types_of_magnetic_species": null, "bulk_modulus": null, "shear_modulus": null, "universal_anisotropy": null, "homogeneous_poisson": null, "e_total": null, "e_ionic": null, "e_electronic": null, "n": null, "e_ij_max": null, "weighted_surface_energy_EV_PER_ANG2": null, "weighted_surface_energy": null, "weighted_work_function": null, "surface_anisotropy": null, "shape_factor": null, "has_reconstructed": null, "possible_species": null, "has_props": null, "theoretical": null, "database_IDs": null, "fields_not_requested": ["builder_meta", "nsites", "elements", "nelements", "composition", "composition_reduced", "chemsys", "symmetry", "property_name", "deprecated", "deprecation_reasons", "last_updated", "origins", "warnings", "task_ids", "uncorrected_energy_per_atom", "equilibrium_reaction_energy_per_atom", "decomposes_to", "xas", "grain_boundaries", "cbm", "vbm", "is_gap_direct", "is_metal", "es_source_calc_id", "bandstructure", "dos", "dos_energy_up", "dos_energy_down", "is_magnetic", "ordering", "total_magnetization_normalized_vol", "total_magnetization_normalized_formula_units", "num_magnetic_sites", "num_unique_magnetic_sites", "types_of_magnetic_species", "bulk_modulus", "shear_modulus", "universal_anisotropy", "homogeneous_poisson", "e_total", "e_ionic", "e_electronic", "n", "e_ij_max", "weighted_surface_energy_EV_PER_ANG2", "weighted_surface_energy", "weighted_work_function", "surface_anisotropy", "shape_factor", "has_reconstructed", "possible_species", "has_props", "theoretical", "database_IDs"]}