{"builder_meta": null, "nsites": null, "elements": null, "nelements": null, "composition": null, "composition_reduced": null, "formula_pretty": "Sb3O8", "formula_anonymous": "A3B8", "chemsys": null, "volume": 861.8868212918019, "density": 5.702159865657893, "density_atomic": 13.058891231693968, "symmetry": null, "property_name": null, "material_id": "mp-1197211", "deprecated": null, "deprecation_reasons": null, "last_updated": null, "origins": null, "warnings": null, "structure": {"@module": "pymatgen.core.structure", "@class": "Structure", "charge": 0, "lattice": {"matrix": [[8.985676, 0.0, 0.0], [0.0, 9.564820000000001, 0.0], [0.0, 9.495622, 10.028193]], "pbc": [true, true, true], "a": 8.985676, "b": 9.564820000000001, "c": 13.810557266531028, "alpha": 46.5625278952872, "beta": 90.0, "gamma": 90.0, "volume": 861.886821291802}, "properties": {}, "sites": [{"species": [{"element": "Sb", "occu": 1}], "abc": [0.307262, 0.5, 0.25], "properties": {"magmom": -0.003}, "label": "Sb", "xyz": [2.7609567791119995, 7.1563155, 2.50704825]}, {"species": [{"element": "Sb", "occu": 1}], "abc": [0.692738, 0.5, 0.75], "properties": {"magmom": -0.003}, "label": "Sb", "xyz": [6.224719220888, 11.9041265, 7.5211447499999995]}, {"species": [{"element": "Sb", "occu": 1}], "abc": [0.9923200000000001, 0.753911, 0.746418999999999], "properties": {"magmom": -0.017}, "label": "Sb", "xyz": [8.91666600832, 14.29873568863799, 7.485233790866991]}, {"species": [{"element": "Sb", "occu": 1}], "abc": [0.007680000000000001, 0.246089, 0.253581], "properties": {"magmom": -0.017}, "label": "Sb", "xyz": [0.06900999168000001, 4.7617063113619995, 2.542959209133]}, {"species": [{"element": "Sb", "occu": 1}], "abc": [0.9923200000000001, 0.246089, 0.753581], "properties": {"magmom": -0.017}, "label": "Sb", "xyz": [8.91666600832, 9.509517311362, 7.5570557091329995]}, {"species": [{"element": "Sb", "occu": 1}], "abc": [0.007680000000000001, 0.753911, 0.246419], "properties": {"magmom": -0.017}, "label": "Sb", "xyz": [0.06900999168000001, 9.550924688638, 2.471137290867]}, {"species": [{"element": "Sb", "occu": 1}], "abc": [0.352767999999999, 0.742781999999999, 0.749524], "properties": {"magmom": -0.009000000000000001}, "label": "Sb", "xyz": [3.169858951167991, 14.22177271316799, 7.516371330131999]}, {"species": [{"element": "Sb", "occu": 1}], "abc": [0.647231999999999, 0.257218, 0.250476], "properties": {"magmom": -0.009000000000000001}, "label": "Sb", "xyz": [5.815817048831991, 4.838669286831999, 2.5118216698679996]}, {"species": [{"element": "Sb", "occu": 1}], "abc": [0.352767999999999, 0.257218, 0.750475999999999], "properties": {"magmom": -0.009000000000000001}, "label": "Sb", "xyz": [3.169858951167991, 9.58648028683199, 7.525918169867991]}, {"species": [{"element": "Sb", "occu": 1}], "abc": [0.647231999999999, 0.742781999999999, 0.249524], "properties": {"magmom": -0.009000000000000001}, "label": "Sb", "xyz": [5.815817048831991, 9.473961713167991, 2.502274830132]}, {"species": [{"element": "Sb", "occu": 1}], "abc": [0.848271, 0.745868, 0.001264999999999], "properties": {"magmom": -0.015}, "label": "Sb", "xyz": [7.622288366196, 7.14610512558999, 0.012685664144989972]}, {"species": [{"element": "Sb", "occu": 1}], "abc": [0.151729, 0.254131999999999, 0.998734999999999], "properties": {"magmom": -0.015}, "label": "Sb", "xyz": [1.363387633804, 11.914336874409981, 10.01550733585499]}, {"species": [{"element": "Sb", "occu": 1}], "abc": [0.848271, 0.254131999999999, 0.498735], "properties": {"magmom": -0.015}, "label": "Sb", "xyz": [7.622288366196, 7.166525874409991, 5.001410835855]}, {"species": [{"element": "Sb", "occu": 1}], "abc": [0.151729, 0.745868, 0.501265], "properties": {"magmom": -0.015}, "label": "Sb", "xyz": [1.363387633804, 11.89391612559, 5.026782164145]}, {"species": [{"element": "Sb", "occu": 1}], "abc": [0.494561, 0.768076, 0.9816419999999991], "properties": {"magmom": -0.006}, "label": "Sb", "xyz": [4.4439649082359995, 16.66781005764399, 9.844095432905991]}, {"species": [{"element": "Sb", "occu": 1}], "abc": [0.505439, 0.231924, 0.018358], "properties": {"magmom": -0.006}, "label": "Sb", "xyz": [4.541711091763999, 2.392631942356, 0.184097567094]}, {"species": [{"element": "Sb", "occu": 1}], "abc": [0.494561, 0.231924, 0.518358], "properties": {"magmom": -0.006}, "label": "Sb", "xyz": [4.4439649082359995, 7.140442942356, 5.198194067094]}, {"species": [{"element": "Sb", "occu": 1}], "abc": [0.505439, 0.768076, 0.481641999999999], "properties": {"magmom": -0.006}, "label": "Sb", "xyz": [4.541711091763999, 11.919999057643992, 4.8299989329059905]}, {"species": [{"element": "O", "occu": 1}], "abc": [0.163262, 0.441310999999999, 0.174014], "properties": {"magmom": 0.109}, "label": "O", "xyz": [1.4670194351119998, 5.873431445727991, 1.745045976702]}, {"species": [{"element": "O", "occu": 1}], "abc": [0.836738, 0.558689, 0.825986], "properties": {"magmom": 0.109}, "label": "O", "xyz": [7.5186565648879995, 13.187010554272, 8.283147023298]}, {"species": [{"element": "O", "occu": 1}], "abc": [0.163262, 0.558689, 0.325986], "properties": {"magmom": 0.109}, "label": "O", "xyz": [1.4670194351119998, 8.439199554272001, 3.269050523298]}, {"species": [{"element": "O", "occu": 1}], "abc": [0.836738, 0.441310999999999, 0.674014], "properties": {"magmom": 0.109}, "label": "O", "xyz": [7.5186565648879995, 10.62124244572799, 6.759142476702]}, {"species": [{"element": "O", "occu": 1}], "abc": [0.489415999999999, 0.466356999999999, 0.164763], "properties": {"magmom": 0.027}, "label": "O", "xyz": [4.397733605215991, 6.025147928325991, 1.6522751632589998]}, {"species": [{"element": "O", "occu": 1}], "abc": [0.510583999999999, 0.533643, 0.835237], "properties": {"magmom": 0.027}, "label": "O", "xyz": [4.587942394783991, 13.035294071673999, 8.375917836741]}, {"species": [{"element": "O", "occu": 1}], "abc": [0.489415999999999, 0.533643, 0.335237], "properties": {"magmom": 0.027}, "label": "O", "xyz": [4.397733605215991, 8.287483071674, 3.361821336741]}, {"species": [{"element": "O", "occu": 1}], "abc": [0.510583999999999, 0.466356999999999, 0.664763], "properties": {"magmom": 0.027}, "label": "O", "xyz": [4.587942394783991, 10.772958928325991, 6.6663716632589995]}, {"species": [{"element": "O", "occu": 1}], "abc": [0.339227, 0.234517999999999, 0.417535999999999], "properties": {"magmom": 0.018000000000000002}, "label": "O", "xyz": [3.048183912452, 6.207886484151981, 4.18713159244799]}, {"species": [{"element": "O", "occu": 1}], "abc": [0.6607729999999991, 0.765482, 0.582464], "properties": {"magmom": 0.018000000000000002}, "label": "O", "xyz": [5.937492087547992, 12.852555515848, 5.841061407552]}, {"species": [{"element": "O", "occu": 1}], "abc": [0.339227, 0.765482, 0.082464], "properties": {"magmom": 0.018000000000000002}, "label": "O", "xyz": [3.048183912452, 8.104744515848001, 0.8269649075519999]}, {"species": [{"element": "O", "occu": 1}], "abc": [0.6607729999999991, 0.234517999999999, 0.917535999999999], "properties": {"magmom": 0.018000000000000002}, "label": "O", "xyz": [5.937492087547992, 10.955697484151981, 9.20122809244799]}, {"species": [{"element": "O", "occu": 1}], "abc": [0.174517, 0.915686999999999, 0.6766759999999991], "properties": {"magmom": 0.197}, "label": "O", "xyz": [1.568153218492, 15.183840843811982, 6.785837526467991]}, {"species": [{"element": "O", "occu": 1}], "abc": [0.825483, 0.084313, 0.323324], "properties": {"magmom": 0.197}, "label": "O", "xyz": [7.417522781508, 3.8766011561879994, 3.242355473532]}, {"species": [{"element": "O", "occu": 1}], "abc": [0.174517, 0.084313, 0.823324], "properties": {"magmom": 0.197}, "label": "O", "xyz": [1.568153218492, 8.624412156187999, 8.256451973532]}, {"species": [{"element": "O", "occu": 1}], "abc": [0.825483, 0.915686999999999, 0.176676], "properties": {"magmom": 0.197}, "label": "O", "xyz": [7.417522781508, 10.436029843811992, 1.771741026468]}, {"species": [{"element": "O", "occu": 1}], "abc": [7.7e-05, 0.769482999999999, 0.5926300000000001], "properties": {"magmom": 0.229}, "label": "O", "xyz": [0.000691897052, 12.98735685391999, 5.943008017590001]}, {"species": [{"element": "O", "occu": 1}], "abc": [0.999923, 0.230517, 0.40737], "properties": {"magmom": 0.229}, "label": "O", "xyz": [8.984984102948, 6.07308514608, 4.08518498241]}, {"species": [{"element": "O", "occu": 1}], "abc": [7.7e-05, 0.230517, 0.9073700000000001], "properties": {"magmom": 0.229}, "label": "O", "xyz": [0.000691897052, 10.82089614608, 9.099281482410001]}, {"species": [{"element": "O", "occu": 1}], "abc": [0.999923, 0.769482999999999, 0.09263], "properties": {"magmom": 0.229}, "label": "O", "xyz": [8.984984102948, 8.23954585391999, 0.92891151759]}, {"species": [{"element": "O", "occu": 1}], "abc": [0.993547, 0.713642999999999, 0.90927], "properties": {"magmom": 0.231}, "label": "O", "xyz": [8.927691432771999, 15.45995105519999, 9.11833504911]}, {"species": [{"element": "O", "occu": 1}], "abc": [0.006452999999999, 0.286357, 0.09073], "properties": {"magmom": 0.231}, "label": "O", "xyz": [0.057984567227991016, 3.6004909447999998, 0.90985795089]}, {"species": [{"element": "O", "occu": 1}], "abc": [0.993547, 0.286357, 0.5907300000000001], "properties": {"magmom": 0.231}, "label": "O", "xyz": [8.927691432771999, 8.348301944800001, 5.923954450890001]}, {"species": [{"element": "O", "occu": 1}], "abc": [0.006452999999999, 0.713642999999999, 0.40927], "properties": {"magmom": 0.231}, "label": "O", "xyz": [0.057984567227991016, 10.712140055199992, 4.104238549110001]}, {"species": [{"element": "O", "occu": 1}], "abc": [0.350651999999999, 0.707824999999999, 0.907519], "properties": {"magmom": 0.122}, "label": "O", "xyz": [3.150845260751991, 15.387676098317991, 9.100775683166999]}, {"species": [{"element": "O", "occu": 1}], "abc": [0.649347999999999, 0.292174999999999, 0.092481], "properties": {"magmom": 0.122}, "label": "O", "xyz": [5.834830739247991, 3.6727659016819905, 0.9274173168329999]}, {"species": [{"element": "O", "occu": 1}], "abc": [0.350651999999999, 0.292174999999999, 0.592480999999999], "properties": {"magmom": 0.122}, "label": "O", "xyz": [3.150845260751991, 8.420576901681981, 5.94151381683299]}, {"species": [{"element": "O", "occu": 1}], "abc": [0.649347999999999, 0.707824999999999, 0.407518999999999], "properties": {"magmom": 0.122}, "label": "O", "xyz": [5.834830739247991, 10.639865098317982, 4.08667918316699]}, {"species": [{"element": "O", "occu": 1}], "abc": [0.33317599999999903, 0.767559, 0.589812], "properties": {"magmom": 0.036000000000000004}, "label": "O", "xyz": [2.9938115869759914, 12.942195477443999, 5.914748569716]}, {"species": [{"element": "O", "occu": 1}], "abc": [0.666824, 0.232440999999999, 0.410188], "properties": {"magmom": 0.036000000000000004}, "label": "O", "xyz": [5.9918644130239995, 6.1182465225559906, 4.113444430284]}, {"species": [{"element": "O", "occu": 1}], "abc": [0.33317599999999903, 0.232440999999999, 0.910188], "properties": {"magmom": 0.036000000000000004}, "label": "O", "xyz": [2.9938115869759914, 10.86605752255599, 9.127540930284]}, {"species": [{"element": "O", "occu": 1}], "abc": [0.666824, 0.767559, 0.089811999999999], "properties": {"magmom": 0.036000000000000004}, "label": "O", "xyz": [5.9918644130239995, 8.194384477443991, 0.90065206971599]}, {"species": [{"element": "O", "occu": 1}], "abc": [0.674152, 0.72787, 0.923488], "properties": {"magmom": 0.039}, "label": "O", "xyz": [6.057711446751999, 15.731038502935998, 9.260915897183999]}, {"species": [{"element": "O", "occu": 1}], "abc": [0.325847999999999, 0.27213000000000004, 0.076512], "properties": {"magmom": 0.039}, "label": "O", "xyz": [2.927964553247991, 3.3294034970640007, 0.7672771028159999]}, {"species": [{"element": "O", "occu": 1}], "abc": [0.674152, 0.27213000000000004, 0.576512], "properties": {"magmom": 0.039}, "label": "O", "xyz": [6.057711446751999, 8.077214497064, 5.781373602816]}, {"species": [{"element": "O", "occu": 1}], "abc": [0.325847999999999, 0.72787, 0.423488], "properties": {"magmom": 0.039}, "label": "O", "xyz": [2.927964553247991, 10.983227502936, 4.246819397184]}, {"species": [{"element": "O", "occu": 1}], "abc": [0.834515999999999, 0.452150999999999, 0.16250799999999901], "properties": {"magmom": 0.027}, "label": "O", "xyz": [7.498690392815991, 5.867857467795981, 1.6296615880439902]}, {"species": [{"element": "O", "occu": 1}], "abc": [0.165484, 0.547849, 0.837492], "properties": {"magmom": 0.027}, "label": "O", "xyz": [1.486985607184, 13.192584532204, 8.398531411956]}, {"species": [{"element": "O", "occu": 1}], "abc": [0.834515999999999, 0.547849, 0.337491999999999], "properties": {"magmom": 0.027}, "label": "O", "xyz": [7.498690392815991, 8.44477353220399, 3.38443491195599]}, {"species": [{"element": "O", "occu": 1}], "abc": [0.165484, 0.452150999999999, 0.662508], "properties": {"magmom": 0.027}, "label": "O", "xyz": [1.486985607184, 10.615668467795992, 6.643758088044]}, {"species": [{"element": "O", "occu": 1}], "abc": [0.851623999999999, 0.029927, 0.849445999999999], "properties": {"magmom": 0.197}, "label": "O", "xyz": [7.652417337823992, 8.35226449355199, 8.51840843107799]}, {"species": [{"element": "O", "occu": 1}], "abc": [0.148375999999999, 0.970073, 0.150554], "properties": {"magmom": 0.197}, "label": "O", "xyz": [1.333258662175991, 10.708177506448001, 1.509784568922]}, {"species": [{"element": "O", "occu": 1}], "abc": [0.851623999999999, 0.970073, 0.650554], "properties": {"magmom": 0.197}, "label": "O", "xyz": [7.652417337823992, 15.455988506448, 6.523881068922]}, {"species": [{"element": "O", "occu": 1}], "abc": [0.148375999999999, 0.029927, 0.349446], "properties": {"magmom": 0.197}, "label": "O", "xyz": [1.333258662175991, 3.6044534935519996, 3.5043119310779995]}, {"species": [{"element": "O", "occu": 1}], "abc": [0.499301, 0.049845999999999, 0.840857], "properties": {"magmom": 0.052000000000000005}, "label": "O", "xyz": [4.486557012476, 8.46122824577399, 8.432276281401]}, {"species": [{"element": "O", "occu": 1}], "abc": [0.500699, 0.950153999999999, 0.159142999999999], "properties": {"magmom": 0.052000000000000005}, "label": "O", "xyz": [4.499118987524, 10.599213754225984, 1.59591671859899]}, {"species": [{"element": "O", "occu": 1}], "abc": [0.499301, 0.950153999999999, 0.659142999999999], "properties": {"magmom": 0.052000000000000005}, "label": "O", "xyz": [4.486557012476, 15.347024754225984, 6.61001321859899]}, {"species": [{"element": "O", "occu": 1}], "abc": [0.500699, 0.049845999999999, 0.340856999999999], "properties": {"magmom": 0.052000000000000005}, "label": "O", "xyz": [4.499118987524, 3.713417245773981, 3.41817978140099]}]}, "task_ids": null, "uncorrected_energy_per_atom": null, "energy_per_atom": -6.34032301969697, "formation_energy_per_atom": -1.615714677878787, "energy_above_hull": 0.052863317121212006, "is_stable": false, "equilibrium_reaction_energy_per_atom": null, "decomposes_to": null, "xas": null, "grain_boundaries": null, "band_gap": 0.001299999999999, "cbm": null, "vbm": null, "efermi": 3.46742402, "is_gap_direct": null, "is_metal": null, "es_source_calc_id": null, "bandstructure": null, "dos": null, "dos_energy_up": null, "dos_energy_down": null, "is_magnetic": null, "ordering": null, "total_magnetization": 6.0019905, "total_magnetization_normalized_vol": null, "total_magnetization_normalized_formula_units": null, "num_magnetic_sites": null, "num_unique_magnetic_sites": null, "types_of_magnetic_species": null, "bulk_modulus": null, "shear_modulus": null, "universal_anisotropy": null, "homogeneous_poisson": null, "e_total": null, "e_ionic": null, "e_electronic": null, "n": null, "e_ij_max": null, "weighted_surface_energy_EV_PER_ANG2": null, "weighted_surface_energy": null, "weighted_work_function": null, "surface_anisotropy": null, "shape_factor": null, "has_reconstructed": null, "possible_species": null, "has_props": null, "theoretical": null, "database_IDs": null, "fields_not_requested": ["builder_meta", "nsites", "elements", "nelements", "composition", "composition_reduced", "chemsys", "symmetry", "property_name", "deprecated", "deprecation_reasons", "last_updated", "origins", "warnings", "task_ids", "uncorrected_energy_per_atom", "equilibrium_reaction_energy_per_atom", "decomposes_to", "xas", "grain_boundaries", "cbm", "vbm", "is_gap_direct", "is_metal", "es_source_calc_id", "bandstructure", "dos", "dos_energy_up", "dos_energy_down", "is_magnetic", "ordering", "total_magnetization_normalized_vol", "total_magnetization_normalized_formula_units", "num_magnetic_sites", "num_unique_magnetic_sites", "types_of_magnetic_species", "bulk_modulus", "shear_modulus", "universal_anisotropy", "homogeneous_poisson", "e_total", "e_ionic", "e_electronic", "n", "e_ij_max", "weighted_surface_energy_EV_PER_ANG2", "weighted_surface_energy", "weighted_work_function", "surface_anisotropy", "shape_factor", "has_reconstructed", "possible_species", "has_props", "theoretical", "database_IDs"]}