{"builder_meta": null, "nsites": null, "elements": null, "nelements": null, "composition": null, "composition_reduced": null, "formula_pretty": "Sb3O7", "formula_anonymous": "A3B7", "chemsys": null, "volume": 281.7877371794486, "density": 5.62505039698065, "density_atomic": 14.089386858972428, "symmetry": null, "property_name": null, "material_id": "mp-1219514", "deprecated": null, "deprecation_reasons": null, "last_updated": null, "origins": null, "warnings": null, "structure": {"@module": "pymatgen.core.structure", "@class": "Structure", "charge": 0, "lattice": {"matrix": [[-3.638846, 3.6558, 5.29561], [3.638846, -3.6558, 5.29561], [3.638846, 3.6558, -5.29561]], "pbc": [true, true, true], "a": 7.392534012354357, "b": 7.392534012354357, "c": 7.392534012354357, "alpha": 121.02514459216316, "beta": 120.72300670767989, "gamma": 88.49281296860214, "volume": 281.78773717944864}, "properties": {}, "sites": [{"species": [{"element": "Sb", "occu": 1}], "abc": [0.5, 0.5, 0.0], "properties": {"magmom": -0.0}, "label": "Sb", "xyz": [0.0, 0.0, 5.29561]}, {"species": [{"element": "Sb", "occu": 1}], "abc": [0.0, 0.5, 0.5], "properties": {"magmom": -0.0}, "label": "Sb", "xyz": [3.638846, 0.0, 0.0]}, {"species": [{"element": "Sb", "occu": 1}], "abc": [0.0, 0.5, 0.0], "properties": {"magmom": -0.0}, "label": "Sb", "xyz": [1.819423, -1.8279, 2.647805]}, {"species": [{"element": "Sb", "occu": 1}], "abc": [0.0, 0.0, 0.5], "properties": {"magmom": -0.0}, "label": "Sb", "xyz": [1.819423, 1.8279, -2.647805]}, {"species": [{"element": "Sb", "occu": 1}], "abc": [0.0, 0.0, 0.0], "properties": {"magmom": 0.0}, "label": "Sb", "xyz": [0.0, 0.0, 0.0]}, {"species": [{"element": "Sb", "occu": 1}], "abc": [0.5, 0.0, 0.5], "properties": {"magmom": 0.0}, "label": "Sb", "xyz": [0.0, 3.6558, 0.0]}, {"species": [{"element": "O", "occu": 1}], "abc": [0.062459, 0.335293, 0.162737], "properties": {"magmom": -0.0}, "label": "O", "xyz": [1.5849757910659998, -0.4024926125999999, 1.24454778415]}, {"species": [{"element": "O", "occu": 1}], "abc": [0.062459, 0.899722999999999, 0.727166], "properties": {"magmom": -0.0}, "label": "O", "xyz": [5.692719847779997, -0.40249626839999664, 1.2445530797599957]}, {"species": [{"element": "O", "occu": 1}], "abc": [0.318011, 0.068011, 0.25], "properties": {"magmom": 0.0}, "label": "O", "xyz": [1.1102230246251565e-16, 1.8279, 0.7203194634200001]}, {"species": [{"element": "O", "occu": 1}], "abc": [0.672557, 0.899722999999999, 0.337263], "properties": {"magmom": -0.0}, "label": "O", "xyz": [2.053870208933997, 0.40249261260000346, 6.540168375369995]}, {"species": [{"element": "O", "occu": 1}], "abc": [0.672557, 0.335293, 0.772833999999999], "properties": {"magmom": -0.0}, "label": "O", "xyz": [1.5849721522199967, 4.058296268399997, 1.2445530797600055]}, {"species": [{"element": "O", "occu": 1}], "abc": [0.674982, 0.424981999999999, 0.25], "properties": {"magmom": 0.0}, "label": "O", "xyz": [-3.3306690738754696e-15, 1.8279000000000036, 4.501077858039994]}, {"species": [{"element": "O", "occu": 1}], "abc": [0.937541, 0.664706999999999, 0.837263], "properties": {"magmom": -0.0}, "label": "O", "xyz": [2.053870208933996, 4.0582926126000025, 4.051062215849995]}, {"species": [{"element": "O", "occu": 1}], "abc": [0.937541, 0.100276999999999, 0.272833999999999], "properties": {"magmom": -0.0}, "label": "O", "xyz": [-2.053873847780007, 4.0582962684, 4.05105692024]}, {"species": [{"element": "O", "occu": 1}], "abc": [0.681989, 0.931989, 0.75], "properties": {"magmom": 0.0}, "label": "O", "xyz": [3.6388459999999996, 1.8279000000000005, 4.57529053658]}, {"species": [{"element": "O", "occu": 1}], "abc": [0.327443, 0.100276999999999, 0.662737], "properties": {"magmom": -0.0}, "label": "O", "xyz": [1.5849757910659967, 3.253307387400004, -1.2445583753700054]}, {"species": [{"element": "O", "occu": 1}], "abc": [0.327443, 0.664706999999999, 0.227165999999999], "properties": {"magmom": -0.0}, "label": "O", "xyz": [2.053873847779993, -0.4024962684000003, 4.051056920240001]}, {"species": [{"element": "O", "occu": 1}], "abc": [0.325018, 0.575018, 0.75], "properties": {"magmom": 0.0}, "label": "O", "xyz": [3.638846, 1.8278999999999999, 0.7945321419600004]}, {"species": [{"element": "O", "occu": 1}], "abc": [0.934426, 0.684426, 0.25], "properties": {"magmom": 0.0}, "label": "O", "xyz": [-2.220446049250313e-16, 1.8279000000000003, 7.24890633972]}, {"species": [{"element": "O", "occu": 1}], "abc": [0.065574, 0.315573999999999, 0.75], "properties": {"magmom": 0.0}, "label": "O", "xyz": [3.6388459999999965, 1.8279000000000039, -1.953296339720005]}]}, "task_ids": null, "uncorrected_energy_per_atom": null, "energy_per_atom": -6.3987010565, "formation_energy_per_atom": -1.696427980999999, "energy_above_hull": 0.07889787587499601, "is_stable": false, "equilibrium_reaction_energy_per_atom": null, "decomposes_to": null, "xas": null, "grain_boundaries": null, "band_gap": 0.0, "cbm": null, "vbm": null, "efermi": 4.77314815, "is_gap_direct": null, "is_metal": null, "es_source_calc_id": null, "bandstructure": null, "dos": null, "dos_energy_up": null, "dos_energy_down": null, "is_magnetic": null, "ordering": null, "total_magnetization": 2.4900000000000006e-05, "total_magnetization_normalized_vol": null, "total_magnetization_normalized_formula_units": null, "num_magnetic_sites": null, "num_unique_magnetic_sites": null, "types_of_magnetic_species": null, "bulk_modulus": null, "shear_modulus": null, "universal_anisotropy": null, "homogeneous_poisson": null, "e_total": null, "e_ionic": null, "e_electronic": null, "n": null, "e_ij_max": null, "weighted_surface_energy_EV_PER_ANG2": null, "weighted_surface_energy": null, "weighted_work_function": null, "surface_anisotropy": null, "shape_factor": null, "has_reconstructed": null, "possible_species": null, "has_props": null, "theoretical": null, "database_IDs": null, "fields_not_requested": ["builder_meta", "nsites", "elements", "nelements", "composition", "composition_reduced", "chemsys", "symmetry", "property_name", "deprecated", "deprecation_reasons", "last_updated", "origins", "warnings", "task_ids", "uncorrected_energy_per_atom", "equilibrium_reaction_energy_per_atom", "decomposes_to", "xas", "grain_boundaries", "cbm", "vbm", "is_gap_direct", "is_metal", "es_source_calc_id", "bandstructure", "dos", "dos_energy_up", "dos_energy_down", "is_magnetic", "ordering", "total_magnetization_normalized_vol", "total_magnetization_normalized_formula_units", "num_magnetic_sites", "num_unique_magnetic_sites", "types_of_magnetic_species", "bulk_modulus", "shear_modulus", "universal_anisotropy", "homogeneous_poisson", "e_total", "e_ionic", "e_electronic", "n", "e_ij_max", "weighted_surface_energy_EV_PER_ANG2", "weighted_surface_energy", "weighted_work_function", "surface_anisotropy", "shape_factor", "has_reconstructed", "possible_species", "has_props", "theoretical", "database_IDs"]}