{
  "builder_meta": null,
  "nsites": null,
  "elements": null,
  "nelements": null,
  "composition": null,
  "composition_reduced": null,
  "formula_pretty": "Sb3Pb",
  "formula_anonymous": "AB3",
  "chemsys": null,
  "volume": 231.9724883799587,
  "density": 8.196018514834345,
  "density_atomic": 28.996561047494836,
  "symmetry": null,
  "property_name": null,
  "material_id": "mp-973199",
  "deprecated": null,
  "deprecation_reasons": null,
  "last_updated": null,
  "origins": null,
  "warnings": null,
  "structure": {
    "@module": "pymatgen.core.structure",
    "@class": "Structure",
    "charge": 0,
    "lattice": {
      "matrix": [
        [3.385567, -5.863973, 0.0],
        [3.385567, 5.863973, 0.0],
        [0.0, 0.0, 5.84229]
      ],
      "pbc": [true, true, true],
      "a": 6.771133085106067,
      "b": 6.771133085106067,
      "c": 5.84229,
      "alpha": 90.0,
      "beta": 90.0,
      "gamma": 119.99999106074328,
      "volume": 231.9724883799587
    },
    "properties": {},
    "sites": [
      {
        "species": [{ "element": "Sb", "occu": 1 }],
        "abc": [0.161348, 0.322697, 0.25],
        "properties": { "magmom": 0.0 },
        "label": "Sb",
        "xyz": [1.638766778515, 0.946146179577, 1.4605725]
      },
      {
        "species": [{ "element": "Sb", "occu": 1 }],
        "abc": [0.677303, 0.838652, 0.25],
        "properties": { "magmom": 0.0 },
        "label": "Sb",
        "xyz": [5.132367221485, 0.9461461795769996, 1.4605725]
      },
      {
        "species": [{ "element": "Sb", "occu": 1 }],
        "abc": [0.161348, 0.838652, 0.25],
        "properties": { "magmom": 0.0 },
        "label": "Sb",
        "xyz": [3.385567, 3.971692368791999, 1.4605725]
      },
      {
        "species": [{ "element": "Sb", "occu": 1 }],
        "abc": [0.838652, 0.677303, 0.75],
        "properties": { "magmom": 0.0 },
        "label": "Sb",
        "xyz": [5.132367221485, -0.9461461795769996, 4.381717500000001]
      },
      {
        "species": [{ "element": "Sb", "occu": 1 }],
        "abc": [0.322697, 0.161348, 0.75],
        "properties": { "magmom": 0.0 },
        "label": "Sb",
        "xyz": [1.638766778515, -0.946146179577, 4.381717500000001]
      },
      {
        "species": [{ "element": "Sb", "occu": 1 }],
        "abc": [0.838652, 0.161348, 0.75],
        "properties": { "magmom": 0.0 },
        "label": "Sb",
        "xyz": [3.385567, -3.971692368791999, 4.381717500000001]
      },
      {
        "species": [{ "element": "Pb", "occu": 1 }],
        "abc": [0.333333, 0.666667, 0.75],
        "properties": { "magmom": -0.0 },
        "label": "Pb",
        "xyz": [3.385567, 1.9546615759819999, 4.381717500000001]
      },
      {
        "species": [{ "element": "Pb", "occu": 1 }],
        "abc": [0.666667, 0.333333, 0.25],
        "properties": { "magmom": -0.0 },
        "label": "Pb",
        "xyz": [3.385567, -1.9546615759819999, 1.4605725]
      }
    ]
  },
  "task_ids": null,
  "uncorrected_energy_per_atom": null,
  "energy_per_atom": -33.13932591375,
  "formation_energy_per_atom": 0.21169441125000002,
  "energy_above_hull": 0.21169441125000002,
  "is_stable": false,
  "equilibrium_reaction_energy_per_atom": null,
  "decomposes_to": null,
  "xas": null,
  "grain_boundaries": null,
  "band_gap": 0.0,
  "cbm": null,
  "vbm": null,
  "efermi": 7.74071105,
  "is_gap_direct": null,
  "is_metal": null,
  "es_source_calc_id": null,
  "bandstructure": null,
  "dos": null,
  "dos_energy_up": null,
  "dos_energy_down": null,
  "is_magnetic": null,
  "ordering": null,
  "total_magnetization": 0.0047084,
  "total_magnetization_normalized_vol": null,
  "total_magnetization_normalized_formula_units": null,
  "num_magnetic_sites": null,
  "num_unique_magnetic_sites": null,
  "types_of_magnetic_species": null,
  "bulk_modulus": null,
  "shear_modulus": null,
  "universal_anisotropy": null,
  "homogeneous_poisson": null,
  "e_total": null,
  "e_ionic": null,
  "e_electronic": null,
  "n": null,
  "e_ij_max": null,
  "weighted_surface_energy_EV_PER_ANG2": null,
  "weighted_surface_energy": null,
  "weighted_work_function": null,
  "surface_anisotropy": null,
  "shape_factor": null,
  "has_reconstructed": null,
  "possible_species": null,
  "has_props": null,
  "theoretical": null,
  "database_IDs": null,
  "fields_not_requested": [
    "builder_meta",
    "nsites",
    "elements",
    "nelements",
    "composition",
    "composition_reduced",
    "chemsys",
    "symmetry",
    "property_name",
    "deprecated",
    "deprecation_reasons",
    "last_updated",
    "origins",
    "warnings",
    "task_ids",
    "uncorrected_energy_per_atom",
    "equilibrium_reaction_energy_per_atom",
    "decomposes_to",
    "xas",
    "grain_boundaries",
    "cbm",
    "vbm",
    "is_gap_direct",
    "is_metal",
    "es_source_calc_id",
    "bandstructure",
    "dos",
    "dos_energy_up",
    "dos_energy_down",
    "is_magnetic",
    "ordering",
    "total_magnetization_normalized_vol",
    "total_magnetization_normalized_formula_units",
    "num_magnetic_sites",
    "num_unique_magnetic_sites",
    "types_of_magnetic_species",
    "bulk_modulus",
    "shear_modulus",
    "universal_anisotropy",
    "homogeneous_poisson",
    "e_total",
    "e_ionic",
    "e_electronic",
    "n",
    "e_ij_max",
    "weighted_surface_energy_EV_PER_ANG2",
    "weighted_surface_energy",
    "weighted_work_function",
    "surface_anisotropy",
    "shape_factor",
    "has_reconstructed",
    "possible_species",
    "has_props",
    "theoretical",
    "database_IDs"
  ]
}
