{
  "builder_meta": null,
  "nsites": null,
  "elements": null,
  "nelements": null,
  "composition": null,
  "composition_reduced": null,
  "formula_pretty": "Sb7Mo3",
  "formula_anonymous": "A3B7",
  "chemsys": null,
  "volume": 445.25182129704604,
  "density": 8.504162906636422,
  "density_atomic": 22.2625910648523,
  "symmetry": null,
  "property_name": null,
  "material_id": "mp-1521",
  "deprecated": null,
  "deprecation_reasons": null,
  "last_updated": null,
  "origins": null,
  "warnings": null,
  "structure": {
    "@module": "pymatgen.core.structure",
    "@class": "Structure",
    "charge": 0,
    "lattice": {
      "matrix": [
        [7.85536334, 1e-8, -2.77729028],
        [-3.92768116, 6.80294402, -2.77729028],
        [-0.0, 0.0, 8.33187085]
      ],
      "pbc": [true, true, true],
      "a": 8.331871008530943,
      "b": 8.331870614289157,
      "c": 8.33187085,
      "alpha": 109.47122118325714,
      "beta": 109.47122022474466,
      "gamma": 109.47121843607798,
      "volume": 445.25182129704604
    },
    "properties": {},
    "sites": [
      {
        "species": [{ "element": "Sb", "occu": 1 }],
        "abc": [0.5, 0.75, 0.25],
        "properties": { "magmom": 0.0 },
        "label": "Sb",
        "xyz": [0.9819208000000001, 5.102208020000001, -1.3886451375000002]
      },
      {
        "species": [{ "element": "Sb", "occu": 1 }],
        "abc": [0.75, 0.5, 0.25],
        "properties": { "magmom": 0.0 },
        "label": "Sb",
        "xyz": [3.927681925, 3.4014720175, -1.3886451375000002]
      },
      {
        "species": [{ "element": "Sb", "occu": 1 }],
        "abc": [0.25, 0.5, 0.75],
        "properties": { "magmom": 0.0 },
        "label": "Sb",
        "xyz": [2.5500000000455714e-7, 3.4014720125, 4.165935427499999]
      },
      {
        "species": [{ "element": "Sb", "occu": 1 }],
        "abc": [0.75, 0.25, 0.5],
        "properties": { "magmom": 0.0 },
        "label": "Sb",
        "xyz": [4.9096022150000005, 1.7007360125, 1.388645145]
      },
      {
        "species": [{ "element": "Sb", "occu": 1 }],
        "abc": [0.25, 0.75, 0.5],
        "properties": { "magmom": 0.0 },
        "label": "Sb",
        "xyz": [-0.9819200349999999, 5.102208017500001, 1.388645145]
      },
      {
        "species": [{ "element": "Sb", "occu": 1 }],
        "abc": [0.5, 0.25, 0.75],
        "properties": { "magmom": 0.0 },
        "label": "Sb",
        "xyz": [2.94576138, 1.70073601, 4.165935427499999]
      },
      {
        "species": [{ "element": "Sb", "occu": 1 }],
        "abc": [0.32102784, 0.32102784, 0.32102784],
        "properties": { "magmom": 0.0 },
        "label": "Sb",
        "xyz": [1.2608953264518914, 2.183934427591795, 0.8915875028516738]
      },
      {
        "species": [{ "element": "Sb", "occu": 1 }],
        "abc": [0.32102784, 0.0, 0.0],
        "properties": { "magmom": 0.0 },
        "label": "Sb",
        "xyz": [2.521790325455386, 3.2102784e-9, -0.8915874996413952]
      },
      {
        "species": [{ "element": "Sb", "occu": 1 }],
        "abc": [0.0, 0.32102784, -0.0],
        "properties": { "magmom": 0.0 },
        "label": "Sb",
        "xyz": [-1.2608949990034946, 2.183934424381517, -0.8915874996413952]
      },
      {
        "species": [{ "element": "Sb", "occu": 1 }],
        "abc": [-0.0, -0.0, 0.32102784],
        "properties": { "magmom": 0.0 },
        "label": "Sb",
        "xyz": [0.0, 0.0, 2.674762502134464]
      },
      {
        "species": [{ "element": "Sb", "occu": 1 }],
        "abc": [-0.0, 0.67897216, 0.0],
        "properties": { "magmom": 0.0 },
        "label": "Sb",
        "xyz": [-2.666786160996506, 4.619009595618484, -1.8857027803586048]
      },
      {
        "species": [{ "element": "Sb", "occu": 1 }],
        "abc": [-0.0, -0.0, 0.67897216],
        "properties": { "magmom": 0.0 },
        "label": "Sb",
        "xyz": [0.0, 0.0, 5.657108347865536]
      },
      {
        "species": [{ "element": "Sb", "occu": 1 }],
        "abc": [0.67897216, -0.0, -0.0],
        "properties": { "magmom": 0.0 },
        "label": "Sb",
        "xyz": [5.333573014544615, 6.7897216000000005e-9, -1.8857027803586048]
      },
      {
        "species": [{ "element": "Sb", "occu": 1 }],
        "abc": [0.67897216, 0.67897216, 0.67897216],
        "properties": { "magmom": 0.0 },
        "label": "Sb",
        "xyz": [2.6667868535481087, 4.619009602408205, 1.8857027871483267]
      },
      {
        "species": [{ "element": "Mo", "occu": 1 }],
        "abc": [-0.0, 0.34151295, 0.34151295],
        "properties": { "magmom": -0.0 },
        "label": "Mo",
        "xyz": [-1.3413539796110219, 2.323293480955059, 1.8969611964733815]
      },
      {
        "species": [{ "element": "Mo", "occu": 1 }],
        "abc": [0.34151295, -0.0, 0.34151295],
        "properties": { "magmom": -0.0 },
        "label": "Mo",
        "xyz": [2.682708307565253, 3.4151295e-9, 1.8969611964733815]
      },
      {
        "species": [{ "element": "Mo", "occu": 1 }],
        "abc": [0.65848705, 0.0, 0.65848705],
        "properties": { "magmom": -0.0 },
        "label": "Mo",
        "xyz": [5.172655032434747, 6.5848705e-9, 3.6576193735266185]
      },
      {
        "species": [{ "element": "Mo", "occu": 1 }],
        "abc": [0.65848705, 0.65848705, 0.0],
        "properties": { "magmom": -0.0 },
        "label": "Mo",
        "xyz": [2.5863278520457693, 4.479650545629811, -3.6576193669417476]
      },
      {
        "species": [{ "element": "Mo", "occu": 1 }],
        "abc": [0.34151295, 0.34151295, -0.0],
        "properties": { "magmom": -0.0 },
        "label": "Mo",
        "xyz": [1.3413543279542313, 2.3232934843701885, -1.8969611930582517]
      },
      {
        "species": [{ "element": "Mo", "occu": 1 }],
        "abc": [0.0, 0.65848705, 0.65848705],
        "properties": { "magmom": -0.0 },
        "label": "Mo",
        "xyz": [-2.586327180388978, 4.479650539044941, 3.6576193735266185]
      }
    ]
  },
  "task_ids": null,
  "uncorrected_energy_per_atom": null,
  "energy_per_atom": -25.813308841999998,
  "formation_energy_per_atom": 0.002706001000001,
  "energy_above_hull": 0.0027060009999990003,
  "is_stable": false,
  "equilibrium_reaction_energy_per_atom": null,
  "decomposes_to": null,
  "xas": null,
  "grain_boundaries": null,
  "band_gap": 0.0,
  "cbm": null,
  "vbm": null,
  "efermi": 8.47011274,
  "is_gap_direct": null,
  "is_metal": null,
  "es_source_calc_id": null,
  "bandstructure": null,
  "dos": null,
  "dos_energy_up": null,
  "dos_energy_down": null,
  "is_magnetic": null,
  "ordering": null,
  "total_magnetization": 1e-7,
  "total_magnetization_normalized_vol": null,
  "total_magnetization_normalized_formula_units": null,
  "num_magnetic_sites": null,
  "num_unique_magnetic_sites": null,
  "types_of_magnetic_species": null,
  "bulk_modulus": null,
  "shear_modulus": null,
  "universal_anisotropy": null,
  "homogeneous_poisson": null,
  "e_total": null,
  "e_ionic": null,
  "e_electronic": null,
  "n": null,
  "e_ij_max": null,
  "weighted_surface_energy_EV_PER_ANG2": null,
  "weighted_surface_energy": null,
  "weighted_work_function": null,
  "surface_anisotropy": null,
  "shape_factor": null,
  "has_reconstructed": null,
  "possible_species": null,
  "has_props": null,
  "theoretical": null,
  "database_IDs": null,
  "fields_not_requested": [
    "builder_meta",
    "nsites",
    "elements",
    "nelements",
    "composition",
    "composition_reduced",
    "chemsys",
    "symmetry",
    "property_name",
    "deprecated",
    "deprecation_reasons",
    "last_updated",
    "origins",
    "warnings",
    "task_ids",
    "uncorrected_energy_per_atom",
    "equilibrium_reaction_energy_per_atom",
    "decomposes_to",
    "xas",
    "grain_boundaries",
    "cbm",
    "vbm",
    "is_gap_direct",
    "is_metal",
    "es_source_calc_id",
    "bandstructure",
    "dos",
    "dos_energy_up",
    "dos_energy_down",
    "is_magnetic",
    "ordering",
    "total_magnetization_normalized_vol",
    "total_magnetization_normalized_formula_units",
    "num_magnetic_sites",
    "num_unique_magnetic_sites",
    "types_of_magnetic_species",
    "bulk_modulus",
    "shear_modulus",
    "universal_anisotropy",
    "homogeneous_poisson",
    "e_total",
    "e_ionic",
    "e_electronic",
    "n",
    "e_ij_max",
    "weighted_surface_energy_EV_PER_ANG2",
    "weighted_surface_energy",
    "weighted_work_function",
    "surface_anisotropy",
    "shape_factor",
    "has_reconstructed",
    "possible_species",
    "has_props",
    "theoretical",
    "database_IDs"
  ]
}
