{
  "builder_meta": null,
  "nsites": null,
  "elements": null,
  "nelements": null,
  "composition": null,
  "composition_reduced": null,
  "formula_pretty": "Sb8Te3",
  "formula_anonymous": "A3B8",
  "chemsys": null,
  "volume": 358.1852081711143,
  "density": 6.290467046902225,
  "density_atomic": 32.56229165191948,
  "symmetry": null,
  "property_name": null,
  "material_id": "mp-12826",
  "deprecated": null,
  "deprecation_reasons": null,
  "last_updated": null,
  "origins": null,
  "warnings": null,
  "structure": {
    "@module": "pymatgen.core.structure",
    "@class": "Structure",
    "charge": 0,
    "lattice": {
      "matrix": [
        [21.645505, -2.187484, 0.0],
        [21.645505, 2.187484, 0.0],
        [21.424439, 0.0, 3.782378999999999]
      ],
      "pbc": [true, true, true],
      "a": 21.755757237000072,
      "b": 21.755757237000072,
      "c": 21.75575733833143,
      "alpha": 11.541382437072869,
      "beta": 11.541382437072869,
      "gamma": 11.541381760620459,
      "volume": 358.1852081711142
    },
    "properties": {},
    "sites": [
      {
        "species": [{ "element": "Sb", "occu": 1 }],
        "abc": [0.178389, 0.178389, 0.178389],
        "properties": { "magmom": 0.0 },
        "label": "Sb",
        "xyz": [11.544524231660999, 0.0, 0.6747348074309998]
      },
      {
        "species": [{ "element": "Sb", "occu": 1 }],
        "abc": [0.363718999999999, 0.363718999999999, 0.363718999999999],
        "properties": { "magmom": 0.0 },
        "label": "Sb",
        "xyz": [23.538238394830937, 0.0, 1.375723107500996]
      },
      {
        "species": [{ "element": "Sb", "occu": 1 }],
        "abc": [0.636281, 0.636281, 0.636281],
        "properties": { "magmom": 0.0 },
        "label": "Sb",
        "xyz": [41.177210605169, 0.0, 2.4066558924989994]
      },
      {
        "species": [{ "element": "Sb", "occu": 1 }],
        "abc": [0.821611, 0.821611, 0.821611],
        "properties": { "magmom": 0.0 },
        "label": "Sb",
        "xyz": [53.170924768339, 0.0, 3.107644192568999]
      },
      {
        "species": [{ "element": "Sb", "occu": 1 }],
        "abc": [0.547701, 0.547701, 0.547701],
        "properties": { "magmom": -0.0 },
        "label": "Sb",
        "xyz": [35.444716132748994, 0.0, 2.0716127606789994]
      },
      {
        "species": [{ "element": "Sb", "occu": 1 }],
        "abc": [0.095361, 0.095361, 0.095361],
        "properties": { "magmom": 0.0 },
        "label": "Sb",
        "xyz": [6.171329932089, 0.0, 0.36069144381899987]
      },
      {
        "species": [{ "element": "Sb", "occu": 1 }],
        "abc": [0.904639, 0.904639, 0.904639],
        "properties": { "magmom": 0.0 },
        "label": "Sb",
        "xyz": [58.544119067911, 0.0, 3.421687556180999]
      },
      {
        "species": [{ "element": "Sb", "occu": 1 }],
        "abc": [0.452299, 0.452299, 0.452299],
        "properties": { "magmom": -0.0 },
        "label": "Sb",
        "xyz": [29.270732867251002, 0.0, 1.7107662393209995]
      },
      {
        "species": [{ "element": "Te", "occu": 1 }],
        "abc": [0.276835, 0.276835, 0.276835],
        "properties": { "magmom": -0.0 },
        "label": "Te",
        "xyz": [17.915501323915002, 0.0, 1.0470948904649997]
      },
      {
        "species": [{ "element": "Te", "occu": 1 }],
        "abc": [0.723163999999999, 0.723165, 0.723163999999999],
        "properties": { "magmom": -0.0 },
        "label": "Te",
        "xyz": [46.799904606140956, 2.1874840019364683e-6, 2.7352803271559956]
      },
      {
        "species": [{ "element": "Te", "occu": 1 }],
        "abc": [0.0, 0.0, 0.0],
        "properties": { "magmom": -0.0 },
        "label": "Te",
        "xyz": [0.0, 0.0, 0.0]
      }
    ]
  },
  "task_ids": null,
  "uncorrected_energy_per_atom": null,
  "energy_per_atom": -4.040758722727272,
  "formation_energy_per_atom": -0.18058348636363503,
  "energy_above_hull": 0.0029677367532480003,
  "is_stable": false,
  "equilibrium_reaction_energy_per_atom": null,
  "decomposes_to": null,
  "xas": null,
  "grain_boundaries": null,
  "band_gap": 0.0,
  "cbm": null,
  "vbm": null,
  "efermi": 6.44148248,
  "is_gap_direct": null,
  "is_metal": null,
  "es_source_calc_id": null,
  "bandstructure": null,
  "dos": null,
  "dos_energy_up": null,
  "dos_energy_down": null,
  "is_magnetic": null,
  "ordering": null,
  "total_magnetization": 0.006062,
  "total_magnetization_normalized_vol": null,
  "total_magnetization_normalized_formula_units": null,
  "num_magnetic_sites": null,
  "num_unique_magnetic_sites": null,
  "types_of_magnetic_species": null,
  "bulk_modulus": null,
  "shear_modulus": null,
  "universal_anisotropy": null,
  "homogeneous_poisson": null,
  "e_total": null,
  "e_ionic": null,
  "e_electronic": null,
  "n": null,
  "e_ij_max": null,
  "weighted_surface_energy_EV_PER_ANG2": null,
  "weighted_surface_energy": null,
  "weighted_work_function": null,
  "surface_anisotropy": null,
  "shape_factor": null,
  "has_reconstructed": null,
  "possible_species": null,
  "has_props": null,
  "theoretical": null,
  "database_IDs": null,
  "fields_not_requested": [
    "builder_meta",
    "nsites",
    "elements",
    "nelements",
    "composition",
    "composition_reduced",
    "chemsys",
    "symmetry",
    "property_name",
    "deprecated",
    "deprecation_reasons",
    "last_updated",
    "origins",
    "warnings",
    "task_ids",
    "uncorrected_energy_per_atom",
    "equilibrium_reaction_energy_per_atom",
    "decomposes_to",
    "xas",
    "grain_boundaries",
    "cbm",
    "vbm",
    "is_gap_direct",
    "is_metal",
    "es_source_calc_id",
    "bandstructure",
    "dos",
    "dos_energy_up",
    "dos_energy_down",
    "is_magnetic",
    "ordering",
    "total_magnetization_normalized_vol",
    "total_magnetization_normalized_formula_units",
    "num_magnetic_sites",
    "num_unique_magnetic_sites",
    "types_of_magnetic_species",
    "bulk_modulus",
    "shear_modulus",
    "universal_anisotropy",
    "homogeneous_poisson",
    "e_total",
    "e_ionic",
    "e_electronic",
    "n",
    "e_ij_max",
    "weighted_surface_energy_EV_PER_ANG2",
    "weighted_surface_energy",
    "weighted_work_function",
    "surface_anisotropy",
    "shape_factor",
    "has_reconstructed",
    "possible_species",
    "has_props",
    "theoretical",
    "database_IDs"
  ]
}
