{"builder_meta": null, "nsites": null, "elements": null, "nelements": null, "composition": null, "composition_reduced": null, "formula_pretty": "SbAs", "formula_anonymous": "AB", "chemsys": null, "volume": 53.197158484576754, "density": 6.139378301118916, "density_atomic": 26.598579242288377, "symmetry": null, "property_name": null, "material_id": "mp-1219457", "deprecated": null, "deprecation_reasons": null, "last_updated": null, "origins": null, "warnings": null, "structure": {"@module": "pymatgen.core.structure", "@class": "Structure", "charge": 0, "lattice": {"matrix": [[-2.03271455, -3.5207646500000003, -7e-08], [4.06542809, 0.0, 2e-08], [2e-08, -2.34717537, 3.71659426]], "pbc": [true, true, true], "a": 4.0654289026462305, "b": 4.06542809, "c": 4.395714402801845, "alpha": 89.99999950098989, "beta": 62.455930800953794, "gamma": 120.00000160583556, "volume": 53.19715848457676}, "properties": {}, "sites": [{"species": [{"element": "Sb", "occu": 1}], "abc": [0.54180018, 0.77090059, 0.68729823], "properties": {"magmom": 0.0}, "label": "Sb", "xyz": [2.0327158178509195, -3.5207603984082323, 2.554408634018159]}, {"species": [{"element": "As", "occu": 1}], "abc": [0.45819982000000004, 0.22909941, 0.31270177], "properties": {"magmom": 0.0}, "label": "As", "xyz": [-2.2578509187860526e-06, -2.347179621591768, 1.162185575981841]}]}, "task_ids": null, "uncorrected_energy_per_atom": null, "energy_per_atom": -20.208158805, "formation_energy_per_atom": -0.001235446249999, "energy_above_hull": 0.0, "is_stable": true, "equilibrium_reaction_energy_per_atom": null, "decomposes_to": null, "xas": null, "grain_boundaries": null, "band_gap": 0.0, "cbm": null, "vbm": null, "efermi": 5.8716064900000005, "is_gap_direct": null, "is_metal": null, "es_source_calc_id": null, "bandstructure": null, "dos": null, "dos_energy_up": null, "dos_energy_down": null, "is_magnetic": null, "ordering": null, "total_magnetization": 0.0, "total_magnetization_normalized_vol": null, "total_magnetization_normalized_formula_units": null, "num_magnetic_sites": null, "num_unique_magnetic_sites": null, "types_of_magnetic_species": null, "bulk_modulus": null, "shear_modulus": null, "universal_anisotropy": null, "homogeneous_poisson": null, "e_total": null, "e_ionic": null, "e_electronic": null, "n": null, "e_ij_max": null, "weighted_surface_energy_EV_PER_ANG2": null, "weighted_surface_energy": null, "weighted_work_function": null, "surface_anisotropy": null, "shape_factor": null, "has_reconstructed": null, "possible_species": null, "has_props": null, "theoretical": null, "database_IDs": null, "fields_not_requested": ["builder_meta", "nsites", "elements", "nelements", "composition", "composition_reduced", "chemsys", "symmetry", "property_name", "deprecated", "deprecation_reasons", "last_updated", "origins", "warnings", "task_ids", "uncorrected_energy_per_atom", "equilibrium_reaction_energy_per_atom", "decomposes_to", "xas", "grain_boundaries", "cbm", "vbm", "is_gap_direct", "is_metal", "es_source_calc_id", "bandstructure", "dos", "dos_energy_up", "dos_energy_down", "is_magnetic", "ordering", "total_magnetization_normalized_vol", "total_magnetization_normalized_formula_units", "num_magnetic_sites", "num_unique_magnetic_sites", "types_of_magnetic_species", "bulk_modulus", "shear_modulus", "universal_anisotropy", "homogeneous_poisson", "e_total", "e_ionic", "e_electronic", "n", "e_ij_max", "weighted_surface_energy_EV_PER_ANG2", "weighted_surface_energy", "weighted_work_function", "surface_anisotropy", "shape_factor", "has_reconstructed", "possible_species", "has_props", "theoretical", "database_IDs"]}