{
  "builder_meta": null,
  "nsites": null,
  "elements": null,
  "nelements": null,
  "composition": null,
  "composition_reduced": null,
  "formula_pretty": "SbBr3",
  "formula_anonymous": "AB3",
  "chemsys": null,
  "volume": 580.0819480218846,
  "density": 4.138990220460299,
  "density_atomic": 36.25512175136779,
  "symmetry": null,
  "property_name": null,
  "material_id": "mp-570005",
  "deprecated": null,
  "deprecation_reasons": null,
  "last_updated": null,
  "origins": null,
  "warnings": null,
  "structure": {
    "@module": "pymatgen.core.structure",
    "@class": "Structure",
    "charge": 0.0,
    "lattice": {
      "matrix": [
        [6.87425072, -0.0, 0.0],
        [-0.0, 8.48625387, 0.0],
        [0.0, 0.0, 9.94369885]
      ],
      "pbc": [true, true, true],
      "a": 6.87425072,
      "b": 8.48625387,
      "c": 9.94369885,
      "alpha": 90.0,
      "beta": 90.0,
      "gamma": 90.0,
      "volume": 580.0819480218846
    },
    "properties": {},
    "sites": [
      {
        "species": [{ "element": "Sb", "occu": 1 }],
        "abc": [0.4790739, 0.49378261, 0.25],
        "properties": { "magmom": 0.0 },
        "label": "Sb",
        "xyz": [3.293274102008208, 4.190364585051201, 2.4859247125]
      },
      {
        "species": [{ "element": "Sb", "occu": 1 }],
        "abc": [0.979073899999999, 0.00621739, 0.75],
        "properties": { "magmom": 0.0 },
        "label": "Sb",
        "xyz": [6.730399462008202, 0.0527623499487993, 7.4577741375]
      },
      {
        "species": [{ "element": "Sb", "occu": 1 }],
        "abc": [0.5209261, 0.50621739, 0.75],
        "properties": { "magmom": 0.0 },
        "label": "Sb",
        "xyz": [3.5809766179917917, 4.2958892849487995, 7.4577741375]
      },
      {
        "species": [{ "element": "Sb", "occu": 1 }],
        "abc": [0.0209261, 0.99378261, 0.25],
        "properties": { "magmom": 0.0 },
        "label": "Sb",
        "xyz": [0.143851257991792, 8.433491520051202, 2.4859247125]
      },
      {
        "species": [{ "element": "Br", "occu": 1 }],
        "abc": [0.63947152, 0.32013263000000003, 0.9340346900000001],
        "properties": { "magmom": 0.0 },
        "label": "Br",
        "xyz": [4.395887556779494, 2.7167267702507787, 9.287759672813108]
      },
      {
        "species": [{ "element": "Br", "occu": 1 }],
        "abc": [0.66709426, 0.07685878, 0.25],
        "properties": { "magmom": -0.0 },
        "label": "Br",
        "xyz": [4.585773197112868, 0.6522431192184787, 2.4859247125]
      },
      {
        "species": [{ "element": "Br", "occu": 1 }],
        "abc": [0.13947152000000002, 0.17986737, 0.06596531],
        "properties": { "magmom": 0.0 },
        "label": "Br",
        "xyz": [0.9587621967794945, 1.526400164749222, 0.6559391771868935]
      },
      {
        "species": [{ "element": "Br", "occu": 1 }],
        "abc": [0.13947152000000002, 0.17986737, 0.43403469],
        "properties": { "magmom": 0.0 },
        "label": "Br",
        "xyz": [0.9587621967794945, 1.526400164749222, 4.315910247813107]
      },
      {
        "species": [{ "element": "Br", "occu": 1 }],
        "abc": [0.16709426, 0.42314122, 0.75],
        "properties": { "magmom": -0.0 },
        "label": "Br",
        "xyz": [1.1486478371128672, 3.5908838157815217, 7.4577741375]
      },
      {
        "species": [{ "element": "Br", "occu": 1 }],
        "abc": [0.33290574, 0.92314122, 0.75],
        "properties": { "magmom": -0.0 },
        "label": "Br",
        "xyz": [2.288477522887133, 7.8340107507815215, 7.4577741375]
      },
      {
        "species": [{ "element": "Br", "occu": 1 }],
        "abc": [0.36052848, 0.67986737, 0.06596531],
        "properties": { "magmom": 0.0 },
        "label": "Br",
        "xyz": [2.4783631632205054, 5.769527099749222, 0.6559391771868935]
      },
      {
        "species": [{ "element": "Br", "occu": 1 }],
        "abc": [0.86052848, 0.82013263, 0.9340346900000001],
        "properties": { "magmom": 0.0 },
        "label": "Br",
        "xyz": [5.915488523220506, 6.9598537052507785, 9.287759672813108]
      },
      {
        "species": [{ "element": "Br", "occu": 1 }],
        "abc": [0.36052848, 0.67986737, 0.43403469],
        "properties": { "magmom": 0.0 },
        "label": "Br",
        "xyz": [2.4783631632205054, 5.769527099749222, 4.315910247813107]
      },
      {
        "species": [{ "element": "Br", "occu": 1 }],
        "abc": [0.86052848, 0.82013263, 0.56596531],
        "properties": { "magmom": 0.0 },
        "label": "Br",
        "xyz": [5.915488523220506, 6.9598537052507785, 5.627788602186894]
      },
      {
        "species": [{ "element": "Br", "occu": 1 }],
        "abc": [0.63947152, 0.32013263000000003, 0.56596531],
        "properties": { "magmom": 0.0 },
        "label": "Br",
        "xyz": [4.395887556779494, 2.7167267702507787, 5.627788602186894]
      },
      {
        "species": [{ "element": "Br", "occu": 1 }],
        "abc": [0.8329057400000001, 0.57685878, 0.25],
        "properties": { "magmom": -0.0 },
        "label": "Br",
        "xyz": [5.7256028828871335, 4.895370054218479, 2.4859247125]
      }
    ]
  },
  "task_ids": null,
  "uncorrected_energy_per_atom": null,
  "energy_per_atom": -3.268649564375,
  "formation_energy_per_atom": -1.008689353124999,
  "energy_above_hull": 0.0,
  "is_stable": true,
  "equilibrium_reaction_energy_per_atom": null,
  "decomposes_to": null,
  "xas": null,
  "grain_boundaries": null,
  "band_gap": 3.1173,
  "cbm": null,
  "vbm": null,
  "efermi": -0.6422745,
  "is_gap_direct": null,
  "is_metal": null,
  "es_source_calc_id": null,
  "bandstructure": null,
  "dos": null,
  "dos_energy_up": null,
  "dos_energy_down": null,
  "is_magnetic": null,
  "ordering": null,
  "total_magnetization": 0.0,
  "total_magnetization_normalized_vol": null,
  "total_magnetization_normalized_formula_units": null,
  "num_magnetic_sites": null,
  "num_unique_magnetic_sites": null,
  "types_of_magnetic_species": null,
  "bulk_modulus": null,
  "shear_modulus": null,
  "universal_anisotropy": null,
  "homogeneous_poisson": null,
  "e_total": null,
  "e_ionic": null,
  "e_electronic": null,
  "n": null,
  "e_ij_max": null,
  "weighted_surface_energy_EV_PER_ANG2": null,
  "weighted_surface_energy": null,
  "weighted_work_function": null,
  "surface_anisotropy": null,
  "shape_factor": null,
  "has_reconstructed": null,
  "possible_species": null,
  "has_props": null,
  "theoretical": null,
  "database_IDs": null,
  "fields_not_requested": [
    "builder_meta",
    "nsites",
    "elements",
    "nelements",
    "composition",
    "composition_reduced",
    "chemsys",
    "symmetry",
    "property_name",
    "deprecated",
    "deprecation_reasons",
    "last_updated",
    "origins",
    "warnings",
    "task_ids",
    "uncorrected_energy_per_atom",
    "equilibrium_reaction_energy_per_atom",
    "decomposes_to",
    "xas",
    "grain_boundaries",
    "cbm",
    "vbm",
    "is_gap_direct",
    "is_metal",
    "es_source_calc_id",
    "bandstructure",
    "dos",
    "dos_energy_up",
    "dos_energy_down",
    "is_magnetic",
    "ordering",
    "total_magnetization_normalized_vol",
    "total_magnetization_normalized_formula_units",
    "num_magnetic_sites",
    "num_unique_magnetic_sites",
    "types_of_magnetic_species",
    "bulk_modulus",
    "shear_modulus",
    "universal_anisotropy",
    "homogeneous_poisson",
    "e_total",
    "e_ionic",
    "e_electronic",
    "n",
    "e_ij_max",
    "weighted_surface_energy_EV_PER_ANG2",
    "weighted_surface_energy",
    "weighted_work_function",
    "surface_anisotropy",
    "shape_factor",
    "has_reconstructed",
    "possible_species",
    "has_props",
    "theoretical",
    "database_IDs"
  ]
}
