{"builder_meta": null, "nsites": null, "elements": null, "nelements": null, "composition": null, "composition_reduced": null, "formula_pretty": "SbCl5", "formula_anonymous": "AB5", "chemsys": null, "volume": 1411.6646060338362, "density": 2.813941454748994, "density_atomic": 29.40967929237159, "symmetry": null, "property_name": null, "material_id": "mp-570796", "deprecated": null, "deprecation_reasons": null, "last_updated": null, "origins": null, "warnings": null, "structure": {"@module": "pymatgen.core.structure", "@class": "Structure", "charge": 0, "lattice": {"matrix": [[9.22024386, 0.0, -3.07776511], [0.0, 12.21183518, 0.0], [-0.0103983, 0.0, 12.54089128]], "pbc": [true, true, true], "a": 9.720367015200662, "b": 12.21183518, "c": 12.540895590882771, "alpha": 90.0, "beta": 108.5067833071178, "gamma": 90.0, "volume": 1411.6646060338362}, "properties": {}, "sites": [{"species": [{"element": "Sb", "occu": 1}], "abc": [0.18796286, 0.12763162, 0.70337651], "properties": {"magmom": -0.0}, "label": "Sb", "xyz": [1.7257494858591067, 1.5586163071963917, 8.242462808332018]}, {"species": [{"element": "Sb", "occu": 1}], "abc": [0.3788376, 0.86819402, 0.188102499999999], "properties": {"magmom": -0.0}, "label": "Sb", "xyz": [3.4910191091113862, 10.602242276501624, 1.1929998543600513]}, {"species": [{"element": "Sb", "occu": 1}], "abc": [0.81203714, 0.6276316200000001, 0.79662349], "properties": {"magmom": -0.0}, "label": "Sb", "xyz": [7.478896924140894, 7.664533897196392, 7.491109001667982]}, {"species": [{"element": "Sb", "occu": 1}], "abc": [0.6211624, 0.36819402, 0.3118975], "properties": {"magmom": -0.0}, "label": "Sb", "xyz": [5.724025600888614, 4.496324686501624, 1.999680675639936]}, {"species": [{"element": "Sb", "occu": 1}], "abc": [0.6211624, 0.13180598, 0.811897499999999], "properties": {"magmom": -0.0}, "label": "Sb", "xyz": [5.7188264508886135, 1.6095929034983762, 8.270126315639924]}, {"species": [{"element": "Sb", "occu": 1}], "abc": [0.18796286, 0.37236838, 0.20337651], "properties": {"magmom": -0.0}, "label": "Sb", "xyz": [1.7309486358591066, 4.547301282803608, 1.9720171683320182]}, {"species": [{"element": "Sb", "occu": 1}], "abc": [0.3788376, 0.63180598, 0.6881025], "properties": {"magmom": -0.0}, "label": "Sb", "xyz": [3.485819959111386, 7.715510493498376, 7.463445494360063]}, {"species": [{"element": "Sb", "occu": 1}], "abc": [0.81203714, 0.87236838, 0.29662349], "properties": {"magmom": -0.0}, "label": "Sb", "xyz": [7.484096074140894, 10.653218872803608, 1.2206633616679818]}, {"species": [{"element": "Cl", "occu": 1}], "abc": [0.96778768, 0.99588465, 0.25335928], "properties": {"magmom": 0.0}, "label": "Cl", "xyz": [8.920603908502422, 12.161579204091987, 0.1987280298672336]}, {"species": [{"element": "Cl", "occu": 1}], "abc": [0.60392475, 0.4778382, 0.15520613], "properties": {"magmom": -0.0}, "label": "Cl", "xyz": [5.566719588187956, 5.835281341107875, 0.08768467770407384]}, {"species": [{"element": "Cl", "occu": 1}], "abc": [0.39607525, 0.5221618, 0.8447938700000001], "properties": {"magmom": -0.0}, "label": "Cl", "xyz": [3.643125971812044, 6.376553838892124, 9.375441492295927]}, {"species": [{"element": "Cl", "occu": 1}], "abc": [0.78569486, 0.52026173, 0.9427145], "properties": {"magmom": 0.0}, "label": "Cl", "xyz": [7.23449558056321, 6.353350497221661, 9.404295825365226]}, {"species": [{"element": "Cl", "occu": 1}], "abc": [0.781954199999999, 0.48732663, 0.43495399], "properties": {"magmom": 0.0}, "label": "Cl", "xyz": [7.205285629276987, 5.951152484384843, 3.0480393460142485]}, {"species": [{"element": "Cl", "occu": 1}], "abc": [0.21847519, 0.74767096, 0.22915894], "properties": {"magmom": 0.0}, "label": "Cl", "xyz": [2.0120116657540317, 9.130434532392373, 2.2014420351974224]}, {"species": [{"element": "Cl", "occu": 1}], "abc": [0.59786523, 0.25884731, 0.45817649], "properties": {"magmom": 0.0}, "label": "Cl", "xyz": [5.507698959419021, 3.1610006865063656, 3.905852802765882]}, {"species": [{"element": "Cl", "occu": 1}], "abc": [0.97482547, 0.75432232, 0.41837338], "properties": {"magmom": 0.0}, "label": "Cl", "xyz": [8.98377818242186, 9.211659844435218, 2.2464912531207752]}, {"species": [{"element": "Cl", "occu": 1}], "abc": [0.40780678000000004, 0.48165729, 0.33445165], "properties": {"magmom": 0.0}, "label": "Cl", "xyz": [3.756600230769176, 5.881919438725462, 2.939188301961166]}, {"species": [{"element": "Cl", "occu": 1}], "abc": [0.59219322, 0.98165729, 0.16554835], "properties": {"magmom": 0.0}, "label": "Cl", "xyz": [5.458444479230823, 11.987837028725462, 0.2534922280388343]}, {"species": [{"element": "Cl", "occu": 1}], "abc": [0.39607525, 0.9778382, 0.34479387], "properties": {"magmom": -0.0}, "label": "Cl", "xyz": [3.648325121812044, 11.941198931107875, 3.1049958522959265]}, {"species": [{"element": "Cl", "occu": 1}], "abc": [0.21430514, 0.47973827, 0.057285499999999004], "properties": {"magmom": 0.0}, "label": "Cl", "xyz": [1.9753499794367904, 5.858484682778339, 0.05883034463476211]}, {"species": [{"element": "Cl", "occu": 1}], "abc": [0.7815248100000001, 0.25232904, 0.77084106], "properties": {"magmom": 0.0}, "label": "Cl", "xyz": [7.19783389424597, 3.081400647607627, 7.261684134802577]}, {"species": [{"element": "Cl", "occu": 1}], "abc": [0.21847519, 0.75232904, 0.72915894], "properties": {"magmom": 0.0}, "label": "Cl", "xyz": [2.0068125157540315, 9.187318237607627, 8.471887675197424]}, {"species": [{"element": "Cl", "occu": 1}], "abc": [0.21430514, 0.020261730000000002, 0.5572855], "properties": {"magmom": 0.0}, "label": "Cl", "xyz": [1.9701508294367904, 0.24743290722166142, 6.329275984634775]}, {"species": [{"element": "Cl", "occu": 1}], "abc": [0.97482547, 0.74567768, 0.91837338], "properties": {"magmom": 0.0}, "label": "Cl", "xyz": [8.97857903242186, 9.106092925564782, 8.516936893120775]}, {"species": [{"element": "Cl", "occu": 1}], "abc": [0.7815248100000001, 0.24767096, 0.27084106], "properties": {"magmom": 0.0}, "label": "Cl", "xyz": [7.203033044245969, 3.024516942392373, 0.9912384948025776]}, {"species": [{"element": "Cl", "occu": 1}], "abc": [0.2067635, 0.23703488, 0.85993495], "properties": {"magmom": 0.0}, "label": "Cl", "xyz": [1.897468029756525, 2.894630886471078, 10.14798122950075]}, {"species": [{"element": "Cl", "occu": 1}], "abc": [0.59565231, 0.75804773, 0.31822736], "properties": {"magmom": -0.0}, "label": "Cl", "xyz": [5.488750530414828, 9.257153937333142, 2.157576826672517]}, {"species": [{"element": "Cl", "occu": 1}], "abc": [0.03221232, 0.00411535, 0.74664072], "properties": {"magmom": 0.0}, "label": "Cl", "xyz": [0.28924165149757924, 0.050255975908013, 9.264398140132768]}, {"species": [{"element": "Cl", "occu": 1}], "abc": [0.78569486, 0.97973827, 0.442714499999999], "properties": {"magmom": 0.0}, "label": "Cl", "xyz": [7.239694730563209, 11.964402272778338, 3.1338501853652128]}, {"species": [{"element": "Cl", "occu": 1}], "abc": [0.7932365, 0.7370348800000001, 0.64006505], "properties": {"magmom": 0.0}, "label": "Cl", "xyz": [7.307178380243475, 9.000548476471078, 5.58559058049925]}, {"species": [{"element": "Cl", "occu": 1}], "abc": [0.02517453, 0.25432232, 0.08162662], "properties": {"magmom": 0.0}, "label": "Cl", "xyz": [0.2312665275781398, 3.1057422544352176, 0.9461892768792252]}, {"species": [{"element": "Cl", "occu": 1}], "abc": [0.03221232, 0.49588465000000004, 0.24664072], "properties": {"magmom": 0.0}, "label": "Cl", "xyz": [0.29444080149757923, 6.055661614091988, 2.9939525001327665]}, {"species": [{"element": "Cl", "occu": 1}], "abc": [0.40434769, 0.25804773000000003, 0.18177264], "properties": {"magmom": -0.0}, "label": "Cl", "xyz": [3.7262941795851714, 3.1512363473331417, 1.0351037033274835]}, {"species": [{"element": "Cl", "occu": 1}], "abc": [0.781954199999999, 0.01267337, 0.93495399], "properties": {"magmom": 0.0}, "label": "Cl", "xyz": [7.200086479276987, 0.15476510561515658, 9.318484986014248]}, {"species": [{"element": "Cl", "occu": 1}], "abc": [0.60392475, 0.0221618, 0.65520613], "properties": {"magmom": -0.0}, "label": "Cl", "xyz": [5.561520438187956, 0.27063624889212395, 6.358130317704075]}, {"species": [{"element": "Cl", "occu": 1}], "abc": [0.40213477000000003, 0.75884731, 0.04182351], "properties": {"magmom": 0.0}, "label": "Cl", "xyz": [3.7073457505809797, 9.266918276506367, -0.713172272765882]}, {"species": [{"element": "Cl", "occu": 1}], "abc": [0.02517453, 0.24567768, 0.58162662], "properties": {"magmom": 0.0}, "label": "Cl", "xyz": [0.2260673775781398, 3.000175335564782, 7.216634916879225]}, {"species": [{"element": "Cl", "occu": 1}], "abc": [0.59565231, 0.74195227, 0.8182273600000001], "properties": {"magmom": -0.0}, "label": "Cl", "xyz": [5.483551380414828, 9.060598832666859, 8.428022466672518]}, {"species": [{"element": "Cl", "occu": 1}], "abc": [0.59219322, 0.51834271, 0.66554835], "properties": {"magmom": 0.0}, "label": "Cl", "xyz": [5.453245329230824, 6.3299157412745375, 6.523937868038834]}, {"species": [{"element": "Cl", "occu": 1}], "abc": [0.218045799999999, 0.51267337, 0.56504601], "properties": {"magmom": 0.0}, "label": "Cl", "xyz": [2.004559930722996, 6.260682695615157, 6.4150868239857575]}, {"species": [{"element": "Cl", "occu": 1}], "abc": [0.40434769, 0.24195227, 0.68177264], "properties": {"magmom": -0.0}, "label": "Cl", "xyz": [3.7210950295851712, 2.9546812426668585, 7.305549343327483]}, {"species": [{"element": "Cl", "occu": 1}], "abc": [0.40780678000000004, 0.01834271, 0.83445165], "properties": {"magmom": 0.0}, "label": "Cl", "xyz": [3.751401080769176, 0.22399815127453782, 9.209633941961167]}, {"species": [{"element": "Cl", "occu": 1}], "abc": [0.59786523, 0.24115269, 0.95817649], "properties": {"magmom": 0.0}, "label": "Cl", "xyz": [5.502499809419022, 2.944916903493634, 10.176298442765884]}, {"species": [{"element": "Cl", "occu": 1}], "abc": [0.96778768, 0.50411535, 0.75335928], "properties": {"magmom": 0.0}, "label": "Cl", "xyz": [8.91540475850242, 6.156173565908012, 6.469173669867232]}, {"species": [{"element": "Cl", "occu": 1}], "abc": [0.7932365, 0.76296512, 0.14006505], "properties": {"magmom": 0.0}, "label": "Cl", "xyz": [7.3123775302434755, 9.317204293528922, -0.684855059500751]}, {"species": [{"element": "Cl", "occu": 1}], "abc": [0.2067635, 0.26296512, 0.35993495000000003], "properties": {"magmom": 0.0}, "label": "Cl", "xyz": [1.9026671797565249, 3.2112867035289216, 3.8775355895007517]}, {"species": [{"element": "Cl", "occu": 1}], "abc": [0.218045799999999, 0.98732663, 0.06504601], "properties": {"magmom": 0.0}, "label": "Cl", "xyz": [2.0097590807229957, 12.057070074384843, 0.14464118398575787]}, {"species": [{"element": "Cl", "occu": 1}], "abc": [0.40213477000000003, 0.7411526900000001, 0.5418235100000001], "properties": {"magmom": 0.0}, "label": "Cl", "xyz": [3.7021466005809796, 9.050834493493635, 5.557273367234119]}]}, "task_ids": null, "uncorrected_energy_per_atom": null, "energy_per_atom": -10.144463107916666, "formation_energy_per_atom": -0.7330447383333331, "energy_above_hull": 0.0, "is_stable": true, "equilibrium_reaction_energy_per_atom": null, "decomposes_to": null, "xas": null, "grain_boundaries": null, "band_gap": 1.537399999999999, "cbm": null, "vbm": null, "efermi": -1.2791529, "is_gap_direct": null, "is_metal": null, "es_source_calc_id": null, "bandstructure": null, "dos": null, "dos_energy_up": null, "dos_energy_down": null, "is_magnetic": null, "ordering": null, "total_magnetization": 1e-07, "total_magnetization_normalized_vol": null, "total_magnetization_normalized_formula_units": null, "num_magnetic_sites": null, "num_unique_magnetic_sites": null, "types_of_magnetic_species": null, "bulk_modulus": null, "shear_modulus": null, "universal_anisotropy": null, "homogeneous_poisson": null, "e_total": null, "e_ionic": null, "e_electronic": null, "n": null, "e_ij_max": null, "weighted_surface_energy_EV_PER_ANG2": null, "weighted_surface_energy": null, "weighted_work_function": null, "surface_anisotropy": null, "shape_factor": null, "has_reconstructed": null, "possible_species": null, "has_props": null, "theoretical": null, "database_IDs": null, "fields_not_requested": ["builder_meta", "nsites", "elements", "nelements", "composition", "composition_reduced", "chemsys", "symmetry", "property_name", "deprecated", "deprecation_reasons", "last_updated", "origins", "warnings", "task_ids", "uncorrected_energy_per_atom", "equilibrium_reaction_energy_per_atom", "decomposes_to", "xas", "grain_boundaries", "cbm", "vbm", "is_gap_direct", "is_metal", "es_source_calc_id", "bandstructure", "dos", "dos_energy_up", "dos_energy_down", "is_magnetic", "ordering", "total_magnetization_normalized_vol", "total_magnetization_normalized_formula_units", "num_magnetic_sites", "num_unique_magnetic_sites", "types_of_magnetic_species", "bulk_modulus", "shear_modulus", "universal_anisotropy", "homogeneous_poisson", "e_total", "e_ionic", "e_electronic", "n", "e_ij_max", "weighted_surface_energy_EV_PER_ANG2", "weighted_surface_energy", "weighted_work_function", "surface_anisotropy", "shape_factor", "has_reconstructed", "possible_species", "has_props", "theoretical", "database_IDs"]}