{"builder_meta": null, "nsites": null, "elements": null, "nelements": null, "composition": null, "composition_reduced": null, "formula_pretty": "SbF3", "formula_anonymous": "AB3", "chemsys": null, "volume": 125.24072928179706, "density": 4.740151396454918, "density_atomic": 15.655091160224632, "symmetry": null, "property_name": null, "material_id": "mp-1880", "deprecated": null, "deprecation_reasons": null, "last_updated": null, "origins": null, "warnings": null, "structure": {"@module": "pymatgen.core.structure", "@class": "Structure", "charge": 0, "lattice": {"matrix": [[4.36664076, 0.0017737999999990002, 0.0], [-1.71016549, 4.01782009, 0.0], [0.0, 0.0, 7.13727701]], "pbc": [true, true, true], "a": 4.366641120273089, "b": 4.366639930060017, "c": 7.13727701, "alpha": 90.0, "beta": 90.0, "gamma": 113.03351767285304, "volume": 125.24072928179703}, "properties": {}, "sites": [{"species": [{"element": "Sb", "occu": 1}], "abc": [0.20550062, 0.79353646, 0.25], "properties": {"magmom": -0.0}, "label": "Sb", "xyz": [-0.45973128545149433, 3.188651248135237, 1.7843192525]}, {"species": [{"element": "Sb", "occu": 1}], "abc": [0.79353646, 0.20550062, 0.75], "properties": {"magmom": -0.0}, "label": "Sb", "xyz": [3.113648582284506, 0.827072094516203, 5.3529577575000005]}, {"species": [{"element": "F", "occu": 1}], "abc": [0.31783102, 0.39721304, 0.25], "properties": {"magmom": 0.0}, "label": "F", "xyz": [0.7085538535383856, 1.5964943007852495, 1.7843192525]}, {"species": [{"element": "F", "occu": 1}], "abc": [0.39721304, 0.31783102, 0.75], "properties": {"magmom": 0.0}, "label": "F", "xyz": [1.1909430088120105, 1.2776924338715434, 5.3529577575000005]}, {"species": [{"element": "F", "occu": 1}], "abc": [0.9814039600000001, 0.57255597, 0.9313193200000001], "properties": {"magmom": 0.0}, "label": "F", "xyz": [3.306273072773935, 2.302167693259684, 6.647083971604833]}, {"species": [{"element": "F", "occu": 1}], "abc": [0.57255597, 0.9814039600000001, 0.06868068000000001], "properties": {"magmom": 0.0}, "label": "F", "xyz": [0.8217830518419966, 3.944120146673142, 0.49019303839516687]}, {"species": [{"element": "F", "occu": 1}], "abc": [0.9814039600000001, 0.57255597, 0.56868068], "properties": {"magmom": 0.0}, "label": "F", "xyz": [3.306273072773935, 2.302167693259684, 4.058831543395168]}, {"species": [{"element": "F", "occu": 1}], "abc": [0.57255597, 0.9814039600000001, 0.43131932], "properties": {"magmom": 0.0}, "label": "F", "xyz": [0.8217830518419966, 3.944120146673142, 3.0784454666048333]}]}, "task_ids": null, "uncorrected_energy_per_atom": null, "energy_per_atom": -5.15346678, "formation_energy_per_atom": -2.685827188749999, "energy_above_hull": 0.0, "is_stable": true, "equilibrium_reaction_energy_per_atom": null, "decomposes_to": null, "xas": null, "grain_boundaries": null, "band_gap": 4.4396, "cbm": null, "vbm": null, "efermi": 0.40286621, "is_gap_direct": null, "is_metal": null, "es_source_calc_id": null, "bandstructure": null, "dos": null, "dos_energy_up": null, "dos_energy_down": null, "is_magnetic": null, "ordering": null, "total_magnetization": 0.0, "total_magnetization_normalized_vol": null, "total_magnetization_normalized_formula_units": null, "num_magnetic_sites": null, "num_unique_magnetic_sites": null, "types_of_magnetic_species": null, "bulk_modulus": null, "shear_modulus": null, "universal_anisotropy": null, "homogeneous_poisson": null, "e_total": null, "e_ionic": null, "e_electronic": null, "n": null, "e_ij_max": null, "weighted_surface_energy_EV_PER_ANG2": null, "weighted_surface_energy": null, "weighted_work_function": null, "surface_anisotropy": null, "shape_factor": null, "has_reconstructed": null, "possible_species": null, "has_props": null, "theoretical": null, "database_IDs": null, "fields_not_requested": ["builder_meta", "nsites", "elements", "nelements", "composition", "composition_reduced", "chemsys", "symmetry", "property_name", "deprecated", "deprecation_reasons", "last_updated", "origins", "warnings", "task_ids", "uncorrected_energy_per_atom", "equilibrium_reaction_energy_per_atom", "decomposes_to", "xas", "grain_boundaries", "cbm", "vbm", "is_gap_direct", "is_metal", "es_source_calc_id", "bandstructure", "dos", "dos_energy_up", "dos_energy_down", "is_magnetic", "ordering", "total_magnetization_normalized_vol", "total_magnetization_normalized_formula_units", "num_magnetic_sites", "num_unique_magnetic_sites", "types_of_magnetic_species", "bulk_modulus", "shear_modulus", "universal_anisotropy", "homogeneous_poisson", "e_total", "e_ionic", "e_electronic", "n", "e_ij_max", "weighted_surface_energy_EV_PER_ANG2", "weighted_surface_energy", "weighted_work_function", "surface_anisotropy", "shape_factor", "has_reconstructed", "possible_species", "has_props", "theoretical", "database_IDs"]}