{"builder_meta": null, "nsites": null, "elements": null, "nelements": null, "composition": null, "composition_reduced": null, "formula_pretty": "SbF4", "formula_anonymous": "AB4", "chemsys": null, "volume": 1224.1475539535033, "density": 4.2920002387641905, "density_atomic": 15.301844424418793, "symmetry": null, "property_name": null, "material_id": "mp-556425", "deprecated": null, "deprecation_reasons": null, "last_updated": null, "origins": null, "warnings": null, "structure": {"@module": "pymatgen.core.structure", "@class": "Structure", "charge": 0, "lattice": {"matrix": [[11.93503364, 0.0, 0.0], [0.0, 9.27425562, 0.04348962], [0.0, 3.36953605, 11.07518782]], "pbc": [true, true, true], "a": 11.93503364, "b": 9.27435758703261, "c": 11.5764225234105, "alpha": 72.80936812557152, "beta": 90.0, "gamma": 90.0, "volume": 1224.1475539535033}, "properties": {}, "sites": [{"species": [{"element": "Sb", "occu": 1}], "abc": [0.57544633, 0.24237441, 0.55739511], "properties": {"magmom": 0.0}, "label": "Sb", "xyz": [6.867971306564542, 4.1260051513253995, 6.183796304188184]}, {"species": [{"element": "Sb", "occu": 1}], "abc": [0.07544633, 0.7576255900000001, 0.94260489], "properties": {"magmom": 0.0}, "label": "Sb", "xyz": [0.9004544865645413, 10.202554543674601, 10.472475045811816]}, {"species": [{"element": "Sb", "occu": 1}], "abc": [0.66080799, 0.77444148, 0.04295104], "properties": {"magmom": -0.0}, "label": "Sb", "xyz": [7.886765590230784, 7.32709332591611, 0.5093710007417704]}, {"species": [{"element": "Sb", "occu": 1}], "abc": [0.90503689, 0.19515471, 0.70795546], "properties": {"magmom": -0.0}, "label": "Sb", "xyz": [10.80164572759098, 4.195396110251303, 7.849226891873608]}, {"species": [{"element": "Sb", "occu": 1}], "abc": [0.92455367, 0.24237441, 0.05739511], "properties": {"magmom": 0.0}, "label": "Sb", "xyz": [11.034579153435459, 2.4412371263253996, 0.6462023941881844]}, {"species": [{"element": "Sb", "occu": 1}], "abc": [0.84609964, 0.39570903, 0.3493821], "properties": {"magmom": -0.0}, "label": "Sb", "xyz": [10.09822766619189, 4.847162276536953, 3.88668161379129]}, {"species": [{"element": "Sb", "occu": 1}], "abc": [0.83919201, 0.77444148, 0.54295104], "properties": {"magmom": -0.0}, "label": "Sb", "xyz": [10.015784869769217, 9.01186135091611, 6.046964910741771]}, {"species": [{"element": "Sb", "occu": 1}], "abc": [0.33919201, 0.22555852, 0.9570489600000001], "properties": {"magmom": -0.0}, "label": "Sb", "xyz": [4.0482680497692165, 5.316698344083891, 10.60930643925823]}, {"species": [{"element": "Sb", "occu": 1}], "abc": [0.59496311, 0.19515471, 0.20795546], "properties": {"magmom": -0.0}, "label": "Sb", "xyz": [7.10090473240902, 2.5106280852513034, 2.3116329818736077]}, {"species": [{"element": "Sb", "occu": 1}], "abc": [0.34609964, 0.60429097, 0.1506179], "properties": {"magmom": -0.0}, "label": "Sb", "xyz": [4.1307108461918896, 6.111861368463046, 1.6944019162087094]}, {"species": [{"element": "Sb", "occu": 1}], "abc": [0.42455367, 0.7576255900000001, 0.44260489000000003], "properties": {"magmom": 0.0}, "label": "Sb", "xyz": [5.067062333435459, 8.517786518674601, 4.934881135811816]}, {"species": [{"element": "Sb", "occu": 1}], "abc": [0.40503689, 0.80484529, 0.79204454], "properties": {"magmom": -0.0}, "label": "Sb", "xyz": [4.83412890759098, 10.133163584748697, 8.807044458126393]}, {"species": [{"element": "Sb", "occu": 1}], "abc": [0.16080799, 0.22555852, 0.45704896], "properties": {"magmom": -0.0}, "label": "Sb", "xyz": [1.9192487702307839, 3.6319303190838905, 5.07171252925823]}, {"species": [{"element": "Sb", "occu": 1}], "abc": [0.65390036, 0.39570903, 0.849382099999999], "properties": {"magmom": -0.0}, "label": "Sb", "xyz": [7.80432279380811, 6.531930301536951, 9.424275523791279]}, {"species": [{"element": "Sb", "occu": 1}], "abc": [0.15390036, 0.60429097, 0.6506179], "properties": {"magmom": -0.0}, "label": "Sb", "xyz": [1.8368059738081106, 7.796629393463046, 7.231995826208709]}, {"species": [{"element": "Sb", "occu": 1}], "abc": [0.09496311, 0.80484529, 0.29204454], "properties": {"magmom": -0.0}, "label": "Sb", "xyz": [1.1333879124090205, 8.448395559748697, 3.2694505481263927]}, {"species": [{"element": "F", "occu": 1}], "abc": [0.41864258, 0.6464333, 0.32573953], "properties": {"magmom": 0.0}, "label": "F", "xyz": [4.996513275436391, 7.092778754725202, 3.6357396137208706]}, {"species": [{"element": "F", "occu": 1}], "abc": [0.68817859, 0.6259562200000001, 0.9649454], "properties": {"magmom": -0.0}, "label": "F", "xyz": [8.213434621977768, 9.056696302790627, 10.714174139189465]}, {"species": [{"element": "F", "occu": 1}], "abc": [0.79343431, 0.13849283, 0.12927111], "properties": {"magmom": -0.0}, "label": "F", "xyz": [9.469665180980188, 1.72000157232572, 1.4377248234993047]}, {"species": [{"element": "F", "occu": 1}], "abc": [0.8884681, 0.3433373, 0.54097205], "properties": {"magmom": 0.0}, "label": "F", "xyz": [10.603896661566884, 5.007022708598029, 6.006298667829258]}, {"species": [{"element": "F", "occu": 1}], "abc": [0.45158737, 0.35728762000000003, 0.48748064], "properties": {"magmom": -0.0}, "label": "F", "xyz": [5.389710452349127, 4.956160307898497, 5.414477949438309]}, {"species": [{"element": "F", "occu": 1}], "abc": [0.0776745, 0.85822168, 0.0638489], "properties": {"magmom": 0.0}, "label": "F", "xyz": [0.9270477704701799, 8.174508409248686, 0.7444622943393595]}, {"species": [{"element": "F", "occu": 1}], "abc": [0.11894879, 0.08250243, 0.37951573], "properties": {"magmom": -0.0}, "label": "F", "xyz": [1.4196578100872956, 2.043940558868223, 4.206795989724185]}, {"species": [{"element": "F", "occu": 1}], "abc": [0.81182141, 0.6259562200000001, 0.464945399999999], "properties": {"magmom": -0.0}, "label": "F", "xyz": [9.689115838022232, 7.371928277790623, 5.176580229189454]}, {"species": [{"element": "F", "occu": 1}], "abc": [0.5776745, 0.14177832, 0.436151099999999], "properties": {"magmom": 0.0}, "label": "F", "xyz": [6.89456459047018, 2.78451523575131, 4.836621235660629]}, {"species": [{"element": "F", "occu": 1}], "abc": [0.02093016, 0.32755714, 0.72914833], "properties": {"magmom": -0.0}, "label": "F", "xyz": [0.2498021636905824, 5.494740230248423, 8.089700038936227]}, {"species": [{"element": "F", "occu": 1}], "abc": [0.67664505, 0.38911608000000003, 0.45631191], "properties": {"magmom": -0.0}, "label": "F", "xyz": [8.075781434089482, 5.1463214225617255, 5.070662618208026]}, {"species": [{"element": "F", "occu": 1}], "abc": [0.47906984, 0.32755714, 0.22914833], "properties": {"magmom": -0.0}, "label": "F", "xyz": [5.717714656309418, 3.8099722052484237, 2.5521061289362277]}, {"species": [{"element": "F", "occu": 1}], "abc": [0.32335495000000003, 0.61088392, 0.54368809], "properties": {"magmom": -0.0}, "label": "F", "xyz": [3.8592522059105185, 7.497470247438274, 6.048014821791973]}, {"species": [{"element": "F", "occu": 1}], "abc": [0.65916538, 0.18146315000000002, 0.89835127], "properties": {"magmom": -0.0}, "label": "F", "xyz": [7.867160984623384, 4.709962628538687, 9.957300807023035]}, {"species": [{"element": "F", "occu": 1}], "abc": [0.38105121000000003, 0.08250243, 0.87951573], "properties": {"magmom": -0.0}, "label": "F", "xyz": [4.547859009912705, 3.7287085838682232, 9.744389899724185]}, {"species": [{"element": "F", "occu": 1}], "abc": [0.05593453, 0.13653999, 0.58509276], "properties": {"magmom": -0.0}, "label": "F", "xyz": [0.6675804971875893, 3.2377979170262416, 6.485950281402086]}, {"species": [{"element": "F", "occu": 1}], "abc": [0.49042195, 0.08934435, 0.66252295], "properties": {"magmom": 0.0}, "label": "F", "xyz": [5.853202471044398, 3.0609973040800944, 7.341451658141117]}, {"species": [{"element": "F", "occu": 1}], "abc": [0.7782098, 0.89407428, 0.95949383], "properties": {"magmom": 0.0}, "label": "F", "xyz": [9.287960141977672, 11.524922465925025, 10.665457330070124]}, {"species": [{"element": "F", "occu": 1}], "abc": [0.50957805, 0.91065565, 0.33747705], "properties": {"magmom": 0.0}, "label": "F", "xyz": [6.081831168955603, 9.582794365919906, 3.777225781858884]}, {"species": [{"element": "F", "occu": 1}], "abc": [0.2782098, 0.10592572, 0.54050617], "properties": {"magmom": 0.0}, "label": "F", "xyz": [3.320443321977672, 2.8036372290749747, 5.990814019929876]}, {"species": [{"element": "F", "occu": 1}], "abc": [0.84083462, 0.18146315000000002, 0.39835127000000004], "properties": {"magmom": -0.0}, "label": "F", "xyz": [10.035389475376617, 3.0251946035386865, 4.419706897023035]}, {"species": [{"element": "F", "occu": 1}], "abc": [0.58135742, 0.3535667, 0.67426047], "properties": {"magmom": 0.0}, "label": "F", "xyz": [6.938520364563609, 5.551012915274798, 7.482937826279129]}, {"species": [{"element": "F", "occu": 1}], "abc": [0.9440654700000001, 0.8634600100000001, 0.41490724], "properties": {"magmom": -0.0}, "label": "F", "xyz": [11.267453142812412, 9.40599375297376, 4.6327271585979135]}, {"species": [{"element": "F", "occu": 1}], "abc": [0.29851194000000003, 0.65149056, 0.75732434], "properties": {"magmom": 0.0}, "label": "F", "xyz": [3.562750045841662, 8.593921652629405, 8.415842383045527]}, {"species": [{"element": "F", "occu": 1}], "abc": [0.00957805, 0.08934435, 0.16252295], "properties": {"magmom": 0.0}, "label": "F", "xyz": [0.114314348955602, 1.3762292790800945, 1.803857748141116]}, {"species": [{"element": "F", "occu": 1}], "abc": [0.17664505, 0.61088392, 0.04368809], "properties": {"magmom": -0.0}, "label": "F", "xyz": [2.108264614089482, 5.812702222438275, 0.5104209117919742]}, {"species": [{"element": "F", "occu": 1}], "abc": [0.15916538, 0.81853685, 0.60164873], "properties": {"magmom": -0.0}, "label": "F", "xyz": [1.8996441646233833, 9.618597066461312, 6.698970542976965]}, {"species": [{"element": "F", "occu": 1}], "abc": [0.96409975, 0.64926177, 0.62743371], "properties": {"magmom": -0.0}, "label": "F", "xyz": [11.506562948565591, 8.135580124103893, 6.977182330507239]}, {"species": [{"element": "F", "occu": 1}], "abc": [0.2217902, 0.10592572, 0.04050617], "properties": {"magmom": 0.0}, "label": "F", "xyz": [2.647073498022328, 1.1188692040749748, 0.45322010992987577]}, {"species": [{"element": "F", "occu": 1}], "abc": [0.721790199999999, 0.89407428, 0.45949383], "properties": {"magmom": 0.0}, "label": "F", "xyz": [8.614590318022318, 9.840154440925025, 5.127863420070124]}, {"species": [{"element": "F", "occu": 1}], "abc": [0.70656569, 0.13849283, 0.62927111], "properties": {"magmom": -0.0}, "label": "F", "xyz": [8.432885279019812, 3.4047695973257204, 6.9753187334993045]}, {"species": [{"element": "F", "occu": 1}], "abc": [0.61894879, 0.91749757, 0.12048427], "properties": {"magmom": -0.0}, "label": "F", "xyz": [7.387174630087296, 8.915083086131776, 1.3742875402758148]}, {"species": [{"element": "F", "occu": 1}], "abc": [0.75079013, 0.67076295, 0.17529376], "properties": {"magmom": -0.0}, "label": "F", "xyz": [8.960705458129974, 6.811485702385327, 1.9705825414795821]}, {"species": [{"element": "F", "occu": 1}], "abc": [0.422325499999999, 0.85822168, 0.5638489], "properties": {"magmom": 0.0}, "label": "F", "xyz": [5.040469049529809, 9.859276434248686, 6.2820562043393595]}, {"species": [{"element": "F", "occu": 1}], "abc": [0.52093016, 0.67244286, 0.77085167], "properties": {"magmom": -0.0}, "label": "F", "xyz": [6.217318983690583, 8.833819464751576, 8.566571311063774]}, {"species": [{"element": "F", "occu": 1}], "abc": [0.29343431000000003, 0.86150717, 0.37072889000000003], "properties": {"magmom": -0.0}, "label": "F", "xyz": [3.502148360980189, 9.23902207267428, 4.143358706500695]}, {"species": [{"element": "F", "occu": 1}], "abc": [0.922325499999999, 0.14177832, 0.9361510999999991], "properties": {"magmom": 0.0}, "label": "F", "xyz": [11.007985869529808, 4.46928326075131, 10.374215145660632]}, {"species": [{"element": "F", "occu": 1}], "abc": [0.111531899999999, 0.656662699999999, 0.45902795], "properties": {"magmom": 0.0}, "label": "F", "xyz": [1.3311369784331042, 7.6367689614019625, 5.112378772170743]}, {"species": [{"element": "F", "occu": 1}], "abc": [0.88105121, 0.91749757, 0.6204842700000001], "properties": {"magmom": -0.0}, "label": "F", "xyz": [10.515375829912704, 10.599851111131777, 6.911881450275815]}, {"species": [{"element": "F", "occu": 1}], "abc": [0.97906984, 0.67244286, 0.27085167], "properties": {"magmom": -0.0}, "label": "F", "xyz": [11.685231476309417, 7.1490514397515765, 3.0289774010637727]}, {"species": [{"element": "F", "occu": 1}], "abc": [0.31182141, 0.37404378, 0.0350546], "properties": {"magmom": -0.0}, "label": "F", "xyz": [3.721599018022233, 3.5870953672093733, 0.4045033008105356]}, {"species": [{"element": "F", "occu": 1}], "abc": [0.34083462000000003, 0.81853685, 0.10164873], "properties": {"magmom": -0.0}, "label": "F", "xyz": [4.067872655376617, 7.933829041461313, 1.1613766329769657]}, {"species": [{"element": "F", "occu": 1}], "abc": [0.54841263, 0.64271238, 0.51251936], "properties": {"magmom": -0.0}, "label": "F", "xyz": [6.545323187650873, 7.687631362101503, 5.704199490561691]}, {"species": [{"element": "F", "occu": 1}], "abc": [0.04841263, 0.35728762000000003, 0.98748064], "properties": {"magmom": -0.0}, "label": "F", "xyz": [0.5778063676508732, 6.640928332898497, 10.952071859438309]}, {"species": [{"element": "F", "occu": 1}], "abc": [0.18817859, 0.37404378, 0.535054599999999], "properties": {"magmom": -0.0}, "label": "F", "xyz": [2.2459178019777677, 5.2718633922093705, 5.942097210810525]}, {"species": [{"element": "F", "occu": 1}], "abc": [0.82335495, 0.38911608000000003, 0.95631191], "properties": {"magmom": -0.0}, "label": "F", "xyz": [9.826769025910519, 6.831089447561725, 10.608256528208026]}, {"species": [{"element": "F", "occu": 1}], "abc": [0.55593453, 0.8634600100000001, 0.91490724], "properties": {"magmom": -0.0}, "label": "F", "xyz": [6.63509731718759, 11.090761777973759, 10.170321068597913]}, {"species": [{"element": "F", "occu": 1}], "abc": [0.24920987, 0.32923705000000003, 0.82470624], "properties": {"magmom": -0.0}, "label": "F", "xyz": [2.974328181870027, 5.832305967614673, 9.148094898520418]}, {"species": [{"element": "F", "occu": 1}], "abc": [0.25079013, 0.32923705000000003, 0.32470624], "properties": {"magmom": -0.0}, "label": "F", "xyz": [2.9931886381299733, 4.147537942614673, 3.6105009885204176]}, {"species": [{"element": "F", "occu": 1}], "abc": [0.70148806, 0.34850944, 0.24267566000000002], "properties": {"magmom": 0.0}, "label": "F", "xyz": [8.372283594158338, 4.049870017370596, 2.7028350569544743]}, {"species": [{"element": "F", "occu": 1}], "abc": [0.6115319, 0.3433373, 0.04097205], "properties": {"magmom": 0.0}, "label": "F", "xyz": [7.298653798433117, 3.322254683598029, 0.468704757829257]}, {"species": [{"element": "F", "occu": 1}], "abc": [0.99042195, 0.91065565, 0.8374770500000001], "properties": {"magmom": 0.0}, "label": "F", "xyz": [11.820719291044398, 11.267562390919906, 9.314819691858885]}, {"species": [{"element": "F", "occu": 1}], "abc": [0.46409975000000003, 0.35073823, 0.87256629], "properties": {"magmom": -0.0}, "label": "F", "xyz": [5.539046128565591, 6.192979570896107, 9.679089019492759]}, {"species": [{"element": "F", "occu": 1}], "abc": [0.95158737, 0.64271238, 0.01251936], "properties": {"magmom": -0.0}, "label": "F", "xyz": [11.357227272349128, 6.002863337101503, 0.1666055805616908]}, {"species": [{"element": "F", "occu": 1}], "abc": [0.53590025, 0.64926177, 0.12743371], "properties": {"magmom": -0.0}, "label": "F", "xyz": [6.395987511434409, 6.450812099103893, 1.4395884205072398]}, {"species": [{"element": "F", "occu": 1}], "abc": [0.7492098700000001, 0.67076295, 0.67529376], "properties": {"magmom": -0.0}, "label": "F", "xyz": [8.941845001870028, 8.496253727385326, 7.508176451479582]}, {"species": [{"element": "F", "occu": 1}], "abc": [0.44406547, 0.13653999, 0.08509276], "properties": {"magmom": -0.0}, "label": "F", "xyz": [5.299936322812411, 1.5530298920262418, 0.9483563714020871]}, {"species": [{"element": "F", "occu": 1}], "abc": [0.79851194, 0.34850944, 0.7426756600000001], "properties": {"magmom": 0.0}, "label": "F", "xyz": [9.530266865841662, 5.734638042370596, 8.240428966954475]}, {"species": [{"element": "F", "occu": 1}], "abc": [0.03590025, 0.35073823, 0.37256629], "properties": {"magmom": -0.0}, "label": "F", "xyz": [0.42847069143441, 4.508211545896107, 4.141495109492761]}, {"species": [{"element": "F", "occu": 1}], "abc": [0.91864258, 0.3535667, 0.17426047], "properties": {"magmom": 0.0}, "label": "F", "xyz": [10.96403009543639, 3.866244890274798, 1.9453439162791295]}, {"species": [{"element": "F", "occu": 1}], "abc": [0.3884681, 0.656662699999999, 0.9590279500000001], "properties": {"magmom": 0.0}, "label": "F", "xyz": [4.6363798415668835, 9.321536986401963, 10.649972682170745]}, {"species": [{"element": "F", "occu": 1}], "abc": [0.08135742, 0.6464333, 0.82573953], "properties": {"magmom": 0.0}, "label": "F", "xyz": [0.9710035445636088, 8.777546779725203, 9.17333352372087]}, {"species": [{"element": "F", "occu": 1}], "abc": [0.20656569, 0.86150717, 0.87072889], "properties": {"magmom": -0.0}, "label": "F", "xyz": [2.4653684590198117, 10.92379009767428, 9.680952616500694]}, {"species": [{"element": "F", "occu": 1}], "abc": [0.20148806, 0.65149056, 0.25732434], "properties": {"magmom": 0.0}, "label": "F", "xyz": [2.4047667741583383, 6.909153627629405, 2.8782484730455256]}]}, "task_ids": null, "uncorrected_energy_per_atom": null, "energy_per_atom": -5.015318597250035, "formation_energy_per_atom": -2.658436449250035, "energy_above_hull": 0.0, "is_stable": true, "equilibrium_reaction_energy_per_atom": null, "decomposes_to": null, "xas": null, "grain_boundaries": null, "band_gap": 3.4513, "cbm": null, "vbm": null, "efermi": -1.25525844, "is_gap_direct": null, "is_metal": null, "es_source_calc_id": null, "bandstructure": null, "dos": null, "dos_energy_up": null, "dos_energy_down": null, "is_magnetic": null, "ordering": null, "total_magnetization": 0.0, "total_magnetization_normalized_vol": null, "total_magnetization_normalized_formula_units": null, "num_magnetic_sites": null, "num_unique_magnetic_sites": null, "types_of_magnetic_species": null, "bulk_modulus": null, "shear_modulus": null, "universal_anisotropy": null, "homogeneous_poisson": null, "e_total": null, "e_ionic": null, "e_electronic": null, "n": null, "e_ij_max": null, "weighted_surface_energy_EV_PER_ANG2": null, "weighted_surface_energy": null, "weighted_work_function": null, "surface_anisotropy": null, "shape_factor": null, "has_reconstructed": null, "possible_species": null, "has_props": null, "theoretical": null, "database_IDs": null, "fields_not_requested": ["builder_meta", "nsites", "elements", "nelements", "composition", "composition_reduced", "chemsys", "symmetry", "property_name", "deprecated", "deprecation_reasons", "last_updated", "origins", "warnings", "task_ids", "uncorrected_energy_per_atom", "equilibrium_reaction_energy_per_atom", "decomposes_to", "xas", "grain_boundaries", "cbm", "vbm", "is_gap_direct", "is_metal", "es_source_calc_id", "bandstructure", "dos", "dos_energy_up", "dos_energy_down", "is_magnetic", "ordering", "total_magnetization_normalized_vol", "total_magnetization_normalized_formula_units", "num_magnetic_sites", "num_unique_magnetic_sites", "types_of_magnetic_species", "bulk_modulus", "shear_modulus", "universal_anisotropy", "homogeneous_poisson", "e_total", "e_ionic", "e_electronic", "n", "e_ij_max", "weighted_surface_energy_EV_PER_ANG2", "weighted_surface_energy", "weighted_work_function", "surface_anisotropy", "shape_factor", "has_reconstructed", "possible_species", "has_props", "theoretical", "database_IDs"]}