{"builder_meta": null, "nsites": null, "elements": null, "nelements": null, "composition": null, "composition_reduced": null, "formula_pretty": "SbF5", "formula_anonymous": "AB5", "chemsys": null, "volume": 360.3612656788022, "density": 3.995159575814314, "density_atomic": 15.01505273661676, "symmetry": null, "property_name": null, "material_id": "mp-1341935", "deprecated": null, "deprecation_reasons": null, "last_updated": null, "origins": null, "warnings": null, "structure": {"@module": "pymatgen.core.structure", "@class": "Structure", "charge": 0, "lattice": {"matrix": [[5.0742377, -0.21901256, 0.0], [-2.69736064, 7.27070913, 0.0], [0.0, 0.0, 9.92661013]], "pbc": [true, true, true], "a": 5.078961974413575, "b": 7.7549317002335085, "c": 9.92661013, "alpha": 90.0, "beta": 90.0, "gamma": 112.8257993920412, "volume": 360.3612656788022}, "properties": {}, "sites": [{"species": [{"element": "Sb", "occu": 1}], "abc": [0.87793572, 0.59767455, 0.75175829], "properties": {"magmom": 0.0}, "label": "Sb", "xyz": [2.842710721900932, 4.153238857900998, 7.462411456825478]}, {"species": [{"element": "Sb", "occu": 1}], "abc": [0.12206428, 0.90232545, 0.25175829], "properties": {"magmom": 0.0}, "label": "Sb", "xyz": [-1.814513981900932, 6.533812277099002, 2.4991063918254777]}, {"species": [{"element": "Sb", "occu": 1}], "abc": [0.12206428, 0.40232545000000003, 0.24824171], "properties": {"magmom": 0.0}, "label": "Sb", "xyz": [-0.465833661900932, 2.898457712099002, 2.4641986731745225]}, {"species": [{"element": "Sb", "occu": 1}], "abc": [0.87793572, 0.09767455, 0.7482417100000001], "properties": {"magmom": 0.0}, "label": "Sb", "xyz": [4.191391041900932, 0.5178842929009984, 7.427503738174523]}, {"species": [{"element": "F", "occu": 1}], "abc": [0.54129486, 0.5481462500000001, 0.84762517], "properties": {"magmom": 0.0}, "label": "F", "xyz": [1.2681106657146224, 3.8668615714468215, 8.414044598964972]}, {"species": [{"element": "F", "occu": 1}], "abc": [0.45870514, 0.95185375, 0.34762517], "properties": {"magmom": 0.0}, "label": "F", "xyz": [-0.2399139257146219, 6.82018956355318, 3.4507395339649722]}, {"species": [{"element": "F", "occu": 1}], "abc": [0.45870514, 0.45185375, 0.15237483000000002], "properties": {"magmom": 0.0}, "label": "F", "xyz": [1.1087663942853783, 3.184834998553179, 1.512565531035028]}, {"species": [{"element": "F", "occu": 1}], "abc": [0.54129486, 0.04814625, 0.65237483], "properties": {"magmom": 0.0}, "label": "F", "xyz": [2.6167909857146223, 0.23150700644682087, 6.475870596035028]}, {"species": [{"element": "F", "occu": 1}], "abc": [0.67061444, 0.48080217000000003, 0.60085191], "properties": {"magmom": -0.0}, "label": "F", "xyz": [2.1059602246277995, 3.348899741865446, 5.964422656435849]}, {"species": [{"element": "F", "occu": 1}], "abc": [0.32938556, 0.01919783, 0.10085191], "properties": {"magmom": -0.0}, "label": "F", "xyz": [1.619597155372201, 0.06744226313455429, 1.0011175914358483]}, {"species": [{"element": "F", "occu": 1}], "abc": [0.32938556, 0.51919783, 0.39914809], "properties": {"magmom": -0.0}, "label": "F", "xyz": [0.27091683537220135, 3.7027968281345545, 3.962187473564152]}, {"species": [{"element": "F", "occu": 1}], "abc": [0.67061444, 0.98080217, 0.8991480900000001], "properties": {"magmom": -0.0}, "label": "F", "xyz": [0.7572799046277994, 6.984254306865446, 8.925492538564152]}, {"species": [{"element": "F", "occu": 1}], "abc": [0.91673489, 0.79377992, 0.40608112], "properties": {"magmom": -0.0}, "label": "F", "xyz": [2.5106200267130045, 5.5705664564544515, 4.031008959393746]}, {"species": [{"element": "F", "occu": 1}], "abc": [0.08326511, 0.70622008, 0.9060811200000001], "properties": {"magmom": -0.0}, "label": "F", "xyz": [-1.4824232867130043, 5.116484678545549, 8.994314024393747]}, {"species": [{"element": "F", "occu": 1}], "abc": [0.08326511, 0.20622008, 0.59391888], "properties": {"magmom": -0.0}, "label": "F", "xyz": [-0.13374296671300412, 1.4811301135455488, 5.8956011706062545]}, {"species": [{"element": "F", "occu": 1}], "abc": [0.91673489, 0.29377992, 0.09391888], "properties": {"magmom": -0.0}, "label": "F", "xyz": [3.8593003467130047, 1.9352118914544516, 0.9322961056062544]}, {"species": [{"element": "F", "occu": 1}], "abc": [0.78279928, 0.8483944600000001, 0.15739897], "properties": {"magmom": -0.0}, "label": "F", "xyz": [1.6836837945108019, 5.996986471884464, 1.562438210053566]}, {"species": [{"element": "F", "occu": 1}], "abc": [0.21720072, 0.65160554, 0.65739897], "properties": {"magmom": -0.0}, "label": "F", "xyz": [-0.6554870545108016, 4.690064663115538, 6.525743275053567]}, {"species": [{"element": "F", "occu": 1}], "abc": [0.21720072, 0.15160554, 0.84260103], "properties": {"magmom": -0.0}, "label": "F", "xyz": [0.6931932654891985, 1.054710098115537, 8.364171919946434]}, {"species": [{"element": "F", "occu": 1}], "abc": [0.78279928, 0.34839446, 0.34260103000000003], "properties": {"magmom": -0.0}, "label": "F", "xyz": [3.032364114510802, 2.361631906884463, 3.4008668549464343]}, {"species": [{"element": "F", "occu": 1}], "abc": [0.88001617, 0.84719605, 0.6914783], "properties": {"magmom": 0.0}, "label": "F", "xyz": [2.1802179467901373, 5.966981461401841, 6.864035497455179]}, {"species": [{"element": "F", "occu": 1}], "abc": [0.11998383, 0.65280395, 0.1914783], "properties": {"magmom": 0.0}, "label": "F", "xyz": [-1.152021206790137, 4.720069673598159, 1.900730432455179]}, {"species": [{"element": "F", "occu": 1}], "abc": [0.11998383, 0.15280395, 0.3085217], "properties": {"magmom": 0.0}, "label": "F", "xyz": [0.19665911320986312, 1.0847151085981588, 3.062574632544821]}, {"species": [{"element": "F", "occu": 1}], "abc": [0.88001617, 0.34719605000000003, 0.8085217], "properties": {"magmom": 0.0}, "label": "F", "xyz": [3.5288982667901374, 2.3316268964018416, 8.025879697544822]}]}, "task_ids": null, "uncorrected_energy_per_atom": null, "energy_per_atom": -4.8563763687499995, "formation_energy_per_atom": -2.57333251625, "energy_above_hull": 0.0, "is_stable": true, "equilibrium_reaction_energy_per_atom": null, "decomposes_to": null, "xas": null, "grain_boundaries": null, "band_gap": 3.6765, "cbm": null, "vbm": null, "efermi": 0.47448533, "is_gap_direct": null, "is_metal": null, "es_source_calc_id": null, "bandstructure": null, "dos": null, "dos_energy_up": null, "dos_energy_down": null, "is_magnetic": null, "ordering": null, "total_magnetization": 0.0, "total_magnetization_normalized_vol": null, "total_magnetization_normalized_formula_units": null, "num_magnetic_sites": null, "num_unique_magnetic_sites": null, "types_of_magnetic_species": null, "bulk_modulus": null, "shear_modulus": null, "universal_anisotropy": null, "homogeneous_poisson": null, "e_total": null, "e_ionic": null, "e_electronic": null, "n": null, "e_ij_max": null, "weighted_surface_energy_EV_PER_ANG2": null, "weighted_surface_energy": null, "weighted_work_function": null, "surface_anisotropy": null, "shape_factor": null, "has_reconstructed": null, "possible_species": null, "has_props": null, "theoretical": null, "database_IDs": null, "fields_not_requested": ["builder_meta", "nsites", "elements", "nelements", "composition", "composition_reduced", "chemsys", "symmetry", "property_name", "deprecated", "deprecation_reasons", "last_updated", "origins", "warnings", "task_ids", "uncorrected_energy_per_atom", "equilibrium_reaction_energy_per_atom", "decomposes_to", "xas", "grain_boundaries", "cbm", "vbm", "is_gap_direct", "is_metal", "es_source_calc_id", "bandstructure", "dos", "dos_energy_up", "dos_energy_down", "is_magnetic", "ordering", "total_magnetization_normalized_vol", "total_magnetization_normalized_formula_units", "num_magnetic_sites", "num_unique_magnetic_sites", "types_of_magnetic_species", "bulk_modulus", "shear_modulus", "universal_anisotropy", "homogeneous_poisson", "e_total", "e_ionic", "e_electronic", "n", "e_ij_max", "weighted_surface_energy_EV_PER_ANG2", "weighted_surface_energy", "weighted_work_function", "surface_anisotropy", "shape_factor", "has_reconstructed", "possible_species", "has_props", "theoretical", "database_IDs"]}