{
  "builder_meta": null,
  "nsites": null,
  "elements": null,
  "nelements": null,
  "composition": null,
  "composition_reduced": null,
  "formula_pretty": "SbF6",
  "formula_anonymous": "AB6",
  "chemsys": null,
  "volume": 1011.1343949864648,
  "density": 3.09729573429587,
  "density_atomic": 18.055971339044014,
  "symmetry": null,
  "property_name": null,
  "material_id": "mp-734819",
  "deprecated": null,
  "deprecation_reasons": null,
  "last_updated": null,
  "origins": null,
  "warnings": null,
  "structure": {
    "@module": "pymatgen.core.structure",
    "@class": "Structure",
    "charge": 0,
    "lattice": {
      "matrix": [
        [7.643306, 0.0, 0.0],
        [0.0, 10.387078, 0.0],
        [0.0, 0.0, 12.736035]
      ],
      "pbc": [true, true, true],
      "a": 7.643306,
      "b": 10.387078,
      "c": 12.736035,
      "alpha": 90.0,
      "beta": 90.0,
      "gamma": 90.0,
      "volume": 1011.1343949864648
    },
    "properties": {},
    "sites": [
      {
        "species": [{ "element": "Sb", "occu": 1 }],
        "abc": [0.886428999999999, 0.780273, 0.7859200000000001],
        "properties": { "magmom": -0.005 },
        "label": "Sb",
        "xyz": [6.7752480942739925, 8.104756512294001, 10.0095046272]
      },
      {
        "species": [{ "element": "Sb", "occu": 1 }],
        "abc": [0.613571, 0.219726999999999, 0.28592],
        "properties": { "magmom": -0.005 },
        "label": "Sb",
        "xyz": [4.689710905726, 2.28232148770599, 3.6414871272]
      },
      {
        "species": [{ "element": "Sb", "occu": 1 }],
        "abc": [0.386428999999999, 0.719727, 0.21408000000000002],
        "properties": { "magmom": -0.005 },
        "label": "Sb",
        "xyz": [2.9535950942739926, 7.475860487706001, 2.7265303728]
      },
      {
        "species": [{ "element": "Sb", "occu": 1 }],
        "abc": [0.113570999999999, 0.280273, 0.71408],
        "properties": { "magmom": -0.005 },
        "label": "Sb",
        "xyz": [0.8680579057259924, 2.9112175122940003, 9.0945478728]
      },
      {
        "species": [{ "element": "Sb", "occu": 1 }],
        "abc": [0.5821000000000001, 0.583719, 0.586885],
        "properties": { "magmom": -0.007 },
        "label": "Sb",
        "xyz": [4.449168422600001, 6.063134783082, 7.474587900974999]
      },
      {
        "species": [{ "element": "Sb", "occu": 1 }],
        "abc": [0.9179, 0.416280999999999, 0.086884999999999],
        "properties": { "magmom": -0.007 },
        "label": "Sb",
        "xyz": [7.015790577400001, 4.32394321691799, 1.1065704009749873]
      },
      {
        "species": [{ "element": "Sb", "occu": 1 }],
        "abc": [0.0821, 0.916281, 0.413114999999999],
        "properties": { "magmom": -0.007 },
        "label": "Sb",
        "xyz": [0.6275154226, 9.517482216918001, 5.261447099024987]
      },
      {
        "species": [{ "element": "Sb", "occu": 1 }],
        "abc": [0.4179, 0.083719, 0.913115],
        "properties": { "magmom": -0.007 },
        "label": "Sb",
        "xyz": [3.1941375774, 0.869595783082, 11.629464599024999]
      },
      {
        "species": [{ "element": "F", "occu": 1 }],
        "abc": [0.413977999999999, 0.596669, 0.955262],
        "properties": { "magmom": 0.935 },
        "label": "F",
        "xyz": [3.1641605312679926, 6.197647443182, 12.166250266169998]
      },
      {
        "species": [{ "element": "F", "occu": 1 }],
        "abc": [0.086022, 0.403331, 0.455262],
        "properties": { "magmom": 0.935 },
        "label": "F",
        "xyz": [0.657492468732, 4.189430556818, 5.79823276617]
      },
      {
        "species": [{ "element": "F", "occu": 1 }],
        "abc": [0.913978, 0.903331, 0.044738],
        "properties": { "magmom": 0.935 },
        "label": "F",
        "xyz": [6.985813531268, 9.382969556818, 0.56978473383]
      },
      {
        "species": [{ "element": "F", "occu": 1 }],
        "abc": [0.586021999999999, 0.096668999999999, 0.5447379999999991],
        "properties": { "magmom": 0.935 },
        "label": "F",
        "xyz": [4.479145468731993, 1.0041084431819898, 6.937802233829988]
      },
      {
        "species": [{ "element": "F", "occu": 1 }],
        "abc": [0.803385999999999, 0.661621, 0.668520999999999],
        "properties": { "magmom": -0.0 },
        "label": "F",
        "xyz": [6.140525034115993, 6.872308933438001, 8.514306854234988]
      },
      {
        "species": [{ "element": "F", "occu": 1 }],
        "abc": [0.696614, 0.338379, 0.168521],
        "properties": { "magmom": -0.0 },
        "label": "F",
        "xyz": [5.324433965883999, 3.514769066562, 2.146289354235]
      },
      {
        "species": [{ "element": "F", "occu": 1 }],
        "abc": [0.303386, 0.838379, 0.331478999999999],
        "properties": { "magmom": -0.0 },
        "label": "F",
        "xyz": [2.318872034116, 8.708308066562001, 4.221728145764987]
      },
      {
        "species": [{ "element": "F", "occu": 1 }],
        "abc": [0.196613999999999, 0.161621, 0.831479],
        "properties": { "magmom": -0.0 },
        "label": "F",
        "xyz": [1.5027809658839923, 1.678769933438, 10.589745645765]
      },
      {
        "species": [{ "element": "F", "occu": 1 }],
        "abc": [0.055019, 0.855588, 0.696633],
        "properties": { "magmom": 0.058 },
        "label": "F",
        "xyz": [0.420527052814, 8.887059291864, 8.872342270154999]
      },
      {
        "species": [{ "element": "F", "occu": 1 }],
        "abc": [0.444980999999999, 0.144411999999999, 0.196633],
        "properties": { "magmom": 0.058 },
        "label": "F",
        "xyz": [3.4011259471859923, 1.50001870813599, 2.5043247701549998]
      },
      {
        "species": [{ "element": "F", "occu": 1 }],
        "abc": [0.555018999999999, 0.644412, 0.303367],
        "properties": { "magmom": 0.058 },
        "label": "F",
        "xyz": [4.242180052813993, 6.693557708136001, 3.863692729845]
      },
      {
        "species": [{ "element": "F", "occu": 1 }],
        "abc": [0.944981, 0.355587999999999, 0.803366999999999],
        "properties": { "magmom": 0.058 },
        "label": "F",
        "xyz": [7.222778947186, 3.6935202918639902, 10.231710229844987]
      },
      {
        "species": [{ "element": "F", "occu": 1 }],
        "abc": [0.051621999999999, 0.652596, 0.82376],
        "properties": { "magmom": 0.05 },
        "label": "F",
        "xyz": [0.39456274233199234, 6.778565554488, 10.4914361916]
      },
      {
        "species": [{ "element": "F", "occu": 1 }],
        "abc": [0.448378, 0.347404, 0.32376000000000005],
        "properties": { "magmom": 0.05 },
        "label": "F",
        "xyz": [3.427090257668, 3.6085124455120003, 4.1234186916]
      },
      {
        "species": [{ "element": "F", "occu": 1 }],
        "abc": [0.551622, 0.847403999999999, 0.17624],
        "properties": { "magmom": 0.05 },
        "label": "F",
        "xyz": [4.2162157423319995, 8.80205144551199, 2.2445988084]
      },
      {
        "species": [{ "element": "F", "occu": 1 }],
        "abc": [0.948377999999999, 0.152595999999999, 0.6762400000000001],
        "properties": { "magmom": 0.05 },
        "label": "F",
        "xyz": [7.248743257667993, 1.5850265544879898, 8.6126163084]
      },
      {
        "species": [{ "element": "F", "occu": 1 }],
        "abc": [0.969893, 0.902956, 0.895961999999999],
        "properties": { "magmom": 0.317 },
        "label": "F",
        "xyz": [7.413188986258, 9.379074402568001, 11.411003390669988]
      },
      {
        "species": [{ "element": "F", "occu": 1 }],
        "abc": [0.530107, 0.097043999999999, 0.395962],
        "properties": { "magmom": 0.317 },
        "label": "F",
        "xyz": [4.051770013742, 1.0080035974319896, 5.04298589067]
      },
      {
        "species": [{ "element": "F", "occu": 1 }],
        "abc": [0.469893, 0.597044, 0.104037999999999],
        "properties": { "magmom": 0.317 },
        "label": "F",
        "xyz": [3.591535986258, 6.201542597432001, 1.3250316093299872]
      },
      {
        "species": [{ "element": "F", "occu": 1 }],
        "abc": [0.030107, 0.402956, 0.604038],
        "properties": { "magmom": 0.317 },
        "label": "F",
        "xyz": [0.230117013742, 4.185535402568, 7.6930491093299995]
      },
      {
        "species": [{ "element": "F", "occu": 1 }],
        "abc": [0.722278, 0.704302, 0.879363],
        "properties": { "magmom": 0.06 },
        "label": "F",
        "xyz": [5.520591771068, 7.315639809556, 11.199597945705]
      },
      {
        "species": [{ "element": "F", "occu": 1 }],
        "abc": [0.777721999999999, 0.295697999999999, 0.379363],
        "properties": { "magmom": 0.06 },
        "label": "F",
        "xyz": [5.944367228931992, 3.07143819044399, 4.831580445705]
      },
      {
        "species": [{ "element": "F", "occu": 1 }],
        "abc": [0.222278, 0.795698, 0.120637],
        "properties": { "magmom": 0.06 },
        "label": "F",
        "xyz": [1.698938771068, 8.264977190444, 1.5364370542949999]
      },
      {
        "species": [{ "element": "F", "occu": 1 }],
        "abc": [0.277721999999999, 0.204301999999999, 0.620637],
        "properties": { "magmom": 0.06 },
        "label": "F",
        "xyz": [2.1227142289319927, 2.12210080955599, 7.9044545542949995]
      },
      {
        "species": [{ "element": "F", "occu": 1 }],
        "abc": [0.717822, 0.900463, 0.739181],
        "properties": { "magmom": 0.043000000000000003 },
        "label": "F",
        "xyz": [5.4865331995319995, 9.353179417114001, 9.414235087335]
      },
      {
        "species": [{ "element": "F", "occu": 1 }],
        "abc": [0.782177999999999, 0.099537, 0.239180999999999],
        "properties": { "magmom": 0.043000000000000003 },
        "label": "F",
        "xyz": [5.978425800467993, 1.0338985828860001, 3.0462175873349873]
      },
      {
        "species": [{ "element": "F", "occu": 1 }],
        "abc": [0.217822, 0.599537, 0.260818999999999],
        "properties": { "magmom": 0.043000000000000003 },
        "label": "F",
        "xyz": [1.664880199532, 6.227437582886, 3.3217999126649875]
      },
      {
        "species": [{ "element": "F", "occu": 1 }],
        "abc": [0.282178, 0.400462999999999, 0.760818999999999],
        "properties": { "magmom": 0.043000000000000003 },
        "label": "F",
        "xyz": [2.156772800468, 4.15964041711399, 9.689817412664986]
      },
      {
        "species": [{ "element": "F", "occu": 1 }],
        "abc": [0.750935, 0.545069, 0.481429],
        "properties": { "magmom": 0.106 },
        "label": "F",
        "xyz": [5.7396259911100005, 5.661674218382001, 6.131496594014999]
      },
      {
        "species": [{ "element": "F", "occu": 1 }],
        "abc": [0.749065, 0.454931, 0.981429],
        "properties": { "magmom": 0.106 },
        "label": "F",
        "xyz": [5.72533300889, 4.725403781618, 12.499514094015]
      },
      {
        "species": [{ "element": "F", "occu": 1 }],
        "abc": [0.250934999999999, 0.954931, 0.518571],
        "properties": { "magmom": 0.106 },
        "label": "F",
        "xyz": [1.9179729911099925, 9.918942781618, 6.604538405985]
      },
      {
        "species": [{ "element": "F", "occu": 1 }],
        "abc": [0.249064999999999, 0.045069, 0.018571],
        "properties": { "magmom": 0.106 },
        "label": "F",
        "xyz": [1.9036800088899923, 0.468135218382, 0.236520905985]
      },
      {
        "species": [{ "element": "F", "occu": 1 }],
        "abc": [0.058802, 0.749892999999999, 0.474655999999999],
        "properties": { "magmom": 0.089 },
        "label": "F",
        "xyz": [0.449441679412, 7.789197082653991, 6.0452354289599874]
      },
      {
        "species": [{ "element": "F", "occu": 1 }],
        "abc": [0.441198, 0.250106999999999, 0.974656],
        "properties": { "magmom": 0.089 },
        "label": "F",
        "xyz": [3.3722113205879998, 2.5978809173459902, 12.413252928959999]
      },
      {
        "species": [{ "element": "F", "occu": 1 }],
        "abc": [0.558802, 0.750107, 0.525343999999999],
        "properties": { "magmom": 0.089 },
        "label": "F",
        "xyz": [4.271094679412, 7.791419917346, 6.690799571039987]
      },
      {
        "species": [{ "element": "F", "occu": 1 }],
        "abc": [0.941198, 0.24989299999999903, 0.025344],
        "properties": { "magmom": 0.089 },
        "label": "F",
        "xyz": [7.193864320588, 2.59565808265399, 0.32278207103999995]
      },
      {
        "species": [{ "element": "F", "occu": 1 }],
        "abc": [0.390165, 0.509533, 0.51542],
        "properties": { "magmom": 0.019 },
        "label": "F",
        "xyz": [2.98215048549, 5.2925590145740005, 6.564407159699999]
      },
      {
        "species": [{ "element": "F", "occu": 1 }],
        "abc": [0.109834999999999, 0.490467, 0.015420000000000001],
        "properties": { "magmom": 0.019 },
        "label": "F",
        "xyz": [0.8395025145099924, 5.094518985426, 0.1963896597]
      },
      {
        "species": [{ "element": "F", "occu": 1 }],
        "abc": [0.890165, 0.990467, 0.48458000000000007],
        "properties": { "magmom": 0.019 },
        "label": "F",
        "xyz": [6.80380348549, 10.288057985426, 6.1716278403]
      },
      {
        "species": [{ "element": "F", "occu": 1 }],
        "abc": [0.609835, 0.009533, 0.9845800000000001],
        "properties": { "magmom": 0.019 },
        "label": "F",
        "xyz": [4.66115551451, 0.099020014574, 12.539645340300002]
      },
      {
        "species": [{ "element": "F", "occu": 1 }],
        "abc": [0.451436, 0.643905, 0.703604999999999],
        "properties": { "magmom": 0.065 },
        "label": "F",
        "xyz": [3.450463487416, 6.68829145959, 8.961137906174987]
      },
      {
        "species": [{ "element": "F", "occu": 1 }],
        "abc": [0.048563999999999004, 0.356095, 0.203604999999999],
        "properties": { "magmom": 0.065 },
        "label": "F",
        "xyz": [0.3711895125839924, 3.69878654041, 2.5931204061749873]
      },
      {
        "species": [{ "element": "F", "occu": 1 }],
        "abc": [0.951436, 0.856094999999999, 0.296394999999999],
        "properties": { "magmom": 0.065 },
        "label": "F",
        "xyz": [7.272116487416, 8.89232554040999, 3.7748970938249875]
      },
      {
        "species": [{ "element": "F", "occu": 1 }],
        "abc": [0.548563999999999, 0.143905, 0.796395],
        "properties": { "magmom": 0.065 },
        "label": "F",
        "xyz": [4.192842512583993, 1.4947524595900001, 10.142914593825]
      },
      {
        "species": [{ "element": "F", "occu": 1 }],
        "abc": [0.641386999999999, 0.428816, 0.657717],
        "properties": { "magmom": 0.07100000000000001 },
        "label": "F",
        "xyz": [4.902317105421993, 4.454145239648, 8.376706732095]
      },
      {
        "species": [{ "element": "F", "occu": 1 }],
        "abc": [0.858613, 0.571184, 0.157717],
        "properties": { "magmom": 0.07100000000000001 },
        "label": "F",
        "xyz": [6.562641894577999, 5.932932760352001, 2.008689232095]
      },
      {
        "species": [{ "element": "F", "occu": 1 }],
        "abc": [0.141386999999999, 0.071184, 0.342283],
        "properties": { "magmom": 0.07100000000000001 },
        "label": "F",
        "xyz": [1.0806641054219925, 0.739393760352, 4.359328267905]
      },
      {
        "species": [{ "element": "F", "occu": 1 }],
        "abc": [0.358612999999999, 0.928816, 0.842283],
        "properties": { "magmom": 0.07100000000000001 },
        "label": "F",
        "xyz": [2.7409888945779923, 9.647684239648001, 10.727345767905]
      }
    ]
  },
  "task_ids": null,
  "uncorrected_energy_per_atom": null,
  "energy_per_atom": -4.419024848571429,
  "formation_energy_per_atom": -2.188722635714286,
  "energy_above_hull": 0.06470690297619,
  "is_stable": false,
  "equilibrium_reaction_energy_per_atom": null,
  "decomposes_to": null,
  "xas": null,
  "grain_boundaries": null,
  "band_gap": 0.0,
  "cbm": null,
  "vbm": null,
  "efermi": -3.78718231,
  "is_gap_direct": null,
  "is_metal": null,
  "es_source_calc_id": null,
  "bandstructure": null,
  "dos": null,
  "dos_energy_up": null,
  "dos_energy_down": null,
  "is_magnetic": null,
  "ordering": null,
  "total_magnetization": 8.0000003,
  "total_magnetization_normalized_vol": null,
  "total_magnetization_normalized_formula_units": null,
  "num_magnetic_sites": null,
  "num_unique_magnetic_sites": null,
  "types_of_magnetic_species": null,
  "bulk_modulus": null,
  "shear_modulus": null,
  "universal_anisotropy": null,
  "homogeneous_poisson": null,
  "e_total": null,
  "e_ionic": null,
  "e_electronic": null,
  "n": null,
  "e_ij_max": null,
  "weighted_surface_energy_EV_PER_ANG2": null,
  "weighted_surface_energy": null,
  "weighted_work_function": null,
  "surface_anisotropy": null,
  "shape_factor": null,
  "has_reconstructed": null,
  "possible_species": null,
  "has_props": null,
  "theoretical": null,
  "database_IDs": null,
  "fields_not_requested": [
    "builder_meta",
    "nsites",
    "elements",
    "nelements",
    "composition",
    "composition_reduced",
    "chemsys",
    "symmetry",
    "property_name",
    "deprecated",
    "deprecation_reasons",
    "last_updated",
    "origins",
    "warnings",
    "task_ids",
    "uncorrected_energy_per_atom",
    "equilibrium_reaction_energy_per_atom",
    "decomposes_to",
    "xas",
    "grain_boundaries",
    "cbm",
    "vbm",
    "is_gap_direct",
    "is_metal",
    "es_source_calc_id",
    "bandstructure",
    "dos",
    "dos_energy_up",
    "dos_energy_down",
    "is_magnetic",
    "ordering",
    "total_magnetization_normalized_vol",
    "total_magnetization_normalized_formula_units",
    "num_magnetic_sites",
    "num_unique_magnetic_sites",
    "types_of_magnetic_species",
    "bulk_modulus",
    "shear_modulus",
    "universal_anisotropy",
    "homogeneous_poisson",
    "e_total",
    "e_ionic",
    "e_electronic",
    "n",
    "e_ij_max",
    "weighted_surface_energy_EV_PER_ANG2",
    "weighted_surface_energy",
    "weighted_work_function",
    "surface_anisotropy",
    "shape_factor",
    "has_reconstructed",
    "possible_species",
    "has_props",
    "theoretical",
    "database_IDs"
  ]
}
