{"builder_meta": null, "nsites": null, "elements": null, "nelements": null, "composition": null, "composition_reduced": null, "formula_pretty": "SbI3", "formula_anonymous": "AB3", "chemsys": null, "volume": 351.97797437316626, "density": 4.741073521538678, "density_atomic": 43.99724679664578, "symmetry": null, "property_name": null, "material_id": "mp-23281", "deprecated": null, "deprecation_reasons": null, "last_updated": null, "origins": null, "warnings": null, "structure": {"@module": "pymatgen.core.structure", "@class": "Structure", "charge": 0, "lattice": {"matrix": [[6.79553375, 0.06941494000000001, 4.86302764], [2.53756983, 6.30444773, 4.8629021], [0.10172701, 0.06963868000000001, 8.35571318]], "pbc": [true, true, true], "a": 8.356622236806462, "b": 8.356622443105396, "c": 8.356622563975316, "alpha": 53.71216566290677, "beta": 53.71216517273283, "gamma": 53.71216032397292, "volume": 351.97797437316626}, "properties": {}, "sites": [{"species": [{"element": "Sb", "occu": 1}], "abc": [0.16764066, 0.16764066, 0.16764066], "properties": {"magmom": 0.0}, "label": "Sb", "xyz": [1.5816612270957893, 1.080192819024891, 3.0312185529931273]}, {"species": [{"element": "Sb", "occu": 1}], "abc": [0.83235934, 0.83235934, 0.83235934], "properties": {"magmom": 0.0}, "label": "Sb", "xyz": [7.853169362904211, 5.363308530975108, 15.050424367006874]}, {"species": [{"element": "I", "occu": 1}], "abc": [0.42078096, 0.07015536, 0.76048685], "properties": {"magmom": 0.0}, "label": "I", "xyz": [3.1148173933810073, 0.5244585855822332, 8.741838082097674]}, {"species": [{"element": "I", "occu": 1}], "abc": [0.76048685, 0.42078096, 0.07015536], "properties": {"magmom": 0.0}, "label": "I", "xyz": [6.242811819748898, 2.7104662438280847, 6.3306832516301945]}, {"species": [{"element": "I", "occu": 1}], "abc": [0.07015536, 0.76048685, 0.42078096], "properties": {"magmom": 0.0}, "label": "I", "xyz": [2.449336392220865, 4.828622055905961, 7.55526556802659]}, {"species": [{"element": "I", "occu": 1}], "abc": [0.57921904, 0.92984464, 0.23951315], "properties": {"magmom": 0.0}, "label": "I", "xyz": [6.3200131966189925, 5.919042764417767, 9.339804837902328]}, {"species": [{"element": "I", "occu": 1}], "abc": [0.23951315, 0.57921904, 0.92984464], "properties": {"magmom": 0.0}, "label": "I", "xyz": [3.192018770251102, 3.7330351061719154, 11.750959668369806]}, {"species": [{"element": "I", "occu": 1}], "abc": [0.92984464, 0.23951315, 0.57921904], "properties": {"magmom": 0.0}, "label": "I", "xyz": [6.985494197779135, 1.6148792940940384, 10.526377351973412]}]}, "task_ids": null, "uncorrected_energy_per_atom": null, "energy_per_atom": -2.8187120612500003, "formation_energy_per_atom": -0.643452289999999, "energy_above_hull": 0.0, "is_stable": true, "equilibrium_reaction_energy_per_atom": null, "decomposes_to": null, "xas": null, "grain_boundaries": null, "band_gap": 2.1446, "cbm": null, "vbm": null, "efermi": 1.2762029, "is_gap_direct": null, "is_metal": null, "es_source_calc_id": null, "bandstructure": null, "dos": null, "dos_energy_up": null, "dos_energy_down": null, "is_magnetic": null, "ordering": null, "total_magnetization": 0.0, "total_magnetization_normalized_vol": null, "total_magnetization_normalized_formula_units": null, "num_magnetic_sites": null, "num_unique_magnetic_sites": null, "types_of_magnetic_species": null, "bulk_modulus": null, "shear_modulus": null, "universal_anisotropy": null, "homogeneous_poisson": null, "e_total": null, "e_ionic": null, "e_electronic": null, "n": null, "e_ij_max": null, "weighted_surface_energy_EV_PER_ANG2": null, "weighted_surface_energy": null, "weighted_work_function": null, "surface_anisotropy": null, "shape_factor": null, "has_reconstructed": null, "possible_species": null, "has_props": null, "theoretical": null, "database_IDs": null, "fields_not_requested": ["builder_meta", "nsites", "elements", "nelements", "composition", "composition_reduced", "chemsys", "symmetry", "property_name", "deprecated", "deprecation_reasons", "last_updated", "origins", "warnings", "task_ids", "uncorrected_energy_per_atom", "equilibrium_reaction_energy_per_atom", "decomposes_to", "xas", "grain_boundaries", "cbm", "vbm", "is_gap_direct", "is_metal", "es_source_calc_id", "bandstructure", "dos", "dos_energy_up", "dos_energy_down", "is_magnetic", "ordering", "total_magnetization_normalized_vol", "total_magnetization_normalized_formula_units", "num_magnetic_sites", "num_unique_magnetic_sites", "types_of_magnetic_species", "bulk_modulus", "shear_modulus", "universal_anisotropy", "homogeneous_poisson", "e_total", "e_ionic", "e_electronic", "n", "e_ij_max", "weighted_surface_energy_EV_PER_ANG2", "weighted_surface_energy", "weighted_work_function", "surface_anisotropy", "shape_factor", "has_reconstructed", "possible_species", "has_props", "theoretical", "database_IDs"]}