{"builder_meta": null, "nsites": null, "elements": null, "nelements": null, "composition": null, "composition_reduced": null, "formula_pretty": "SbN", "formula_anonymous": "AB", "chemsys": null, "volume": 4078.4513860539673, "density": 2.763866575243015, "density_atomic": 40.784513860539676, "symmetry": null, "property_name": null, "material_id": "mp-1245010", "deprecated": null, "deprecation_reasons": null, "last_updated": null, "origins": null, "warnings": null, "structure": {"@module": "pymatgen.core.structure", "@class": "Structure", "charge": 0, "lattice": {"matrix": [[16.95133425, 0.25349188, 0.349239099999999], [0.24919964, 15.76684878, -0.05969343], [0.34294495, -0.055209680000000004, 15.27063893]], "pbc": [true, true, true], "a": 16.95682632267659, "b": 15.768930978907504, "c": 15.2745891165009, "alpha": 90.40357866340426, "beta": 87.53660309746978, "gamma": 88.24261192074239, "volume": 4078.4513860539673}, "properties": {}, "sites": [{"species": [{"element": "Sb", "occu": 1}], "abc": [0.15008224, 0.78473972, 0.34594049], "properties": {"magmom": 0.023}, "label": "Sb", "xyz": [2.8582896149924464, 12.39181786231981, 5.28830309493682]}, {"species": [{"element": "Sb", "occu": 1}], "abc": [0.55748537, 0.05810507, 0.49707306], "properties": {"magmom": -0.0}, "label": "Sb", "xyz": [9.635069304589145, 1.0300086219758895, 7.7818504190435025]}, {"species": [{"element": "Sb", "occu": 1}], "abc": [0.43728224, 0.19779346, 0.48110971], "properties": {"magmom": 0.017}, "label": "Sb", "xyz": [7.626801616295538, 3.202865157467197, 7.487761753011626]}, {"species": [{"element": "Sb", "occu": 1}], "abc": [0.36715779, 0.43341451000000003, 0.20371232], "properties": {"magmom": -0.0}, "label": "Sb", "xyz": [6.4016832720408665, 6.915405664672286, 3.213171141736537]}, {"species": [{"element": "Sb", "occu": 1}], "abc": [0.87589743, 0.7799143, 0.41303691000000003], "properties": {"magmom": 0.002}, "label": "Sb", "xyz": [15.183633389884932, 12.496020080048131, 6.56667938784537]}, {"species": [{"element": "Sb", "occu": 1}], "abc": [0.02790772, 0.83358513, 0.47461065], "properties": {"magmom": 0.021}, "label": "Sb", "xyz": [0.8435675298144807, 13.123881968264865, 7.207594779891761]}, {"species": [{"element": "Sb", "occu": 1}], "abc": [0.33251871, 0.53138935, 0.37031132], "properties": {"magmom": 0.005}, "label": "Sb", "xyz": [5.896054229430486, 8.442181548207989, 5.739298541458278]}, {"species": [{"element": "Sb", "occu": 1}], "abc": [0.76910224, 0.22704857, 0.55752195], "properties": {"magmom": 0.012}, "label": "Sb", "xyz": [13.285088901836888, 3.74402103318258, 8.768763660185202]}, {"species": [{"element": "Sb", "occu": 1}], "abc": [0.53710966, 0.38905356, 0.21019952], "properties": {"magmom": -0.0}, "label": "Sb", "xyz": [9.273764246532998, 6.258696537084864, 3.3742367259889083]}, {"species": [{"element": "Sb", "occu": 1}], "abc": [0.9539115100000001, 0.37291799000000003, 0.37442227], "properties": {"magmom": 0.0}, "label": "Sb", "xyz": [16.39141010645378, 6.100878643983518, 6.028549735821206]}, {"species": [{"element": "Sb", "occu": 1}], "abc": [0.61778459, 0.52991014, 0.71683344], "properties": {"magmom": 0.019}, "label": "Sb", "xyz": [10.850160903948684, 8.472040276687059, 11.130627015546908]}, {"species": [{"element": "Sb", "occu": 1}], "abc": [0.86429981, 0.4609136, 0.16458271], "properties": {"magmom": 0.001}, "label": "Sb", "xyz": [14.82233728396441, 7.4771614568133185, 2.7876169125878225]}, {"species": [{"element": "Sb", "occu": 1}], "abc": [0.70879322, 0.5768997, 0.97163398], "properties": {"magmom": 0.009000000000000001}, "label": "Sb", "xyz": [12.491970950599294, 9.221920055883494, 15.050572865078772]}, {"species": [{"element": "Sb", "occu": 1}], "abc": [0.7080339, 0.6791652, 0.58104375], "properties": {"magmom": 0.01}, "label": "Sb", "xyz": [12.370633042363163, 10.855696609949689, 9.07964073046404]}, {"species": [{"element": "Sb", "occu": 1}], "abc": [0.47338815, 0.74161216, 0.63715351], "properties": {"magmom": -0.0}, "label": "Sb", "xyz": [8.427878822560034, 11.777709790844408, 9.850797472088699]}, {"species": [{"element": "Sb", "occu": 1}], "abc": [0.8581721600000001, 0.52519782, 0.34834698000000003], "properties": {"magmom": -0.001}, "label": "Sb", "xyz": [14.797506073516015, 8.479022156432954, 5.587837367435064]}, {"species": [{"element": "Sb", "occu": 1}], "abc": [0.67968941, 0.52925396, 0.15978645], "properties": {"magmom": 0.002}, "label": "Sb", "xyz": [11.708330227501794, 8.508141141120324, 2.645822317470946]}, {"species": [{"element": "Sb", "occu": 1}], "abc": [0.24878651000000002, 0.39049953, 0.45805936], "properties": {"magmom": 0.001}, "label": "Sb", "xyz": [4.471664774509368, 6.194723087623006, 7.058434815552339]}, {"species": [{"element": "Sb", "occu": 1}], "abc": [0.22159654, 0.67556324, 0.47689379], "properties": {"magmom": -0.0}, "label": "Sb", "xyz": [4.088255451355589, 10.681347216393055, 7.3195363642644455]}, {"species": [{"element": "Sb", "occu": 1}], "abc": [0.3689229, 0.55978619, 0.5756983800000001], "properties": {"magmom": 0.003}, "label": "Sb", "xyz": [6.590666759548477, 8.887799043022081, 8.886708837383592]}, {"species": [{"element": "Sb", "occu": 1}], "abc": [0.60432315, 0.73013809, 0.80372332], "properties": {"magmom": 0.004}, "label": "Sb", "xyz": [10.70166671363241, 11.620794557663313, 12.440837445390263]}, {"species": [{"element": "Sb", "occu": 1}], "abc": [0.03935766, 0.59275862, 0.36696747], "properties": {"magmom": -0.0}, "label": "Sb", "xyz": [0.9407297253195284, 9.335652215218174, 5.582189171992247]}, {"species": [{"element": "Sb", "occu": 1}], "abc": [0.3044532, 0.39948308, 0.63444641], "properties": {"magmom": -0.001}, "label": "Sb", "xyz": [5.478019188759321, 6.34073814329541, 9.770882493832696]}, {"species": [{"element": "Sb", "occu": 1}], "abc": [0.04025388, 0.55832768, 0.11182319], "properties": {"magmom": -0.0}, "label": "Sb", "xyz": [0.8598412299008156, 8.807098409430246, 1.6883412930303523]}, {"species": [{"element": "Sb", "occu": 1}], "abc": [0.88654569, 0.9568581500000001, 0.5484712700000001], "properties": {"magmom": 0.007}, "label": "Sb", "xyz": [15.454676477864535, 15.281088965318661, 8.628005001536065]}, {"species": [{"element": "Sb", "occu": 1}], "abc": [0.65209679, 0.90079988, 0.7111476], "properties": {"magmom": 0.007}, "label": "Sb", "xyz": [11.522274134574719, 14.328814498812443, 11.033644087007769]}, {"species": [{"element": "Sb", "occu": 1}], "abc": [0.76302376, 0.46141447, 0.78734911], "properties": {"magmom": -0.001}, "label": "Sb", "xyz": [13.319272517428066, 7.425003208389532, 12.262258289521935]}, {"species": [{"element": "Sb", "occu": 1}], "abc": [0.50869433, 0.9714453200000001, 0.64734069], "properties": {"magmom": -0.001}, "label": "Sb", "xyz": [9.0871336634985, 15.409841868189872, 10.004972988463118]}, {"species": [{"element": "Sb", "occu": 1}], "abc": [0.75559317, 0.04483959, 0.40166497], "properties": {"magmom": 0.004}, "label": "Sb", "xyz": [12.957235364426221, 0.8763399736047502, 6.394886777429335]}, {"species": [{"element": "Sb", "occu": 1}], "abc": [0.186989799999999, 0.45225766, 0.13184426], "properties": {"magmom": 0.002}, "label": "Sb", "xyz": [3.3276443703533625, 7.170799451355043, 2.0516534279450473]}, {"species": [{"element": "Sb", "occu": 1}], "abc": [0.93029553, 0.6930866800000001, 0.56828094], "properties": {"magmom": 0.001}, "label": "Sb", "xyz": [16.137356510009948, 11.132240629000048, 8.961535897955702]}, {"species": [{"element": "Sb", "occu": 1}], "abc": [0.57851222, 0.30475336000000003, 0.60444408], "properties": {"magmom": 0.035}, "label": "Sb", "xyz": [10.08978948132372, 4.9182771283329805, 9.414094612745412]}, {"species": [{"element": "Sb", "occu": 1}], "abc": [0.75354089, 0.061008070000000005, 0.6385632800000001], "properties": {"magmom": 0.014}, "label": "Sb", "xyz": [13.007718738645012, 1.1176666365640775, 10.01079344411731]}, {"species": [{"element": "Sb", "occu": 1}], "abc": [0.41378433000000003, 0.25536388, 0.65831155], "properties": {"magmom": 0.025}, "label": "Sb", "xyz": [7.303597693806479, 4.094829477544503, 10.182104104606635]}, {"species": [{"element": "Sb", "occu": 1}], "abc": [0.72364118, 0.4119117, 0.33437109], "properties": {"magmom": 0.003}, "label": "Sb", "xyz": [12.484002643337696, 6.659526126896193, 5.33419555621654]}, {"species": [{"element": "Sb", "occu": 1}], "abc": [0.43649625000000003, 0.61999125, 0.7959504900000001], "properties": {"magmom": 0.003}, "label": "Sb", "xyz": [7.8266626299202375, 9.842012366849882, 12.270104692167465]}, {"species": [{"element": "Sb", "occu": 1}], "abc": [0.46924195, 0.40212396, 0.45035762], "properties": {"magmom": 0.005}, "label": "Sb", "xyz": [8.20893415611218, 6.4343125921293725, 7.017122082236809]}, {"species": [{"element": "Sb", "occu": 1}], "abc": [0.09356437000000001, 0.61641741, 0.59753774], "properties": {"magmom": 0.008}, "label": "Sb", "xyz": [1.944574456789818, 9.709688029468253, 9.12066334144447]}, {"species": [{"element": "Sb", "occu": 1}], "abc": [0.80665176, 0.48662767, 0.5955995], "properties": {"magmom": 0.012}, "label": "Sb", "xyz": [13.999348888036344, 7.844181698398292, 9.347850771309142]}, {"species": [{"element": "Sb", "occu": 1}], "abc": [0.71231153, 0.29672466000000003, 0.7622905], "properties": {"magmom": 0.315}, "label": "Sb", "xyz": [12.409998191018, 4.816892217830252, 11.871717510205004]}, {"species": [{"element": "Sb", "occu": 1}], "abc": [0.5598056100000001, 0.5195907200000001, 0.9511358], "properties": {"magmom": 0.01}, "label": "Sb", "xyz": [9.945121049880694, 8.281702583090224, 14.688941230335075]}, {"species": [{"element": "Sb", "occu": 1}], "abc": [0.47920492000000003, 0.60378644, 0.12752571000000001], "properties": {"magmom": -0.001}, "label": "Sb", "xyz": [8.317360434889055, 9.63424339732972, 2.078714083087173]}, {"species": [{"element": "Sb", "occu": 1}], "abc": [0.6249916600000001, 0.26391522, 0.37298848], "properties": {"magmom": -0.004}, "label": "Sb", "xyz": [10.788124625561053, 4.298949100733666, 5.898289923264428]}, {"species": [{"element": "Sb", "occu": 1}], "abc": [0.6520157400000001, 0.50276135, 0.50364127], "properties": {"magmom": 0.0}, "label": "Sb", "xyz": [11.350545922585097, 8.06443700024935, 7.888621825187145]}, {"species": [{"element": "Sb", "occu": 1}], "abc": [0.84774089, 0.29721244, 0.24742773], "properties": {"magmom": -0.0}, "label": "Sb", "xyz": [14.529258507327466, 4.88733862317737, 4.056702161574059]}, {"species": [{"element": "Sb", "occu": 1}], "abc": [0.89439083, 0.16488036, 0.4379127], "properties": {"magmom": 0.001}, "label": "Sb", "xyz": [15.352385984825862, 2.8021874958284854, 6.989720698850828]}, {"species": [{"element": "Sb", "occu": 1}], "abc": [0.19616756, 0.61275705, 0.22828193], "properties": {"magmom": 0.001}, "label": "Sb", "xyz": [3.5562888499041447, 9.698371257503227, 3.5179427393059495]}, {"species": [{"element": "Sb", "occu": 1}], "abc": [0.68640751, 0.880065299999999, 0.52446389], "properties": {"magmom": 0.003}, "label": "Sb", "xyz": [12.034697332189564, 14.020899748242883, 8.1960849206579]}, {"species": [{"element": "Sb", "occu": 1}], "abc": [0.09216954000000001, 0.45842377, 0.50510636], "properties": {"magmom": 0.003}, "label": "Sb", "xyz": [1.8498593940350698, 7.223375728219271, 7.718121164778778]}, {"species": [{"element": "Sb", "occu": 1}], "abc": [0.04850053, 0.35561542, 0.206210099999999], "properties": {"magmom": -0.001}, "label": "Sb", "xyz": [0.9814866424085958, 5.607844247873117, 3.1446703580852104]}, {"species": [{"element": "N", "occu": 1}], "abc": [0.94780668, 0.07714896, 0.12255406], "properties": {"magmom": -0.0}, "label": "N", "xyz": [16.127842626100158, 1.4498911126087264, 2.1978846655194104]}, {"species": [{"element": "N", "occu": 1}], "abc": [0.9650469700000001, 0.98534241, 0.85450191], "properties": {"magmom": 0.0}, "label": "N", "xyz": [16.89742784406831, 15.733199568693877, 13.327003799688516]}, {"species": [{"element": "N", "occu": 1}], "abc": [0.5591802, 0.51933914, 0.18500134000000001], "properties": {"magmom": 0.0}, "label": "N", "xyz": [9.671714878203993, 8.319875461291055, 2.9893751198921357]}, {"species": [{"element": "N", "occu": 1}], "abc": [0.43046918, 0.53276153, 0.45361899], "properties": {"magmom": 0.005}, "label": "N", "xyz": [7.585357277829865, 8.48404676175187, 7.04558611398447]}, {"species": [{"element": "N", "occu": 1}], "abc": [0.81751894, 0.11754684, 0.95671487], "properties": {"magmom": 0.0}, "label": "N", "xyz": [14.21542997111324, 2.007757742059121, 14.888140143505181]}, {"species": [{"element": "N", "occu": 1}], "abc": [0.52750483, 0.8857460300000001, 0.17916044], "properties": {"magmom": -0.0}, "label": "N", "xyz": [9.224080451764635, 14.089250513000065, 2.8672464832151987]}, {"species": [{"element": "N", "occu": 1}], "abc": [0.43980128, 0.83297405, 0.38030037], "properties": {"magmom": 0.0}, "label": "N", "xyz": [7.793217425621814, 13.223865675576183, 5.911302360275961]}, {"species": [{"element": "N", "occu": 1}], "abc": [0.05632065, 0.76468474, 0.79695404], "properties": {"magmom": 0.0}, "label": "N", "xyz": [1.4185806886488541, 12.026945909881832, 12.144020106762934]}, {"species": [{"element": "N", "occu": 1}], "abc": [0.00193672, 0.05859759, 0.08226569], "properties": {"magmom": -0.0}, "label": "N", "xyz": [0.0756450893452931, 0.9198484207763945, 1.2534281355302301]}, {"species": [{"element": "N", "occu": 1}], "abc": [0.32789907, 0.234833699999999, 0.024954320000000002], "properties": {"magmom": 0.0}, "label": "N", "xyz": [5.625405167358699, 3.7843294680306045, 0.4815655575287234]}, {"species": [{"element": "N", "occu": 1}], "abc": [0.50147454, 0.9832133, 0.90120984], "properties": {"magmom": 0.0}, "label": "N", "xyz": [9.054744309326514, 15.579539636622258, 13.878493209526967]}, {"species": [{"element": "N", "occu": 1}], "abc": [0.30349141, 0.74605437, 0.69328741], "properties": {"magmom": 0.0}, "label": "N", "xyz": [5.568260229496299, 11.80158286547879, 10.648398235399213]}, {"species": [{"element": "N", "occu": 1}], "abc": [0.042251899999999, 0.32844869, 0.9409234], "properties": {"magmom": -0.0}, "label": "N", "xyz": [1.1207603032708595, 5.137363260965158, 14.363651288832145]}, {"species": [{"element": "N", "occu": 1}], "abc": [0.008734220000000001, 0.9583948800000001, 0.89993944], "properties": {"magmom": -0.0}, "label": "N", "xyz": [0.6955180279607063, 15.063395829832603, 13.688490700556764]}, {"species": [{"element": "N", "occu": 1}], "abc": [0.98401931, 0.44622979, 0.14001349], "properties": {"magmom": 0.001}, "label": "N", "xyz": [16.839657454617015, 7.277348424930776, 2.455116482592906]}, {"species": [{"element": "N", "occu": 1}], "abc": [0.44584243, 0.01995938, 0.9186404300000001], "properties": {"magmom": 0.0}, "label": "N", "xyz": [7.877641020407179, 0.3769961177916624, 14.18274047817208]}, {"species": [{"element": "N", "occu": 1}], "abc": [0.79603341, 0.16245565, 0.00963515], "properties": {"magmom": 0.001}, "label": "N", "xyz": [13.537616622608251, 2.762669719102066, 0.41544335339334026]}, {"species": [{"element": "N", "occu": 1}], "abc": [0.19414282, 0.21435919, 0.73246334], "properties": {"magmom": 0.0}, "label": "N", "xyz": [3.5955926705494092, 3.3885434951504587, 11.240189623026966]}, {"species": [{"element": "N", "occu": 1}], "abc": [0.81606762, 0.61656375, 0.59080885], "properties": {"magmom": 0.022}, "label": "N", "xyz": [14.189697373281842, 9.895515557130981, 9.27022654109531]}, {"species": [{"element": "N", "occu": 1}], "abc": [0.047308499999999004, 0.14519876, 0.290335399999999], "properties": {"magmom": 0.0}, "label": "N", "xyz": [0.9376947343227842, 2.2852898880418206, 4.44146162794331]}, {"species": [{"element": "N", "occu": 1}], "abc": [0.76959055, 0.17585794, 0.42055794], "properties": {"magmom": 0.029}, "label": "N", "xyz": [13.23363860573588, 2.944591632803188, 6.680461998303775]}, {"species": [{"element": "N", "occu": 1}], "abc": [0.63825546, 0.73739887, 0.31660362000000003], "properties": {"magmom": -0.001}, "label": "N", "xyz": [11.111618784918631, 11.770769465761504, 5.013625459542988]}, {"species": [{"element": "N", "occu": 1}], "abc": [0.66882283, 0.6950531, 0.26197869], "properties": {"magmom": -0.0}, "label": "N", "xyz": [11.600490596404926, 11.113874518692118, 4.192670961981921]}, {"species": [{"element": "N", "occu": 1}], "abc": [0.41939018, 0.76756999, 0.39291689], "properties": {"magmom": 0.0}, "label": "N", "xyz": [7.435250150725674, 12.186779149814356, 6.100740520232399]}, {"species": [{"element": "N", "occu": 1}], "abc": [0.87229449, 0.03509011, 0.44214202], "properties": {"magmom": -0.0}, "label": "N", "xyz": [14.946930280144642, 0.7499695087885534, 7.054335836798421]}, {"species": [{"element": "N", "occu": 1}], "abc": [0.24747914000000001, 0.76309078, 0.02250597], "properties": {"magmom": 0.0}, "label": "N", "xyz": [4.392981878462216, 12.093028338729843, 0.3845584277022105]}, {"species": [{"element": "N", "occu": 1}], "abc": [0.15520128, 0.6474805, 0.36655492], "properties": {"magmom": 0.003}, "label": "N", "xyz": [2.9179288395265135, 10.22783201590877, 5.613079854777968]}, {"species": [{"element": "N", "occu": 1}], "abc": [0.5642340100000001, 0.22395726, 0.49046959999999906], "properties": {"magmom": 0.031}, "label": "N", "xyz": [9.788533439743748, 3.6470503218922534, 7.6734679685605025]}, {"species": [{"element": "N", "occu": 1}], "abc": [0.08631063, 0.77188867, 0.85986779], "properties": {"magmom": 0.0}, "label": "N", "xyz": [1.9503220333903166, 12.1446579532198, 13.11479691307826]}, {"species": [{"element": "N", "occu": 1}], "abc": [0.18711373, 0.24621517, 0.79772033], "properties": {"magmom": 0.0}, "label": "N", "xyz": [3.5067582704066247, 3.8854272797747105, 12.232349129197956]}, {"species": [{"element": "N", "occu": 1}], "abc": [0.34705113, 0.77762588, 0.637838599999999], "properties": {"magmom": 0.0}, "label": "N", "xyz": [6.295507322605955, 12.313469435776604, 9.814987624477897]}, {"species": [{"element": "N", "occu": 1}], "abc": [0.64878715, 0.65529078, 0.69816988], "properties": {"magmom": 0.013000000000000001}, "label": "N", "xyz": [11.40053989781431, 10.457787173901151, 10.848965435333417]}, {"species": [{"element": "N", "occu": 1}], "abc": [0.93037795, 0.65985126, 0.91951741], "properties": {"magmom": 0.0}, "label": "N", "xyz": [16.250926157921914, 10.588852027407981, 14.327153930877394]}, {"species": [{"element": "N", "occu": 1}], "abc": [0.97973778, 0.30908118, 0.94762508], "properties": {"magmom": 0.0}, "label": "N", "xyz": [17.009868740599085, 5.0692737201364135, 14.794553062432914]}, {"species": [{"element": "N", "occu": 1}], "abc": [0.46984539000000003, 0.86381943, 0.15690454], "properties": {"magmom": -0.0}, "label": "N", "xyz": [8.233579362317684, 13.730149667812283, 2.508556613283146]}, {"species": [{"element": "N", "occu": 1}], "abc": [0.25974928, 0.71579063, 0.74386213], "properties": {"magmom": 0.0}, "label": "N", "xyz": [4.836575394767957, 11.310538564505359, 11.407236607837008]}, {"species": [{"element": "N", "occu": 1}], "abc": [0.81174546, 0.86816417, 0.49741203], "properties": {"magmom": 0.005}, "label": "N", "xyz": [14.147099760762654, 13.866522108336627, 7.827469066337411]}, {"species": [{"element": "N", "occu": 1}], "abc": [0.0718678, 0.60064747, 0.23485892], "properties": {"magmom": 0.0}, "label": "N", "xyz": [1.4484799134795145, 9.475569247494706, 3.5756901048956133]}, {"species": [{"element": "N", "occu": 1}], "abc": [0.8774700400000001, 0.69092376, 0.8914818800000001], "properties": {"magmom": -0.0}, "label": "N", "xyz": [15.35219510342282, 11.066903543191689, 13.878701140061256]}, {"species": [{"element": "N", "occu": 1}], "abc": [0.18895273, 0.74740384, 0.05299685], "properties": {"magmom": 0.0}, "label": "N", "xyz": [3.4074286536160274, 11.82917536650064, 0.8306703433403422]}, {"species": [{"element": "N", "occu": 1}], "abc": [0.55271602, 0.58550019, 0.83016884], "properties": {"magmom": 0.006}, "label": "N", "xyz": [9.799882648242974, 9.325768623404814, 12.835288137350572]}, {"species": [{"element": "N", "occu": 1}], "abc": [0.69793139, 0.0191561, 0.5244304], "properties": {"magmom": 0.022}, "label": "N", "xyz": [12.015492725987391, 0.44999763751039923, 8.250988719506397]}, {"species": [{"element": "N", "occu": 1}], "abc": [0.37732199, 0.54857587, 0.14645392000000002], "properties": {"magmom": 0.011}, "label": "N", "xyz": [6.5830417139535475, 8.736875173199435, 2.3354741491053805]}, {"species": [{"element": "N", "occu": 1}], "abc": [0.45219218, 0.61008545, 0.65768644], "properties": {"magmom": 0.002}, "label": "N", "xyz": [8.04284410620688, 9.69744142096501, 10.164797251263753]}, {"species": [{"element": "N", "occu": 1}], "abc": [0.48411405, 0.7395083, 0.77129245], "properties": {"magmom": 0.005}, "label": "N", "xyz": [8.655175129508851, 11.739851708972871, 11.903056281563964]}, {"species": [{"element": "N", "occu": 1}], "abc": [0.54629365, 0.37142711, 0.34408452], "properties": {"magmom": -0.0}, "label": "N", "xyz": [9.470967810407926, 5.975719284290834, 5.423005810793191]}, {"species": [{"element": "N", "occu": 1}], "abc": [0.08808967, 0.08846431, 0.29212225], "properties": {"magmom": 0.0}, "label": "N", "xyz": [1.6154645647671833, 1.4010054383105413, 4.486377022142806]}, {"species": [{"element": "N", "occu": 1}], "abc": [0.5598573, 0.41809955, 0.53830316], "properties": {"magmom": 0.012}, "label": "N", "xyz": [9.77912683223773, 6.704312114138185, 8.390799454597493]}, {"species": [{"element": "N", "occu": 1}], "abc": [0.27933355, 0.20630159, 0.98909004], "properties": {"magmom": 0.0}, "label": "N", "xyz": [5.125690089561813, 3.268927414740547, 15.189276218179508]}, {"species": [{"element": "N", "occu": 1}], "abc": [0.704925199999999, 0.65578658, 0.20306451], "properties": {"magmom": 0.001}, "label": "N", "xyz": [12.182484414329638, 10.50716952640429, 3.307966103814524]}]}, "task_ids": null, "uncorrected_energy_per_atom": null, "energy_per_atom": -17.214712157525, "formation_energy_per_atom": 0.20282104310000001, "energy_above_hull": 0.20282104310000101, "is_stable": false, "equilibrium_reaction_energy_per_atom": null, "decomposes_to": null, "xas": null, "grain_boundaries": null, "band_gap": 0.070899999999999, "cbm": null, "vbm": null, "efermi": 0.85667205, "is_gap_direct": null, "is_metal": null, "es_source_calc_id": null, "bandstructure": null, "dos": null, "dos_energy_up": null, "dos_energy_down": null, "is_magnetic": null, "ordering": null, "total_magnetization": 1.6966086, "total_magnetization_normalized_vol": null, "total_magnetization_normalized_formula_units": null, "num_magnetic_sites": null, "num_unique_magnetic_sites": null, "types_of_magnetic_species": null, "bulk_modulus": null, "shear_modulus": null, "universal_anisotropy": null, "homogeneous_poisson": null, "e_total": null, "e_ionic": null, "e_electronic": null, "n": null, "e_ij_max": null, "weighted_surface_energy_EV_PER_ANG2": null, "weighted_surface_energy": null, "weighted_work_function": null, "surface_anisotropy": null, "shape_factor": null, "has_reconstructed": null, "possible_species": null, "has_props": null, "theoretical": null, "database_IDs": null, "fields_not_requested": ["builder_meta", "nsites", "elements", "nelements", "composition", "composition_reduced", "chemsys", "symmetry", "property_name", "deprecated", "deprecation_reasons", "last_updated", "origins", "warnings", "task_ids", "uncorrected_energy_per_atom", "equilibrium_reaction_energy_per_atom", "decomposes_to", "xas", "grain_boundaries", "cbm", "vbm", "is_gap_direct", "is_metal", "es_source_calc_id", "bandstructure", "dos", "dos_energy_up", "dos_energy_down", "is_magnetic", "ordering", "total_magnetization_normalized_vol", "total_magnetization_normalized_formula_units", "num_magnetic_sites", "num_unique_magnetic_sites", "types_of_magnetic_species", "bulk_modulus", "shear_modulus", "universal_anisotropy", "homogeneous_poisson", "e_total", "e_ionic", "e_electronic", "n", "e_ij_max", "weighted_surface_energy_EV_PER_ANG2", "weighted_surface_energy", "weighted_work_function", "surface_anisotropy", "shape_factor", "has_reconstructed", "possible_species", "has_props", "theoretical", "database_IDs"]}