{
  "builder_meta": null,
  "nsites": null,
  "elements": null,
  "nelements": null,
  "composition": null,
  "composition_reduced": null,
  "formula_pretty": "SbO2",
  "formula_anonymous": "AB2",
  "chemsys": null,
  "volume": 153.68018971557615,
  "density": 6.645553853260452,
  "density_atomic": 12.806682476298013,
  "symmetry": null,
  "property_name": null,
  "material_id": "mp-1819",
  "deprecated": null,
  "deprecation_reasons": null,
  "last_updated": null,
  "origins": null,
  "warnings": null,
  "structure": {
    "@module": "pymatgen.core.structure",
    "@class": "Structure",
    "charge": 0,
    "lattice": {
      "matrix": [
        [4.51172721, -0.0, -1.80903105],
        [-0.50196237, 5.22631967, -1.25189528],
        [-0.00584896, 0.01351386, 6.5160583800000005]
      ],
      "pbc": [true, true, true],
      "a": 4.860892485677757,
      "b": 5.397557346245725,
      "c": 6.516075018468818,
      "alpha": 103.28795669062993,
      "beta": 111.90028886355891,
      "gamma": 89.9999996729931,
      "volume": 153.68018971557618
    },
    "properties": {},
    "sites": [
      {
        "species": [{ "element": "Sb", "occu": 1 }],
        "abc": [0.71409427, 0.25, -0.0],
        "properties": { "magmom": -0.0 },
        "label": "Sb",
        "xyz": [3.096307955964087, 1.3065799175, -1.6047925270570835]
      },
      {
        "species": [{ "element": "Sb", "occu": 1 }],
        "abc": [0.28590573, 0.75, 0.0],
        "properties": { "magmom": -0.0 },
        "label": "Sb",
        "xyz": [0.9134568840359134, 3.9197397525, -1.4561338029429165]
      },
      {
        "species": [{ "element": "Sb", "occu": 1 }],
        "abc": [0.5, 0.5, 0.5],
        "properties": { "magmom": -0.0 },
        "label": "Sb",
        "xyz": [2.00195794, 2.6199167649999997, 1.7275660250000002]
      },
      {
        "species": [{ "element": "Sb", "occu": 1 }],
        "abc": [0.0, 0.0, 0.5],
        "properties": { "magmom": -0.0 },
        "label": "Sb",
        "xyz": [-0.00292448, 0.00675693, 3.2580291900000002]
      },
      {
        "species": [{ "element": "O", "occu": 1 }],
        "abc": [0.49330921, 0.53303383, 0.8124631],
        "properties": { "magmom": -0.0 },
        "label": "O",
        "xyz": [1.953361596930251, 2.796784703093002, 3.7343427771974853]
      },
      {
        "species": [{ "element": "O", "occu": 1 }],
        "abc": [0.68084711, 0.9669661700000001, 0.187536899999999],
        "properties": { "magmom": -0.0 },
        "label": "O",
        "xyz": [2.5853189058072163, 5.0562086619069975, -1.220212557631228]
      },
      {
        "species": [{ "element": "O", "occu": 1 }],
        "abc": [0.5066907900000001, 0.46696617, 0.187536899999999],
        "properties": { "magmom": -0.0 },
        "label": "O",
        "xyz": [2.0505542830697494, 2.443048826906998, -0.2792107271974915]
      },
      {
        "species": [{ "element": "O", "occu": 1 }],
        "abc": [0.31915289, 0.03303383, 0.8124631],
        "properties": { "magmom": -0.0 },
        "label": "O",
        "xyz": [1.4185969741927837, 0.18362486809300207, 4.675344607631221]
      },
      {
        "species": [{ "element": "O", "occu": 1 }],
        "abc": [0.86121926, 0.32529537000000003, 0.61667631],
        "properties": { "magmom": 0.0 },
        "label": "O",
        "xyz": [3.7186934191727006, 1.7084312681095846, 2.053090717016101]
      },
      {
        "species": [{ "element": "O", "occu": 1 }],
        "abc": [0.24454295, 0.17470463, 0.38332369],
        "properties": { "magmom": 0.0 },
        "label": "O",
        "xyz": [1.013373886474034, 0.9182424268904154, 1.8366618511772783]
      },
      {
        "species": [{ "element": "O", "occu": 1 }],
        "abc": [0.13878074, 0.67470463, 0.38332369],
        "properties": { "magmom": 0.0 },
        "label": "O",
        "xyz": [0.2852224608272999, 3.5314022618904155, 1.4020413329838988]
      },
      {
        "species": [{ "element": "O", "occu": 1 }],
        "abc": [0.75545705, 0.82529537, 0.61667631],
        "properties": { "magmom": 0.0 },
        "label": "O",
        "xyz": [2.990541993525966, 4.321591103109584, 1.6184701988227221]
      }
    ]
  },
  "task_ids": null,
  "uncorrected_energy_per_atom": null,
  "energy_per_atom": -6.513981062916656,
  "formation_energy_per_atom": -1.839006646249989,
  "energy_above_hull": 0.0,
  "is_stable": true,
  "equilibrium_reaction_energy_per_atom": null,
  "decomposes_to": null,
  "xas": null,
  "grain_boundaries": null,
  "band_gap": 2.028799999999999,
  "cbm": null,
  "vbm": null,
  "efermi": 5.64122176,
  "is_gap_direct": null,
  "is_metal": null,
  "es_source_calc_id": null,
  "bandstructure": null,
  "dos": null,
  "dos_energy_up": null,
  "dos_energy_down": null,
  "is_magnetic": null,
  "ordering": null,
  "total_magnetization": 0.0,
  "total_magnetization_normalized_vol": null,
  "total_magnetization_normalized_formula_units": null,
  "num_magnetic_sites": null,
  "num_unique_magnetic_sites": null,
  "types_of_magnetic_species": null,
  "bulk_modulus": null,
  "shear_modulus": null,
  "universal_anisotropy": null,
  "homogeneous_poisson": null,
  "e_total": null,
  "e_ionic": null,
  "e_electronic": null,
  "n": null,
  "e_ij_max": null,
  "weighted_surface_energy_EV_PER_ANG2": null,
  "weighted_surface_energy": null,
  "weighted_work_function": null,
  "surface_anisotropy": null,
  "shape_factor": null,
  "has_reconstructed": null,
  "possible_species": null,
  "has_props": null,
  "theoretical": null,
  "database_IDs": null,
  "fields_not_requested": [
    "builder_meta",
    "nsites",
    "elements",
    "nelements",
    "composition",
    "composition_reduced",
    "chemsys",
    "symmetry",
    "property_name",
    "deprecated",
    "deprecation_reasons",
    "last_updated",
    "origins",
    "warnings",
    "task_ids",
    "uncorrected_energy_per_atom",
    "equilibrium_reaction_energy_per_atom",
    "decomposes_to",
    "xas",
    "grain_boundaries",
    "cbm",
    "vbm",
    "is_gap_direct",
    "is_metal",
    "es_source_calc_id",
    "bandstructure",
    "dos",
    "dos_energy_up",
    "dos_energy_down",
    "is_magnetic",
    "ordering",
    "total_magnetization_normalized_vol",
    "total_magnetization_normalized_formula_units",
    "num_magnetic_sites",
    "num_unique_magnetic_sites",
    "types_of_magnetic_species",
    "bulk_modulus",
    "shear_modulus",
    "universal_anisotropy",
    "homogeneous_poisson",
    "e_total",
    "e_ionic",
    "e_electronic",
    "n",
    "e_ij_max",
    "weighted_surface_energy_EV_PER_ANG2",
    "weighted_surface_energy",
    "weighted_work_function",
    "surface_anisotropy",
    "shape_factor",
    "has_reconstructed",
    "possible_species",
    "has_props",
    "theoretical",
    "database_IDs"
  ]
}
