{
  "builder_meta": null,
  "nsites": null,
  "elements": null,
  "nelements": null,
  "composition": null,
  "composition_reduced": null,
  "formula_pretty": "SbO4",
  "formula_anonymous": "AB4",
  "chemsys": null,
  "volume": 283.27534427204057,
  "density": 4.355589117867341,
  "density_atomic": 14.163767213602029,
  "symmetry": null,
  "property_name": null,
  "material_id": "mp-1219511",
  "deprecated": null,
  "deprecation_reasons": null,
  "last_updated": null,
  "origins": null,
  "warnings": null,
  "structure": {
    "@module": "pymatgen.core.structure",
    "@class": "Structure",
    "charge": 0,
    "lattice": {
      "matrix": [
        [-3.664908999999999, 3.695316, 5.229185],
        [3.664908999999999, -3.695316, 5.229185],
        [3.664908999999999, 3.695316, -5.229185]
      ],
      "pbc": [true, true, true],
      "a": 7.377756710705633,
      "b": 7.377756710705633,
      "c": 7.377756710705633,
      "alpha": 120.42942317220913,
      "beta": 119.88450820967678,
      "gamma": 89.7289926628089,
      "volume": 283.27534427204046
    },
    "properties": {},
    "sites": [
      {
        "species": [{ "element": "Sb", "occu": 1 }],
        "abc": [0.0, 0.0, 0.5],
        "properties": { "magmom": -0.023 },
        "label": "Sb",
        "xyz": [1.8324544999999994, 1.847658, -2.6145925]
      },
      {
        "species": [{ "element": "Sb", "occu": 1 }],
        "abc": [0.0, 0.5, 0.0],
        "properties": { "magmom": -0.023 },
        "label": "Sb",
        "xyz": [1.8324544999999994, -1.847658, 2.6145925]
      },
      {
        "species": [{ "element": "Sb", "occu": 1 }],
        "abc": [0.0, 0.0, 0.0],
        "properties": { "magmom": -0.023 },
        "label": "Sb",
        "xyz": [0.0, 0.0, 0.0]
      },
      {
        "species": [{ "element": "Sb", "occu": 1 }],
        "abc": [0.5, 0.0, 0.5],
        "properties": { "magmom": -0.023 },
        "label": "Sb",
        "xyz": [0.0, 3.695316, 0.0]
      },
      {
        "species": [{ "element": "O", "occu": 1 }],
        "abc": [0.926735, 0.675392, 0.851364],
        "properties": { "magmom": 0.262 },
        "label": "O",
        "xyz": [2.199022363088999, 4.074850820412, 3.925878618155001]
      },
      {
        "species": [{ "element": "O", "occu": 1 }],
        "abc": [0.324028, 0.075371, 0.648636],
        "properties": { "magmom": 0.262 },
        "label": "O",
        "xyz": [1.4658866369109997, 3.315781179588, -1.3033063818450001]
      },
      {
        "species": [{ "element": "O", "occu": 1 }],
        "abc": [0.925666, 0.675666, 0.25],
        "properties": { "magmom": 0.234 },
        "label": "O",
        "xyz": [-2.220446049250313e-16, 1.847658, 7.06636502442]
      },
      {
        "species": [{ "element": "O", "occu": 1 }],
        "abc": [0.322383, 0.072383, 0.25],
        "properties": { "magmom": 0.273 },
        "label": "O",
        "xyz": [2.220446049250313e-16, 1.8476579999999998, 0.7570081957099999]
      },
      {
        "species": [{ "element": "O", "occu": 1 }],
        "abc": [0.926735, 0.075371, 0.251343],
        "properties": { "magmom": 0.262 },
        "label": "O",
        "xyz": [-2.1990223630889996, 4.074850820412, 3.925878618155]
      },
      {
        "species": [{ "element": "O", "occu": 1 }],
        "abc": [0.324028, 0.675392, 0.248657],
        "properties": { "magmom": 0.262 },
        "label": "O",
        "xyz": [2.199022363088999, -0.37953482041200015, 3.9258786181549996]
      },
      {
        "species": [{ "element": "O", "occu": 1 }],
        "abc": [0.073265, 0.324608, 0.148636],
        "properties": { "magmom": 0.262 },
        "label": "O",
        "xyz": [1.4658866369109995, -0.37953482041200015, 1.3033063818450001]
      },
      {
        "species": [{ "element": "O", "occu": 1 }],
        "abc": [0.675972, 0.924628999999999, 0.351364],
        "properties": { "magmom": 0.262 },
        "label": "O",
        "xyz": [2.1990223630889956, 0.3795348204120037, 6.532491381844995]
      },
      {
        "species": [{ "element": "O", "occu": 1 }],
        "abc": [0.074334, 0.324334, 0.75],
        "properties": { "magmom": 0.234 },
        "label": "O",
        "xyz": [3.6649089999999993, 1.847658, -1.8371800244199998]
      },
      {
        "species": [{ "element": "O", "occu": 1 }],
        "abc": [0.677616999999999, 0.927616999999999, 0.75],
        "properties": { "magmom": 0.273 },
        "label": "O",
        "xyz": [3.664908999999999, 1.847658, 4.472176804289989]
      },
      {
        "species": [{ "element": "O", "occu": 1 }],
        "abc": [0.073265, 0.924628999999999, 0.748657],
        "properties": { "magmom": 0.262 },
        "label": "O",
        "xyz": [5.863931363088994, -0.3795348204119966, 1.3033063818449948]
      },
      {
        "species": [{ "element": "O", "occu": 1 }],
        "abc": [0.675972, 0.324608, 0.751343],
        "properties": { "magmom": 0.262 },
        "label": "O",
        "xyz": [1.4658866369109993, 4.074850820412, 1.3033063818450006]
      },
      {
        "species": [{ "element": "O", "occu": 1 }],
        "abc": [0.376528, 0.626528, 0.75],
        "properties": { "magmom": 1.755 },
        "label": "O",
        "xyz": [3.6649089999999993, 1.847658, 1.3232766393600004]
      },
      {
        "species": [{ "element": "O", "occu": 1 }],
        "abc": [0.623472, 0.373471999999999, 0.25],
        "properties": { "magmom": 1.755 },
        "label": "O",
        "xyz": [-3.774758283725532e-15, 1.8476580000000038, 3.9059083606399945]
      },
      {
        "species": [{ "element": "O", "occu": 1 }],
        "abc": [0.5, 0.5, 0.5],
        "properties": { "magmom": 1.75 },
        "label": "O",
        "xyz": [1.8324544999999994, 1.847658, 2.6145925]
      },
      {
        "species": [{ "element": "O", "occu": 1 }],
        "abc": [0.5, 0.0, 0.0],
        "properties": { "magmom": 1.75 },
        "label": "O",
        "xyz": [-1.8324544999999994, 1.847658, 2.6145925]
      }
    ]
  },
  "task_ids": null,
  "uncorrected_energy_per_atom": null,
  "energy_per_atom": -5.520212929,
  "formation_energy_per_atom": -0.7360438770000001,
  "energy_above_hull": 0.487579985999999,
  "is_stable": false,
  "equilibrium_reaction_energy_per_atom": null,
  "decomposes_to": null,
  "xas": null,
  "grain_boundaries": null,
  "band_gap": 0.0,
  "cbm": null,
  "vbm": null,
  "efermi": 1.34050586,
  "is_gap_direct": null,
  "is_metal": null,
  "es_source_calc_id": null,
  "bandstructure": null,
  "dos": null,
  "dos_energy_up": null,
  "dos_energy_down": null,
  "is_magnetic": null,
  "ordering": null,
  "total_magnetization": 12.0081998,
  "total_magnetization_normalized_vol": null,
  "total_magnetization_normalized_formula_units": null,
  "num_magnetic_sites": null,
  "num_unique_magnetic_sites": null,
  "types_of_magnetic_species": null,
  "bulk_modulus": null,
  "shear_modulus": null,
  "universal_anisotropy": null,
  "homogeneous_poisson": null,
  "e_total": null,
  "e_ionic": null,
  "e_electronic": null,
  "n": null,
  "e_ij_max": null,
  "weighted_surface_energy_EV_PER_ANG2": null,
  "weighted_surface_energy": null,
  "weighted_work_function": null,
  "surface_anisotropy": null,
  "shape_factor": null,
  "has_reconstructed": null,
  "possible_species": null,
  "has_props": null,
  "theoretical": null,
  "database_IDs": null,
  "fields_not_requested": [
    "builder_meta",
    "nsites",
    "elements",
    "nelements",
    "composition",
    "composition_reduced",
    "chemsys",
    "symmetry",
    "property_name",
    "deprecated",
    "deprecation_reasons",
    "last_updated",
    "origins",
    "warnings",
    "task_ids",
    "uncorrected_energy_per_atom",
    "equilibrium_reaction_energy_per_atom",
    "decomposes_to",
    "xas",
    "grain_boundaries",
    "cbm",
    "vbm",
    "is_gap_direct",
    "is_metal",
    "es_source_calc_id",
    "bandstructure",
    "dos",
    "dos_energy_up",
    "dos_energy_down",
    "is_magnetic",
    "ordering",
    "total_magnetization_normalized_vol",
    "total_magnetization_normalized_formula_units",
    "num_magnetic_sites",
    "num_unique_magnetic_sites",
    "types_of_magnetic_species",
    "bulk_modulus",
    "shear_modulus",
    "universal_anisotropy",
    "homogeneous_poisson",
    "e_total",
    "e_ionic",
    "e_electronic",
    "n",
    "e_ij_max",
    "weighted_surface_energy_EV_PER_ANG2",
    "weighted_surface_energy",
    "weighted_work_function",
    "surface_anisotropy",
    "shape_factor",
    "has_reconstructed",
    "possible_species",
    "has_props",
    "theoretical",
    "database_IDs"
  ]
}
