{"builder_meta": null, "nsites": null, "elements": null, "nelements": null, "composition": null, "composition_reduced": null, "formula_pretty": "SbPb4", "formula_anonymous": "AB4", "chemsys": null, "volume": 155.0566795272061, "density": 10.179774389340926, "density_atomic": 31.011335905441218, "symmetry": null, "property_name": null, "material_id": "mp-1219484", "deprecated": null, "deprecation_reasons": null, "last_updated": null, "origins": null, "warnings": null, "structure": {"@module": "pymatgen.core.structure", "@class": "Structure", "charge": 0, "lattice": {"matrix": [[14.16718, -1.77984, 0.0], [14.16718, 1.77984, 0.0], [13.943576, 0.0, 3.074653]], "pbc": [true, true, true], "a": 14.278544028646618, "b": 14.278544028646618, "c": 14.278543438957106, "alpha": 14.32124544694161, "beta": 14.32124544694161, "gamma": 14.32124597766372, "volume": 155.0566795272061}, "properties": {}, "sites": [{"species": [{"element": "Sb", "occu": 1}], "abc": [0.0, 0.0, 0.0], "properties": {"magmom": -0.0}, "label": "Sb", "xyz": [0.0, 0.0, 0.0]}, {"species": [{"element": "Pb", "occu": 1}], "abc": [0.603673, 0.603673, 0.603673], "properties": {"magmom": 0.0}, "label": "Pb", "xyz": [25.522048458928, 0.0, 1.8560850004690002]}, {"species": [{"element": "Pb", "occu": 1}], "abc": [0.200182, 0.200182, 0.200182], "properties": {"magmom": 0.001}, "label": "Pb", "xyz": [8.463281784351999, 0.0, 0.615490186846]}, {"species": [{"element": "Pb", "occu": 1}], "abc": [0.799817999999999, 0.799817999999999, 0.799817999999999], "properties": {"magmom": 0.001}, "label": "Pb", "xyz": [33.814654215647955, 0.0, 2.459162813153997]}, {"species": [{"element": "Pb", "occu": 1}], "abc": [0.396327, 0.396327, 0.396327], "properties": {"magmom": 0.0}, "label": "Pb", "xyz": [16.755887541072, 0.0, 1.218567999531]}]}, "task_ids": null, "uncorrected_energy_per_atom": null, "energy_per_atom": -50.10414968600001, "formation_energy_per_atom": 0.065220747999995, "energy_above_hull": 0.065220747999994, "is_stable": false, "equilibrium_reaction_energy_per_atom": null, "decomposes_to": null, "xas": null, "grain_boundaries": null, "band_gap": 0.0, "cbm": null, "vbm": null, "efermi": 7.42445912, "is_gap_direct": null, "is_metal": null, "es_source_calc_id": null, "bandstructure": null, "dos": null, "dos_energy_up": null, "dos_energy_down": null, "is_magnetic": null, "ordering": null, "total_magnetization": 0.0216995, "total_magnetization_normalized_vol": null, "total_magnetization_normalized_formula_units": null, "num_magnetic_sites": null, "num_unique_magnetic_sites": null, "types_of_magnetic_species": null, "bulk_modulus": null, "shear_modulus": null, "universal_anisotropy": null, "homogeneous_poisson": null, "e_total": null, "e_ionic": null, "e_electronic": null, "n": null, "e_ij_max": null, "weighted_surface_energy_EV_PER_ANG2": null, "weighted_surface_energy": null, "weighted_work_function": null, "surface_anisotropy": null, "shape_factor": null, "has_reconstructed": null, "possible_species": null, "has_props": null, "theoretical": null, "database_IDs": null, "fields_not_requested": ["builder_meta", "nsites", "elements", "nelements", "composition", "composition_reduced", "chemsys", "symmetry", "property_name", "deprecated", "deprecation_reasons", "last_updated", "origins", "warnings", "task_ids", "uncorrected_energy_per_atom", "equilibrium_reaction_energy_per_atom", "decomposes_to", "xas", "grain_boundaries", "cbm", "vbm", "is_gap_direct", "is_metal", "es_source_calc_id", "bandstructure", "dos", "dos_energy_up", "dos_energy_down", "is_magnetic", "ordering", "total_magnetization_normalized_vol", "total_magnetization_normalized_formula_units", "num_magnetic_sites", "num_unique_magnetic_sites", "types_of_magnetic_species", "bulk_modulus", "shear_modulus", "universal_anisotropy", "homogeneous_poisson", "e_total", "e_ionic", "e_electronic", "n", "e_ij_max", "weighted_surface_energy_EV_PER_ANG2", "weighted_surface_energy", "weighted_work_function", "surface_anisotropy", "shape_factor", "has_reconstructed", "possible_species", "has_props", "theoretical", "database_IDs"]}