{
  "builder_meta": null,
  "nsites": null,
  "elements": null,
  "nelements": null,
  "composition": null,
  "composition_reduced": null,
  "formula_pretty": "SbPd3",
  "formula_anonymous": "AB3",
  "chemsys": null,
  "volume": 65.16059396254619,
  "density": 11.23886224199967,
  "density_atomic": 16.290148490636547,
  "symmetry": null,
  "property_name": null,
  "material_id": "mp-973402",
  "deprecated": null,
  "deprecation_reasons": null,
  "last_updated": null,
  "origins": null,
  "warnings": null,
  "structure": {
    "@module": "pymatgen.core.structure",
    "@class": "Structure",
    "charge": 0,
    "lattice": {
      "matrix": [
        [1.95e-6, 3.19387914, 3.19387914],
        [3.19387915, 1.94e-6, 3.19387915],
        [3.19387914, 3.19387914, 1.94e-6]
      ],
      "pbc": [true, true, true],
      "a": 4.516827196368938,
      "b": 4.516827210511069,
      "c": 4.516827196368934,
      "alpha": 59.999959813954284,
      "beta": 59.99995971038193,
      "gamma": 59.999959710381994,
      "volume": 65.16059396254619
    },
    "properties": {},
    "sites": [
      {
        "species": [{ "element": "Sb", "occu": 1 }],
        "abc": [0.7500009400000001, 0.7500009400000001, 0.7500009400000001],
        "properties": { "magmom": 0.0 },
        "label": "Sb",
        "xyz": [4.790826184494626, 4.790826169494608, 4.790826176994617]
      },
      {
        "species": [{ "element": "Pd", "occu": 1 }],
        "abc": [1e-7, 1e-7, 1.1e-7],
        "properties": { "magmom": 0.0 },
        "label": "Pd",
        "xyz": [6.707148153999999e-7, 6.707148134e-7, 6.387760424e-7]
      },
      {
        "species": [{ "element": "Pd", "occu": 1 }],
        "abc": [0.49999917, 0.49999916, 0.49999916],
        "properties": { "magmom": 0.0 },
        "label": "Pd",
        "xyz": [3.193874754281418, 3.1938747762202064, 3.193874781220198]
      },
      {
        "species": [{ "element": "Pd", "occu": 1 }],
        "abc": [0.25000079000000003, 0.250000799999999, 0.250000799999999],
        "properties": { "magmom": 0.0 },
        "label": "Pd",
        "xyz": [1.5969451702081663, 1.5969451332693816, 1.5969451357693896]
      }
    ]
  },
  "task_ids": null,
  "uncorrected_energy_per_atom": null,
  "energy_per_atom": -24.0169172375,
  "formation_energy_per_atom": -0.369998097499998,
  "energy_above_hull": 0.049276065357144,
  "is_stable": false,
  "equilibrium_reaction_energy_per_atom": null,
  "decomposes_to": null,
  "xas": null,
  "grain_boundaries": null,
  "band_gap": 0.0,
  "cbm": null,
  "vbm": null,
  "efermi": 6.62198785,
  "is_gap_direct": null,
  "is_metal": null,
  "es_source_calc_id": null,
  "bandstructure": null,
  "dos": null,
  "dos_energy_up": null,
  "dos_energy_down": null,
  "is_magnetic": null,
  "ordering": null,
  "total_magnetization": 0.0,
  "total_magnetization_normalized_vol": null,
  "total_magnetization_normalized_formula_units": null,
  "num_magnetic_sites": null,
  "num_unique_magnetic_sites": null,
  "types_of_magnetic_species": null,
  "bulk_modulus": null,
  "shear_modulus": null,
  "universal_anisotropy": null,
  "homogeneous_poisson": null,
  "e_total": null,
  "e_ionic": null,
  "e_electronic": null,
  "n": null,
  "e_ij_max": null,
  "weighted_surface_energy_EV_PER_ANG2": null,
  "weighted_surface_energy": null,
  "weighted_work_function": null,
  "surface_anisotropy": null,
  "shape_factor": null,
  "has_reconstructed": null,
  "possible_species": null,
  "has_props": null,
  "theoretical": null,
  "database_IDs": null,
  "fields_not_requested": [
    "builder_meta",
    "nsites",
    "elements",
    "nelements",
    "composition",
    "composition_reduced",
    "chemsys",
    "symmetry",
    "property_name",
    "deprecated",
    "deprecation_reasons",
    "last_updated",
    "origins",
    "warnings",
    "task_ids",
    "uncorrected_energy_per_atom",
    "equilibrium_reaction_energy_per_atom",
    "decomposes_to",
    "xas",
    "grain_boundaries",
    "cbm",
    "vbm",
    "is_gap_direct",
    "is_metal",
    "es_source_calc_id",
    "bandstructure",
    "dos",
    "dos_energy_up",
    "dos_energy_down",
    "is_magnetic",
    "ordering",
    "total_magnetization_normalized_vol",
    "total_magnetization_normalized_formula_units",
    "num_magnetic_sites",
    "num_unique_magnetic_sites",
    "types_of_magnetic_species",
    "bulk_modulus",
    "shear_modulus",
    "universal_anisotropy",
    "homogeneous_poisson",
    "e_total",
    "e_ionic",
    "e_electronic",
    "n",
    "e_ij_max",
    "weighted_surface_energy_EV_PER_ANG2",
    "weighted_surface_energy",
    "weighted_work_function",
    "surface_anisotropy",
    "shape_factor",
    "has_reconstructed",
    "possible_species",
    "has_props",
    "theoretical",
    "database_IDs"
  ]
}
