{"builder_meta": null, "nsites": null, "elements": null, "nelements": null, "composition": null, "composition_reduced": null, "formula_pretty": "SbPd2", "formula_anonymous": "AB2", "chemsys": null, "volume": 211.2744386486413, "density": 10.519329744539034, "density_atomic": 17.606203220720108, "symmetry": null, "property_name": null, "material_id": "mp-542106", "deprecated": null, "deprecation_reasons": null, "last_updated": null, "origins": null, "warnings": null, "structure": {"@module": "pymatgen.core.structure", "@class": "Structure", "charge": 0, "lattice": {"matrix": [[3.39300933, 0.0, -0.6523816], [-0.0, 6.96596167, -0.0], [-0.03908572, -0.0, 8.946348069999999]], "pbc": [true, true, true], "a": 3.45515760356682, "b": 6.96596167, "c": 8.946433450437143, "alpha": 90.0, "beta": 101.13388784172611, "gamma": 90.0, "volume": 211.27443864864128}, "properties": {}, "sites": [{"species": [{"element": "Sb", "occu": 1}], "abc": [0.4425522, 0.19811141000000002, 0.88510341], "properties": {"magmom": -0.0}, "label": "Sb", "xyz": [1.4669888395577209, 1.380036488449655, 7.629730271484399]}, {"species": [{"element": "Sb", "occu": 1}], "abc": [0.557447799999999, 0.69811141, 0.11489659], "properties": {"magmom": -0.0}, "label": "Sb", "xyz": [1.8869347704422759, 4.863017323449655, 0.664236198515602]}, {"species": [{"element": "Sb", "occu": 1}], "abc": [0.79530944, 0.72639083, 0.59061888], "properties": {"magmom": -0.0}, "label": "Sb", "xyz": [2.6754075859866817, 5.060010679219487, 4.765036832231257]}, {"species": [{"element": "Sb", "occu": 1}], "abc": [0.20469056, 0.22639083000000002, 0.40938112], "properties": {"magmom": -0.0}, "label": "Sb", "xyz": [0.6785160240133185, 1.5770298442194863, 3.528929637768742]}, {"species": [{"element": "Pd", "occu": 1}], "abc": [0.038335140000000004, 0.00389866, 0.07667328], "properties": {"magmom": -0.0}, "label": "Pd", "xyz": [0.1270746573332946, 0.027157916124362202, 0.6609367105791455]}, {"species": [{"element": "Pd", "occu": 1}], "abc": [0.9616648600000001, 0.50389866, 0.92332672], "properties": {"magmom": -0.0}, "label": "Pd", "xyz": [3.226848952666706, 3.5101387511243627, 7.633029759420855]}, {"species": [{"element": "Pd", "occu": 1}], "abc": [0.82475377, 0.10630711, 0.64950354], "properties": {"magmom": 0.0}, "label": "Pd", "xyz": [2.7730109230592257, 0.7405312535084737, 5.272630557458535]}, {"species": [{"element": "Pd", "occu": 1}], "abc": [0.17524623, 0.60630711, 0.35049646], "properties": {"magmom": 0.0}, "label": "Pd", "xyz": [0.5809126869407747, 4.223512088508474, 3.0213359125414643]}, {"species": [{"element": "Pd", "occu": 1}], "abc": [0.67027696, 0.9526357, 0.34055492], "properties": {"magmom": -0.0}, "label": "Pd", "xyz": [2.2609451447162945, 6.636023771673619, 2.6094464956630676]}, {"species": [{"element": "Pd", "occu": 1}], "abc": [0.32972304, 0.4526357, 0.65944508], "properties": {"magmom": -0.0}, "label": "Pd", "xyz": [1.0929784652837058, 3.1530429366736192, 5.684519974336931]}, {"species": [{"element": "Pd", "occu": 1}], "abc": [0.41369257, 0.82695629, 0.82738614], "properties": {"magmom": 0.0}, "label": "Pd", "xyz": [1.3713237667617573, 5.760545818905405, 7.132198976009037]}, {"species": [{"element": "Pd", "occu": 1}], "abc": [0.58630743, 0.32695629, 0.17261386], "properties": {"magmom": 0.0}, "label": "Pd", "xyz": [1.9825998432382426, 2.277564983905404, 1.1617674939909621]}]}, "task_ids": null, "uncorrected_energy_per_atom": null, "energy_per_atom": -24.320722490833333, "formation_energy_per_atom": -0.44498150749999804, "energy_above_hull": 0.0, "is_stable": true, "equilibrium_reaction_energy_per_atom": null, "decomposes_to": null, "xas": null, "grain_boundaries": null, "band_gap": 0.0, "cbm": null, "vbm": null, "efermi": 7.04615561, "is_gap_direct": null, "is_metal": null, "es_source_calc_id": null, "bandstructure": null, "dos": null, "dos_energy_up": null, "dos_energy_down": null, "is_magnetic": null, "ordering": null, "total_magnetization": 0.0, "total_magnetization_normalized_vol": null, "total_magnetization_normalized_formula_units": null, "num_magnetic_sites": null, "num_unique_magnetic_sites": null, "types_of_magnetic_species": null, "bulk_modulus": null, "shear_modulus": null, "universal_anisotropy": null, "homogeneous_poisson": null, "e_total": null, "e_ionic": null, "e_electronic": null, "n": null, "e_ij_max": null, "weighted_surface_energy_EV_PER_ANG2": null, "weighted_surface_energy": null, "weighted_work_function": null, "surface_anisotropy": null, "shape_factor": null, "has_reconstructed": null, "possible_species": null, "has_props": null, "theoretical": null, "database_IDs": null, "fields_not_requested": ["builder_meta", "nsites", "elements", "nelements", "composition", "composition_reduced", "chemsys", "symmetry", "property_name", "deprecated", "deprecation_reasons", "last_updated", "origins", "warnings", "task_ids", "uncorrected_energy_per_atom", "equilibrium_reaction_energy_per_atom", "decomposes_to", "xas", "grain_boundaries", "cbm", "vbm", "is_gap_direct", "is_metal", "es_source_calc_id", "bandstructure", "dos", "dos_energy_up", "dos_energy_down", "is_magnetic", "ordering", "total_magnetization_normalized_vol", "total_magnetization_normalized_formula_units", "num_magnetic_sites", "num_unique_magnetic_sites", "types_of_magnetic_species", "bulk_modulus", "shear_modulus", "universal_anisotropy", "homogeneous_poisson", "e_total", "e_ionic", "e_electronic", "n", "e_ij_max", "weighted_surface_energy_EV_PER_ANG2", "weighted_surface_energy", "weighted_work_function", "surface_anisotropy", "shape_factor", "has_reconstructed", "possible_species", "has_props", "theoretical", "database_IDs"]}