{"builder_meta": null, "nsites": null, "elements": null, "nelements": null, "composition": null, "composition_reduced": null, "formula_pretty": "SbPt7", "formula_anonymous": "AB7", "chemsys": null, "volume": 127.52068636134531, "density": 19.367833800948187, "density_atomic": 15.940085795168164, "symmetry": null, "property_name": null, "material_id": "mp-1030", "deprecated": null, "deprecation_reasons": null, "last_updated": null, "origins": null, "warnings": null, "structure": {"@module": "pymatgen.core.structure", "@class": "Structure", "charge": 0, "lattice": {"matrix": [[4.89285722, 0.0, 2.824891629999999], [1.6309527400000001, 4.613029519999999, 2.824891629999999], [-0.0, -0.0, 5.64978427]], "pbc": [true, true, true], "a": 5.649784464610148, "b": 5.64978414753599, "c": 5.64978427, "alpha": 60.000005196561986, "beta": 60.00000705304457, "gamma": 59.99999946513518, "volume": 127.52068636134527}, "properties": {}, "sites": [{"species": [{"element": "Sb", "occu": 1}], "abc": [0.0, 0.0, -0.0], "properties": {"magmom": -0.0}, "label": "Sb", "xyz": [0.0, 0.0, 0.0]}, {"species": [{"element": "Pt", "occu": 1}], "abc": [0.5, 0.5, 0.5], "properties": {"magmom": -0.0}, "label": "Pt", "xyz": [3.2619049799999997, 2.3065147599999993, 5.649783764999999]}, {"species": [{"element": "Pt", "occu": 1}], "abc": [0.5, 0.0, 0.0], "properties": {"magmom": -0.0}, "label": "Pt", "xyz": [2.44642861, 0.0, 1.4124458149999994]}, {"species": [{"element": "Pt", "occu": 1}], "abc": [-0.0, -0.0, 0.5], "properties": {"magmom": -0.0}, "label": "Pt", "xyz": [0.0, 0.0, 2.824892135]}, {"species": [{"element": "Pt", "occu": 1}], "abc": [0.5, 0.5, 0.0], "properties": {"magmom": -0.0}, "label": "Pt", "xyz": [3.2619049799999997, 2.3065147599999993, 2.824891629999999]}, {"species": [{"element": "Pt", "occu": 1}], "abc": [-0.0, 0.5, 0.5], "properties": {"magmom": -0.0}, "label": "Pt", "xyz": [0.8154763700000001, 2.3065147599999993, 4.237337949999999]}, {"species": [{"element": "Pt", "occu": 1}], "abc": [0.0, 0.5, -0.0], "properties": {"magmom": -0.0}, "label": "Pt", "xyz": [0.8154763700000001, 2.3065147599999993, 1.4124458149999994]}, {"species": [{"element": "Pt", "occu": 1}], "abc": [0.5, -0.0, 0.5], "properties": {"magmom": -0.0}, "label": "Pt", "xyz": [2.44642861, 0.0, 4.237337949999999]}]}, "task_ids": null, "uncorrected_energy_per_atom": null, "energy_per_atom": -48.3795468925, "formation_energy_per_atom": -0.11450513875000401, "energy_above_hull": 0.009764302812499001, "is_stable": false, "equilibrium_reaction_energy_per_atom": null, "decomposes_to": null, "xas": null, "grain_boundaries": null, "band_gap": 0.0, "cbm": null, "vbm": null, "efermi": 8.1595589, "is_gap_direct": null, "is_metal": null, "es_source_calc_id": null, "bandstructure": null, "dos": null, "dos_energy_up": null, "dos_energy_down": null, "is_magnetic": null, "ordering": null, "total_magnetization": 3e-07, "total_magnetization_normalized_vol": null, "total_magnetization_normalized_formula_units": null, "num_magnetic_sites": null, "num_unique_magnetic_sites": null, "types_of_magnetic_species": null, "bulk_modulus": null, "shear_modulus": null, "universal_anisotropy": null, "homogeneous_poisson": null, "e_total": null, "e_ionic": null, "e_electronic": null, "n": null, "e_ij_max": null, "weighted_surface_energy_EV_PER_ANG2": null, "weighted_surface_energy": null, "weighted_work_function": null, "surface_anisotropy": null, "shape_factor": null, "has_reconstructed": null, "possible_species": null, "has_props": null, "theoretical": null, "database_IDs": null, "fields_not_requested": ["builder_meta", "nsites", "elements", "nelements", "composition", "composition_reduced", "chemsys", "symmetry", "property_name", "deprecated", "deprecation_reasons", "last_updated", "origins", "warnings", "task_ids", "uncorrected_energy_per_atom", "equilibrium_reaction_energy_per_atom", "decomposes_to", "xas", "grain_boundaries", "cbm", "vbm", "is_gap_direct", "is_metal", "es_source_calc_id", "bandstructure", "dos", "dos_energy_up", "dos_energy_down", "is_magnetic", "ordering", "total_magnetization_normalized_vol", "total_magnetization_normalized_formula_units", "num_magnetic_sites", "num_unique_magnetic_sites", "types_of_magnetic_species", "bulk_modulus", "shear_modulus", "universal_anisotropy", "homogeneous_poisson", "e_total", "e_ionic", "e_electronic", "n", "e_ij_max", "weighted_surface_energy_EV_PER_ANG2", "weighted_surface_energy", "weighted_work_function", "surface_anisotropy", "shape_factor", "has_reconstructed", "possible_species", "has_props", "theoretical", "database_IDs"]}