{"builder_meta": null, "nsites": null, "elements": null, "nelements": null, "composition": null, "composition_reduced": null, "formula_pretty": "SbPt", "formula_anonymous": "AB", "chemsys": null, "volume": 83.71418493167407, "density": 12.569717795072107, "density_atomic": 20.928546232918517, "symmetry": null, "property_name": null, "material_id": "mp-2845", "deprecated": null, "deprecation_reasons": null, "last_updated": null, "origins": null, "warnings": null, "structure": {"@module": "pymatgen.core.structure", "@class": "Structure", "charge": 0, "lattice": {"matrix": [[4.1774426, 0.0, 0.0], [-2.08872029, 3.61777214, -0.0], [0.0, 0.0, 5.5392039]], "pbc": [true, true, true], "a": 4.1774426, "b": 4.177442723343776, "c": 5.5392039, "alpha": 90.0, "beta": 90.0, "gamma": 119.99998302759847, "volume": 83.71418493167407}, "properties": {}, "sites": [{"species": [{"element": "Sb", "occu": 1}], "abc": [0.666667, 0.333333, 0.75], "properties": {"magmom": 0.0}, "label": "Sb", "xyz": [2.0887237253876303, 1.20592284074262, 4.154402925]}, {"species": [{"element": "Sb", "occu": 1}], "abc": [0.333333, 0.666667, 0.25], "properties": {"magmom": 0.0}, "label": "Sb", "xyz": [-1.415387629988274e-06, 2.41184929925738, 1.384800975]}, {"species": [{"element": "Pt", "occu": 1}], "abc": [0.0, 0.0, 0.5], "properties": {"magmom": 0.0}, "label": "Pt", "xyz": [0.0, 0.0, 2.76960195]}, {"species": [{"element": "Pt", "occu": 1}], "abc": [0.0, -0.0, 0.0], "properties": {"magmom": 0.0}, "label": "Pt", "xyz": [0.0, 0.0, 0.0]}]}, "task_ids": null, "uncorrected_energy_per_atom": null, "energy_per_atom": -39.0429277175, "formation_energy_per_atom": -0.44591140249999406, "energy_above_hull": 0.005804035624997, "is_stable": false, "equilibrium_reaction_energy_per_atom": null, "decomposes_to": null, "xas": null, "grain_boundaries": null, "band_gap": 0.0, "cbm": null, "vbm": null, "efermi": 8.38533475, "is_gap_direct": null, "is_metal": null, "es_source_calc_id": null, "bandstructure": null, "dos": null, "dos_energy_up": null, "dos_energy_down": null, "is_magnetic": null, "ordering": null, "total_magnetization": 3e-07, "total_magnetization_normalized_vol": null, "total_magnetization_normalized_formula_units": null, "num_magnetic_sites": null, "num_unique_magnetic_sites": null, "types_of_magnetic_species": null, "bulk_modulus": null, "shear_modulus": null, "universal_anisotropy": null, "homogeneous_poisson": null, "e_total": null, "e_ionic": null, "e_electronic": null, "n": null, "e_ij_max": null, "weighted_surface_energy_EV_PER_ANG2": null, "weighted_surface_energy": null, "weighted_work_function": null, "surface_anisotropy": null, "shape_factor": null, "has_reconstructed": null, "possible_species": null, "has_props": null, "theoretical": null, "database_IDs": null, "fields_not_requested": ["builder_meta", "nsites", "elements", "nelements", "composition", "composition_reduced", "chemsys", "symmetry", "property_name", "deprecated", "deprecation_reasons", "last_updated", "origins", "warnings", "task_ids", "uncorrected_energy_per_atom", "equilibrium_reaction_energy_per_atom", "decomposes_to", "xas", "grain_boundaries", "cbm", "vbm", "is_gap_direct", "is_metal", "es_source_calc_id", "bandstructure", "dos", "dos_energy_up", "dos_energy_down", "is_magnetic", "ordering", "total_magnetization_normalized_vol", "total_magnetization_normalized_formula_units", "num_magnetic_sites", "num_unique_magnetic_sites", "types_of_magnetic_species", "bulk_modulus", "shear_modulus", "universal_anisotropy", "homogeneous_poisson", "e_total", "e_ionic", "e_electronic", "n", "e_ij_max", "weighted_surface_energy_EV_PER_ANG2", "weighted_surface_energy", "weighted_work_function", "surface_anisotropy", "shape_factor", "has_reconstructed", "possible_species", "has_props", "theoretical", "database_IDs"]}