{
  "builder_meta": null,
  "nsites": null,
  "elements": null,
  "nelements": null,
  "composition": null,
  "composition_reduced": null,
  "formula_pretty": "SBr",
  "formula_anonymous": "AB",
  "chemsys": null,
  "volume": 253.14320247425002,
  "density": 2.937924414810992,
  "density_atomic": 31.642900309281252,
  "symmetry": null,
  "property_name": null,
  "material_id": "mp-28099",
  "deprecated": null,
  "deprecation_reasons": null,
  "last_updated": null,
  "origins": null,
  "warnings": null,
  "structure": {
    "@module": "pymatgen.core.structure",
    "@class": "Structure",
    "charge": 0,
    "lattice": {
      "matrix": [
        [4.33966753, -0.02637371, -0.0],
        [-1.1204726, 4.19260573, 0.0],
        [-0.0, 0.0, 13.93579439]
      ],
      "pbc": [true, true, true],
      "a": 4.339747670489088,
      "b": 4.33974672700834,
      "c": 13.93579439,
      "alpha": 90.0,
      "beta": 90.0,
      "gamma": 105.31080255016948,
      "volume": 253.14320247425002
    },
    "properties": {},
    "sites": [
      {
        "species": [{ "element": "S", "occu": 1 }],
        "abc": [0.19325076, 0.40321265, 0.95483162],
        "properties": { "magmom": -0.0 },
        "label": "S",
        "xyz": [0.38685532202143275, 1.6854149272969652, 13.306337133390612]
      },
      {
        "species": [{ "element": "S", "occu": 1 }],
        "abc": [0.40321265, 0.19325076, 0.04516838],
        "properties": { "magmom": -0.0 },
        "label": "S",
        "xyz": [1.5332766633810784, 0.7995900302034233, 0.6294572566093882]
      },
      {
        "species": [{ "element": "S", "occu": 1 }],
        "abc": [0.69325076, 0.9032126500000001, 0.54516838],
        "properties": { "magmom": -0.0 },
        "label": "S",
        "xyz": [1.9964527870214326, 3.7685309372969655, 7.597354451609388]
      },
      {
        "species": [{ "element": "S", "occu": 1 }],
        "abc": [0.9032126500000001, 0.69325076, 0.45483162],
        "properties": { "magmom": -0.0 },
        "label": "S",
        "xyz": [3.142874128381079, 2.8827060402034235, 6.338439938390612]
      },
      {
        "species": [{ "element": "Br", "occu": 1 }],
        "abc": [0.9433191, 0.05921648, 0.83807498],
        "properties": { "magmom": -0.0 },
        "label": "Br",
        "xyz": [4.027340825390375, 0.22339252897756942, 11.679240604683363]
      },
      {
        "species": [{ "element": "Br", "occu": 1 }],
        "abc": [0.05921648, 0.9433191, 0.16192502],
        "properties": { "magmom": -0.0 },
        "label": "Br",
        "xyz": [-0.7999833691097655, 3.953403305607702, 2.2565537853166378]
      },
      {
        "species": [{ "element": "Br", "occu": 1 }],
        "abc": [0.443319099999999, 0.55921648, 0.66192502],
        "properties": { "magmom": -0.0 },
        "label": "Br",
        "xyz": [1.2972707603903706, 2.33288224897757, 9.224450980316638]
      },
      {
        "species": [{ "element": "Br", "occu": 1 }],
        "abc": [0.55921648, 0.443319099999999, 0.33807498],
        "properties": { "magmom": -0.0 },
        "label": "Br",
        "xyz": [1.9300866958902356, 1.8439135856076982, 4.711343409683362]
      }
    ]
  },
  "task_ids": null,
  "uncorrected_energy_per_atom": null,
  "energy_per_atom": -3.1987406025,
  "formation_energy_per_atom": -0.31108755124999904,
  "energy_above_hull": 0.0,
  "is_stable": true,
  "equilibrium_reaction_energy_per_atom": null,
  "decomposes_to": null,
  "xas": null,
  "grain_boundaries": null,
  "band_gap": 2.2489,
  "cbm": null,
  "vbm": null,
  "efermi": -0.95650558,
  "is_gap_direct": null,
  "is_metal": null,
  "es_source_calc_id": null,
  "bandstructure": null,
  "dos": null,
  "dos_energy_up": null,
  "dos_energy_down": null,
  "is_magnetic": null,
  "ordering": null,
  "total_magnetization": 0.0,
  "total_magnetization_normalized_vol": null,
  "total_magnetization_normalized_formula_units": null,
  "num_magnetic_sites": null,
  "num_unique_magnetic_sites": null,
  "types_of_magnetic_species": null,
  "bulk_modulus": null,
  "shear_modulus": null,
  "universal_anisotropy": null,
  "homogeneous_poisson": null,
  "e_total": null,
  "e_ionic": null,
  "e_electronic": null,
  "n": null,
  "e_ij_max": null,
  "weighted_surface_energy_EV_PER_ANG2": null,
  "weighted_surface_energy": null,
  "weighted_work_function": null,
  "surface_anisotropy": null,
  "shape_factor": null,
  "has_reconstructed": null,
  "possible_species": null,
  "has_props": null,
  "theoretical": null,
  "database_IDs": null,
  "fields_not_requested": [
    "builder_meta",
    "nsites",
    "elements",
    "nelements",
    "composition",
    "composition_reduced",
    "chemsys",
    "symmetry",
    "property_name",
    "deprecated",
    "deprecation_reasons",
    "last_updated",
    "origins",
    "warnings",
    "task_ids",
    "uncorrected_energy_per_atom",
    "equilibrium_reaction_energy_per_atom",
    "decomposes_to",
    "xas",
    "grain_boundaries",
    "cbm",
    "vbm",
    "is_gap_direct",
    "is_metal",
    "es_source_calc_id",
    "bandstructure",
    "dos",
    "dos_energy_up",
    "dos_energy_down",
    "is_magnetic",
    "ordering",
    "total_magnetization_normalized_vol",
    "total_magnetization_normalized_formula_units",
    "num_magnetic_sites",
    "num_unique_magnetic_sites",
    "types_of_magnetic_species",
    "bulk_modulus",
    "shear_modulus",
    "universal_anisotropy",
    "homogeneous_poisson",
    "e_total",
    "e_ionic",
    "e_electronic",
    "n",
    "e_ij_max",
    "weighted_surface_energy_EV_PER_ANG2",
    "weighted_surface_energy",
    "weighted_work_function",
    "surface_anisotropy",
    "shape_factor",
    "has_reconstructed",
    "possible_species",
    "has_props",
    "theoretical",
    "database_IDs"
  ]
}
