{"builder_meta": null, "nsites": null, "elements": null, "nelements": null, "composition": null, "composition_reduced": null, "formula_pretty": "SbRh2", "formula_anonymous": "AB2", "chemsys": null, "volume": 193.23317398652665, "density": 11.259856294098975, "density_atomic": 16.10276449887722, "symmetry": null, "property_name": null, "material_id": "mp-21359", "deprecated": null, "deprecation_reasons": null, "last_updated": null, "origins": null, "warnings": null, "structure": {"@module": "pymatgen.core.structure", "@class": "Structure", "charge": 0, "lattice": {"matrix": [[4.17632904, -0.0, 0.0], [0.0, 5.80688297, 0.0], [0.0, 0.0, 7.96790057]], "pbc": [true, true, true], "a": 4.17632904, "b": 5.80688297, "c": 7.96790057, "alpha": 90.0, "beta": 90.0, "gamma": 90.0, "volume": 193.23317398652665}, "properties": {}, "sites": [{"species": [{"element": "Sb", "occu": 1}], "abc": [0.75, 0.71774521, 0.89225968], "properties": {"magmom": -0.0}, "label": "Sb", "xyz": [3.13224678, 4.167862436748074, 7.109436412860018]}, {"species": [{"element": "Sb", "occu": 1}], "abc": [0.25, 0.28225479000000003, 0.10774032], "properties": {"magmom": -0.0}, "label": "Sb", "xyz": [1.04408226, 1.6390205332519265, 0.8584641571399825]}, {"species": [{"element": "Sb", "occu": 1}], "abc": [0.75, 0.21774521, 0.60774032], "properties": {"magmom": -0.0}, "label": "Sb", "xyz": [3.13224678, 1.2644209517480738, 4.842414442139982]}, {"species": [{"element": "Sb", "occu": 1}], "abc": [0.25, 0.78225479, 0.39225968], "properties": {"magmom": -0.0}, "label": "Sb", "xyz": [1.04408226, 4.542462018251927, 3.1254861278600177]}, {"species": [{"element": "Rh", "occu": 1}], "abc": [0.75, 0.15881279, 0.930271899999999], "properties": {"magmom": 0.0}, "label": "Rh", "xyz": [3.13224678, 0.9222072856691864, 7.412314002264976]}, {"species": [{"element": "Rh", "occu": 1}], "abc": [0.25, 0.84118721, 0.0697281], "properties": {"magmom": 0.0}, "label": "Rh", "xyz": [1.04408226, 4.884675684330814, 0.555586567735017]}, {"species": [{"element": "Rh", "occu": 1}], "abc": [0.75, 0.65881279, 0.5697281], "properties": {"magmom": 0.0}, "label": "Rh", "xyz": [3.13224678, 3.825648770669187, 4.539536852735017]}, {"species": [{"element": "Rh", "occu": 1}], "abc": [0.25, 0.34118721, 0.4302719], "properties": {"magmom": 0.0}, "label": "Rh", "xyz": [1.04408226, 1.9812341993308138, 3.428363717264983]}, {"species": [{"element": "Rh", "occu": 1}], "abc": [0.75, 0.03858116, 0.30119693000000003], "properties": {"magmom": 0.0}, "label": "Rh", "xyz": [3.13224678, 0.22403628096684522, 2.3999071902292504]}, {"species": [{"element": "Rh", "occu": 1}], "abc": [0.25, 0.96141884, 0.69880307], "properties": {"magmom": 0.0}, "label": "Rh", "xyz": [1.04408226, 5.582846689033155, 5.5679933797707495]}, {"species": [{"element": "Rh", "occu": 1}], "abc": [0.75, 0.53858116, 0.19880307], "properties": {"magmom": 0.0}, "label": "Rh", "xyz": [3.13224678, 3.1274777659668453, 1.58404309477075]}, {"species": [{"element": "Rh", "occu": 1}], "abc": [0.25, 0.46141884, 0.80119693], "properties": {"magmom": 0.0}, "label": "Rh", "xyz": [1.04408226, 2.679405204033155, 6.3838574752292505]}]}, "task_ids": null, "uncorrected_energy_per_atom": null, "energy_per_atom": -25.034643088333336, "formation_energy_per_atom": -0.37505209166666403, "energy_above_hull": 0.0, "is_stable": true, "equilibrium_reaction_energy_per_atom": null, "decomposes_to": null, "xas": null, "grain_boundaries": null, "band_gap": 0.0, "cbm": null, "vbm": null, "efermi": 8.68020195, "is_gap_direct": null, "is_metal": null, "es_source_calc_id": null, "bandstructure": null, "dos": null, "dos_energy_up": null, "dos_energy_down": null, "is_magnetic": null, "ordering": null, "total_magnetization": 7.499999999999998e-06, "total_magnetization_normalized_vol": null, "total_magnetization_normalized_formula_units": null, "num_magnetic_sites": null, "num_unique_magnetic_sites": null, "types_of_magnetic_species": null, "bulk_modulus": null, "shear_modulus": null, "universal_anisotropy": null, "homogeneous_poisson": null, "e_total": null, "e_ionic": null, "e_electronic": null, "n": null, "e_ij_max": null, "weighted_surface_energy_EV_PER_ANG2": null, "weighted_surface_energy": null, "weighted_work_function": null, "surface_anisotropy": null, "shape_factor": null, "has_reconstructed": null, "possible_species": null, "has_props": null, "theoretical": null, "database_IDs": null, "fields_not_requested": ["builder_meta", "nsites", "elements", "nelements", "composition", "composition_reduced", "chemsys", "symmetry", "property_name", "deprecated", "deprecation_reasons", "last_updated", "origins", "warnings", "task_ids", "uncorrected_energy_per_atom", "equilibrium_reaction_energy_per_atom", "decomposes_to", "xas", "grain_boundaries", "cbm", "vbm", "is_gap_direct", "is_metal", "es_source_calc_id", "bandstructure", "dos", "dos_energy_up", "dos_energy_down", "is_magnetic", "ordering", "total_magnetization_normalized_vol", "total_magnetization_normalized_formula_units", "num_magnetic_sites", "num_unique_magnetic_sites", "types_of_magnetic_species", "bulk_modulus", "shear_modulus", "universal_anisotropy", "homogeneous_poisson", "e_total", "e_ionic", "e_electronic", "n", "e_ij_max", "weighted_surface_energy_EV_PER_ANG2", "weighted_surface_energy", "weighted_work_function", "surface_anisotropy", "shape_factor", "has_reconstructed", "possible_species", "has_props", "theoretical", "database_IDs"]}