{
  "builder_meta": null,
  "nsites": null,
  "elements": null,
  "nelements": null,
  "composition": null,
  "composition_reduced": null,
  "formula_pretty": "SbRh",
  "formula_anonymous": "AB",
  "chemsys": null,
  "volume": 149.1833151359352,
  "density": 10.002883749494003,
  "density_atomic": 18.6479143919919,
  "symmetry": null,
  "property_name": null,
  "material_id": "mp-20619",
  "deprecated": null,
  "deprecation_reasons": null,
  "last_updated": null,
  "origins": null,
  "warnings": null,
  "structure": {
    "@module": "pymatgen.core.structure",
    "@class": "Structure",
    "charge": 0,
    "lattice": {
      "matrix": [
        [3.88337309, 0.0, 0.0],
        [0.0, 6.00436448, 0.0],
        [0.0, 0.0, 6.39799785]
      ],
      "pbc": [true, true, true],
      "a": 3.88337309,
      "b": 6.00436448,
      "c": 6.39799785,
      "alpha": 90.0,
      "beta": 90.0,
      "gamma": 90.0,
      "volume": 149.1833151359352
    },
    "properties": {},
    "sites": [
      {
        "species": [{ "element": "Sb", "occu": 1 }],
        "abc": [0.75, 0.80213542, 0.409397199999999],
        "properties": { "magmom": -0.0 },
        "label": "Sb",
        "xyz": [2.9125298175000003, 4.816313423997881, 2.619322405396014]
      },
      {
        "species": [{ "element": "Sb", "occu": 1 }],
        "abc": [0.25, 0.19786458, 0.5906028],
        "properties": { "magmom": -0.0 },
        "label": "Sb",
        "xyz": [0.9708432725, 1.1880510560021185, 3.77867544460398]
      },
      {
        "species": [{ "element": "Sb", "occu": 1 }],
        "abc": [0.75, 0.30213542, 0.0906028],
        "properties": { "magmom": -0.0 },
        "label": "Sb",
        "xyz": [2.9125298175000003, 1.8141311839978813, 0.57967651960398]
      },
      {
        "species": [{ "element": "Sb", "occu": 1 }],
        "abc": [0.25, 0.6978645800000001, 0.909397199999999],
        "properties": { "magmom": -0.0 },
        "label": "Sb",
        "xyz": [0.9708432725, 4.190233296002119, 5.818321330396014]
      },
      {
        "species": [{ "element": "Rh", "occu": 1 }],
        "abc": [0.75, 0.99538618, 0.80411548],
        "properties": { "magmom": -0.0 },
        "label": "Rh",
        "xyz": [2.9125298175000003, 5.976661423074886, 5.144729112191718]
      },
      {
        "species": [{ "element": "Rh", "occu": 1 }],
        "abc": [0.25, 0.00461382, 0.19588452],
        "properties": { "magmom": -0.0 },
        "label": "Rh",
        "xyz": [0.9708432725, 0.0277030569251136, 1.253268737808282]
      },
      {
        "species": [{ "element": "Rh", "occu": 1 }],
        "abc": [0.75, 0.49538618, 0.69588452],
        "properties": { "magmom": -0.0 },
        "label": "Rh",
        "xyz": [2.9125298175000003, 2.9744791830748865, 4.452267662808282]
      },
      {
        "species": [{ "element": "Rh", "occu": 1 }],
        "abc": [0.25, 0.50461382, 0.30411548],
        "properties": { "magmom": -0.0 },
        "label": "Rh",
        "xyz": [0.9708432725, 3.029885296925113, 1.945730187191718]
      }
    ]
  },
  "task_ids": null,
  "uncorrected_energy_per_atom": null,
  "energy_per_atom": -25.449984755,
  "formation_energy_per_atom": -0.528712574999996,
  "energy_above_hull": 0.0,
  "is_stable": true,
  "equilibrium_reaction_energy_per_atom": null,
  "decomposes_to": null,
  "xas": null,
  "grain_boundaries": null,
  "band_gap": 0.0,
  "cbm": null,
  "vbm": null,
  "efermi": 9.04006305,
  "is_gap_direct": null,
  "is_metal": null,
  "es_source_calc_id": null,
  "bandstructure": null,
  "dos": null,
  "dos_energy_up": null,
  "dos_energy_down": null,
  "is_magnetic": null,
  "ordering": null,
  "total_magnetization": 0.0,
  "total_magnetization_normalized_vol": null,
  "total_magnetization_normalized_formula_units": null,
  "num_magnetic_sites": null,
  "num_unique_magnetic_sites": null,
  "types_of_magnetic_species": null,
  "bulk_modulus": null,
  "shear_modulus": null,
  "universal_anisotropy": null,
  "homogeneous_poisson": null,
  "e_total": null,
  "e_ionic": null,
  "e_electronic": null,
  "n": null,
  "e_ij_max": null,
  "weighted_surface_energy_EV_PER_ANG2": null,
  "weighted_surface_energy": null,
  "weighted_work_function": null,
  "surface_anisotropy": null,
  "shape_factor": null,
  "has_reconstructed": null,
  "possible_species": null,
  "has_props": null,
  "theoretical": null,
  "database_IDs": null,
  "fields_not_requested": [
    "builder_meta",
    "nsites",
    "elements",
    "nelements",
    "composition",
    "composition_reduced",
    "chemsys",
    "symmetry",
    "property_name",
    "deprecated",
    "deprecation_reasons",
    "last_updated",
    "origins",
    "warnings",
    "task_ids",
    "uncorrected_energy_per_atom",
    "equilibrium_reaction_energy_per_atom",
    "decomposes_to",
    "xas",
    "grain_boundaries",
    "cbm",
    "vbm",
    "is_gap_direct",
    "is_metal",
    "es_source_calc_id",
    "bandstructure",
    "dos",
    "dos_energy_up",
    "dos_energy_down",
    "is_magnetic",
    "ordering",
    "total_magnetization_normalized_vol",
    "total_magnetization_normalized_formula_units",
    "num_magnetic_sites",
    "num_unique_magnetic_sites",
    "types_of_magnetic_species",
    "bulk_modulus",
    "shear_modulus",
    "universal_anisotropy",
    "homogeneous_poisson",
    "e_total",
    "e_ionic",
    "e_electronic",
    "n",
    "e_ij_max",
    "weighted_surface_energy_EV_PER_ANG2",
    "weighted_surface_energy",
    "weighted_work_function",
    "surface_anisotropy",
    "shape_factor",
    "has_reconstructed",
    "possible_species",
    "has_props",
    "theoretical",
    "database_IDs"
  ]
}
