{"builder_meta": null, "nsites": null, "elements": null, "nelements": null, "composition": null, "composition_reduced": null, "formula_pretty": "SbS", "formula_anonymous": "AB", "chemsys": null, "volume": 199.53338640242487, "density": 2.560297567491599, "density_atomic": 49.88334660060622, "symmetry": null, "property_name": null, "material_id": "mp-1065860", "deprecated": null, "deprecation_reasons": null, "last_updated": null, "origins": null, "warnings": null, "structure": {"@module": "pymatgen.core.structure", "@class": "Structure", "charge": 0, "lattice": {"matrix": [[3.86944, 0.0, 0.0], [0.050820000000000004, 5.007633, 0.0], [0.372685, 1.096106, 10.297575]], "pbc": [true, true, true], "a": 3.86944, "b": 5.007890866930808, "c": 10.362451126692275, "alpha": 83.90736606798794, "beta": 87.93891586667593, "gamma": 89.41855332493815, "volume": 199.53338640242487}, "properties": {}, "sites": [{"species": [{"element": "Sb", "occu": 1}], "abc": [0.269068, 0.807634, 0.421305999999999], "properties": {"magmom": 0.0}, "label": "Sb", "xyz": [1.2392008684099995, 4.506130704757998, 4.3384301329499895]}, {"species": [{"element": "Sb", "occu": 1}], "abc": [0.730931999999999, 0.192365999999999, 0.578693999999999], "properties": {"magmom": 0.0}, "label": "Sb", "xyz": [3.053744131589996, 1.597608295241994, 5.95914486704999]}, {"species": [{"element": "S", "occu": 1}], "abc": [0.7614900000000001, 0.424508999999999, 0.361656], "properties": {"magmom": 0.0}, "label": "S", "xyz": [3.1028971793400006, 2.522198588732995, 3.7241797842]}, {"species": [{"element": "S", "occu": 1}], "abc": [0.23851000000000003, 0.575491, 0.638344], "properties": {"magmom": 0.0}, "label": "S", "xyz": [1.19004782066, 3.5815404112670004, 6.573395215800001]}]}, "task_ids": null, "uncorrected_energy_per_atom": null, "energy_per_atom": -17.02684821, "formation_energy_per_atom": -0.156190803906252, "energy_above_hull": 0.08269745624999901, "is_stable": false, "equilibrium_reaction_energy_per_atom": null, "decomposes_to": null, "xas": null, "grain_boundaries": null, "band_gap": 0.0, "cbm": null, "vbm": null, "efermi": 1.61083169, "is_gap_direct": null, "is_metal": null, "es_source_calc_id": null, "bandstructure": null, "dos": null, "dos_energy_up": null, "dos_energy_down": null, "is_magnetic": null, "ordering": null, "total_magnetization": 7e-07, "total_magnetization_normalized_vol": null, "total_magnetization_normalized_formula_units": null, "num_magnetic_sites": null, "num_unique_magnetic_sites": null, "types_of_magnetic_species": null, "bulk_modulus": null, "shear_modulus": null, "universal_anisotropy": null, "homogeneous_poisson": null, "e_total": null, "e_ionic": null, "e_electronic": null, "n": null, "e_ij_max": null, "weighted_surface_energy_EV_PER_ANG2": null, "weighted_surface_energy": null, "weighted_work_function": null, "surface_anisotropy": null, "shape_factor": null, "has_reconstructed": null, "possible_species": null, "has_props": null, "theoretical": null, "database_IDs": null, "fields_not_requested": ["builder_meta", "nsites", "elements", "nelements", "composition", "composition_reduced", "chemsys", "symmetry", "property_name", "deprecated", "deprecation_reasons", "last_updated", "origins", "warnings", "task_ids", "uncorrected_energy_per_atom", "equilibrium_reaction_energy_per_atom", "decomposes_to", "xas", "grain_boundaries", "cbm", "vbm", "is_gap_direct", "is_metal", "es_source_calc_id", "bandstructure", "dos", "dos_energy_up", "dos_energy_down", "is_magnetic", "ordering", "total_magnetization_normalized_vol", "total_magnetization_normalized_formula_units", "num_magnetic_sites", "num_unique_magnetic_sites", "types_of_magnetic_species", "bulk_modulus", "shear_modulus", "universal_anisotropy", "homogeneous_poisson", "e_total", "e_ionic", "e_electronic", "n", "e_ij_max", "weighted_surface_energy_EV_PER_ANG2", "weighted_surface_energy", "weighted_work_function", "surface_anisotropy", "shape_factor", "has_reconstructed", "possible_species", "has_props", "theoretical", "database_IDs"]}