{
  "builder_meta": null,
  "nsites": null,
  "elements": null,
  "nelements": null,
  "composition": null,
  "composition_reduced": null,
  "formula_pretty": "SbS2",
  "formula_anonymous": "AB2",
  "chemsys": null,
  "volume": 213.00912667687126,
  "density": 2.898257101992902,
  "density_atomic": 35.50152111281188,
  "symmetry": null,
  "property_name": null,
  "material_id": "mp-1042075",
  "deprecated": null,
  "deprecation_reasons": null,
  "last_updated": null,
  "origins": null,
  "warnings": null,
  "structure": {
    "@module": "pymatgen.core.structure",
    "@class": "Structure",
    "charge": 0,
    "lattice": {
      "matrix": [
        [-3.030715, 3.030715, 5.797597],
        [3.030715, -3.030715, 5.797597],
        [3.030715, 3.030715, -5.797597]
      ],
      "pbc": [true, true, true],
      "a": 7.20989582427229,
      "b": 7.20989582427229,
      "c": 7.20989582427229,
      "alpha": 130.28600900042707,
      "beta": 130.28600900042707,
      "gamma": 72.94994466150143,
      "volume": 213.00912667687126
    },
    "properties": {},
    "sites": [
      {
        "species": [{ "element": "Sb", "occu": 1 }],
        "abc": [0.75, 0.25, 0.5],
        "properties": { "magmom": -0.0 },
        "label": "Sb",
        "xyz": [2.220446049250313e-16, 3.030715, 2.8987985]
      },
      {
        "species": [{ "element": "Sb", "occu": 1 }],
        "abc": [0.0, 0.0, 0.0],
        "properties": { "magmom": -0.0 },
        "label": "Sb",
        "xyz": [0.0, 0.0, 0.0]
      },
      {
        "species": [{ "element": "S", "occu": 1 }],
        "abc": [0.875, 0.899029, 0.524029],
        "properties": { "magmom": 0.0 },
        "label": "S",
        "xyz": [1.66100760147, 1.5153574999999997, 7.246996249999999]
      },
      {
        "species": [{ "element": "S", "occu": 1 }],
        "abc": [0.100970999999999, 0.625, 0.975970999999999],
        "properties": { "magmom": 0.0 },
        "label": "S",
        "xyz": [4.5460725, 1.369707398529994, -1.44939925]
      },
      {
        "species": [{ "element": "S", "occu": 1 }],
        "abc": [0.375, 0.350971, 0.475971],
        "properties": { "magmom": 0.0 },
        "label": "S",
        "xyz": [1.36970739853, 1.5153574999999997, 1.44939925]
      },
      {
        "species": [{ "element": "S", "occu": 1 }],
        "abc": [0.649029, 0.125, 0.024029],
        "properties": { "magmom": 0.0 },
        "label": "S",
        "xyz": [-1.5153574999999997, 1.6610076014699995, 4.348197749999999]
      }
    ]
  },
  "task_ids": null,
  "uncorrected_energy_per_atom": null,
  "energy_per_atom": -13.905791421718751,
  "formation_energy_per_atom": 0.019646543072916002,
  "energy_above_hull": 0.258534803229165,
  "is_stable": false,
  "equilibrium_reaction_energy_per_atom": null,
  "decomposes_to": null,
  "xas": null,
  "grain_boundaries": null,
  "band_gap": 0.0,
  "cbm": null,
  "vbm": null,
  "efermi": 1.88828573,
  "is_gap_direct": null,
  "is_metal": null,
  "es_source_calc_id": null,
  "bandstructure": null,
  "dos": null,
  "dos_energy_up": null,
  "dos_energy_down": null,
  "is_magnetic": null,
  "ordering": null,
  "total_magnetization": 0.00023439999999900002,
  "total_magnetization_normalized_vol": null,
  "total_magnetization_normalized_formula_units": null,
  "num_magnetic_sites": null,
  "num_unique_magnetic_sites": null,
  "types_of_magnetic_species": null,
  "bulk_modulus": null,
  "shear_modulus": null,
  "universal_anisotropy": null,
  "homogeneous_poisson": null,
  "e_total": null,
  "e_ionic": null,
  "e_electronic": null,
  "n": null,
  "e_ij_max": null,
  "weighted_surface_energy_EV_PER_ANG2": null,
  "weighted_surface_energy": null,
  "weighted_work_function": null,
  "surface_anisotropy": null,
  "shape_factor": null,
  "has_reconstructed": null,
  "possible_species": null,
  "has_props": null,
  "theoretical": null,
  "database_IDs": null,
  "fields_not_requested": [
    "builder_meta",
    "nsites",
    "elements",
    "nelements",
    "composition",
    "composition_reduced",
    "chemsys",
    "symmetry",
    "property_name",
    "deprecated",
    "deprecation_reasons",
    "last_updated",
    "origins",
    "warnings",
    "task_ids",
    "uncorrected_energy_per_atom",
    "equilibrium_reaction_energy_per_atom",
    "decomposes_to",
    "xas",
    "grain_boundaries",
    "cbm",
    "vbm",
    "is_gap_direct",
    "is_metal",
    "es_source_calc_id",
    "bandstructure",
    "dos",
    "dos_energy_up",
    "dos_energy_down",
    "is_magnetic",
    "ordering",
    "total_magnetization_normalized_vol",
    "total_magnetization_normalized_formula_units",
    "num_magnetic_sites",
    "num_unique_magnetic_sites",
    "types_of_magnetic_species",
    "bulk_modulus",
    "shear_modulus",
    "universal_anisotropy",
    "homogeneous_poisson",
    "e_total",
    "e_ionic",
    "e_electronic",
    "n",
    "e_ij_max",
    "weighted_surface_energy_EV_PER_ANG2",
    "weighted_surface_energy",
    "weighted_work_function",
    "surface_anisotropy",
    "shape_factor",
    "has_reconstructed",
    "possible_species",
    "has_props",
    "theoretical",
    "database_IDs"
  ]
}
