{
  "builder_meta": null,
  "nsites": null,
  "elements": null,
  "nelements": null,
  "composition": null,
  "composition_reduced": null,
  "formula_pretty": "SbTe",
  "formula_anonymous": "AB",
  "chemsys": null,
  "volume": 400.97000218031945,
  "density": 6.196054857906767,
  "density_atomic": 33.414166848359955,
  "symmetry": null,
  "property_name": null,
  "material_id": "mp-7716",
  "deprecated": null,
  "deprecation_reasons": null,
  "last_updated": null,
  "origins": null,
  "warnings": null,
  "structure": {
    "@module": "pymatgen.core.structure",
    "@class": "Structure",
    "charge": 0,
    "lattice": {
      "matrix": [
        [4.31196339, -0.0, 0.0],
        [-2.1559822, 3.73427038, -0.0],
        [-0.0, -0.0, 24.9018182]
      ],
      "pbc": [true, true, true],
      "a": 4.31196339,
      "b": 4.311964113679772,
      "c": 24.9018182,
      "alpha": 90.0,
      "beta": 90.0,
      "gamma": 120.00000219653894,
      "volume": 400.97000218031945
    },
    "properties": {},
    "sites": [
      {
        "species": [{ "element": "Sb", "occu": 1 }],
        "abc": [0.0, 0.0, 0.13242626],
        "properties": { "magmom": -0.0 },
        "label": "Sb",
        "xyz": [0.0, 0.0, 3.297654651425932]
      },
      {
        "species": [{ "element": "Sb", "occu": 1 }],
        "abc": [-0.0, -0.0, 0.86757374],
        "properties": { "magmom": -0.0 },
        "label": "Sb",
        "xyz": [0.0, 0.0, 21.604163548574068]
      },
      {
        "species": [{ "element": "Sb", "occu": 1 }],
        "abc": [0.333333, 0.666667, 0.291385699999999],
        "properties": { "magmom": -0.0 },
        "label": "Sb",
        "xyz": [-2.492648530250108e-6, 2.48951483142346, 7.256033727479716]
      },
      {
        "species": [{ "element": "Sb", "occu": 1 }],
        "abc": [0.666667, 0.333333, 0.708614299999999],
        "properties": { "magmom": -0.0 },
        "label": "Sb",
        "xyz": [2.15598368264853, 1.24475554857654, 17.645784472520237]
      },
      {
        "species": [{ "element": "Sb", "occu": 1 }],
        "abc": [0.333333, 0.666667, 0.53086793],
        "properties": { "magmom": 0.0 },
        "label": "Sb",
        "xyz": [-2.492648530250108e-6, 2.48951483142346, 13.219576681070325]
      },
      {
        "species": [{ "element": "Sb", "occu": 1 }],
        "abc": [0.666667, 0.333333, 0.46913207],
        "properties": { "magmom": 0.0 },
        "label": "Sb",
        "xyz": [2.15598368264853, 1.24475554857654, 11.682241518929676]
      },
      {
        "species": [{ "element": "Te", "occu": 1 }],
        "abc": [0.333333, 0.666667, 0.064762199999999],
        "properties": { "magmom": 0.0 },
        "label": "Te",
        "xyz": [-2.492648530250108e-6, 2.48951483142346, 1.6126965306320153]
      },
      {
        "species": [{ "element": "Te", "occu": 1 }],
        "abc": [0.666667, 0.333333, 0.9352378],
        "properties": { "magmom": 0.0 },
        "label": "Te",
        "xyz": [2.15598368264853, 1.24475554857654, 23.28912166936796]
      },
      {
        "species": [{ "element": "Te", "occu": 1 }],
        "abc": [0.333333, 0.666667, 0.7876067800000001],
        "properties": { "magmom": 0.0 },
        "label": "Te",
        "xyz": [-2.492648530250108e-6, 2.48951483142346, 19.612840848647398]
      },
      {
        "species": [{ "element": "Te", "occu": 1 }],
        "abc": [0.666667, 0.333333, 0.21239322],
        "properties": { "magmom": 0.0 },
        "label": "Te",
        "xyz": [2.15598368264853, 1.24475554857654, 5.288977351352604]
      },
      {
        "species": [{ "element": "Te", "occu": 1 }],
        "abc": [-0.0, -0.0, 0.35973331000000003],
        "properties": { "magmom": 0.0 },
        "label": "Te",
        "xyz": [0.0, 0.0, 8.958013486104242]
      },
      {
        "species": [{ "element": "Te", "occu": 1 }],
        "abc": [0.0, 0.0, 0.64026669],
        "properties": { "magmom": 0.0 },
        "label": "Te",
        "xyz": [0.0, 0.0, 15.943804713895759]
      }
    ]
  },
  "task_ids": null,
  "uncorrected_energy_per_atom": null,
  "energy_per_atom": -3.949610565,
  "formation_energy_per_atom": -0.313456998333332,
  "energy_above_hull": 0.008739101785717001,
  "is_stable": false,
  "equilibrium_reaction_energy_per_atom": null,
  "decomposes_to": null,
  "xas": null,
  "grain_boundaries": null,
  "band_gap": 0.0,
  "cbm": null,
  "vbm": null,
  "efermi": 6.16646289,
  "is_gap_direct": null,
  "is_metal": null,
  "es_source_calc_id": null,
  "bandstructure": null,
  "dos": null,
  "dos_energy_up": null,
  "dos_energy_down": null,
  "is_magnetic": null,
  "ordering": null,
  "total_magnetization": 0.0,
  "total_magnetization_normalized_vol": null,
  "total_magnetization_normalized_formula_units": null,
  "num_magnetic_sites": null,
  "num_unique_magnetic_sites": null,
  "types_of_magnetic_species": null,
  "bulk_modulus": null,
  "shear_modulus": null,
  "universal_anisotropy": null,
  "homogeneous_poisson": null,
  "e_total": null,
  "e_ionic": null,
  "e_electronic": null,
  "n": null,
  "e_ij_max": null,
  "weighted_surface_energy_EV_PER_ANG2": null,
  "weighted_surface_energy": null,
  "weighted_work_function": null,
  "surface_anisotropy": null,
  "shape_factor": null,
  "has_reconstructed": null,
  "possible_species": null,
  "has_props": null,
  "theoretical": null,
  "database_IDs": null,
  "fields_not_requested": [
    "builder_meta",
    "nsites",
    "elements",
    "nelements",
    "composition",
    "composition_reduced",
    "chemsys",
    "symmetry",
    "property_name",
    "deprecated",
    "deprecation_reasons",
    "last_updated",
    "origins",
    "warnings",
    "task_ids",
    "uncorrected_energy_per_atom",
    "equilibrium_reaction_energy_per_atom",
    "decomposes_to",
    "xas",
    "grain_boundaries",
    "cbm",
    "vbm",
    "is_gap_direct",
    "is_metal",
    "es_source_calc_id",
    "bandstructure",
    "dos",
    "dos_energy_up",
    "dos_energy_down",
    "is_magnetic",
    "ordering",
    "total_magnetization_normalized_vol",
    "total_magnetization_normalized_formula_units",
    "num_magnetic_sites",
    "num_unique_magnetic_sites",
    "types_of_magnetic_species",
    "bulk_modulus",
    "shear_modulus",
    "universal_anisotropy",
    "homogeneous_poisson",
    "e_total",
    "e_ionic",
    "e_electronic",
    "n",
    "e_ij_max",
    "weighted_surface_energy_EV_PER_ANG2",
    "weighted_surface_energy",
    "weighted_work_function",
    "surface_anisotropy",
    "shape_factor",
    "has_reconstructed",
    "possible_species",
    "has_props",
    "theoretical",
    "database_IDs"
  ]
}
