{
  "builder_meta": null,
  "nsites": null,
  "elements": null,
  "nelements": null,
  "composition": null,
  "composition_reduced": null,
  "formula_pretty": "Sc2Al",
  "formula_anonymous": "AB2",
  "chemsys": null,
  "volume": 127.72998498699012,
  "density": 3.039317592393201,
  "density_atomic": 21.28833083116502,
  "symmetry": null,
  "property_name": null,
  "material_id": "mp-11220",
  "deprecated": null,
  "deprecation_reasons": null,
  "last_updated": null,
  "origins": null,
  "warnings": null,
  "structure": {
    "@module": "pymatgen.core.structure",
    "@class": "Structure",
    "charge": 0,
    "lattice": {
      "matrix": [
        [4.89261207, -1e-8, -0.0],
        [-2.44630655, 4.2371245, -0.0],
        [0.0, 0.0, 6.16142057]
      ],
      "pbc": [true, true, true],
      "a": 4.89261207,
      "b": 4.892610730997629,
      "c": 6.16142057,
      "alpha": 90.0,
      "beta": 90.0,
      "gamma": 120.00001613431682,
      "volume": 127.72998498699012
    },
    "properties": {},
    "sites": [
      {
        "species": [{ "element": "Sc", "occu": 1 }],
        "abc": [0.0, 0.0, 1e-6],
        "properties": { "magmom": -0.005 },
        "label": "Sc",
        "xyz": [0.0, 0.0, 6.16142057e-6]
      },
      {
        "species": [{ "element": "Sc", "occu": 1 }],
        "abc": [0.0, 0.0, 0.499998999999999],
        "properties": { "magmom": -0.005 },
        "label": "Sc",
        "xyz": [0.0, 0.0, 3.080704123579424]
      },
      {
        "species": [{ "element": "Sc", "occu": 1 }],
        "abc": [0.333333, 0.666667, 0.74996332],
        "properties": { "magmom": -0.001 },
        "label": "Sc",
        "xyz": [-2.7896395400350826e-6, 2.82475107570817, 4.620839426593492]
      },
      {
        "species": [{ "element": "Sc", "occu": 1 }],
        "abc": [0.666667, 0.333333, 0.25003668],
        "properties": { "magmom": -0.001 },
        "label": "Sc",
        "xyz": [2.44630830963954, 1.4123734142918298, 1.5405811434065075]
      },
      {
        "species": [{ "element": "Al", "occu": 1 }],
        "abc": [0.333333, 0.666667, 0.24999578],
        "properties": { "magmom": 0.0 },
        "label": "Al",
        "xyz": [-2.7896395400350826e-6, 2.82475107570817, 1.5403291413051945]
      },
      {
        "species": [{ "element": "Al", "occu": 1 }],
        "abc": [0.666667, 0.333333, 0.75000422],
        "properties": { "magmom": 0.0 },
        "label": "Al",
        "xyz": [2.44630830963954, 1.4123734142918298, 4.621091428694805]
      }
    ]
  },
  "task_ids": null,
  "uncorrected_energy_per_atom": null,
  "energy_per_atom": -10.209416361666667,
  "formation_energy_per_atom": -0.366392015,
  "energy_above_hull": 0.0,
  "is_stable": true,
  "equilibrium_reaction_energy_per_atom": null,
  "decomposes_to": null,
  "xas": null,
  "grain_boundaries": null,
  "band_gap": 0.0,
  "cbm": null,
  "vbm": null,
  "efermi": 4.79259376,
  "is_gap_direct": null,
  "is_metal": null,
  "es_source_calc_id": null,
  "bandstructure": null,
  "dos": null,
  "dos_energy_up": null,
  "dos_energy_down": null,
  "is_magnetic": null,
  "ordering": null,
  "total_magnetization": 0.0176762,
  "total_magnetization_normalized_vol": null,
  "total_magnetization_normalized_formula_units": null,
  "num_magnetic_sites": null,
  "num_unique_magnetic_sites": null,
  "types_of_magnetic_species": null,
  "bulk_modulus": null,
  "shear_modulus": null,
  "universal_anisotropy": null,
  "homogeneous_poisson": null,
  "e_total": null,
  "e_ionic": null,
  "e_electronic": null,
  "n": null,
  "e_ij_max": null,
  "weighted_surface_energy_EV_PER_ANG2": null,
  "weighted_surface_energy": null,
  "weighted_work_function": null,
  "surface_anisotropy": null,
  "shape_factor": null,
  "has_reconstructed": null,
  "possible_species": null,
  "has_props": null,
  "theoretical": null,
  "database_IDs": null,
  "fields_not_requested": [
    "builder_meta",
    "nsites",
    "elements",
    "nelements",
    "composition",
    "composition_reduced",
    "chemsys",
    "symmetry",
    "property_name",
    "deprecated",
    "deprecation_reasons",
    "last_updated",
    "origins",
    "warnings",
    "task_ids",
    "uncorrected_energy_per_atom",
    "equilibrium_reaction_energy_per_atom",
    "decomposes_to",
    "xas",
    "grain_boundaries",
    "cbm",
    "vbm",
    "is_gap_direct",
    "is_metal",
    "es_source_calc_id",
    "bandstructure",
    "dos",
    "dos_energy_up",
    "dos_energy_down",
    "is_magnetic",
    "ordering",
    "total_magnetization_normalized_vol",
    "total_magnetization_normalized_formula_units",
    "num_magnetic_sites",
    "num_unique_magnetic_sites",
    "types_of_magnetic_species",
    "bulk_modulus",
    "shear_modulus",
    "universal_anisotropy",
    "homogeneous_poisson",
    "e_total",
    "e_ionic",
    "e_electronic",
    "n",
    "e_ij_max",
    "weighted_surface_energy_EV_PER_ANG2",
    "weighted_surface_energy",
    "weighted_work_function",
    "surface_anisotropy",
    "shape_factor",
    "has_reconstructed",
    "possible_species",
    "has_props",
    "theoretical",
    "database_IDs"
  ]
}
