{"builder_meta": null, "nsites": null, "elements": null, "nelements": null, "composition": null, "composition_reduced": null, "formula_pretty": "Sc2Au", "formula_anonymous": "AB2", "chemsys": null, "volume": 256.1761183101612, "density": 7.438207465743032, "density_atomic": 21.3480098591801, "symmetry": null, "property_name": null, "material_id": "mp-1209057", "deprecated": null, "deprecation_reasons": null, "last_updated": null, "origins": null, "warnings": null, "structure": {"@module": "pymatgen.core.structure", "@class": "Structure", "charge": 0, "lattice": {"matrix": [[-0.0, -4.6734110300000005, 0.0], [-6.56286479, -0.0, 0.0], [0.0, 0.0, -8.35239846]], "pbc": [true, true, true], "a": 4.6734110300000005, "b": 6.56286479, "c": 8.35239846, "alpha": 90.0, "beta": 90.0, "gamma": 90.0, "volume": 256.17611831016126}, "properties": {}, "sites": [{"species": [{"element": "Sc", "occu": 1}], "abc": [0.75, 0.84720826, 0.9224759100000001], "properties": {"magmom": 0.0}, "label": "Sc", "xyz": [-5.560113259351166, -3.5050582725000003, -7.704886370071099]}, {"species": [{"element": "Sc", "occu": 1}], "abc": [0.25, 0.15279174, 0.07752409], "properties": {"magmom": 0.0}, "label": "Sc", "xyz": [-1.0027515306488346, -1.1683527575000001, -0.6475120899289014]}, {"species": [{"element": "Sc", "occu": 1}], "abc": [0.25, 0.6527917400000001, 0.42247591], "properties": {"magmom": 0.0}, "label": "Sc", "xyz": [-4.2841839256488345, -1.1683527575000001, -3.5286871400710984]}, {"species": [{"element": "Sc", "occu": 1}], "abc": [0.75, 0.34720826, 0.57752409], "properties": {"magmom": 0.0}, "label": "Sc", "xyz": [-2.2786808643511653, -3.5050582725000003, -4.8237113199289015]}, {"species": [{"element": "Sc", "occu": 1}], "abc": [0.75, 0.98283663, 0.31564574], "properties": {"magmom": -0.0}, "label": "Sc", "xyz": [-6.450223913349258, -3.5050582725000003, -2.6363989926815603]}, {"species": [{"element": "Sc", "occu": 1}], "abc": [0.25, 0.01716337, 0.68435426], "properties": {"magmom": -0.0}, "label": "Sc", "xyz": [-0.11264087665074231, -1.1683527575000001, -5.715999467318439]}, {"species": [{"element": "Sc", "occu": 1}], "abc": [0.25, 0.51716337, 0.81564574], "properties": {"magmom": -0.0}, "label": "Sc", "xyz": [-3.3940732716507425, -1.1683527575000001, -6.812598222681561]}, {"species": [{"element": "Sc", "occu": 1}], "abc": [0.75, 0.48283663, 0.18435426], "properties": {"magmom": -0.0}, "label": "Sc", "xyz": [-3.1687915183492574, -3.5050582725000003, -1.5398002373184394]}, {"species": [{"element": "Au", "occu": 1}], "abc": [0.75, 0.75786542, 0.59890272], "properties": {"magmom": -0.0}, "label": "Au", "xyz": [-4.973768280476562, -3.5050582725000003, -5.002274156217811]}, {"species": [{"element": "Au", "occu": 1}], "abc": [0.25, 0.24213458000000002, 0.40109728], "properties": {"magmom": -0.0}, "label": "Au", "xyz": [-1.5890965095234382, -1.1683527575000001, -3.350124303782189]}, {"species": [{"element": "Au", "occu": 1}], "abc": [0.25, 0.74213458, 0.09890272], "properties": {"magmom": -0.0}, "label": "Au", "xyz": [-4.870528904523438, -1.1683527575000001, -0.8260749262178112]}, {"species": [{"element": "Au", "occu": 1}], "abc": [0.75, 0.25786542, 0.90109728], "properties": {"magmom": -0.0}, "label": "Au", "xyz": [-1.6923358854765618, -3.5050582725000003, -7.526323533782189]}]}, "task_ids": null, "uncorrected_energy_per_atom": null, "energy_per_atom": -25.17689132166667, "formation_energy_per_atom": -0.7162463683333341, "energy_above_hull": 0.0, "is_stable": true, "equilibrium_reaction_energy_per_atom": null, "decomposes_to": null, "xas": null, "grain_boundaries": null, "band_gap": 0.0, "cbm": null, "vbm": null, "efermi": 4.55224575, "is_gap_direct": null, "is_metal": null, "es_source_calc_id": null, "bandstructure": null, "dos": null, "dos_energy_up": null, "dos_energy_down": null, "is_magnetic": null, "ordering": null, "total_magnetization": 4.7e-06, "total_magnetization_normalized_vol": null, "total_magnetization_normalized_formula_units": null, "num_magnetic_sites": null, "num_unique_magnetic_sites": null, "types_of_magnetic_species": null, "bulk_modulus": null, "shear_modulus": null, "universal_anisotropy": null, "homogeneous_poisson": null, "e_total": null, "e_ionic": null, "e_electronic": null, "n": null, "e_ij_max": null, "weighted_surface_energy_EV_PER_ANG2": null, "weighted_surface_energy": null, "weighted_work_function": null, "surface_anisotropy": null, "shape_factor": null, "has_reconstructed": null, "possible_species": null, "has_props": null, "theoretical": null, "database_IDs": null, "fields_not_requested": ["builder_meta", "nsites", "elements", "nelements", "composition", "composition_reduced", "chemsys", "symmetry", "property_name", "deprecated", "deprecation_reasons", "last_updated", "origins", "warnings", "task_ids", "uncorrected_energy_per_atom", "equilibrium_reaction_energy_per_atom", "decomposes_to", "xas", "grain_boundaries", "cbm", "vbm", "is_gap_direct", "is_metal", "es_source_calc_id", "bandstructure", "dos", "dos_energy_up", "dos_energy_down", "is_magnetic", "ordering", "total_magnetization_normalized_vol", "total_magnetization_normalized_formula_units", "num_magnetic_sites", "num_unique_magnetic_sites", "types_of_magnetic_species", "bulk_modulus", "shear_modulus", "universal_anisotropy", "homogeneous_poisson", "e_total", "e_ionic", "e_electronic", "n", "e_ij_max", "weighted_surface_energy_EV_PER_ANG2", "weighted_surface_energy", "weighted_work_function", "surface_anisotropy", "shape_factor", "has_reconstructed", "possible_species", "has_props", "theoretical", "database_IDs"]}