{"builder_meta": null, "nsites": null, "elements": null, "nelements": null, "composition": null, "composition_reduced": null, "formula_pretty": "Sc2Co", "formula_anonymous": "AB2", "chemsys": null, "volume": 111.05935706647587, "density": 4.451006658905417, "density_atomic": 18.509892844412644, "symmetry": null, "property_name": null, "material_id": "mp-30562", "deprecated": null, "deprecation_reasons": null, "last_updated": null, "origins": null, "warnings": null, "structure": {"@module": "pymatgen.core.structure", "@class": "Structure", "charge": 0, "lattice": {"matrix": [[5.04358492, 0.03475906, -1.48774114], [-2.81093322, 4.18779389, -1.48774114], [-0.01837877, -0.03475905, 5.25840239]], "pbc": [true, true, true], "a": 5.2585483488460945, "b": 5.258548937879099, "c": 5.258549387987273, "alpha": 106.63695874745231, "beta": 106.63696247537942, "gamma": 115.30183489012622, "volume": 111.05935706647587}, "properties": {}, "sites": [{"species": [{"element": "Sc", "occu": 1}], "abc": [0.32158685, 0.82158685, 0.14317471], "properties": {"magmom": -0.0}, "label": "Sc", "xyz": [-0.6901065577147618, 3.4468378302450815, -0.9478763064044612]}, {"species": [{"element": "Sc", "occu": 1}], "abc": [0.82158685, 0.67841315, 0.5], "properties": {"magmom": -0.0}, "label": "Sc", "xyz": [2.227579601910459, 2.8522325060800147, 0.3975894849999997]}, {"species": [{"element": "Sc", "occu": 1}], "abc": [0.67841315, 0.17841315, 0.8568252900000001], "properties": {"magmom": -0.0}, "label": "Sc", "xyz": [2.904379487714762, 0.7409560697549179, 3.230796416404461]}, {"species": [{"element": "Sc", "occu": 1}], "abc": [0.17841315, 0.32158685, 0.5], "properties": {"magmom": -0.0}, "label": "Sc", "xyz": [-0.013306671910458983, 1.3355613939199855, 1.885330625]}, {"species": [{"element": "Co", "occu": 1}], "abc": [0.75, 0.75, -0.0], "properties": {"magmom": 0.0}, "label": "Co", "xyz": [1.6744887749999995, 3.1669147125, -2.23161171]}, {"species": [{"element": "Co", "occu": 1}], "abc": [0.25, 0.25, -0.0], "properties": {"magmom": 0.0}, "label": "Co", "xyz": [0.558162925, 1.0556382375, -0.74387057]}]}, "task_ids": null, "uncorrected_energy_per_atom": null, "energy_per_atom": -12.137998635, "formation_energy_per_atom": -0.127596688333333, "energy_above_hull": 0.06657350333333201, "is_stable": false, "equilibrium_reaction_energy_per_atom": null, "decomposes_to": null, "xas": null, "grain_boundaries": null, "band_gap": 0.0, "cbm": null, "vbm": null, "efermi": 4.47903798, "is_gap_direct": null, "is_metal": null, "es_source_calc_id": null, "bandstructure": null, "dos": null, "dos_energy_up": null, "dos_energy_down": null, "is_magnetic": null, "ordering": null, "total_magnetization": 1.5e-06, "total_magnetization_normalized_vol": null, "total_magnetization_normalized_formula_units": null, "num_magnetic_sites": null, "num_unique_magnetic_sites": null, "types_of_magnetic_species": null, "bulk_modulus": null, "shear_modulus": null, "universal_anisotropy": null, "homogeneous_poisson": null, "e_total": null, "e_ionic": null, "e_electronic": null, "n": null, "e_ij_max": null, "weighted_surface_energy_EV_PER_ANG2": null, "weighted_surface_energy": null, "weighted_work_function": null, "surface_anisotropy": null, "shape_factor": null, "has_reconstructed": null, "possible_species": null, "has_props": null, "theoretical": null, "database_IDs": null, "fields_not_requested": ["builder_meta", "nsites", "elements", "nelements", "composition", "composition_reduced", "chemsys", "symmetry", "property_name", "deprecated", "deprecation_reasons", "last_updated", "origins", "warnings", "task_ids", "uncorrected_energy_per_atom", "equilibrium_reaction_energy_per_atom", "decomposes_to", "xas", "grain_boundaries", "cbm", "vbm", "is_gap_direct", "is_metal", "es_source_calc_id", "bandstructure", "dos", "dos_energy_up", "dos_energy_down", "is_magnetic", "ordering", "total_magnetization_normalized_vol", "total_magnetization_normalized_formula_units", "num_magnetic_sites", "num_unique_magnetic_sites", "types_of_magnetic_species", "bulk_modulus", "shear_modulus", "universal_anisotropy", "homogeneous_poisson", "e_total", "e_ionic", "e_electronic", "n", "e_ij_max", "weighted_surface_energy_EV_PER_ANG2", "weighted_surface_energy", "weighted_work_function", "surface_anisotropy", "shape_factor", "has_reconstructed", "possible_species", "has_props", "theoretical", "database_IDs"]}