{"builder_meta": null, "nsites": null, "elements": null, "nelements": null, "composition": null, "composition_reduced": null, "formula_pretty": "Sc2C3", "formula_anonymous": "A2B3", "chemsys": null, "volume": 228.54337759155234, "density": 3.660308309202682, "density_atomic": 11.427168879577618, "symmetry": null, "property_name": null, "material_id": "mp-16296", "deprecated": null, "deprecation_reasons": null, "last_updated": null, "origins": null, "warnings": null, "structure": {"@module": "pymatgen.core.structure", "@class": "Structure", "charge": 0, "lattice": {"matrix": [[-3.851556, 3.851556, 3.851556], [3.851556, -3.851556, 3.851556], [3.851556, 3.851556, -3.851556]], "pbc": [true, true, true], "a": 6.671090680196754, "b": 6.671090680196754, "c": 6.671090680196754, "alpha": 109.47122063449069, "beta": 109.47122063449069, "gamma": 109.47122063449069, "volume": 228.54337759155234}, "properties": {}, "sites": [{"species": [{"element": "Sc", "occu": 1}], "abc": [0.5, 0.0, 0.599781], "properties": {"magmom": 0.0}, "label": "Sc", "xyz": [0.384312109236, 4.235868109236, -0.384312109236]}, {"species": [{"element": "Sc", "occu": 1}], "abc": [0.099781, 0.5, 0.0], "properties": {"magmom": 0.0}, "label": "Sc", "xyz": [1.541465890764, -1.541465890764, 2.310090109236]}, {"species": [{"element": "Sc", "occu": 1}], "abc": [0.400219, 0.400219, 0.400219], "properties": {"magmom": -0.0}, "label": "Sc", "xyz": [1.541465890764, 1.541465890764, 1.541465890764]}, {"species": [{"element": "Sc", "occu": 1}], "abc": [0.0, 0.099781, 0.5], "properties": {"magmom": 0.0}, "label": "Sc", "xyz": [2.310090109236, 1.541465890764, -1.541465890764]}, {"species": [{"element": "Sc", "occu": 1}], "abc": [0.900219, 0.900219, 0.900219], "properties": {"magmom": -0.0}, "label": "Sc", "xyz": [3.4672438907639997, 3.4672438907639997, 3.4672438907639997]}, {"species": [{"element": "Sc", "occu": 1}], "abc": [0.0, 0.599781, 0.5], "properties": {"magmom": 0.0}, "label": "Sc", "xyz": [4.235868109236, -0.384312109236, 0.384312109236]}, {"species": [{"element": "Sc", "occu": 1}], "abc": [0.599781, 0.5, 0.0], "properties": {"magmom": 0.0}, "label": "Sc", "xyz": [-0.384312109236, 0.384312109236, 4.235868109236]}, {"species": [{"element": "Sc", "occu": 1}], "abc": [0.5, 0.0, 0.099781], "properties": {"magmom": 0.0}, "label": "Sc", "xyz": [-1.541465890764, 2.310090109236, 1.541465890764]}, {"species": [{"element": "C", "occu": 1}], "abc": [0.788312999999999, 0.25, 0.038313], "properties": {"magmom": 0.0}, "label": "C", "xyz": [-1.925777999999996, 2.220907330055996, 3.8515559999999964]}, {"species": [{"element": "C", "occu": 1}], "abc": [0.961687, 0.25, 0.211687], "properties": {"magmom": -0.0}, "label": "C", "xyz": [-1.9257779999999998, 3.5564266699439995, 3.8515559999999995]}, {"species": [{"element": "C", "occu": 1}], "abc": [0.75, 0.288313, 0.538312999999999], "properties": {"magmom": -0.0}, "label": "C", "xyz": [0.2951293300559965, 3.8515559999999964, 1.9257780000000033]}, {"species": [{"element": "C", "occu": 1}], "abc": [0.211687, 0.961687, 0.25], "properties": {"magmom": 0.0}, "label": "C", "xyz": [3.851556, -1.9257779999999998, 3.5564266699439995]}, {"species": [{"element": "C", "occu": 1}], "abc": [0.25, 0.211687, 0.961687], "properties": {"magmom": -0.0}, "label": "C", "xyz": [3.556426669944, 3.8515559999999995, -1.9257779999999998]}, {"species": [{"element": "C", "occu": 1}], "abc": [0.288313, 0.538312999999999, 0.75], "properties": {"magmom": 0.0}, "label": "C", "xyz": [3.8515559999999964, 1.9257780000000033, 0.2951293300559965]}, {"species": [{"element": "C", "occu": 1}], "abc": [0.711687, 0.75, 0.461686999999999], "properties": {"magmom": 0.0}, "label": "C", "xyz": [1.9257779999999964, 1.630648669943996, 3.851556000000004]}, {"species": [{"element": "C", "occu": 1}], "abc": [0.038313, 0.788312999999999, 0.25], "properties": {"magmom": -0.0}, "label": "C", "xyz": [3.8515559999999964, -1.9257779999999962, 2.220907330055996]}, {"species": [{"element": "C", "occu": 1}], "abc": [0.538312999999999, 0.75, 0.288313], "properties": {"magmom": 0.0}, "label": "C", "xyz": [1.9257780000000033, 0.2951293300559965, 3.8515559999999964]}, {"species": [{"element": "C", "occu": 1}], "abc": [0.75, 0.461686999999999, 0.711687], "properties": {"magmom": -0.0}, "label": "C", "xyz": [1.630648669943996, 3.851556000000003, 1.9257779999999962]}, {"species": [{"element": "C", "occu": 1}], "abc": [0.25, 0.038313, 0.788312999999999], "properties": {"magmom": 0.0}, "label": "C", "xyz": [2.2209073300559963, 3.851555999999996, -1.9257779999999962]}, {"species": [{"element": "C", "occu": 1}], "abc": [0.461686999999999, 0.711687, 0.75], "properties": {"magmom": -0.0}, "label": "C", "xyz": [3.851556000000003, 1.9257779999999964, 1.6306486699439962]}]}, "task_ids": null, "uncorrected_energy_per_atom": null, "energy_per_atom": -8.338118957, "formation_energy_per_atom": -0.2679320195, "energy_above_hull": 0.11261375116666801, "is_stable": false, "equilibrium_reaction_energy_per_atom": null, "decomposes_to": null, "xas": null, "grain_boundaries": null, "band_gap": 0.0, "cbm": null, "vbm": null, "efermi": 6.33451909, "is_gap_direct": null, "is_metal": null, "es_source_calc_id": null, "bandstructure": null, "dos": null, "dos_energy_up": null, "dos_energy_down": null, "is_magnetic": null, "ordering": null, "total_magnetization": 2.3300000000000004e-05, "total_magnetization_normalized_vol": null, "total_magnetization_normalized_formula_units": null, "num_magnetic_sites": null, "num_unique_magnetic_sites": null, "types_of_magnetic_species": null, "bulk_modulus": null, "shear_modulus": null, "universal_anisotropy": null, "homogeneous_poisson": null, "e_total": null, "e_ionic": null, "e_electronic": null, "n": null, "e_ij_max": null, "weighted_surface_energy_EV_PER_ANG2": null, "weighted_surface_energy": null, "weighted_work_function": null, "surface_anisotropy": null, "shape_factor": null, "has_reconstructed": null, "possible_species": null, "has_props": null, "theoretical": null, "database_IDs": null, "fields_not_requested": ["builder_meta", "nsites", "elements", "nelements", "composition", "composition_reduced", "chemsys", "symmetry", "property_name", "deprecated", "deprecation_reasons", "last_updated", "origins", "warnings", "task_ids", "uncorrected_energy_per_atom", "equilibrium_reaction_energy_per_atom", "decomposes_to", "xas", "grain_boundaries", "cbm", "vbm", "is_gap_direct", "is_metal", "es_source_calc_id", "bandstructure", "dos", "dos_energy_up", "dos_energy_down", "is_magnetic", "ordering", "total_magnetization_normalized_vol", "total_magnetization_normalized_formula_units", "num_magnetic_sites", "num_unique_magnetic_sites", "types_of_magnetic_species", "bulk_modulus", "shear_modulus", "universal_anisotropy", "homogeneous_poisson", "e_total", "e_ionic", "e_electronic", "n", "e_ij_max", "weighted_surface_energy_EV_PER_ANG2", "weighted_surface_energy", "weighted_work_function", "surface_anisotropy", "shape_factor", "has_reconstructed", "possible_species", "has_props", "theoretical", "database_IDs"]}