{
  "builder_meta": null,
  "nsites": null,
  "elements": null,
  "nelements": null,
  "composition": null,
  "composition_reduced": null,
  "formula_pretty": "Sc2H5",
  "formula_anonymous": "A2B5",
  "chemsys": null,
  "volume": 117.40165389110251,
  "density": 2.686005006053101,
  "density_atomic": 8.385832420793037,
  "symmetry": null,
  "property_name": null,
  "material_id": "mp-33112",
  "deprecated": null,
  "deprecation_reasons": null,
  "last_updated": null,
  "origins": null,
  "warnings": null,
  "structure": {
    "@module": "pymatgen.core.structure",
    "@class": "Structure",
    "charge": 0,
    "lattice": {
      "matrix": [
        [3.360491, 0.0, 0.0],
        [0.0, 5.774352, 0.0],
        [0.0, 0.0, 6.050179]
      ],
      "pbc": [true, true, true],
      "a": 3.360491,
      "b": 5.774352,
      "c": 6.050179,
      "alpha": 90.0,
      "beta": 90.0,
      "gamma": 90.0,
      "volume": 117.40165389110251
    },
    "properties": {},
    "sites": [
      {
        "species": [{ "element": "Sc", "occu": 1 }],
        "abc": [0.5, 0.910763, 0.0],
        "properties": { "magmom": -0.002 },
        "label": "Sc",
        "xyz": [1.6802455, 5.259066150576, 0.0]
      },
      {
        "species": [{ "element": "Sc", "occu": 1 }],
        "abc": [0.0, 0.423226, 0.0],
        "properties": { "magmom": -0.003 },
        "label": "Sc",
        "xyz": [0.0, 2.443855899552, 0.0]
      },
      {
        "species": [{ "element": "Sc", "occu": 1 }],
        "abc": [0.0, 0.089237, 0.5],
        "properties": { "magmom": -0.003 },
        "label": "Sc",
        "xyz": [0.0, 0.515285849424, 3.0250895]
      },
      {
        "species": [{ "element": "Sc", "occu": 1 }],
        "abc": [0.5, 0.576774, 0.5],
        "properties": { "magmom": -0.004 },
        "label": "Sc",
        "xyz": [1.6802455, 3.3304961004480003, 3.0250895]
      },
      {
        "species": [{ "element": "H", "occu": 1 }],
        "abc": [0.5, 0.244471, 0.5],
        "properties": { "magmom": 0.0 },
        "label": "H",
        "xyz": [1.6802455, 1.4116616077920001, 3.0250895]
      },
      {
        "species": [{ "element": "H", "occu": 1 }],
        "abc": [0.5, 0.894192999999999, 0.659843],
        "properties": { "magmom": 0.0 },
        "label": "H",
        "xyz": [1.6802455, 5.163385137935995, 3.9921682618969996]
      },
      {
        "species": [{ "element": "H", "occu": 1 }],
        "abc": [0.5, 0.894192999999999, 0.340157],
        "properties": { "magmom": 0.0 },
        "label": "H",
        "xyz": [1.6802455, 5.163385137935995, 2.058010738103]
      },
      {
        "species": [{ "element": "H", "occu": 1 }],
        "abc": [0.0, 0.105807, 0.840156999999999],
        "properties": { "magmom": 0.0 },
        "label": "H",
        "xyz": [0.0, 0.6109668620640001, 5.083100238102994]
      },
      {
        "species": [{ "element": "H", "occu": 1 }],
        "abc": [0.0, 0.105807, 0.159842999999999],
        "properties": { "magmom": 0.0 },
        "label": "H",
        "xyz": [0.0, 0.6109668620640001, 0.967078761896994]
      },
      {
        "species": [{ "element": "H", "occu": 1 }],
        "abc": [0.0, 0.439032, 0.658095],
        "properties": { "magmom": 0.0 },
        "label": "H",
        "xyz": [0.0, 2.535125307264, 3.9815925490049997]
      },
      {
        "species": [{ "element": "H", "occu": 1 }],
        "abc": [0.0, 0.439032, 0.341904999999999],
        "properties": { "magmom": 0.0 },
        "label": "H",
        "xyz": [0.0, 2.535125307264, 2.068586450994994]
      },
      {
        "species": [{ "element": "H", "occu": 1 }],
        "abc": [0.0, 0.755529, 0.0],
        "properties": { "magmom": -0.0 },
        "label": "H",
        "xyz": [0.0, 4.362690392208, 0.0]
      },
      {
        "species": [{ "element": "H", "occu": 1 }],
        "abc": [0.5, 0.560968, 0.841905],
        "properties": { "magmom": 0.0 },
        "label": "H",
        "xyz": [1.6802455, 3.2392266927360005, 5.093675950995]
      },
      {
        "species": [{ "element": "H", "occu": 1 }],
        "abc": [0.5, 0.560968, 0.15809499999999901],
        "properties": { "magmom": 0.0 },
        "label": "H",
        "xyz": [1.6802455, 3.2392266927360005, 0.956503049004994]
      }
    ]
  },
  "task_ids": null,
  "uncorrected_energy_per_atom": null,
  "energy_per_atom": -6.293097530178571,
  "formation_energy_per_atom": -0.568449427857142,
  "energy_above_hull": 0.064202738571427,
  "is_stable": false,
  "equilibrium_reaction_energy_per_atom": null,
  "decomposes_to": null,
  "xas": null,
  "grain_boundaries": null,
  "band_gap": 0.0,
  "cbm": null,
  "vbm": null,
  "efermi": 3.77273991,
  "is_gap_direct": null,
  "is_metal": null,
  "es_source_calc_id": null,
  "bandstructure": null,
  "dos": null,
  "dos_energy_up": null,
  "dos_energy_down": null,
  "is_magnetic": null,
  "ordering": null,
  "total_magnetization": 0.0240615,
  "total_magnetization_normalized_vol": null,
  "total_magnetization_normalized_formula_units": null,
  "num_magnetic_sites": null,
  "num_unique_magnetic_sites": null,
  "types_of_magnetic_species": null,
  "bulk_modulus": null,
  "shear_modulus": null,
  "universal_anisotropy": null,
  "homogeneous_poisson": null,
  "e_total": null,
  "e_ionic": null,
  "e_electronic": null,
  "n": null,
  "e_ij_max": null,
  "weighted_surface_energy_EV_PER_ANG2": null,
  "weighted_surface_energy": null,
  "weighted_work_function": null,
  "surface_anisotropy": null,
  "shape_factor": null,
  "has_reconstructed": null,
  "possible_species": null,
  "has_props": null,
  "theoretical": null,
  "database_IDs": null,
  "fields_not_requested": [
    "builder_meta",
    "nsites",
    "elements",
    "nelements",
    "composition",
    "composition_reduced",
    "chemsys",
    "symmetry",
    "property_name",
    "deprecated",
    "deprecation_reasons",
    "last_updated",
    "origins",
    "warnings",
    "task_ids",
    "uncorrected_energy_per_atom",
    "equilibrium_reaction_energy_per_atom",
    "decomposes_to",
    "xas",
    "grain_boundaries",
    "cbm",
    "vbm",
    "is_gap_direct",
    "is_metal",
    "es_source_calc_id",
    "bandstructure",
    "dos",
    "dos_energy_up",
    "dos_energy_down",
    "is_magnetic",
    "ordering",
    "total_magnetization_normalized_vol",
    "total_magnetization_normalized_formula_units",
    "num_magnetic_sites",
    "num_unique_magnetic_sites",
    "types_of_magnetic_species",
    "bulk_modulus",
    "shear_modulus",
    "universal_anisotropy",
    "homogeneous_poisson",
    "e_total",
    "e_ionic",
    "e_electronic",
    "n",
    "e_ij_max",
    "weighted_surface_energy_EV_PER_ANG2",
    "weighted_surface_energy",
    "weighted_work_function",
    "surface_anisotropy",
    "shape_factor",
    "has_reconstructed",
    "possible_species",
    "has_props",
    "theoretical",
    "database_IDs"
  ]
}
