{"builder_meta": null, "nsites": null, "elements": null, "nelements": null, "composition": null, "composition_reduced": null, "formula_pretty": "Sc2Ir", "formula_anonymous": "AB2", "chemsys": null, "volume": 464.24680383215735, "density": 8.073049596874181, "density_atomic": 19.34361682633989, "symmetry": null, "property_name": null, "material_id": "mp-1190979", "deprecated": null, "deprecation_reasons": null, "last_updated": null, "origins": null, "warnings": null, "structure": {"@module": "pymatgen.core.structure", "@class": "Structure", "charge": 0, "lattice": {"matrix": [[0.0, 6.14572377, 6.14572274], [6.14572274, 1.029999999999998e-06, 6.14572171], [6.14572377, 6.14572377, -0.0]], "pbc": [true, true, true], "a": 8.691365177812754, "b": 8.691363721172845, "c": 8.691365906132708, "alpha": 59.99999168394101, "beta": 59.999997227980884, "gamma": 59.99999999999931, "volume": 464.24680383215735}, "properties": {}, "sites": [{"species": [{"element": "Sc", "occu": 1}], "abc": [0.125, 0.625, 0.625], "properties": {"magmom": 0.0}, "label": "Sc", "xyz": [7.68215406875, 4.60929347125, 4.60929141125]}, {"species": [{"element": "Sc", "occu": 1}], "abc": [0.625, 0.125, 0.625], "properties": {"magmom": 0.0}, "label": "Sc", "xyz": [4.60929269875, 7.68215484125, 4.60929192625]}, {"species": [{"element": "Sc", "occu": 1}], "abc": [0.625, 0.625, 0.125], "properties": {"magmom": 0.0}, "label": "Sc", "xyz": [4.60929218375, 4.60929347125, 7.68215278125]}, {"species": [{"element": "Sc", "occu": 1}], "abc": [0.625, 0.625, 0.625], "properties": {"magmom": 0.0}, "label": "Sc", "xyz": [7.68215406875, 7.68215535625, 7.68215278125]}, {"species": [{"element": "Sc", "occu": 1}], "abc": [0.81155194, 0.81155094, 0.18844906], "properties": {"magmom": 0.0}, "label": "Sc", "xyz": [6.145722934102532, 6.1457307516212385, 9.975139443078024]}, {"species": [{"element": "Sc", "occu": 1}], "abc": [0.18844906, 0.18844906, 0.81155094], "properties": {"magmom": 0.0}, "label": "Sc", "xyz": [6.145723575897469, 6.145723964102532, 2.316311152644717]}, {"species": [{"element": "Sc", "occu": 1}], "abc": [0.81155194, 0.18844906, 0.81155094], "properties": {"magmom": 0.0}, "label": "Sc", "xyz": [6.145723575897469, 9.975142144873988, 6.145728691620208]}, {"species": [{"element": "Sc", "occu": 1}], "abc": [0.18844906, 0.81155094, 0.18844806], "properties": {"magmom": 0.0}, "label": "Sc", "xyz": [6.145716788378762, 2.316306425126011, 6.145721904102532]}, {"species": [{"element": "Sc", "occu": 1}], "abc": [0.18844906, 0.81155094, 0.81155194], "properties": {"magmom": 0.0}, "label": "Sc", "xyz": [9.975141114873988, 6.145730751621238, 6.145721904102532]}, {"species": [{"element": "Sc", "occu": 1}], "abc": [0.81155194, 0.18844906, 0.18844806], "properties": {"magmom": 0.0}, "label": "Sc", "xyz": [2.316305395126011, 6.145723964102531, 6.145728691620208]}, {"species": [{"element": "Sc", "occu": 1}], "abc": [0.43844806000000003, 0.43844906, 0.06155094], "properties": {"magmom": 0.0}, "label": "Sc", "xyz": [3.072861433397468, 3.072856190878762, 5.3891661194219775]}, {"species": [{"element": "Sc", "occu": 1}], "abc": [0.06155094, 0.06155094, 0.43844906], "properties": {"magmom": 0.0}, "label": "Sc", "xyz": [3.072861821602532, 3.072861948397468, 0.756549959855283]}, {"species": [{"element": "Sc", "occu": 1}], "abc": [0.43844806000000003, 0.06155094, 0.43844906], "properties": {"magmom": 0.0}, "label": "Sc", "xyz": [3.072861821602532, 5.38916753762601, 3.072855160879792]}, {"species": [{"element": "Sc", "occu": 1}], "abc": [0.06155094, 0.43844906, 0.06155194], "properties": {"magmom": 0.0}, "label": "Sc", "xyz": [3.072867579121238, 0.7565567473739894, 3.072860918397468]}, {"species": [{"element": "Sc", "occu": 1}], "abc": [0.06155094, 0.43844906, 0.43844806000000003], "properties": {"magmom": 0.0}, "label": "Sc", "xyz": [5.38916702262601, 3.072856190878762, 3.072860918397468]}, {"species": [{"element": "Sc", "occu": 1}], "abc": [0.43844806000000003, 0.06155094, 0.06155194], "properties": {"magmom": 0.0}, "label": "Sc", "xyz": [0.7565562323739894, 3.072861948397468, 3.072855160879792]}, {"species": [{"element": "Ir", "occu": 1}], "abc": [0.77230144, 0.40923252, 0.40923252], "properties": {"magmom": -0.0}, "label": "Ir", "xyz": [5.030059629732505, 7.261381764543724, 7.261379704544755]}, {"species": [{"element": "Ir", "occu": 1}], "abc": [0.40923252, 0.77230144, 0.40923252], "properties": {"magmom": -0.0}, "label": "Ir", "xyz": [7.261380547563746, 5.030060846712484, 7.261379330583766]}, {"species": [{"element": "Ir", "occu": 1}], "abc": [0.40923252, 0.40923252, 0.77230144], "properties": {"magmom": -0.0}, "label": "Ir", "xyz": [7.261380921524733, 7.261381764543724, 5.030058786713514]}, {"species": [{"element": "Ir", "occu": 1}], "abc": [0.40923252, 0.40923252, 0.40923252], "properties": {"magmom": -0.0}, "label": "Ir", "xyz": [5.030059629732505, 5.030060472751496, 5.030058786713514]}, {"species": [{"element": "Ir", "occu": 1}], "abc": [0.47769856, 0.84076748, 0.84076748], "properties": {"magmom": -0.0}, "label": "Ir", "xyz": [10.334248507767494, 8.102928947956276, 8.102925857955245]}, {"species": [{"element": "Ir", "occu": 1}], "abc": [0.84076748, 0.47769856, 0.84076748], "properties": {"magmom": -0.0}, "label": "Ir", "xyz": [8.102927589936254, 10.334249865787516, 8.102926231916232]}, {"species": [{"element": "Ir", "occu": 1}], "abc": [0.84076748, 0.84076748, 0.47769856], "properties": {"magmom": -0.0}, "label": "Ir", "xyz": [8.102927215975267, 8.102928947956276, 10.334246775786486]}, {"species": [{"element": "Ir", "occu": 1}], "abc": [0.84076748, 0.84076748, 0.84076748], "properties": {"magmom": -0.0}, "label": "Ir", "xyz": [10.334248507767494, 10.334250239748503, 10.334246775786486]}]}, "task_ids": null, "uncorrected_energy_per_atom": null, "energy_per_atom": -7.932240582916667, "formation_energy_per_atom": -0.764449786249999, "energy_above_hull": 0.034591713511905, "is_stable": false, "equilibrium_reaction_energy_per_atom": null, "decomposes_to": null, "xas": null, "grain_boundaries": null, "band_gap": 0.0, "cbm": null, "vbm": null, "efermi": 5.43157237, "is_gap_direct": null, "is_metal": null, "es_source_calc_id": null, "bandstructure": null, "dos": null, "dos_energy_up": null, "dos_energy_down": null, "is_magnetic": null, "ordering": null, "total_magnetization": 0.005549699999999, "total_magnetization_normalized_vol": null, "total_magnetization_normalized_formula_units": null, "num_magnetic_sites": null, "num_unique_magnetic_sites": null, "types_of_magnetic_species": null, "bulk_modulus": null, "shear_modulus": null, "universal_anisotropy": null, "homogeneous_poisson": null, "e_total": null, "e_ionic": null, "e_electronic": null, "n": null, "e_ij_max": null, "weighted_surface_energy_EV_PER_ANG2": null, "weighted_surface_energy": null, "weighted_work_function": null, "surface_anisotropy": null, "shape_factor": null, "has_reconstructed": null, "possible_species": null, "has_props": null, "theoretical": null, "database_IDs": null, "fields_not_requested": ["builder_meta", "nsites", "elements", "nelements", "composition", "composition_reduced", "chemsys", "symmetry", "property_name", "deprecated", "deprecation_reasons", "last_updated", "origins", "warnings", "task_ids", "uncorrected_energy_per_atom", "equilibrium_reaction_energy_per_atom", "decomposes_to", "xas", "grain_boundaries", "cbm", "vbm", "is_gap_direct", "is_metal", "es_source_calc_id", "bandstructure", "dos", "dos_energy_up", "dos_energy_down", "is_magnetic", "ordering", "total_magnetization_normalized_vol", "total_magnetization_normalized_formula_units", "num_magnetic_sites", "num_unique_magnetic_sites", "types_of_magnetic_species", "bulk_modulus", "shear_modulus", "universal_anisotropy", "homogeneous_poisson", "e_total", "e_ionic", "e_electronic", "n", "e_ij_max", "weighted_surface_energy_EV_PER_ANG2", "weighted_surface_energy", "weighted_work_function", "surface_anisotropy", "shape_factor", "has_reconstructed", "possible_species", "has_props", "theoretical", "database_IDs"]}