{"builder_meta": null, "nsites": null, "elements": null, "nelements": null, "composition": null, "composition_reduced": null, "formula_pretty": "Sc2Ni7", "formula_anonymous": "A2B7", "chemsys": null, "volume": 466.369325850532, "density": 7.132037514223903, "density_atomic": 12.954703495848111, "symmetry": null, "property_name": null, "material_id": "mp-1197416", "deprecated": null, "deprecation_reasons": null, "last_updated": null, "origins": null, "warnings": null, "structure": {"@module": "pymatgen.core.structure", "@class": "Structure", "charge": 0, "lattice": {"matrix": [[2.385371, -4.131584, 0.0], [2.385371, 4.131584, 0.0], [0.0, 0.0, 23.660693]], "pbc": [true, true, true], "a": 4.770742201869328, "b": 4.770742201869328, "c": 23.660693, "alpha": 90.0, "beta": 90.0, "gamma": 120.00000279947366, "volume": 466.369325850532}, "properties": {}, "sites": [{"species": [{"element": "Sc", "occu": 1}], "abc": [0.333333, 0.666667, 0.470987999999999], "properties": {"magmom": -0.011}, "label": "Sc", "xyz": [2.385371, 1.3771974210560003, 11.143902474683976]}, {"species": [{"element": "Sc", "occu": 1}], "abc": [0.666667, 0.333333, 0.529011999999999], "properties": {"magmom": -0.011}, "label": "Sc", "xyz": [2.385371, -1.3771974210560003, 12.516790525315976]}, {"species": [{"element": "Sc", "occu": 1}], "abc": [0.666667, 0.333333, 0.970988], "properties": {"magmom": -0.011}, "label": "Sc", "xyz": [2.385371, -1.3771974210560003, 22.974248974684]}, {"species": [{"element": "Sc", "occu": 1}], "abc": [0.333333, 0.666667, 0.029012], "properties": {"magmom": -0.011}, "label": "Sc", "xyz": [2.385371, 1.3771974210560003, 0.6864440253159999]}, {"species": [{"element": "Sc", "occu": 1}], "abc": [0.333333, 0.666667, 0.325802], "properties": {"magmom": -0.005}, "label": "Sc", "xyz": [2.385371, 1.3771974210560003, 7.708701100785999]}, {"species": [{"element": "Sc", "occu": 1}], "abc": [0.666667, 0.333333, 0.674198], "properties": {"magmom": -0.005}, "label": "Sc", "xyz": [2.385371, -1.3771974210560003, 15.951991899213999]}, {"species": [{"element": "Sc", "occu": 1}], "abc": [0.666667, 0.333333, 0.825801999999999], "properties": {"magmom": -0.005}, "label": "Sc", "xyz": [2.385371, -1.3771974210560003, 19.539047600785977]}, {"species": [{"element": "Sc", "occu": 1}], "abc": [0.333333, 0.666667, 0.174198], "properties": {"magmom": -0.005}, "label": "Sc", "xyz": [2.385371, 1.3771974210560003, 4.121645399214]}, {"species": [{"element": "Ni", "occu": 1}], "abc": [0.0, 0.0, 0.5], "properties": {"magmom": -0.021}, "label": "Ni", "xyz": [0.0, 0.0, 11.8303465]}, {"species": [{"element": "Ni", "occu": 1}], "abc": [0.0, 0.0, 0.0], "properties": {"magmom": -0.021}, "label": "Ni", "xyz": [0.0, 0.0, 0.0]}, {"species": [{"element": "Ni", "occu": 1}], "abc": [0.833394, 0.166606, 0.25], "properties": {"magmom": -0.073}, "label": "Ni", "xyz": [2.385371, -2.7548906321919997, 5.91517325]}, {"species": [{"element": "Ni", "occu": 1}], "abc": [0.833394, 0.666787999999999, 0.25], "properties": {"magmom": -0.065}, "label": "Ni", "xyz": [3.5784906375219983, -0.6883466839040038, 5.91517325]}, {"species": [{"element": "Ni", "occu": 1}], "abc": [0.333212, 0.166606, 0.25], "properties": {"magmom": -0.064}, "label": "Ni", "xyz": [1.1922513624780002, -0.688346683904, 5.91517325]}, {"species": [{"element": "Ni", "occu": 1}], "abc": [0.166606, 0.833394, 0.75], "properties": {"magmom": -0.074}, "label": "Ni", "xyz": [2.385371, 2.7548906321919997, 17.74551975]}, {"species": [{"element": "Ni", "occu": 1}], "abc": [0.166606, 0.333212, 0.75], "properties": {"magmom": -0.067}, "label": "Ni", "xyz": [1.1922513624780002, 0.688346683904, 17.74551975]}, {"species": [{"element": "Ni", "occu": 1}], "abc": [0.666787999999999, 0.833394, 0.75], "properties": {"magmom": -0.065}, "label": "Ni", "xyz": [3.5784906375219983, 0.6883466839040038, 17.74551975]}, {"species": [{"element": "Ni", "occu": 1}], "abc": [0.832143, 0.167857, 0.416718], "properties": {"magmom": 0.02}, "label": "Ni", "xyz": [2.385371, -2.7445534090240002, 9.859836665573999]}, {"species": [{"element": "Ni", "occu": 1}], "abc": [0.832143, 0.664285999999999, 0.416718], "properties": {"magmom": 0.021}, "label": "Ni", "xyz": [3.5695383401589975, -0.693515295488004, 9.859836665573999]}, {"species": [{"element": "Ni", "occu": 1}], "abc": [0.335714, 0.167857, 0.416718], "properties": {"magmom": 0.02}, "label": "Ni", "xyz": [1.201203659841, -0.6935152954880001, 9.859836665573999]}, {"species": [{"element": "Ni", "occu": 1}], "abc": [0.167857, 0.832143, 0.583282], "properties": {"magmom": 0.02}, "label": "Ni", "xyz": [2.385371, 2.7445534090240002, 13.800856334425998]}, {"species": [{"element": "Ni", "occu": 1}], "abc": [0.167857, 0.335714, 0.583282], "properties": {"magmom": 0.02}, "label": "Ni", "xyz": [1.201203659841, 0.6935152954880001, 13.800856334425998]}, {"species": [{"element": "Ni", "occu": 1}], "abc": [0.664285999999999, 0.832143, 0.583282], "properties": {"magmom": 0.019}, "label": "Ni", "xyz": [3.5695383401589975, 0.693515295488004, 13.800856334425998]}, {"species": [{"element": "Ni", "occu": 1}], "abc": [0.167857, 0.832143, 0.916717999999999], "properties": {"magmom": 0.02}, "label": "Ni", "xyz": [2.385371, 2.7445534090240002, 21.690183165573977]}, {"species": [{"element": "Ni", "occu": 1}], "abc": [0.167857, 0.335714, 0.916717999999999], "properties": {"magmom": 0.02}, "label": "Ni", "xyz": [1.201203659841, 0.6935152954880001, 21.690183165573977]}, {"species": [{"element": "Ni", "occu": 1}], "abc": [0.664285999999999, 0.832143, 0.916717999999999], "properties": {"magmom": 0.019}, "label": "Ni", "xyz": [3.5695383401589975, 0.693515295488004, 21.690183165573977]}, {"species": [{"element": "Ni", "occu": 1}], "abc": [0.832143, 0.167857, 0.083282], "properties": {"magmom": 0.02}, "label": "Ni", "xyz": [2.385371, -2.7445534090240002, 1.9705098344259997]}, {"species": [{"element": "Ni", "occu": 1}], "abc": [0.832143, 0.664285999999999, 0.083282], "properties": {"magmom": 0.021}, "label": "Ni", "xyz": [3.5695383401589975, -0.693515295488004, 1.9705098344259997]}, {"species": [{"element": "Ni", "occu": 1}], "abc": [0.335714, 0.167857, 0.083282], "properties": {"magmom": 0.02}, "label": "Ni", "xyz": [1.201203659841, -0.6935152954880001, 1.9705098344259997]}, {"species": [{"element": "Ni", "occu": 1}], "abc": [0.0, 0.0, 0.333582], "properties": {"magmom": -0.0}, "label": "Ni", "xyz": [0.0, 0.0, 7.892781292325999]}, {"species": [{"element": "Ni", "occu": 1}], "abc": [0.0, 0.0, 0.666418], "properties": {"magmom": -0.001}, "label": "Ni", "xyz": [0.0, 0.0, 15.767911707673997]}, {"species": [{"element": "Ni", "occu": 1}], "abc": [0.0, 0.0, 0.833581999999999], "properties": {"magmom": -0.001}, "label": "Ni", "xyz": [0.0, 0.0, 19.723127792325975]}, {"species": [{"element": "Ni", "occu": 1}], "abc": [0.0, 0.0, 0.166417999999999], "properties": {"magmom": -0.0}, "label": "Ni", "xyz": [0.0, 0.0, 3.9375652076739764]}, {"species": [{"element": "Ni", "occu": 1}], "abc": [0.333333, 0.666667, 0.666616], "properties": {"magmom": -0.007}, "label": "Ni", "xyz": [2.385371, 1.3771974210560003, 15.772596524887998]}, {"species": [{"element": "Ni", "occu": 1}], "abc": [0.666667, 0.333333, 0.333383999999999], "properties": {"magmom": -0.006}, "label": "Ni", "xyz": [2.385371, -1.3771974210560003, 7.888096475111976]}, {"species": [{"element": "Ni", "occu": 1}], "abc": [0.666667, 0.333333, 0.166616], "properties": {"magmom": -0.006}, "label": "Ni", "xyz": [2.385371, -1.3771974210560003, 3.9422500248879992]}, {"species": [{"element": "Ni", "occu": 1}], "abc": [0.333333, 0.666667, 0.833384], "properties": {"magmom": -0.007}, "label": "Ni", "xyz": [2.385371, 1.3771974210560003, 19.718442975111998]}]}, "task_ids": null, "uncorrected_energy_per_atom": null, "energy_per_atom": -6.292135783888889, "formation_energy_per_atom": -0.38925856499999806, "energy_above_hull": 0.0, "is_stable": true, "equilibrium_reaction_energy_per_atom": null, "decomposes_to": null, "xas": null, "grain_boundaries": null, "band_gap": 0.0, "cbm": null, "vbm": null, "efermi": 6.67886204, "is_gap_direct": null, "is_metal": null, "es_source_calc_id": null, "bandstructure": null, "dos": null, "dos_energy_up": null, "dos_energy_down": null, "is_magnetic": null, "ordering": null, "total_magnetization": 0.094083099999999, "total_magnetization_normalized_vol": null, "total_magnetization_normalized_formula_units": null, "num_magnetic_sites": null, "num_unique_magnetic_sites": null, "types_of_magnetic_species": null, "bulk_modulus": null, "shear_modulus": null, "universal_anisotropy": null, "homogeneous_poisson": null, "e_total": null, "e_ionic": null, "e_electronic": null, "n": null, "e_ij_max": null, "weighted_surface_energy_EV_PER_ANG2": null, "weighted_surface_energy": null, "weighted_work_function": null, "surface_anisotropy": null, "shape_factor": null, "has_reconstructed": null, "possible_species": null, "has_props": null, "theoretical": null, "database_IDs": null, "fields_not_requested": ["builder_meta", "nsites", "elements", "nelements", "composition", "composition_reduced", "chemsys", "symmetry", "property_name", "deprecated", "deprecation_reasons", "last_updated", "origins", "warnings", "task_ids", "uncorrected_energy_per_atom", "equilibrium_reaction_energy_per_atom", "decomposes_to", "xas", "grain_boundaries", "cbm", "vbm", "is_gap_direct", "is_metal", "es_source_calc_id", "bandstructure", "dos", "dos_energy_up", "dos_energy_down", "is_magnetic", "ordering", "total_magnetization_normalized_vol", "total_magnetization_normalized_formula_units", "num_magnetic_sites", "num_unique_magnetic_sites", "types_of_magnetic_species", "bulk_modulus", "shear_modulus", "universal_anisotropy", "homogeneous_poisson", "e_total", "e_ionic", "e_electronic", "n", "e_ij_max", "weighted_surface_energy_EV_PER_ANG2", "weighted_surface_energy", "weighted_work_function", "surface_anisotropy", "shape_factor", "has_reconstructed", "possible_species", "has_props", "theoretical", "database_IDs"]}