{"builder_meta": null, "nsites": null, "elements": null, "nelements": null, "composition": null, "composition_reduced": null, "formula_pretty": "Sc2Ni", "formula_anonymous": "AB2", "chemsys": null, "volume": 440.5846362271804, "density": 4.480678801075643, "density_atomic": 18.357693176132518, "symmetry": null, "property_name": null, "material_id": "mp-867501", "deprecated": null, "deprecation_reasons": null, "last_updated": null, "origins": null, "warnings": null, "structure": {"@module": "pymatgen.core.structure", "@class": "Structure", "charge": 0, "lattice": {"matrix": [[-0.00034052, 6.03938859, 6.03937718], [6.03919235, -0.00034731000000000003, 6.03938598], [6.03916997, 6.03937401, -0.00032389]], "pbc": [true, true, true], "a": 8.540977191122852, "b": 8.540844652394945, "c": 8.540820362477952, "alpha": 60.00476555255138, "beta": 60.003049147768635, "gamma": 60.00326843414559, "volume": 440.5846362271804}, "properties": {}, "sites": [{"species": [{"element": "Sc", "occu": 1}], "abc": [7e-08, 2.24e-06, 1.589999999999999e-06], "properties": {"magmom": 0.0}, "label": "Sc", "xyz": [2.3130047279899997e-05, 1.0024583902799995e-05, 1.39504660127e-05]}, {"species": [{"element": "Sc", "occu": 1}], "abc": [3.259999999999999e-06, 0.99999806, 0.49999708000000004], "properties": {"magmom": 0.0}, "label": "Sc", "xyz": [9.058747983480433, 3.019341749108476, 6.039232007906564]}, {"species": [{"element": "Sc", "occu": 1}], "abc": [0.49999812, 2.43e-06, 0.9999998600000001], "properties": {"magmom": 0.0}, "label": "Sc", "xyz": [6.039013540393793, 9.059056104593127, 3.0193680217241776]}, {"species": [{"element": "Sc", "occu": 1}], "abc": [0.99999973, 0.49999729, 2.14e-06], "properties": {"magmom": 0.0}, "label": "Sc", "xyz": [3.0192522127044077, 6.039226229566672, 9.059052171939031]}, {"species": [{"element": "Sc", "occu": 1}], "abc": [0.81100928, 0.4389865, 0.438992599999999], "properties": {"magmom": 0.0}, "label": "Sc", "xyz": [5.301998674645466, 7.549088226637121, 7.549057666596287]}, {"species": [{"element": "Sc", "occu": 1}], "abc": [0.43899042, 0.81100748, 0.81100658], "properties": {"magmom": 0.0}, "label": "Sc", "xyz": [9.795487267399363, 7.548924123850416, 7.548953252252549]}, {"species": [{"element": "Sc", "occu": 1}], "abc": [0.43901115, 0.81098885, 0.43900759], "properties": {"magmom": 0.0}, "label": "Sc", "xyz": [7.548809620908571, 5.302408294894021, 7.549086421533555]}, {"species": [{"element": "Sc", "occu": 1}], "abc": [0.43900566, 0.4390095, 0.8109911], "properties": {"magmom": 0.0}, "label": "Sc", "xyz": [7.548826420827249, 7.549051873241286, 5.30240591237427]}, {"species": [{"element": "Sc", "occu": 1}], "abc": [0.81098569, 0.43901085, 0.81098896], "properties": {"magmom": 0.0}, "label": "Sc", "xyz": [7.54869498327337, 9.795570897401893, 7.548941770836183]}, {"species": [{"element": "Sc", "occu": 1}], "abc": [0.81098889, 0.8109865900000001, 0.439010199999999], "properties": {"magmom": 0.0}, "label": "Sc", "xyz": [7.548685068707452, 7.548942177135087, 9.79558664609986]}, {"species": [{"element": "Sc", "occu": 1}], "abc": [0.5609929, 0.18901176, 0.56098851], "properties": {"magmom": 0.0}, "label": "Sc", "xyz": [4.529192308856773, 6.776007900859271, 4.5293809932326425]}, {"species": [{"element": "Sc", "occu": 1}], "abc": [0.18901247000000002, 0.56099051, 0.18901367], "properties": {"magmom": 0.0}, "label": "Sc", "xyz": [4.529350913671804, 2.282849163204406, 4.529494599422907]}, {"species": [{"element": "Sc", "occu": 1}], "abc": [0.18899338000000002, 0.56100622, 0.56101131], "properties": {"magmom": 0.0}, "label": "Sc", "xyz": [6.776002772283021, 4.529366744617319, 4.5293537001506685]}, {"species": [{"element": "Sc", "occu": 1}], "abc": [0.5609900000000001, 0.56099417, 0.18901075], "properties": {"magmom": 0.0}, "label": "Sc", "xyz": [4.5292287169509775, 4.529348377379526, 6.77602931067612]}, {"species": [{"element": "Sc", "occu": 1}], "abc": [0.56100734, 0.18899707000000002, 0.18899429], "properties": {"magmom": 0.0}, "label": "Sc", "xyz": [2.282567265766469, 4.529482890594272, 4.529499968466991]}, {"species": [{"element": "Sc", "occu": 1}], "abc": [0.18901306, 0.18901193, 0.56098959], "properties": {"magmom": 0.0}, "label": "Sc", "xyz": [4.529326524398157, 4.529483621918134, 2.282855462462407]}, {"species": [{"element": "Ni", "occu": 1}], "abc": [0.21050039, 0.21050642, 0.21050374], "properties": {"magmom": -0.0}, "label": "Ni", "xyz": [2.5424849468777717, 2.542531358935617, 2.542552593338743]}, {"species": [{"element": "Ni", "occu": 1}], "abc": [0.21051855, 0.21051381, 0.86846849], "properties": {"magmom": -0.0}, "label": "Ni", "xyz": [6.516090529843952, 6.516336242311938, 2.5424937912878467]}, {"species": [{"element": "Ni", "occu": 1}], "abc": [0.86846272, 0.21052125, 0.2105192], "properties": {"magmom": -0.0}, "label": "Ni", "xyz": [2.542443824335447, 6.51631491095902, 6.516324833527117]}, {"species": [{"element": "Ni", "occu": 1}], "abc": [0.21052076, 0.86846303, 0.210513999999999], "properties": {"magmom": -0.0}, "label": "Ni", "xyz": [6.516073427569199, 2.542487830348313, 6.5163295380111155]}, {"species": [{"element": "Ni", "occu": 1}], "abc": [0.7895113300000001, 0.7895051200000001, 0.78950777], "properties": {"magmom": -0.0}, "label": "Ni", "xyz": [9.535676052257408, 9.536024221885556, 9.536027148948042]}, {"species": [{"element": "Ni", "occu": 1}], "abc": [0.78949538, 0.78949807, 0.13149707], "properties": {"magmom": -0.0}, "label": "Ni", "xyz": [5.561795022003956, 5.561955176204172, 9.536101366296485]}, {"species": [{"element": "Ni", "occu": 1}], "abc": [0.7894930800000001, 0.13150161, 0.78949755], "properties": {"magmom": -0.0}, "label": "Ni", "xyz": [5.561804574289655, 9.536080811840465, 5.561979760539873]}, {"species": [{"element": "Ni", "occu": 1}], "abc": [0.13150135, 0.78949225, 0.78949437], "properties": {"magmom": -0.0}, "label": "Ni", "xyz": [9.535741468532656, 5.561965333425573, 5.561978968966348]}]}, "task_ids": null, "uncorrected_energy_per_atom": null, "energy_per_atom": -6.504844841666665, "formation_energy_per_atom": -0.35648654499999904, "energy_above_hull": 0.0, "is_stable": true, "equilibrium_reaction_energy_per_atom": null, "decomposes_to": null, "xas": null, "grain_boundaries": null, "band_gap": 0.0, "cbm": null, "vbm": null, "efermi": 5.05580218, "is_gap_direct": null, "is_metal": null, "es_source_calc_id": null, "bandstructure": null, "dos": null, "dos_energy_up": null, "dos_energy_down": null, "is_magnetic": null, "ordering": null, "total_magnetization": 9.460000000000005e-05, "total_magnetization_normalized_vol": null, "total_magnetization_normalized_formula_units": null, "num_magnetic_sites": null, "num_unique_magnetic_sites": null, "types_of_magnetic_species": null, "bulk_modulus": null, "shear_modulus": null, "universal_anisotropy": null, "homogeneous_poisson": null, "e_total": null, "e_ionic": null, "e_electronic": null, "n": null, "e_ij_max": null, "weighted_surface_energy_EV_PER_ANG2": null, "weighted_surface_energy": null, "weighted_work_function": null, "surface_anisotropy": null, "shape_factor": null, "has_reconstructed": null, "possible_species": null, "has_props": null, "theoretical": null, "database_IDs": null, "fields_not_requested": ["builder_meta", "nsites", "elements", "nelements", "composition", "composition_reduced", "chemsys", "symmetry", "property_name", "deprecated", "deprecation_reasons", "last_updated", "origins", "warnings", "task_ids", "uncorrected_energy_per_atom", "equilibrium_reaction_energy_per_atom", "decomposes_to", "xas", "grain_boundaries", "cbm", "vbm", "is_gap_direct", "is_metal", "es_source_calc_id", "bandstructure", "dos", "dos_energy_up", "dos_energy_down", "is_magnetic", "ordering", "total_magnetization_normalized_vol", "total_magnetization_normalized_formula_units", "num_magnetic_sites", "num_unique_magnetic_sites", "types_of_magnetic_species", "bulk_modulus", "shear_modulus", "universal_anisotropy", "homogeneous_poisson", "e_total", "e_ionic", "e_electronic", "n", "e_ij_max", "weighted_surface_energy_EV_PER_ANG2", "weighted_surface_energy", "weighted_work_function", "surface_anisotropy", "shape_factor", "has_reconstructed", "possible_species", "has_props", "theoretical", "database_IDs"]}