{
  "builder_meta": null,
  "nsites": null,
  "elements": null,
  "nelements": null,
  "composition": null,
  "composition_reduced": null,
  "formula_pretty": "Sc2Pt",
  "formula_anonymous": "AB2",
  "chemsys": null,
  "volume": 244.87564254423367,
  "density": 7.7304005356003795,
  "density_atomic": 20.406303545352806,
  "symmetry": null,
  "property_name": null,
  "material_id": "mp-11550",
  "deprecated": null,
  "deprecation_reasons": null,
  "last_updated": null,
  "origins": null,
  "warnings": null,
  "structure": {
    "@module": "pymatgen.core.structure",
    "@class": "Structure",
    "charge": 0,
    "lattice": {
      "matrix": [
        [4.49268854, 0.0, 0.0],
        [0.0, 6.6091152300000005, 0.0],
        [0.0, 0.0, 8.24699921]
      ],
      "pbc": [true, true, true],
      "a": 4.49268854,
      "b": 6.6091152300000005,
      "c": 8.24699921,
      "alpha": 90.0,
      "beta": 90.0,
      "gamma": 90.0,
      "volume": 244.8756425442337
    },
    "properties": {},
    "sites": [
      {
        "species": [{ "element": "Sc", "occu": 1 }],
        "abc": [0.25, 0.48734869000000003, 0.82702073],
        "properties": { "magmom": 0.0 },
        "label": "Sc",
        "xyz": [1.123172135, 3.220943649399549, 6.820439306963624]
      },
      {
        "species": [{ "element": "Sc", "occu": 1 }],
        "abc": [0.75, 0.51265131, 0.17297927],
        "properties": { "magmom": 0.0 },
        "label": "Sc",
        "xyz": [3.3695164049999997, 3.3881715806004515, 1.4265599030363767]
      },
      {
        "species": [{ "element": "Sc", "occu": 1 }],
        "abc": [0.25, 0.98734869, 0.67297927],
        "properties": { "magmom": 0.0 },
        "label": "Sc",
        "xyz": [1.123172135, 6.52550126439955, 5.550059508036377]
      },
      {
        "species": [{ "element": "Sc", "occu": 1 }],
        "abc": [0.75, 0.01265131, 0.32702073],
        "properties": { "magmom": 0.0 },
        "label": "Sc",
        "xyz": [3.3695164049999997, 0.08361396560045131, 2.696939701963623]
      },
      {
        "species": [{ "element": "Sc", "occu": 1 }],
        "abc": [0.75, 0.14840231, 0.9235587900000001],
        "properties": { "magmom": 0.0 },
        "label": "Sc",
        "xyz": [3.3695164049999997, 0.9808079671881814, 7.616588611518557]
      },
      {
        "species": [{ "element": "Sc", "occu": 1 }],
        "abc": [0.25, 0.85159769, 0.07644121],
        "properties": { "magmom": 0.0 },
        "label": "Sc",
        "xyz": [1.123172135, 5.628307262811819, 0.6304105984814441]
      },
      {
        "species": [{ "element": "Sc", "occu": 1 }],
        "abc": [0.75, 0.64840231, 0.57644121],
        "properties": { "magmom": 0.0 },
        "label": "Sc",
        "xyz": [3.3695164049999997, 4.285365582188182, 4.753910203481444]
      },
      {
        "species": [{ "element": "Sc", "occu": 1 }],
        "abc": [0.25, 0.35159769, 0.42355879],
        "properties": { "magmom": 0.0 },
        "label": "Sc",
        "xyz": [1.123172135, 2.323749647811819, 3.4930890065185562]
      },
      {
        "species": [{ "element": "Pt", "occu": 1 }],
        "abc": [0.25, 0.7586589300000001, 0.40167579000000003],
        "properties": { "magmom": 0.0 },
        "label": "Pt",
        "xyz": [1.123172135, 5.0140642886385045, 3.3126199228061264]
      },
      {
        "species": [{ "element": "Pt", "occu": 1 }],
        "abc": [0.75, 0.24134107000000002, 0.59832421],
        "properties": { "magmom": 0.0 },
        "label": "Pt",
        "xyz": [3.3695164049999997, 1.5950509413614964, 4.934379287193875]
      },
      {
        "species": [{ "element": "Pt", "occu": 1 }],
        "abc": [0.25, 0.25865893, 0.09832421],
        "properties": { "magmom": 0.0 },
        "label": "Pt",
        "xyz": [1.123172135, 1.709506673638504, 0.8108796821938741]
      },
      {
        "species": [{ "element": "Pt", "occu": 1 }],
        "abc": [0.75, 0.74134107, 0.90167579],
        "properties": { "magmom": 0.0 },
        "label": "Pt",
        "xyz": [3.3695164049999997, 4.899608556361497, 7.436119527806126]
      }
    ]
  },
  "task_ids": null,
  "uncorrected_energy_per_atom": null,
  "energy_per_atom": -7.221955915,
  "formation_energy_per_atom": -0.9765987383333321,
  "energy_above_hull": 0.0,
  "is_stable": true,
  "equilibrium_reaction_energy_per_atom": null,
  "decomposes_to": null,
  "xas": null,
  "grain_boundaries": null,
  "band_gap": 0.0,
  "cbm": null,
  "vbm": null,
  "efermi": 5.00853457,
  "is_gap_direct": null,
  "is_metal": null,
  "es_source_calc_id": null,
  "bandstructure": null,
  "dos": null,
  "dos_energy_up": null,
  "dos_energy_down": null,
  "is_magnetic": null,
  "ordering": null,
  "total_magnetization": 2.6e-6,
  "total_magnetization_normalized_vol": null,
  "total_magnetization_normalized_formula_units": null,
  "num_magnetic_sites": null,
  "num_unique_magnetic_sites": null,
  "types_of_magnetic_species": null,
  "bulk_modulus": null,
  "shear_modulus": null,
  "universal_anisotropy": null,
  "homogeneous_poisson": null,
  "e_total": null,
  "e_ionic": null,
  "e_electronic": null,
  "n": null,
  "e_ij_max": null,
  "weighted_surface_energy_EV_PER_ANG2": null,
  "weighted_surface_energy": null,
  "weighted_work_function": null,
  "surface_anisotropy": null,
  "shape_factor": null,
  "has_reconstructed": null,
  "possible_species": null,
  "has_props": null,
  "theoretical": null,
  "database_IDs": null,
  "fields_not_requested": [
    "builder_meta",
    "nsites",
    "elements",
    "nelements",
    "composition",
    "composition_reduced",
    "chemsys",
    "symmetry",
    "property_name",
    "deprecated",
    "deprecation_reasons",
    "last_updated",
    "origins",
    "warnings",
    "task_ids",
    "uncorrected_energy_per_atom",
    "equilibrium_reaction_energy_per_atom",
    "decomposes_to",
    "xas",
    "grain_boundaries",
    "cbm",
    "vbm",
    "is_gap_direct",
    "is_metal",
    "es_source_calc_id",
    "bandstructure",
    "dos",
    "dos_energy_up",
    "dos_energy_down",
    "is_magnetic",
    "ordering",
    "total_magnetization_normalized_vol",
    "total_magnetization_normalized_formula_units",
    "num_magnetic_sites",
    "num_unique_magnetic_sites",
    "types_of_magnetic_species",
    "bulk_modulus",
    "shear_modulus",
    "universal_anisotropy",
    "homogeneous_poisson",
    "e_total",
    "e_ionic",
    "e_electronic",
    "n",
    "e_ij_max",
    "weighted_surface_energy_EV_PER_ANG2",
    "weighted_surface_energy",
    "weighted_work_function",
    "surface_anisotropy",
    "shape_factor",
    "has_reconstructed",
    "possible_species",
    "has_props",
    "theoretical",
    "database_IDs"
  ]
}
