{"builder_meta": null, "nsites": null, "elements": null, "nelements": null, "composition": null, "composition_reduced": null, "formula_pretty": "Sc2Pd", "formula_anonymous": "AB2", "chemsys": null, "volume": 484.4915289753894, "density": 5.383238207830808, "density_atomic": 20.187147040641225, "symmetry": null, "property_name": null, "material_id": "mp-1190862", "deprecated": null, "deprecation_reasons": null, "last_updated": null, "origins": null, "warnings": null, "structure": {"@module": "pymatgen.core.structure", "@class": "Structure", "charge": 0, "lattice": {"matrix": [[-6.23378851, -6.23378851, 0.0], [-6.23378851, -0.0, -6.23378851], [0.0, -6.23378851, -6.23378851]], "pbc": [true, true, true], "a": 8.81590825580757, "b": 8.81590825580757, "c": 8.81590825580757, "alpha": 60.00000000000001, "beta": 60.00000000000001, "gamma": 60.00000000000001, "volume": 484.4915289753894}, "properties": {}, "sites": [{"species": [{"element": "Sc", "occu": 1}], "abc": [-0.0, -0.0, 0.5], "properties": {"magmom": 0.0}, "label": "Sc", "xyz": [0.0, -3.116894255, -3.116894255]}, {"species": [{"element": "Sc", "occu": 1}], "abc": [-0.0, 0.5, 0.0], "properties": {"magmom": 0.0}, "label": "Sc", "xyz": [-3.116894255, 0.0, -3.116894255]}, {"species": [{"element": "Sc", "occu": 1}], "abc": [0.5, -0.0, 0.0], "properties": {"magmom": 0.0}, "label": "Sc", "xyz": [-3.116894255, -3.116894255, 0.0]}, {"species": [{"element": "Sc", "occu": 1}], "abc": [-0.0, -0.0, 0.0], "properties": {"magmom": 0.0}, "label": "Sc", "xyz": [0.0, 0.0, 0.0]}, {"species": [{"element": "Sc", "occu": 1}], "abc": [0.44077352000000003, 0.80922648, 0.80922648], "properties": {"magmom": 0.0}, "label": "Sc", "xyz": [-7.792235637500001, -7.792235637500001, -10.08909346602349]}, {"species": [{"element": "Sc", "occu": 1}], "abc": [0.80922648, 0.44077352000000003, 0.44077352000000003], "properties": {"magmom": 0.0}, "label": "Sc", "xyz": [-7.792235637500001, -7.792235637500001, -5.495377808976511]}, {"species": [{"element": "Sc", "occu": 1}], "abc": [0.80922648, 0.44077352000000003, 0.80922648], "properties": {"magmom": 0.0}, "label": "Sc", "xyz": [-7.792235637500001, -10.08909346602349, -7.792235637500001]}, {"species": [{"element": "Sc", "occu": 1}], "abc": [0.44077352000000003, 0.80922648, 0.44077352000000003], "properties": {"magmom": 0.0}, "label": "Sc", "xyz": [-7.792235637500001, -5.495377808976511, -7.792235637500001]}, {"species": [{"element": "Sc", "occu": 1}], "abc": [0.80922648, 0.80922648, 0.44077352000000003], "properties": {"magmom": 0.0}, "label": "Sc", "xyz": [-10.08909346602349, -7.792235637500001, -7.792235637500001]}, {"species": [{"element": "Sc", "occu": 1}], "abc": [0.44077352000000003, 0.44077352000000003, 0.80922648], "properties": {"magmom": 0.0}, "label": "Sc", "xyz": [-5.495377808976511, -7.792235637500001, -7.792235637500001]}, {"species": [{"element": "Sc", "occu": 1}], "abc": [0.55922648, 0.19077352, 0.19077352], "properties": {"magmom": 0.0}, "label": "Sc", "xyz": [-4.6753413825, -4.6753413825, -2.3784835539765106]}, {"species": [{"element": "Sc", "occu": 1}], "abc": [0.19077352, 0.55922648, 0.55922648], "properties": {"magmom": 0.0}, "label": "Sc", "xyz": [-4.6753413825, -4.6753413825, -6.972199211023489]}, {"species": [{"element": "Sc", "occu": 1}], "abc": [0.19077352, 0.55922648, 0.19077352], "properties": {"magmom": 0.0}, "label": "Sc", "xyz": [-4.6753413825, -2.3784835539765106, -4.6753413825]}, {"species": [{"element": "Sc", "occu": 1}], "abc": [0.55922648, 0.19077352, 0.55922648], "properties": {"magmom": 0.0}, "label": "Sc", "xyz": [-4.6753413825, -6.972199211023489, -4.6753413825]}, {"species": [{"element": "Sc", "occu": 1}], "abc": [0.19077352, 0.19077352, 0.55922648], "properties": {"magmom": 0.0}, "label": "Sc", "xyz": [-2.3784835539765106, -4.6753413825, -4.6753413825]}, {"species": [{"element": "Sc", "occu": 1}], "abc": [0.55922648, 0.55922648, 0.19077352], "properties": {"magmom": 0.0}, "label": "Sc", "xyz": [-6.972199211023489, -4.6753413825, -4.6753413825]}, {"species": [{"element": "Pd", "occu": 1}], "abc": [0.21488571, 0.21488571, 0.8553438800000001], "properties": {"magmom": -0.0}, "label": "Pd", "xyz": [-2.6791041399223845, -6.671584921204012, -6.671584921204012]}, {"species": [{"element": "Pd", "occu": 1}], "abc": [0.21488571, 0.8553438800000001, 0.21488571], "properties": {"magmom": -0.0}, "label": "Pd", "xyz": [-6.671584921204012, -2.6791041399223845, -6.671584921204012]}, {"species": [{"element": "Pd", "occu": 1}], "abc": [0.8553438800000001, 0.21488571, 0.21488571], "properties": {"magmom": -0.0}, "label": "Pd", "xyz": [-6.671584921204012, -6.671584921204012, -2.6791041399223845]}, {"species": [{"element": "Pd", "occu": 1}], "abc": [0.21488571, 0.21488571, 0.21488571], "properties": {"magmom": -0.0}, "label": "Pd", "xyz": [-2.6791041399223845, -2.6791041399223845, -2.6791041399223845]}, {"species": [{"element": "Pd", "occu": 1}], "abc": [0.78511429, 0.78511429, 0.14465612], "properties": {"magmom": -0.0}, "label": "Pd", "xyz": [-9.788472880077617, -5.795992098795989, -5.795992098795989]}, {"species": [{"element": "Pd", "occu": 1}], "abc": [0.78511429, 0.14465612, 0.78511429], "properties": {"magmom": -0.0}, "label": "Pd", "xyz": [-5.795992098795989, -9.788472880077617, -5.795992098795989]}, {"species": [{"element": "Pd", "occu": 1}], "abc": [0.14465612, 0.78511429, 0.78511429], "properties": {"magmom": -0.0}, "label": "Pd", "xyz": [-5.795992098795989, -5.795992098795989, -9.788472880077617]}, {"species": [{"element": "Pd", "occu": 1}], "abc": [0.78511429, 0.78511429, 0.78511429], "properties": {"magmom": -0.0}, "label": "Pd", "xyz": [-9.788472880077617, -9.788472880077617, -9.788472880077617]}]}, "task_ids": null, "uncorrected_energy_per_atom": null, "energy_per_atom": -15.911857525416666, "formation_energy_per_atom": -0.659381418749999, "energy_above_hull": 0.0, "is_stable": true, "equilibrium_reaction_energy_per_atom": null, "decomposes_to": null, "xas": null, "grain_boundaries": null, "band_gap": 0.0, "cbm": null, "vbm": null, "efermi": 4.53772203, "is_gap_direct": null, "is_metal": null, "es_source_calc_id": null, "bandstructure": null, "dos": null, "dos_energy_up": null, "dos_energy_down": null, "is_magnetic": null, "ordering": null, "total_magnetization": 7.099999999999996e-06, "total_magnetization_normalized_vol": null, "total_magnetization_normalized_formula_units": null, "num_magnetic_sites": null, "num_unique_magnetic_sites": null, "types_of_magnetic_species": null, "bulk_modulus": null, "shear_modulus": null, "universal_anisotropy": null, "homogeneous_poisson": null, "e_total": null, "e_ionic": null, "e_electronic": null, "n": null, "e_ij_max": null, "weighted_surface_energy_EV_PER_ANG2": null, "weighted_surface_energy": null, "weighted_work_function": null, "surface_anisotropy": null, "shape_factor": null, "has_reconstructed": null, "possible_species": null, "has_props": null, "theoretical": null, "database_IDs": null, "fields_not_requested": ["builder_meta", "nsites", "elements", "nelements", "composition", "composition_reduced", "chemsys", "symmetry", "property_name", "deprecated", "deprecation_reasons", "last_updated", "origins", "warnings", "task_ids", "uncorrected_energy_per_atom", "equilibrium_reaction_energy_per_atom", "decomposes_to", "xas", "grain_boundaries", "cbm", "vbm", "is_gap_direct", "is_metal", "es_source_calc_id", "bandstructure", "dos", "dos_energy_up", "dos_energy_down", "is_magnetic", "ordering", "total_magnetization_normalized_vol", "total_magnetization_normalized_formula_units", "num_magnetic_sites", "num_unique_magnetic_sites", "types_of_magnetic_species", "bulk_modulus", "shear_modulus", "universal_anisotropy", "homogeneous_poisson", "e_total", "e_ionic", "e_electronic", "n", "e_ij_max", "weighted_surface_energy_EV_PER_ANG2", "weighted_surface_energy", "weighted_work_function", "surface_anisotropy", "shape_factor", "has_reconstructed", "possible_species", "has_props", "theoretical", "database_IDs"]}