{
  "builder_meta": null,
  "nsites": null,
  "elements": null,
  "nelements": null,
  "composition": null,
  "composition_reduced": null,
  "formula_pretty": "Sc2Se3",
  "formula_anonymous": "A2B3",
  "chemsys": null,
  "volume": 487.1980463863951,
  "density": 4.455277227996905,
  "density_atomic": 24.359902319319755,
  "symmetry": null,
  "property_name": null,
  "material_id": "mp-1205354",
  "deprecated": null,
  "deprecation_reasons": null,
  "last_updated": null,
  "origins": null,
  "warnings": null,
  "structure": {
    "@module": "pymatgen.core.structure",
    "@class": "Structure",
    "charge": 0,
    "lattice": {
      "matrix": [
        [5.45042392, 3.86777493, 0.0],
        [-5.45042392, 3.86777493, -0.0],
        [0.0, -3.86777493, 11.5553756]
      ],
      "pbc": [true, true, true],
      "a": 6.68332281255699,
      "b": 6.68332281255699,
      "c": 12.1854990938497,
      "alpha": 100.58479358118588,
      "beta": 100.58479358118588,
      "gamma": 109.27882149255821,
      "volume": 487.1980463863951
    },
    "properties": {},
    "sites": [
      {
        "species": [{ "element": "Sc", "occu": 1 }],
        "abc": [0.70801309, 0.95801309, 0.91602617],
        "properties": { "magmom": -0.0 },
        "label": "Sc",
        "xyz": [-1.3626059800000005, 2.9008312361777495, 10.58502645377945]
      },
      {
        "species": [{ "element": "Sc", "occu": 1 }],
        "abc": [0.54198691, 0.79198691, 0.58397383],
        "properties": { "magmom": -0.0 },
        "label": "Sc",
        "xyz": [-1.36260598, 2.9008311588222506, 6.748036946220548]
      },
      {
        "species": [{ "element": "Sc", "occu": 1 }],
        "abc": [0.29198691, 0.04198691, 0.08397383],
        "properties": { "magmom": -0.0 },
        "label": "Sc",
        "xyz": [1.36260598, 0.9669436938222506, 0.9703491462205479]
      },
      {
        "species": [{ "element": "Sc", "occu": 1 }],
        "abc": [0.45801309, 0.20801309, 0.41602617000000003],
        "properties": { "magmom": -0.0 },
        "label": "Sc",
        "xyz": [1.3626059799999999, 0.9669437711777493, 4.8073386537794525]
      },
      {
        "species": [{ "element": "Sc", "occu": 1 }],
        "abc": [0.37383671, 0.62383671, 0.24767241],
        "properties": { "magmom": 0.0 },
        "label": "Sc",
        "xyz": [-1.3626059799999997, 2.900835103952679, 2.861947723307196]
      },
      {
        "species": [{ "element": "Sc", "occu": 1 }],
        "abc": [0.87616329, 0.12616329, 0.25232759],
        "properties": { "magmom": 0.0 },
        "label": "Sc",
        "xyz": [4.08781794, 2.9008272910473205, 2.9157400766928037]
      },
      {
        "species": [{ "element": "Sc", "occu": 1 }],
        "abc": [0.62616329, 0.37616329, 0.75232759],
        "properties": { "magmom": 0.0 },
        "label": "Sc",
        "xyz": [1.3626059800000005, 0.9669398260473208, 8.693427876692803]
      },
      {
        "species": [{ "element": "Sc", "occu": 1 }],
        "abc": [0.12383671, 0.8738367100000001, 0.7476724100000001],
        "properties": { "magmom": 0.0 },
        "label": "Sc",
        "xyz": [-4.087817940000001, 0.966947638952679, 8.639635523307197]
      },
      {
        "species": [{ "element": "Se", "occu": 1 }],
        "abc": [0.87049513, 0.12049513, 0.75],
        "properties": { "magmom": -0.0 },
        "label": "Se",
        "xyz": [4.08781794, 0.9320960860021819, 8.6665317]
      },
      {
        "species": [{ "element": "Se", "occu": 1 }],
        "abc": [0.37950487, 0.62950487, 0.75],
        "properties": { "magmom": -0.0 },
        "label": "Se",
        "xyz": [-1.36260598, 1.0017913789978183, 8.6665317]
      },
      {
        "species": [{ "element": "Se", "occu": 1 }],
        "abc": [0.12950487, 0.87950487, 0.25],
        "properties": { "magmom": -0.0 },
        "label": "Se",
        "xyz": [-4.08781794, 2.935678843997818, 2.8888439]
      },
      {
        "species": [{ "element": "Se", "occu": 1 }],
        "abc": [0.62049513, 0.37049513, 0.25],
        "properties": { "magmom": -0.0 },
        "label": "Se",
        "xyz": [1.36260598, 2.8659835510021816, 2.8888439]
      },
      {
        "species": [{ "element": "Se", "occu": 1 }],
        "abc": [0.54580378, 0.8018003100000001, 0.08699698],
        "properties": { "magmom": 0.0 },
        "label": "Se",
        "xyz": [-1.3952896105489985, 4.875744576637753, 1.005282779965688]
      },
      {
        "species": [{ "element": "Se", "occu": 1 }],
        "abc": [0.69819969, 0.95419622, 0.41300302],
        "properties": { "magmom": 0.0 },
        "label": "Se",
        "xyz": [-1.3952896105489971, 4.793692748362247, 4.772405020034312]
      },
      {
        "species": [{ "element": "Se", "occu": 1 }],
        "abc": [0.21480433000000002, 0.458806799999999, 0.41300302],
        "properties": { "magmom": 0.0 },
        "label": "Se",
        "xyz": [-1.3299168990270773, 1.0079735144126785, 4.772405020034312]
      },
      {
        "species": [{ "element": "Se", "occu": 1 }],
        "abc": [0.0411932, 0.28519567, 0.08699698],
        "properties": { "magmom": 0.0 },
        "label": "Se",
        "xyz": [-1.3299168990270824, 0.9259139505873177, 1.005282779965688]
      },
      {
        "species": [{ "element": "Se", "occu": 1 }],
        "abc": [0.45419622, 0.19819969, 0.91300302],
        "properties": { "magmom": 0.0 },
        "label": "Se",
        "xyz": [1.3952896105489974, -1.007969646637752, 10.550092820034312]
      },
      {
        "species": [{ "element": "Se", "occu": 1 }],
        "abc": [0.30180031, 0.04580378, 0.58699698],
        "properties": { "magmom": 0.0 },
        "label": "Se",
        "xyz": [1.3952896105489978, -0.9259178183622476, 6.782970579965688]
      },
      {
        "species": [{ "element": "Se", "occu": 1 }],
        "abc": [0.78519567, 0.541193199999999, 0.58699698],
        "properties": { "magmom": 0.0 },
        "label": "Se",
        "xyz": [1.3299168990270873, 2.859801415587314, 6.782970579965688]
      },
      {
        "species": [{ "element": "Se", "occu": 1 }],
        "abc": [0.9588068, 0.71480433, 0.91300302],
        "properties": { "magmom": 0.0 },
        "label": "Se",
        "xyz": [1.3299168990270824, 2.941860979412682, 10.550092820034312]
      }
    ]
  },
  "task_ids": null,
  "uncorrected_energy_per_atom": null,
  "energy_per_atom": -15.109551364500001,
  "formation_energy_per_atom": -1.9632202839375021,
  "energy_above_hull": 0.0,
  "is_stable": true,
  "equilibrium_reaction_energy_per_atom": null,
  "decomposes_to": null,
  "xas": null,
  "grain_boundaries": null,
  "band_gap": 0.625799999999999,
  "cbm": null,
  "vbm": null,
  "efermi": 3.09486771,
  "is_gap_direct": null,
  "is_metal": null,
  "es_source_calc_id": null,
  "bandstructure": null,
  "dos": null,
  "dos_energy_up": null,
  "dos_energy_down": null,
  "is_magnetic": null,
  "ordering": null,
  "total_magnetization": 0.0,
  "total_magnetization_normalized_vol": null,
  "total_magnetization_normalized_formula_units": null,
  "num_magnetic_sites": null,
  "num_unique_magnetic_sites": null,
  "types_of_magnetic_species": null,
  "bulk_modulus": null,
  "shear_modulus": null,
  "universal_anisotropy": null,
  "homogeneous_poisson": null,
  "e_total": null,
  "e_ionic": null,
  "e_electronic": null,
  "n": null,
  "e_ij_max": null,
  "weighted_surface_energy_EV_PER_ANG2": null,
  "weighted_surface_energy": null,
  "weighted_work_function": null,
  "surface_anisotropy": null,
  "shape_factor": null,
  "has_reconstructed": null,
  "possible_species": null,
  "has_props": null,
  "theoretical": null,
  "database_IDs": null,
  "fields_not_requested": [
    "builder_meta",
    "nsites",
    "elements",
    "nelements",
    "composition",
    "composition_reduced",
    "chemsys",
    "symmetry",
    "property_name",
    "deprecated",
    "deprecation_reasons",
    "last_updated",
    "origins",
    "warnings",
    "task_ids",
    "uncorrected_energy_per_atom",
    "equilibrium_reaction_energy_per_atom",
    "decomposes_to",
    "xas",
    "grain_boundaries",
    "cbm",
    "vbm",
    "is_gap_direct",
    "is_metal",
    "es_source_calc_id",
    "bandstructure",
    "dos",
    "dos_energy_up",
    "dos_energy_down",
    "is_magnetic",
    "ordering",
    "total_magnetization_normalized_vol",
    "total_magnetization_normalized_formula_units",
    "num_magnetic_sites",
    "num_unique_magnetic_sites",
    "types_of_magnetic_species",
    "bulk_modulus",
    "shear_modulus",
    "universal_anisotropy",
    "homogeneous_poisson",
    "e_total",
    "e_ionic",
    "e_electronic",
    "n",
    "e_ij_max",
    "weighted_surface_energy_EV_PER_ANG2",
    "weighted_surface_energy",
    "weighted_work_function",
    "surface_anisotropy",
    "shape_factor",
    "has_reconstructed",
    "possible_species",
    "has_props",
    "theoretical",
    "database_IDs"
  ]
}
