{
  "builder_meta": null,
  "nsites": null,
  "elements": null,
  "nelements": null,
  "composition": null,
  "composition_reduced": null,
  "formula_pretty": "Sc2Si3",
  "formula_anonymous": "A2B3",
  "chemsys": null,
  "volume": 92.27691484618518,
  "density": 3.134189159318243,
  "density_atomic": 18.455382969237036,
  "symmetry": null,
  "property_name": null,
  "material_id": "mp-1219398",
  "deprecated": null,
  "deprecation_reasons": null,
  "last_updated": null,
  "origins": null,
  "warnings": null,
  "structure": {
    "@module": "pymatgen.core.structure",
    "@class": "Structure",
    "charge": 0,
    "lattice": {
      "matrix": [
        [-2.035634, -3.53038, 0.0],
        [-2.04303, 3.534651, 0.0],
        [0.0, 0.0, -6.404593]
      ],
      "pbc": [true, true, true],
      "a": 4.075216402395829,
      "b": 4.082613044693435,
      "c": 6.404593,
      "alpha": 90.0,
      "beta": 90.0,
      "gamma": 120.00411198192238,
      "volume": 92.27691484618518
    },
    "properties": {},
    "sites": [
      {
        "species": [{ "element": "Sc", "occu": 1 }],
        "abc": [5.3e-5, 3.8e-5, 0.013781999999999002],
        "properties": { "magmom": 0.0 },
        "label": "Sc",
        "xyz": [-0.000185523742, -5.2793401999999973e-5, -0.08826810072599361]
      },
      {
        "species": [{ "element": "Sc", "occu": 1 }],
        "abc": [5.3e-5, 3.8e-5, 0.486218],
        "properties": { "magmom": 0.0 },
        "label": "Sc",
        "xyz": [-0.000185523742, -5.2793401999999973e-5, -3.114028399274]
      },
      {
        "species": [{ "element": "Si", "occu": 1 }],
        "abc": [0.333287, 0.666639, 0.75],
        "properties": { "magmom": -0.0 },
        "label": "Si",
        "xyz": [-2.0404138251279997, 1.179706448929, -4.803444750000001]
      },
      {
        "species": [{ "element": "Si", "occu": 1 }],
        "abc": [0.666771, 0.333505, 0.25],
        "properties": { "magmom": -0.0 },
        "label": "Si",
        "xyz": [-2.0386624379639997, -1.1751312212250002, -1.60114825]
      },
      {
        "species": [{ "element": "Si", "occu": 1 }],
        "abc": [0.666335999999999, 0.333080999999999, 0.75],
        "properties": { "magmom": -0.0 },
        "label": "Si",
        "xyz": [-2.036910692453996, -1.175094197949, -4.803444750000001]
      }
    ]
  },
  "task_ids": null,
  "uncorrected_energy_per_atom": null,
  "energy_per_atom": -10.219443064999998,
  "formation_energy_per_atom": -0.39578936599999903,
  "energy_above_hull": 0.29092815400000105,
  "is_stable": false,
  "equilibrium_reaction_energy_per_atom": null,
  "decomposes_to": null,
  "xas": null,
  "grain_boundaries": null,
  "band_gap": 0.0,
  "cbm": null,
  "vbm": null,
  "efermi": 6.28441335,
  "is_gap_direct": null,
  "is_metal": null,
  "es_source_calc_id": null,
  "bandstructure": null,
  "dos": null,
  "dos_energy_up": null,
  "dos_energy_down": null,
  "is_magnetic": null,
  "ordering": null,
  "total_magnetization": 0.000123199999999,
  "total_magnetization_normalized_vol": null,
  "total_magnetization_normalized_formula_units": null,
  "num_magnetic_sites": null,
  "num_unique_magnetic_sites": null,
  "types_of_magnetic_species": null,
  "bulk_modulus": null,
  "shear_modulus": null,
  "universal_anisotropy": null,
  "homogeneous_poisson": null,
  "e_total": null,
  "e_ionic": null,
  "e_electronic": null,
  "n": null,
  "e_ij_max": null,
  "weighted_surface_energy_EV_PER_ANG2": null,
  "weighted_surface_energy": null,
  "weighted_work_function": null,
  "surface_anisotropy": null,
  "shape_factor": null,
  "has_reconstructed": null,
  "possible_species": null,
  "has_props": null,
  "theoretical": null,
  "database_IDs": null,
  "fields_not_requested": [
    "builder_meta",
    "nsites",
    "elements",
    "nelements",
    "composition",
    "composition_reduced",
    "chemsys",
    "symmetry",
    "property_name",
    "deprecated",
    "deprecation_reasons",
    "last_updated",
    "origins",
    "warnings",
    "task_ids",
    "uncorrected_energy_per_atom",
    "equilibrium_reaction_energy_per_atom",
    "decomposes_to",
    "xas",
    "grain_boundaries",
    "cbm",
    "vbm",
    "is_gap_direct",
    "is_metal",
    "es_source_calc_id",
    "bandstructure",
    "dos",
    "dos_energy_up",
    "dos_energy_down",
    "is_magnetic",
    "ordering",
    "total_magnetization_normalized_vol",
    "total_magnetization_normalized_formula_units",
    "num_magnetic_sites",
    "num_unique_magnetic_sites",
    "types_of_magnetic_species",
    "bulk_modulus",
    "shear_modulus",
    "universal_anisotropy",
    "homogeneous_poisson",
    "e_total",
    "e_ionic",
    "e_electronic",
    "n",
    "e_ij_max",
    "weighted_surface_energy_EV_PER_ANG2",
    "weighted_surface_energy",
    "weighted_work_function",
    "surface_anisotropy",
    "shape_factor",
    "has_reconstructed",
    "possible_species",
    "has_props",
    "theoretical",
    "database_IDs"
  ]
}
