{"builder_meta": null, "nsites": null, "elements": null, "nelements": null, "composition": null, "composition_reduced": null, "formula_pretty": "Sc2S3", "formula_anonymous": "A2B3", "chemsys": null, "volume": 428.62771743663023, "density": 2.883972633977312, "density_atomic": 21.431385871831512, "symmetry": null, "property_name": null, "material_id": "mp-401", "deprecated": null, "deprecation_reasons": null, "last_updated": null, "origins": null, "warnings": null, "structure": {"@module": "pymatgen.core.structure", "@class": "Structure", "charge": 0, "lattice": {"matrix": [[6.29066582, 0.008407999999999001, -1.1795876], [-2.36004975, 5.83118493, -1.17958761], [-0.00044231, -0.0006577999999990001, 11.67889708]], "pbc": [true, true, true], "a": 6.400310465864451, "b": 6.4003108861991755, "c": 11.678897106900614, "alpha": 100.62259484894842, "beta": 100.62259240284322, "gamma": 109.10249021455031, "volume": 428.6277174366303}, "properties": {}, "sites": [{"species": [{"element": "Sc", "occu": 1}], "abc": [0.04141919, 0.79141919, 0.58283638], "properties": {"magmom": 0.0}, "label": "Sc", "xyz": [-1.6074921730388547, 4.614876516819563, 5.824480262733491]}, {"species": [{"element": "Sc", "occu": 1}], "abc": [0.20858081, 0.9585808100000001, 0.9171636200000001], "properties": {"magmom": 0.0}, "label": "Sc", "xyz": [-0.9505918994611458, 5.590812410680439, 9.334690139766511]}, {"species": [{"element": "Sc", "occu": 1}], "abc": [0.9585808100000001, 0.20858081, 0.41716362], "properties": {"magmom": 0.0}, "label": "Sc", "xyz": [5.537665933038856, 1.224058613180437, 3.49524160726651]}, {"species": [{"element": "Sc", "occu": 1}], "abc": [0.79141919, 0.04141919, 0.08283638], "properties": {"magmom": 0.0}, "label": "Sc", "xyz": [4.8807656594611455, 0.248122719319562, -0.014968269766509557]}, {"species": [{"element": "Sc", "occu": 1}], "abc": [0.37722378, 0.12722378, 0.25444855], "properties": {"magmom": 0.0}, "label": "Sc", "xyz": [2.0726217440159944, 0.7448697099596854, 2.3766383397067403]}, {"species": [{"element": "Sc", "occu": 1}], "abc": [0.87277622, 0.62277622, 0.24555145], "properties": {"magmom": 0.0}, "label": "Sc", "xyz": [4.020452063484005, 3.6387000875403137, 1.1036349927932598]}, {"species": [{"element": "Sc", "occu": 1}], "abc": [0.62277622, 0.87277622, 0.74555145], "properties": {"magmom": 0.0}, "label": "Sc", "xyz": [1.857552015984006, 5.094065420040315, 6.9430835302932605]}, {"species": [{"element": "Sc", "occu": 1}], "abc": [0.12722378, 0.37722378, 0.75444855], "properties": {"magmom": 0.0}, "label": "Sc", "xyz": [-0.0902783034840058, 2.200235042459686, 8.216086877206742]}, {"species": [{"element": "S", "occu": 1}], "abc": [0.88467294, 0.63467294, 0.75], "properties": {"magmom": -0.0}, "label": "S", "xyz": [4.0669903796581455, 3.707840263286314, 6.966971243494184]}, {"species": [{"element": "S", "occu": 1}], "abc": [0.36532706, 0.11532706000000001, 0.75], "properties": {"magmom": -0.0}, "label": "S", "xyz": [2.0256411178418543, 0.6750717342136862, 8.192199169005818]}, {"species": [{"element": "S", "occu": 1}], "abc": [0.11532706000000001, 0.36532706, 0.25], "properties": {"magmom": -0.0}, "label": "S", "xyz": [-0.13681661965814562, 2.1310948667136858, 2.3527506265058173]}, {"species": [{"element": "S", "occu": 1}], "abc": [0.63467294, 0.88467294, 0.25], "properties": {"magmom": -0.0}, "label": "S", "xyz": [1.9045326421581454, 5.163863395786313, 1.1275227009941828]}, {"species": [{"element": "S", "occu": 1}], "abc": [0.952058699999999, 0.19278107, 0.91124649], "properties": {"magmom": -0.0}, "label": "S", "xyz": [5.533707153230403, 1.1315475617817532, 9.291915172614587]}, {"species": [{"element": "S", "occu": 1}], "abc": [0.28153358, 0.54081321, 0.58875351], "properties": {"magmom": -0.0}, "label": "S", "xyz": [0.49442717626602983, 3.1555616923786878, 5.905961566986814]}, {"species": [{"element": "S", "occu": 1}], "abc": [0.80721893, 0.0479413, 0.58875351], "properties": {"magmom": -0.0}, "label": "S", "xyz": [4.964540267563289, 0.2859544007891708, 5.86725524497819]}, {"species": [{"element": "S", "occu": 1}], "abc": [0.45918679, 0.71846642, 0.91124649], "properties": {"magmom": -0.0}, "label": "S", "xyz": [1.192571096509131, 4.192771985604249, 9.253208840420388]}, {"species": [{"element": "S", "occu": 1}], "abc": [0.0479413, 0.80721893, 0.08875351000000001], "properties": {"magmom": -0.0}, "label": "S", "xyz": [-1.6035333932304094, 4.707387568218246, 0.027806697385413637]}, {"species": [{"element": "S", "occu": 1}], "abc": [0.71846642, 0.45918679, 0.41124649], "properties": {"magmom": -0.0}, "label": "S", "xyz": [3.4357465837339705, 2.6833734376213125, 3.413760303013186]}, {"species": [{"element": "S", "occu": 1}], "abc": [0.19278107, 0.952058699999999, 0.41124649], "properties": {"magmom": -0.0}, "label": "S", "xyz": [-1.0343665075632873, 5.552980729210824, 3.452466625021812]}, {"species": [{"element": "S", "occu": 1}], "abc": [0.54081321, 0.28153358, 0.08875351000000001], "properties": {"magmom": -0.0}, "label": "S", "xyz": [2.7376026634908697, 1.6461631443957507, 0.06651302957961103]}]}, "task_ids": null, "uncorrected_energy_per_atom": null, "energy_per_atom": -11.551451251, "formation_energy_per_atom": -2.171056859687499, "energy_above_hull": 0.0, "is_stable": true, "equilibrium_reaction_energy_per_atom": null, "decomposes_to": null, "xas": null, "grain_boundaries": null, "band_gap": 1.034999999999999, "cbm": null, "vbm": null, "efermi": 3.40977017, "is_gap_direct": null, "is_metal": null, "es_source_calc_id": null, "bandstructure": null, "dos": null, "dos_energy_up": null, "dos_energy_down": null, "is_magnetic": null, "ordering": null, "total_magnetization": 0.0, "total_magnetization_normalized_vol": null, "total_magnetization_normalized_formula_units": null, "num_magnetic_sites": null, "num_unique_magnetic_sites": null, "types_of_magnetic_species": null, "bulk_modulus": null, "shear_modulus": null, "universal_anisotropy": null, "homogeneous_poisson": null, "e_total": null, "e_ionic": null, "e_electronic": null, "n": null, "e_ij_max": null, "weighted_surface_energy_EV_PER_ANG2": null, "weighted_surface_energy": null, "weighted_work_function": null, "surface_anisotropy": null, "shape_factor": null, "has_reconstructed": null, "possible_species": null, "has_props": null, "theoretical": null, "database_IDs": null, "fields_not_requested": ["builder_meta", "nsites", "elements", "nelements", "composition", "composition_reduced", "chemsys", "symmetry", "property_name", "deprecated", "deprecation_reasons", "last_updated", "origins", "warnings", "task_ids", "uncorrected_energy_per_atom", "equilibrium_reaction_energy_per_atom", "decomposes_to", "xas", "grain_boundaries", "cbm", "vbm", "is_gap_direct", "is_metal", "es_source_calc_id", "bandstructure", "dos", "dos_energy_up", "dos_energy_down", "is_magnetic", "ordering", "total_magnetization_normalized_vol", "total_magnetization_normalized_formula_units", "num_magnetic_sites", "num_unique_magnetic_sites", "types_of_magnetic_species", "bulk_modulus", "shear_modulus", "universal_anisotropy", "homogeneous_poisson", "e_total", "e_ionic", "e_electronic", "n", "e_ij_max", "weighted_surface_energy_EV_PER_ANG2", "weighted_surface_energy", "weighted_work_function", "surface_anisotropy", "shape_factor", "has_reconstructed", "possible_species", "has_props", "theoretical", "database_IDs"]}