{
  "builder_meta": null,
  "nsites": null,
  "elements": null,
  "nelements": null,
  "composition": null,
  "composition_reduced": null,
  "formula_pretty": "Sc2Te",
  "formula_anonymous": "AB2",
  "chemsys": null,
  "volume": 858.1624082726903,
  "density": 5.050608757282955,
  "density_atomic": 23.837844674241396,
  "symmetry": null,
  "property_name": null,
  "material_id": "mp-21576",
  "deprecated": null,
  "deprecation_reasons": null,
  "last_updated": null,
  "origins": null,
  "warnings": null,
  "structure": {
    "@module": "pymatgen.core.structure",
    "@class": "Structure",
    "charge": 0,
    "lattice": {
      "matrix": [
        [3.95195717, 0.0, 0.0],
        [-0.0, 10.71938608, 0.0],
        [0.0, 0.0, 20.2575698]
      ],
      "pbc": [true, true, true],
      "a": 3.95195717,
      "b": 10.71938608,
      "c": 20.2575698,
      "alpha": 90.0,
      "beta": 90.0,
      "gamma": 90.0,
      "volume": 858.1624082726903
    },
    "properties": {},
    "sites": [
      {
        "species": [{ "element": "Sc", "occu": 1 }],
        "abc": [0.25, 0.89447371, 0.49108842],
        "properties": { "magmom": -0.0 },
        "label": "Sc",
        "xyz": [0.9879892925, 9.588209035899956, 9.948257946121716]
      },
      {
        "species": [{ "element": "Sc", "occu": 1 }],
        "abc": [0.75, 0.10552629000000001, 0.50891158],
        "properties": { "magmom": -0.0 },
        "label": "Sc",
        "xyz": [2.9639678775, 1.1311770441000433, 10.309311853878285]
      },
      {
        "species": [{ "element": "Sc", "occu": 1 }],
        "abc": [0.75, 0.39447371000000003, 0.00891158],
        "properties": { "magmom": -0.0 },
        "label": "Sc",
        "xyz": [2.9639678775, 4.228515995899957, 0.180526953878284]
      },
      {
        "species": [{ "element": "Sc", "occu": 1 }],
        "abc": [0.25, 0.60552629, 0.99108842],
        "properties": { "magmom": -0.0 },
        "label": "Sc",
        "xyz": [0.9879892925, 6.4908700841000435, 20.077042846121714]
      },
      {
        "species": [{ "element": "Sc", "occu": 1 }],
        "abc": [0.25, 0.06858381, 0.6360947],
        "properties": { "magmom": 0.0 },
        "label": "Sc",
        "xyz": [0.9879892925, 0.7351763382273647, 12.885732784660059]
      },
      {
        "species": [{ "element": "Sc", "occu": 1 }],
        "abc": [0.75, 0.93141619, 0.3639053],
        "properties": { "magmom": 0.0 },
        "label": "Sc",
        "xyz": [2.9639678775, 9.984209741772634, 7.371837015339939]
      },
      {
        "species": [{ "element": "Sc", "occu": 1 }],
        "abc": [0.75, 0.56858381, 0.8639053],
        "properties": { "magmom": 0.0 },
        "label": "Sc",
        "xyz": [2.9639678775, 6.094869378227365, 17.500621915339938]
      },
      {
        "species": [{ "element": "Sc", "occu": 1 }],
        "abc": [0.25, 0.43141619000000003, 0.136094699999999],
        "properties": { "magmom": 0.0 },
        "label": "Sc",
        "xyz": [0.9879892925, 4.624516701772635, 2.7569478846600397]
      },
      {
        "species": [{ "element": "Sc", "occu": 1 }],
        "abc": [0.25, 0.37921076000000004, 0.53153499],
        "properties": { "magmom": 0.0 },
        "label": "Sc",
        "xyz": [0.9879892925, 4.064906542130221, 10.767607161067302]
      },
      {
        "species": [{ "element": "Sc", "occu": 1 }],
        "abc": [0.75, 0.62078924, 0.46846501],
        "properties": { "magmom": 0.0 },
        "label": "Sc",
        "xyz": [2.9639678775, 6.654479537869779, 9.489962638932697]
      },
      {
        "species": [{ "element": "Sc", "occu": 1 }],
        "abc": [0.75, 0.87921076, 0.9684650100000001],
        "properties": { "magmom": 0.0 },
        "label": "Sc",
        "xyz": [2.9639678775, 9.42459958213022, 19.6187475389327]
      },
      {
        "species": [{ "element": "Sc", "occu": 1 }],
        "abc": [0.25, 0.12078924, 0.03153499],
        "properties": { "magmom": 0.0 },
        "label": "Sc",
        "xyz": [0.9879892925, 1.2947864978697792, 0.6388222610673019]
      },
      {
        "species": [{ "element": "Sc", "occu": 1 }],
        "abc": [0.75, 0.65973167, 0.10718596],
        "properties": { "magmom": 0.0 },
        "label": "Sc",
        "xyz": [2.9639678775, 7.071918479933153, 2.171327066280008]
      },
      {
        "species": [{ "element": "Sc", "occu": 1 }],
        "abc": [0.25, 0.34026833, 0.89281404],
        "properties": { "magmom": 0.0 },
        "label": "Sc",
        "xyz": [0.9879892925, 3.6474676000668462, 18.086242733719992]
      },
      {
        "species": [{ "element": "Sc", "occu": 1 }],
        "abc": [0.25, 0.15973167, 0.39281404000000003],
        "properties": { "magmom": 0.0 },
        "label": "Sc",
        "xyz": [0.9879892925, 1.7122254399331533, 7.957457833719992]
      },
      {
        "species": [{ "element": "Sc", "occu": 1 }],
        "abc": [0.75, 0.84026833, 0.60718596],
        "properties": { "magmom": 0.0 },
        "label": "Sc",
        "xyz": [2.9639678775, 9.007160640066846, 12.300111966280008]
      },
      {
        "species": [{ "element": "Sc", "occu": 1 }],
        "abc": [0.75, 0.96625729, 0.16439644],
        "properties": { "magmom": 0.0 },
        "label": "Sc",
        "xyz": [2.9639678775, 10.357684944124523, 3.330272358171512]
      },
      {
        "species": [{ "element": "Sc", "occu": 1 }],
        "abc": [0.25, 0.03374271, 0.83560356],
        "properties": { "magmom": 0.0 },
        "label": "Sc",
        "xyz": [0.9879892925, 0.3617011358754768, 16.927297441828486]
      },
      {
        "species": [{ "element": "Sc", "occu": 1 }],
        "abc": [0.25, 0.46625729, 0.33560356],
        "properties": { "magmom": 0.0 },
        "label": "Sc",
        "xyz": [0.9879892925, 4.997991904124523, 6.798512541828488]
      },
      {
        "species": [{ "element": "Sc", "occu": 1 }],
        "abc": [0.75, 0.5337427100000001, 0.66439644],
        "properties": { "magmom": 0.0 },
        "label": "Sc",
        "xyz": [2.9639678775, 5.721394175875477, 13.45905725817151]
      },
      {
        "species": [{ "element": "Sc", "occu": 1 }],
        "abc": [0.25, 0.74540529, 0.22847212],
        "properties": { "magmom": 0.0 },
        "label": "Sc",
        "xyz": [0.9879892925, 7.9902870895843625, 4.628289918253976]
      },
      {
        "species": [{ "element": "Sc", "occu": 1 }],
        "abc": [0.75, 0.25459471, 0.77152788],
        "properties": { "magmom": 0.0 },
        "label": "Sc",
        "xyz": [2.9639678775, 2.7290989904156366, 15.629279881746024]
      },
      {
        "species": [{ "element": "Sc", "occu": 1 }],
        "abc": [0.75, 0.24540529, 0.27152788],
        "properties": { "magmom": 0.0 },
        "label": "Sc",
        "xyz": [2.9639678775, 2.630594049584363, 5.500494981746024]
      },
      {
        "species": [{ "element": "Sc", "occu": 1 }],
        "abc": [0.25, 0.75459471, 0.7284721200000001],
        "properties": { "magmom": 0.0 },
        "label": "Sc",
        "xyz": [0.9879892925, 8.088792030415636, 14.757074818253976]
      },
      {
        "species": [{ "element": "Te", "occu": 1 }],
        "abc": [0.75, 0.969654399999999, 0.73496136],
        "properties": { "magmom": -0.0 },
        "label": "Te",
        "xyz": [2.9639678775, 10.394099877770742, 14.888531050502927]
      },
      {
        "species": [{ "element": "Te", "occu": 1 }],
        "abc": [0.25, 0.0303456, 0.26503864],
        "properties": { "magmom": -0.0 },
        "label": "Te",
        "xyz": [0.9879892925, 0.325286202229248, 5.369038749497071]
      },
      {
        "species": [{ "element": "Te", "occu": 1 }],
        "abc": [0.25, 0.46965439999999903, 0.76503864],
        "properties": { "magmom": -0.0 },
        "label": "Te",
        "xyz": [0.9879892925, 5.034406837770741, 15.497823649497072]
      },
      {
        "species": [{ "element": "Te", "occu": 1 }],
        "abc": [0.75, 0.5303456, 0.23496136],
        "properties": { "magmom": -0.0 },
        "label": "Te",
        "xyz": [2.9639678775, 5.6849792422292476, 4.759746150502928]
      },
      {
        "species": [{ "element": "Te", "occu": 1 }],
        "abc": [0.75, 0.27644634, 0.62524557],
        "properties": { "magmom": -0.0 },
        "label": "Te",
        "xyz": [2.9639678775, 2.9633350488629473, 12.665955776415785]
      },
      {
        "species": [{ "element": "Te", "occu": 1 }],
        "abc": [0.25, 0.72355366, 0.37475443],
        "properties": { "magmom": -0.0 },
        "label": "Te",
        "xyz": [0.9879892925, 7.756051031137052, 7.591614023584214]
      },
      {
        "species": [{ "element": "Te", "occu": 1 }],
        "abc": [0.25, 0.77644634, 0.87475443],
        "properties": { "magmom": -0.0 },
        "label": "Te",
        "xyz": [0.9879892925, 8.323028088862946, 17.720398923584213]
      },
      {
        "species": [{ "element": "Te", "occu": 1 }],
        "abc": [0.75, 0.22355366000000002, 0.12524557],
        "properties": { "magmom": -0.0 },
        "label": "Te",
        "xyz": [2.9639678775, 2.396357991137053, 2.537170876415786]
      },
      {
        "species": [{ "element": "Te", "occu": 1 }],
        "abc": [0.25, 0.64268216, 0.5753189400000001],
        "properties": { "magmom": -0.0 },
        "label": "Te",
        "xyz": [0.9879892925, 6.889158199768333, 11.654563584312012]
      },
      {
        "species": [{ "element": "Te", "occu": 1 }],
        "abc": [0.75, 0.35731784, 0.42468106],
        "properties": { "magmom": -0.0 },
        "label": "Te",
        "xyz": [2.9639678775, 3.830227880231667, 8.603006215687987]
      },
      {
        "species": [{ "element": "Te", "occu": 1 }],
        "abc": [0.75, 0.14268216, 0.92468106],
        "properties": { "magmom": -0.0 },
        "label": "Te",
        "xyz": [2.9639678775, 1.5294651597683329, 18.731791115687987]
      },
      {
        "species": [{ "element": "Te", "occu": 1 }],
        "abc": [0.25, 0.85731784, 0.07531894],
        "properties": { "magmom": -0.0 },
        "label": "Te",
        "xyz": [0.9879892925, 9.189920920231668, 1.525778684312012]
      }
    ]
  },
  "task_ids": null,
  "uncorrected_energy_per_atom": null,
  "energy_per_atom": -6.231489886944445,
  "formation_energy_per_atom": -0.9620751858333331,
  "energy_above_hull": 0.0,
  "is_stable": true,
  "equilibrium_reaction_energy_per_atom": null,
  "decomposes_to": null,
  "xas": null,
  "grain_boundaries": null,
  "band_gap": 0.0,
  "cbm": null,
  "vbm": null,
  "efermi": 6.38004585,
  "is_gap_direct": null,
  "is_metal": null,
  "es_source_calc_id": null,
  "bandstructure": null,
  "dos": null,
  "dos_energy_up": null,
  "dos_energy_down": null,
  "is_magnetic": null,
  "ordering": null,
  "total_magnetization": 0.00040199999999900005,
  "total_magnetization_normalized_vol": null,
  "total_magnetization_normalized_formula_units": null,
  "num_magnetic_sites": null,
  "num_unique_magnetic_sites": null,
  "types_of_magnetic_species": null,
  "bulk_modulus": null,
  "shear_modulus": null,
  "universal_anisotropy": null,
  "homogeneous_poisson": null,
  "e_total": null,
  "e_ionic": null,
  "e_electronic": null,
  "n": null,
  "e_ij_max": null,
  "weighted_surface_energy_EV_PER_ANG2": null,
  "weighted_surface_energy": null,
  "weighted_work_function": null,
  "surface_anisotropy": null,
  "shape_factor": null,
  "has_reconstructed": null,
  "possible_species": null,
  "has_props": null,
  "theoretical": null,
  "database_IDs": null,
  "fields_not_requested": [
    "builder_meta",
    "nsites",
    "elements",
    "nelements",
    "composition",
    "composition_reduced",
    "chemsys",
    "symmetry",
    "property_name",
    "deprecated",
    "deprecation_reasons",
    "last_updated",
    "origins",
    "warnings",
    "task_ids",
    "uncorrected_energy_per_atom",
    "equilibrium_reaction_energy_per_atom",
    "decomposes_to",
    "xas",
    "grain_boundaries",
    "cbm",
    "vbm",
    "is_gap_direct",
    "is_metal",
    "es_source_calc_id",
    "bandstructure",
    "dos",
    "dos_energy_up",
    "dos_energy_down",
    "is_magnetic",
    "ordering",
    "total_magnetization_normalized_vol",
    "total_magnetization_normalized_formula_units",
    "num_magnetic_sites",
    "num_unique_magnetic_sites",
    "types_of_magnetic_species",
    "bulk_modulus",
    "shear_modulus",
    "universal_anisotropy",
    "homogeneous_poisson",
    "e_total",
    "e_ionic",
    "e_electronic",
    "n",
    "e_ij_max",
    "weighted_surface_energy_EV_PER_ANG2",
    "weighted_surface_energy",
    "weighted_work_function",
    "surface_anisotropy",
    "shape_factor",
    "has_reconstructed",
    "possible_species",
    "has_props",
    "theoretical",
    "database_IDs"
  ]
}
