{
  "builder_meta": null,
  "nsites": null,
  "elements": null,
  "nelements": null,
  "composition": null,
  "composition_reduced": null,
  "formula_pretty": "Sc2Te3",
  "formula_anonymous": "A2B3",
  "chemsys": null,
  "volume": 610.6110570880912,
  "density": 5.14210440105083,
  "density_atomic": 30.53055285440456,
  "symmetry": null,
  "property_name": null,
  "material_id": "mp-685069",
  "deprecated": null,
  "deprecation_reasons": null,
  "last_updated": null,
  "origins": null,
  "warnings": null,
  "structure": {
    "@module": "pymatgen.core.structure",
    "@class": "Structure",
    "charge": 0,
    "lattice": {
      "matrix": [
        [7.188794899999999, -0.04957571, -0.0030180800000000002],
        [-3.550643329999999, 6.25195402, -0.00199589],
        [-1.21233053, -2.0531917, 13.64111993]
      ],
      "pbc": [true, true, true],
      "a": 7.188966474681523,
      "b": 7.189854039453412,
      "c": 13.847941883744392,
      "alpha": 94.93155029257258,
      "beta": 94.98729844431031,
      "gamma": 119.98844991094725,
      "volume": 610.6110570880912
    },
    "properties": {},
    "sites": [
      {
        "species": [{ "element": "Sc", "occu": 1 }],
        "abc": [0.0, 0.0, 0.0],
        "properties": { "magmom": -0.0 },
        "label": "Sc",
        "xyz": [0.0, 0.0, 0.0]
      },
      {
        "species": [{ "element": "Sc", "occu": 1 }],
        "abc": [0.67056525, 0.33535142, -5.806e-5],
        "properties": { "magmom": -0.0 },
        "label": "Sc",
        "xyz": [3.6299131545987673, 2.0634771183217326, -0.0034851475385196]
      },
      {
        "species": [{ "element": "Sc", "occu": 1 }],
        "abc": [0.32943475, 0.66464858, 5.806e-5],
        "properties": { "magmom": -0.0 },
        "label": "Sc",
        "xyz": [0.008238415401231925, 4.138901191678268, -0.0015288224614804]
      },
      {
        "species": [{ "element": "Sc", "occu": 1 }],
        "abc": [0.08251904, 0.74949363, 0.24641704],
        "properties": { "magmom": 0.0 },
        "label": "Sc",
        "xyz": [-2.366711005036323, 4.175767351779806, 3.359659439530183]
      },
      {
        "species": [{ "element": "Sc", "occu": 1 }],
        "abc": [0.16977452, 0.83615321, 0.5088516200000001],
        "properties": { "magmom": 0.0 },
        "label": "Sc",
        "xyz": [-2.365303968584599, 4.174404807510941, 6.939124712081159]
      },
      {
        "species": [{ "element": "Sc", "occu": 1 }],
        "abc": [0.8302254800000001, 0.16384679, 0.49114838],
        "properties": { "magmom": 0.0 },
        "label": "Sc",
        "xyz": [4.791125008584599, -0.02521819751094112, 6.696981247918842]
      },
      {
        "species": [{ "element": "Sc", "occu": 1 }],
        "abc": [0.91748096, 0.25050637, 0.75358296],
        "properties": { "magmom": 0.0 },
        "label": "Sc",
        "xyz": [4.792532045036322, -0.026580741779806294, 10.276446520469818]
      },
      {
        "species": [{ "element": "Sc", "occu": 1 }],
        "abc": [0.5, 0.5, 0.5],
        "properties": { "magmom": -0.0 },
        "label": "Sc",
        "xyz": [1.2129105199999999, 2.074593305, 6.81805298]
      },
      {
        "species": [{ "element": "Te", "occu": 1 }],
        "abc": [0.13111743, 0.12101785, 0.37599437],
        "properties": { "magmom": -0.0 },
        "label": "Te",
        "xyz": [0.057055636312550395, -0.021890725617097373, 5.128347032965024]
      },
      {
        "species": [{ "element": "Te", "occu": 1 }],
        "abc": [0.2903728, 0.29157389, 0.8761097800000001],
        "properties": { "magmom": 0.0 },
        "label": "Te",
        "xyz": [-0.00997901791751743, 0.00968978740302373, 11.94966026307438]
      },
      {
        "species": [{ "element": "Te", "occu": 1 }],
        "abc": [0.79680799, 0.46907323, 0.37583023],
        "properties": { "magmom": -0.0 },
        "label": "Te",
        "xyz": [3.6069470174842735, 2.1214704352898712, 5.123404191922]
      },
      {
        "species": [{ "element": "Te", "occu": 1 }],
        "abc": [0.95853141, 0.62419047, 0.87431044],
        "properties": { "magmom": 0.0 },
        "label": "Te",
        "xyz": [3.6144547436330097, 2.0597633043227903, 11.922434828096009]
      },
      {
        "species": [{ "element": "Te", "occu": 1 }],
        "abc": [0.44899475, 0.78632915, 0.37590113],
        "properties": { "magmom": -0.0 },
        "label": "Te",
        "xyz": [-0.019959598865793238, 4.12203737673154, 5.124787867590248]
      },
      {
        "species": [{ "element": "Te", "occu": 1 }],
        "abc": [0.62611615, 0.95967817, 0.87616629],
        "properties": { "magmom": 0.0 },
        "label": "Te",
        "xyz": [0.0313425499466955, 4.169886285711233, 11.948084359820447]
      },
      {
        "species": [{ "element": "Te", "occu": 1 }],
        "abc": [0.37388385, 0.04032183, 0.12383371],
        "properties": { "magmom": 0.0 },
        "label": "Te",
        "xyz": [2.3944784900533045, -0.02069967571123385, 1.6880216001795536]
      },
      {
        "species": [{ "element": "Te", "occu": 1 }],
        "abc": [0.55100525, 0.21367085, 0.62409887],
        "properties": { "magmom": -0.0 },
        "label": "Te",
        "xyz": [2.445780638865793, 0.027149233268460415, 8.511318092409752]
      },
      {
        "species": [{ "element": "Te", "occu": 1 }],
        "abc": [0.04146859, 0.37580953, 0.12568956],
        "properties": { "magmom": 0.0 },
        "label": "Te",
        "xyz": [-1.1886337036330104, 2.08942330567721, 1.7136711319039921]
      },
      {
        "species": [{ "element": "Te", "occu": 1 }],
        "abc": [0.20319201, 0.53092677, 0.6241697700000001],
        "properties": { "magmom": -0.0 },
        "label": "Te",
        "xyz": [-1.1811259774842728, 2.0277161747101293, 8.512701768078003]
      },
      {
        "species": [{ "element": "Te", "occu": 1 }],
        "abc": [0.7096272, 0.70842611, 0.12389022000000001],
        "properties": { "magmom": 0.0 },
        "label": "Te",
        "xyz": [2.435800057917517, 4.139496822596977, 1.686445696925621]
      },
      {
        "species": [{ "element": "Te", "occu": 1 }],
        "abc": [0.86888257, 0.87898215, 0.62400563],
        "properties": { "magmom": -0.0 },
        "label": "Te",
        "xyz": [2.368765403687449, 4.171077335617097, 8.507758927034978]
      }
    ]
  },
  "task_ids": null,
  "uncorrected_energy_per_atom": null,
  "energy_per_atom": -5.899462137,
  "formation_energy_per_atom": -1.480490958999999,
  "energy_above_hull": 0.0,
  "is_stable": true,
  "equilibrium_reaction_energy_per_atom": null,
  "decomposes_to": null,
  "xas": null,
  "grain_boundaries": null,
  "band_gap": 0.0033000000000000004,
  "cbm": null,
  "vbm": null,
  "efermi": 5.15640091,
  "is_gap_direct": null,
  "is_metal": null,
  "es_source_calc_id": null,
  "bandstructure": null,
  "dos": null,
  "dos_energy_up": null,
  "dos_energy_down": null,
  "is_magnetic": null,
  "ordering": null,
  "total_magnetization": 0.0,
  "total_magnetization_normalized_vol": null,
  "total_magnetization_normalized_formula_units": null,
  "num_magnetic_sites": null,
  "num_unique_magnetic_sites": null,
  "types_of_magnetic_species": null,
  "bulk_modulus": null,
  "shear_modulus": null,
  "universal_anisotropy": null,
  "homogeneous_poisson": null,
  "e_total": null,
  "e_ionic": null,
  "e_electronic": null,
  "n": null,
  "e_ij_max": null,
  "weighted_surface_energy_EV_PER_ANG2": null,
  "weighted_surface_energy": null,
  "weighted_work_function": null,
  "surface_anisotropy": null,
  "shape_factor": null,
  "has_reconstructed": null,
  "possible_species": null,
  "has_props": null,
  "theoretical": null,
  "database_IDs": null,
  "fields_not_requested": [
    "builder_meta",
    "nsites",
    "elements",
    "nelements",
    "composition",
    "composition_reduced",
    "chemsys",
    "symmetry",
    "property_name",
    "deprecated",
    "deprecation_reasons",
    "last_updated",
    "origins",
    "warnings",
    "task_ids",
    "uncorrected_energy_per_atom",
    "equilibrium_reaction_energy_per_atom",
    "decomposes_to",
    "xas",
    "grain_boundaries",
    "cbm",
    "vbm",
    "is_gap_direct",
    "is_metal",
    "es_source_calc_id",
    "bandstructure",
    "dos",
    "dos_energy_up",
    "dos_energy_down",
    "is_magnetic",
    "ordering",
    "total_magnetization_normalized_vol",
    "total_magnetization_normalized_formula_units",
    "num_magnetic_sites",
    "num_unique_magnetic_sites",
    "types_of_magnetic_species",
    "bulk_modulus",
    "shear_modulus",
    "universal_anisotropy",
    "homogeneous_poisson",
    "e_total",
    "e_ionic",
    "e_electronic",
    "n",
    "e_ij_max",
    "weighted_surface_energy_EV_PER_ANG2",
    "weighted_surface_energy",
    "weighted_work_function",
    "surface_anisotropy",
    "shape_factor",
    "has_reconstructed",
    "possible_species",
    "has_props",
    "theoretical",
    "database_IDs"
  ]
}
