{"builder_meta": null, "nsites": null, "elements": null, "nelements": null, "composition": null, "composition_reduced": null, "formula_pretty": "Sc3As", "formula_anonymous": "AB3", "chemsys": null, "volume": 161.10532720599377, "density": 4.324666281688457, "density_atomic": 20.13816590074922, "symmetry": null, "property_name": null, "material_id": "mp-1186963", "deprecated": null, "deprecation_reasons": null, "last_updated": null, "origins": null, "warnings": null, "structure": {"@module": "pymatgen.core.structure", "@class": "Structure", "charge": 0, "lattice": {"matrix": [[3.073214, -5.322963, 0.0], [3.073214, 5.322963, 0.0], [0.0, 0.0, 4.924177]], "pbc": [true, true, true], "a": 6.1464281814046275, "b": 6.1464281814046275, "c": 4.924177, "alpha": 90.0, "beta": 90.0, "gamma": 120.00000195261917, "volume": 161.10532720599377}, "properties": {}, "sites": [{"species": [{"element": "Sc", "occu": 1}], "abc": [0.171157, 0.342315, 0.25], "properties": {"magmom": 0.171}, "label": "Sc", "xyz": [1.5780093390080001, 0.9110677011539997, 1.23104425]}, {"species": [{"element": "Sc", "occu": 1}], "abc": [0.657685, 0.828843, 0.25], "properties": {"magmom": 0.171}, "label": "Sc", "xyz": [4.568418660992, 0.9110677011540003, 1.23104425]}, {"species": [{"element": "Sc", "occu": 1}], "abc": [0.171157, 0.828843, 0.25], "properties": {"magmom": 0.171}, "label": "Sc", "xyz": [3.073214, 3.500838243618, 1.23104425]}, {"species": [{"element": "Sc", "occu": 1}], "abc": [0.828843, 0.657685, 0.75], "properties": {"magmom": 0.192}, "label": "Sc", "xyz": [4.568418660992, -0.9110677011540003, 3.69313275]}, {"species": [{"element": "Sc", "occu": 1}], "abc": [0.342315, 0.171157, 0.75], "properties": {"magmom": 0.192}, "label": "Sc", "xyz": [1.5780093390080001, -0.9110677011539997, 3.69313275]}, {"species": [{"element": "Sc", "occu": 1}], "abc": [0.828843, 0.171157, 0.75], "properties": {"magmom": 0.192}, "label": "Sc", "xyz": [3.073214, -3.500838243618, 3.69313275]}, {"species": [{"element": "As", "occu": 1}], "abc": [0.333333, 0.666667, 0.75], "properties": {"magmom": -0.015}, "label": "As", "xyz": [3.073214, 1.774324548642, 3.69313275]}, {"species": [{"element": "As", "occu": 1}], "abc": [0.666667, 0.333333, 0.25], "properties": {"magmom": -0.018000000000000002}, "label": "As", "xyz": [3.073214, -1.774324548642, 1.23104425]}]}, "task_ids": null, "uncorrected_energy_per_atom": null, "energy_per_atom": -12.796635563749998, "formation_energy_per_atom": -0.570887300624997, "energy_above_hull": 0.250798201666667, "is_stable": false, "equilibrium_reaction_energy_per_atom": null, "decomposes_to": null, "xas": null, "grain_boundaries": null, "band_gap": 0.0, "cbm": null, "vbm": null, "efermi": 5.56513554, "is_gap_direct": null, "is_metal": null, "es_source_calc_id": null, "bandstructure": null, "dos": null, "dos_energy_up": null, "dos_energy_down": null, "is_magnetic": null, "ordering": null, "total_magnetization": 1.5493454, "total_magnetization_normalized_vol": null, "total_magnetization_normalized_formula_units": null, "num_magnetic_sites": null, "num_unique_magnetic_sites": null, "types_of_magnetic_species": null, "bulk_modulus": null, "shear_modulus": null, "universal_anisotropy": null, "homogeneous_poisson": null, "e_total": null, "e_ionic": null, "e_electronic": null, "n": null, "e_ij_max": null, "weighted_surface_energy_EV_PER_ANG2": null, "weighted_surface_energy": null, "weighted_work_function": null, "surface_anisotropy": null, "shape_factor": null, "has_reconstructed": null, "possible_species": null, "has_props": null, "theoretical": null, "database_IDs": null, "fields_not_requested": ["builder_meta", "nsites", "elements", "nelements", "composition", "composition_reduced", "chemsys", "symmetry", "property_name", "deprecated", "deprecation_reasons", "last_updated", "origins", "warnings", "task_ids", "uncorrected_energy_per_atom", "equilibrium_reaction_energy_per_atom", "decomposes_to", "xas", "grain_boundaries", "cbm", "vbm", "is_gap_direct", "is_metal", "es_source_calc_id", "bandstructure", "dos", "dos_energy_up", "dos_energy_down", "is_magnetic", "ordering", "total_magnetization_normalized_vol", "total_magnetization_normalized_formula_units", "num_magnetic_sites", "num_unique_magnetic_sites", "types_of_magnetic_species", "bulk_modulus", "shear_modulus", "universal_anisotropy", "homogeneous_poisson", "e_total", "e_ionic", "e_electronic", "n", "e_ij_max", "weighted_surface_energy_EV_PER_ANG2", "weighted_surface_energy", "weighted_work_function", "surface_anisotropy", "shape_factor", "has_reconstructed", "possible_species", "has_props", "theoretical", "database_IDs"]}