{"builder_meta": null, "nsites": null, "elements": null, "nelements": null, "composition": null, "composition_reduced": null, "formula_pretty": "Sc3Al", "formula_anonymous": "AB3", "chemsys": null, "volume": 175.26617349782586, "density": 3.0668444230912, "density_atomic": 21.908271687228233, "symmetry": null, "property_name": null, "material_id": "mp-862259", "deprecated": null, "deprecation_reasons": null, "last_updated": null, "origins": null, "warnings": null, "structure": {"@module": "pymatgen.core.structure", "@class": "Structure", "charge": 0, "lattice": {"matrix": [[6.31206687, -5.6050000000000034e-05, 0.0], [-3.15606944, 5.46626172, 0.0], [0.0, 0.0, 5.07970298]], "pbc": [true, true, true], "a": 6.312066870248857, "b": 6.311956234135284, "c": 5.07970298, "alpha": 90.0, "beta": 90.0, "gamma": 120.00146599208223, "volume": 175.26617349782586}, "properties": {}, "sites": [{"species": [{"element": "Sc", "occu": 1}], "abc": [0.82872481, 0.17136336, 0.750000999999999], "properties": {"magmom": 0.369}, "label": "Sc", "xyz": [4.690131753916326, 0.9366705249529786, 3.8097823147029755]}, {"species": [{"element": "Sc", "occu": 1}], "abc": [0.34266911, 0.17133078000000002, 0.750000999999999], "properties": {"magmom": 0.369}, "label": "Sc", "xyz": [1.6222184977140222, 0.9365196775681262, 3.8097823147029755]}, {"species": [{"element": "Sc", "occu": 1}], "abc": [0.8287262400000001, 0.6573529100000001, 0.750000999999999], "properties": {"magmom": 0.369}, "label": "Sc", "xyz": [3.1563240132575987, 3.593216598357854, 3.8097823147029755]}, {"species": [{"element": "Sc", "occu": 1}], "abc": [0.17134594, 0.82864868, 0.249999], "properties": {"magmom": 0.369}, "label": "Sc", "xyz": [-1.5337257442613317, 4.529600954872594, 1.26992066529702]}, {"species": [{"element": "Sc", "occu": 1}], "abc": [0.65739335, 0.82865511, 0.249999], "properties": {"magmom": 0.369}, "label": "Sc", "xyz": [1.5342177161224755, 4.529608859978122, 1.26992066529702]}, {"species": [{"element": "Sc", "occu": 1}], "abc": [0.1713582, 0.34264593, 0.249999], "properties": {"magmom": 0.369}, "label": "Sc", "xyz": [0.0002100687094548359, 1.8729827260456895, 1.26992066529702]}, {"species": [{"element": "Al", "occu": 1}], "abc": [0.66649432, 0.33326833, 0.249999], "properties": {"magmom": -0.049}, "label": "Al", "xyz": [3.1551387246823426, 1.8216945577606916, 1.26992066529702]}, {"species": [{"element": "Al", "occu": 1}], "abc": [0.33329104, 0.66673891, 0.750000999999999], "properties": {"magmom": -0.049}, "label": "Al", "xyz": [-0.0005189666580656116, 3.6445507000047335, 3.8097823147029755]}]}, "task_ids": null, "uncorrected_energy_per_atom": null, "energy_per_atom": -10.5207074225, "formation_energy_per_atom": -0.288817323749999, "energy_above_hull": 0.0, "is_stable": true, "equilibrium_reaction_energy_per_atom": null, "decomposes_to": null, "xas": null, "grain_boundaries": null, "band_gap": 0.0, "cbm": null, "vbm": null, "efermi": 4.57138237, "is_gap_direct": null, "is_metal": null, "es_source_calc_id": null, "bandstructure": null, "dos": null, "dos_energy_up": null, "dos_energy_down": null, "is_magnetic": null, "ordering": null, "total_magnetization": 3.266877, "total_magnetization_normalized_vol": null, "total_magnetization_normalized_formula_units": null, "num_magnetic_sites": null, "num_unique_magnetic_sites": null, "types_of_magnetic_species": null, "bulk_modulus": null, "shear_modulus": null, "universal_anisotropy": null, "homogeneous_poisson": null, "e_total": null, "e_ionic": null, "e_electronic": null, "n": null, "e_ij_max": null, "weighted_surface_energy_EV_PER_ANG2": null, "weighted_surface_energy": null, "weighted_work_function": null, "surface_anisotropy": null, "shape_factor": null, "has_reconstructed": null, "possible_species": null, "has_props": null, "theoretical": null, "database_IDs": null, "fields_not_requested": ["builder_meta", "nsites", "elements", "nelements", "composition", "composition_reduced", "chemsys", "symmetry", "property_name", "deprecated", "deprecation_reasons", "last_updated", "origins", "warnings", "task_ids", "uncorrected_energy_per_atom", "equilibrium_reaction_energy_per_atom", "decomposes_to", "xas", "grain_boundaries", "cbm", "vbm", "is_gap_direct", "is_metal", "es_source_calc_id", "bandstructure", "dos", "dos_energy_up", "dos_energy_down", "is_magnetic", "ordering", "total_magnetization_normalized_vol", "total_magnetization_normalized_formula_units", "num_magnetic_sites", "num_unique_magnetic_sites", "types_of_magnetic_species", "bulk_modulus", "shear_modulus", "universal_anisotropy", "homogeneous_poisson", "e_total", "e_ionic", "e_electronic", "n", "e_ij_max", "weighted_surface_energy_EV_PER_ANG2", "weighted_surface_energy", "weighted_work_function", "surface_anisotropy", "shape_factor", "has_reconstructed", "possible_species", "has_props", "theoretical", "database_IDs"]}