{
  "builder_meta": null,
  "nsites": null,
  "elements": null,
  "nelements": null,
  "composition": null,
  "composition_reduced": null,
  "formula_pretty": "Sc3As2",
  "formula_anonymous": "A2B3",
  "chemsys": null,
  "volume": 410.94226667185586,
  "density": 4.60184965392007,
  "density_atomic": 20.547113333592794,
  "symmetry": null,
  "property_name": null,
  "material_id": "mp-1188926",
  "deprecated": null,
  "deprecation_reasons": null,
  "last_updated": null,
  "origins": null,
  "warnings": null,
  "structure": {
    "@module": "pymatgen.core.structure",
    "@class": "Structure",
    "charge": 0,
    "lattice": {
      "matrix": [
        [3.8830017, -4.37e-6, -1.018e-5],
        [-8.04e-6, 7.1570145, 2.4100000000000003e-5],
        [-3.864e-5, 4.8310000000000024e-5, 14.78704295]
      ],
      "pbc": [true, true, true],
      "a": 3.8830017000158032,
      "b": 7.157014500045092,
      "c": 14.7870429501294,
      "alpha": 89.99961987812895,
      "beta": 90.00029993110495,
      "gamma": 90.00012884676423,
      "volume": 410.94226667185586
    },
    "properties": {},
    "sites": [
      {
        "species": [{ "element": "Sc", "occu": 1 }],
        "abc": [0.24999794, 0.00360843, 0.39626988],
        "properties": { "magmom": 0.0 },
        "label": "Sc",
        "xyz": [0.9707270851365576, 0.02584363713914, 5.85965727733548]
      },
      {
        "species": [{ "element": "Sc", "occu": 1 }],
        "abc": [0.24999596000000002, 0.50359071, 0.10376805],
        "properties": { "magmom": -0.0 },
        "label": "Sc",
        "xyz": [0.9707266792063717, 3.604209934087445, 1.5344322037649858]
      },
      {
        "species": [{ "element": "Sc", "occu": 1 }],
        "abc": [0.74999907, 0.99639205, 0.60373135],
        "properties": { "magmom": 0.0 },
        "label": "Sc",
        "xyz": [2.9122163246369728, 7.131218238300307, 8.927417780769353]
      },
      {
        "species": [{ "element": "Sc", "occu": 1 }],
        "abc": [0.74999671, 0.49642569000000003, 0.89623662],
        "properties": { "magmom": -0.0 },
        "label": "Sc",
        "xyz": [2.9121998780788627, 3.5529658812079945, 13.25269372219545]
      },
      {
        "species": [{ "element": "Sc", "occu": 1 }],
        "abc": [0.2499976, 0.16281583, 0.77535597],
        "properties": { "magmom": 0.0 },
        "label": "Sc",
        "xyz": [0.9707098370019659, 1.1653116210969336, 11.465223408814847]
      },
      {
        "species": [{ "element": "Sc", "occu": 1 }],
        "abc": [0.24999806, 0.66284098, 0.72458263],
        "properties": { "magmom": -0.0 },
        "label": "Sc",
        "xyz": [0.9707095648623996, 4.743996417149543, 10.714447900121327]
      },
      {
        "species": [{ "element": "Sc", "occu": 1 }],
        "abc": [0.7499975600000001, 0.83721555, 0.22463204],
        "properties": { "magmom": 0.0 },
        "label": "Sc",
        "xyz": [2.9122263894808045, 5.99197140545999, 3.321656165345712]
      },
      {
        "species": [{ "element": "Sc", "occu": 1 }],
        "abc": [0.74999711, 0.337187399999999, 0.27543279],
        "properties": { "magmom": -0.0 },
        "label": "Sc",
        "xyz": [2.9122266994153856, 2.413265139688007, 4.072836986814091]
      },
      {
        "species": [{ "element": "Sc", "occu": 1 }],
        "abc": [0.24999652, 0.36163397, 0.56905457],
        "properties": { "magmom": -0.0 },
        "label": "Sc",
        "xyz": [0.9707120163483803, 2.5882459655240493, 8.414640537897885]
      },
      {
        "species": [{ "element": "Sc", "occu": 1 }],
        "abc": [0.24999738000000002, 0.86163889, 0.93092392],
        "properties": { "magmom": 0.0 },
        "label": "Sc",
        "xyz": [0.9706973530586016, 6.166805909939931, 13.765630208746284]
      },
      {
        "species": [{ "element": "Sc", "occu": 1 }],
        "abc": [0.7499989300000001, 0.63837972, 0.43094176],
        "properties": { "magmom": -0.0 },
        "label": "Sc",
        "xyz": [2.912225336025626, 4.5689104538470415, 6.372362064030737]
      },
      {
        "species": [{ "element": "Sc", "occu": 1 }],
        "abc": [0.74999802, 0.13839892, 0.06908478],
        "properties": { "magmom": 0.0 },
        "label": "Sc",
        "xyz": [2.912239804493418, 0.9905231372187144, 1.0215553094854295]
      },
      {
        "species": [{ "element": "As", "occu": 1 }],
        "abc": [0.24999839000000001, 0.12223604, 0.20609667],
        "properties": { "magmom": -0.0 },
        "label": "As",
        "xyz": [0.9707352270141726, 0.8748539747397434, 3.04756071204693]
      },
      {
        "species": [{ "element": "As", "occu": 1 }],
        "abc": [0.24999786000000002, 0.62221218, 0.29392284],
        "properties": { "magmom": 0.0 },
        "label": "As",
        "xyz": [0.9707257556118972, 4.453194701258362, 4.346262109401302]
      },
      {
        "species": [{ "element": "As", "occu": 1 }],
        "abc": [0.75001184, 0.8777539400000001, 0.79390972],
        "properties": { "magmom": -0.0 },
        "label": "As",
        "xyz": [2.9122595159268694, 6.2821327522389625, 11.739590646811898]
      },
      {
        "species": [{ "element": "As", "occu": 1 }],
        "abc": [0.74999658, 0.37775252, 0.706064599999999],
        "properties": { "magmom": 0.0 },
        "label": "As",
        "xyz": [2.9122076756677813, 2.7036110955473114, 10.440609034545103]
      },
      {
        "species": [{ "element": "As", "occu": 1 }],
        "abc": [0.24999838, 0.25344823, 0.95622693],
        "properties": { "magmom": -0.0 },
        "label": "As",
        "xyz": [0.9707051482049016, 1.8139777599394025, 14.139772246975479]
      },
      {
        "species": [{ "element": "As", "occu": 1 }],
        "abc": [0.2500326, 0.75351905, 0.54378063],
        "properties": { "magmom": 0.0 },
        "label": "As",
        "xyz": [0.9708499408787148, 5.392971944275998, 8.040923145665294]
      },
      {
        "species": [{ "element": "As", "occu": 1 }],
        "abc": [0.74999709, 0.74649254, 0.04375796],
        "properties": { "magmom": -0.0 },
        "label": "As",
        "xyz": [2.9122322828574574, 5.342656769381594, 0.6470611894242199]
      },
      {
        "species": [{ "element": "As", "occu": 1 }],
        "abc": [0.7499963900000001, 0.24645736000000001, 0.4562263],
        "properties": { "magmom": 0.0 },
        "label": "As",
        "xyz": [2.912217647262457, 1.763917661960049, 6.74623619767871]
      }
    ]
  },
  "task_ids": null,
  "uncorrected_energy_per_atom": null,
  "energy_per_atom": -14.034727057000001,
  "formation_energy_per_atom": -1.312622249,
  "energy_above_hull": 0.0,
  "is_stable": true,
  "equilibrium_reaction_energy_per_atom": null,
  "decomposes_to": null,
  "xas": null,
  "grain_boundaries": null,
  "band_gap": 0.0,
  "cbm": null,
  "vbm": null,
  "efermi": 5.250026379999999,
  "is_gap_direct": null,
  "is_metal": null,
  "es_source_calc_id": null,
  "bandstructure": null,
  "dos": null,
  "dos_energy_up": null,
  "dos_energy_down": null,
  "is_magnetic": null,
  "ordering": null,
  "total_magnetization": 1.4e-6,
  "total_magnetization_normalized_vol": null,
  "total_magnetization_normalized_formula_units": null,
  "num_magnetic_sites": null,
  "num_unique_magnetic_sites": null,
  "types_of_magnetic_species": null,
  "bulk_modulus": null,
  "shear_modulus": null,
  "universal_anisotropy": null,
  "homogeneous_poisson": null,
  "e_total": null,
  "e_ionic": null,
  "e_electronic": null,
  "n": null,
  "e_ij_max": null,
  "weighted_surface_energy_EV_PER_ANG2": null,
  "weighted_surface_energy": null,
  "weighted_work_function": null,
  "surface_anisotropy": null,
  "shape_factor": null,
  "has_reconstructed": null,
  "possible_species": null,
  "has_props": null,
  "theoretical": null,
  "database_IDs": null,
  "fields_not_requested": [
    "builder_meta",
    "nsites",
    "elements",
    "nelements",
    "composition",
    "composition_reduced",
    "chemsys",
    "symmetry",
    "property_name",
    "deprecated",
    "deprecation_reasons",
    "last_updated",
    "origins",
    "warnings",
    "task_ids",
    "uncorrected_energy_per_atom",
    "equilibrium_reaction_energy_per_atom",
    "decomposes_to",
    "xas",
    "grain_boundaries",
    "cbm",
    "vbm",
    "is_gap_direct",
    "is_metal",
    "es_source_calc_id",
    "bandstructure",
    "dos",
    "dos_energy_up",
    "dos_energy_down",
    "is_magnetic",
    "ordering",
    "total_magnetization_normalized_vol",
    "total_magnetization_normalized_formula_units",
    "num_magnetic_sites",
    "num_unique_magnetic_sites",
    "types_of_magnetic_species",
    "bulk_modulus",
    "shear_modulus",
    "universal_anisotropy",
    "homogeneous_poisson",
    "e_total",
    "e_ionic",
    "e_electronic",
    "n",
    "e_ij_max",
    "weighted_surface_energy_EV_PER_ANG2",
    "weighted_surface_energy",
    "weighted_work_function",
    "surface_anisotropy",
    "shape_factor",
    "has_reconstructed",
    "possible_species",
    "has_props",
    "theoretical",
    "database_IDs"
  ]
}
