{
  "builder_meta": null,
  "nsites": null,
  "elements": null,
  "nelements": null,
  "composition": null,
  "composition_reduced": null,
  "formula_pretty": "Sc3C4",
  "formula_anonymous": "A3B4",
  "chemsys": null,
  "volume": 850.1978247658136,
  "density": 3.5724637475332033,
  "density_atomic": 12.145683210940195,
  "symmetry": null,
  "property_name": null,
  "material_id": "mp-28733",
  "deprecated": null,
  "deprecation_reasons": null,
  "last_updated": null,
  "origins": null,
  "warnings": null,
  "structure": {
    "@module": "pymatgen.core.structure",
    "@class": "Structure",
    "charge": 0,
    "lattice": {
      "matrix": [
        [7.51609489, 0.0, -0.0],
        [0.0, 7.51609489, 0.0],
        [0.0, -0.0, 15.04996468]
      ],
      "pbc": [true, true, true],
      "a": 7.51609489,
      "b": 7.51609489,
      "c": 15.04996468,
      "alpha": 90.0,
      "beta": 90.0,
      "gamma": 90.0,
      "volume": 850.1978247658136
    },
    "properties": {},
    "sites": [
      {
        "species": [{ "element": "Sc", "occu": 1 }],
        "abc": [0.787293999999999, 0.60003805, 0.64354693],
        "properties": { "magmom": 0.0 },
        "label": "Sc",
        "xyz": [5.917376410327653, 4.509942921410564, 9.685358566422432]
      },
      {
        "species": [{ "element": "Sc", "occu": 1 }],
        "abc": [0.212705999999999, 0.39996195, 0.64354693],
        "properties": { "magmom": 0.0 },
        "label": "Sc",
        "xyz": [1.5987184796723324, 3.0061519685894353, 9.685358566422432]
      },
      {
        "species": [{ "element": "Sc", "occu": 1 }],
        "abc": [0.10003805, 0.287294, 0.85645307],
        "properties": { "magmom": 0.0 },
        "label": "Sc",
        "xyz": [0.7518954764105645, 2.15932896532766, 12.889588453577568]
      },
      {
        "species": [{ "element": "Sc", "occu": 1 }],
        "abc": [0.60003805, 0.212705999999999, 0.64354693],
        "properties": { "magmom": 0.0 },
        "label": "Sc",
        "xyz": [4.509942921410564, 1.5987184796723324, 9.685358566422432]
      },
      {
        "species": [{ "element": "Sc", "occu": 1 }],
        "abc": [0.39996195, 0.787293999999999, 0.64354693],
        "properties": { "magmom": 0.0 },
        "label": "Sc",
        "xyz": [3.0061519685894353, 5.917376410327653, 9.685358566422432]
      },
      {
        "species": [{ "element": "Sc", "occu": 1 }],
        "abc": [0.712706, 0.10003805, 0.85645307],
        "properties": { "magmom": 0.0 },
        "label": "Sc",
        "xyz": [5.35676592467234, 0.7518954764105645, 12.889588453577568]
      },
      {
        "species": [{ "element": "Sc", "occu": 1 }],
        "abc": [0.287294, 0.89996195, 0.85645307],
        "properties": { "magmom": 0.0 },
        "label": "Sc",
        "xyz": [2.15932896532766, 6.764199413589435, 12.889588453577568]
      },
      {
        "species": [{ "element": "Sc", "occu": 1 }],
        "abc": [0.89996195, 0.712706, 0.85645307],
        "properties": { "magmom": 0.0 },
        "label": "Sc",
        "xyz": [6.764199413589435, 5.35676592467234, 12.889588453577568]
      },
      {
        "species": [{ "element": "Sc", "occu": 1 }],
        "abc": [0.212705999999999, 0.39996195, 0.35645307],
        "properties": { "magmom": 0.0 },
        "label": "Sc",
        "xyz": [1.5987184796723324, 3.0061519685894353, 5.364606113577567]
      },
      {
        "species": [{ "element": "Sc", "occu": 1 }],
        "abc": [0.787293999999999, 0.60003805, 0.35645307],
        "properties": { "magmom": 0.0 },
        "label": "Sc",
        "xyz": [5.917376410327653, 4.509942921410564, 5.364606113577567]
      },
      {
        "species": [{ "element": "Sc", "occu": 1 }],
        "abc": [0.89996195, 0.712706, 0.14354693],
        "properties": { "magmom": 0.0 },
        "label": "Sc",
        "xyz": [6.764199413589435, 5.35676592467234, 2.160376226422432]
      },
      {
        "species": [{ "element": "Sc", "occu": 1 }],
        "abc": [0.39996195, 0.787293999999999, 0.35645307],
        "properties": { "magmom": 0.0 },
        "label": "Sc",
        "xyz": [3.0061519685894353, 5.917376410327653, 5.364606113577567]
      },
      {
        "species": [{ "element": "Sc", "occu": 1 }],
        "abc": [0.60003805, 0.212705999999999, 0.35645307],
        "properties": { "magmom": 0.0 },
        "label": "Sc",
        "xyz": [4.509942921410564, 1.5987184796723324, 5.364606113577567]
      },
      {
        "species": [{ "element": "Sc", "occu": 1 }],
        "abc": [0.287294, 0.89996195, 0.14354693],
        "properties": { "magmom": 0.0 },
        "label": "Sc",
        "xyz": [2.15932896532766, 6.764199413589435, 2.160376226422432]
      },
      {
        "species": [{ "element": "Sc", "occu": 1 }],
        "abc": [0.712706, 0.10003805, 0.14354693],
        "properties": { "magmom": 0.0 },
        "label": "Sc",
        "xyz": [5.35676592467234, 0.7518954764105645, 2.160376226422432]
      },
      {
        "species": [{ "element": "Sc", "occu": 1 }],
        "abc": [0.10003805, 0.287294, 0.14354693],
        "properties": { "magmom": 0.0 },
        "label": "Sc",
        "xyz": [0.7518954764105645, 2.15932896532766, 2.160376226422432]
      },
      {
        "species": [{ "element": "Sc", "occu": 1 }],
        "abc": [0.30184387, 0.09686642000000001, 0.5],
        "properties": { "magmom": 0.0 },
        "label": "Sc",
        "xyz": [2.2686871688848242, 0.7280572043745939, 7.52498234]
      },
      {
        "species": [{ "element": "Sc", "occu": 1 }],
        "abc": [0.69815613, 0.90313358, 0.5],
        "properties": { "magmom": 0.0 },
        "label": "Sc",
        "xyz": [5.2474077211151755, 6.788037685625406, 7.52498234]
      },
      {
        "species": [{ "element": "Sc", "occu": 1 }],
        "abc": [0.59686642, 0.80184387, -0.0],
        "properties": { "magmom": 0.0 },
        "label": "Sc",
        "xyz": [4.486104649374593, 6.026734613884824, 0.0]
      },
      {
        "species": [{ "element": "Sc", "occu": 1 }],
        "abc": [0.09686642000000001, 0.69815613, 0.5],
        "properties": { "magmom": 0.0 },
        "label": "Sc",
        "xyz": [0.7280572043745939, 5.2474077211151755, 7.52498234]
      },
      {
        "species": [{ "element": "Sc", "occu": 1 }],
        "abc": [0.90313358, 0.30184387, 0.5],
        "properties": { "magmom": 0.0 },
        "label": "Sc",
        "xyz": [6.788037685625406, 2.2686871688848242, 7.52498234]
      },
      {
        "species": [{ "element": "Sc", "occu": 1 }],
        "abc": [0.19815613, 0.59686642, -0.0],
        "properties": { "magmom": 0.0 },
        "label": "Sc",
        "xyz": [1.4893602761151759, 4.486104649374593, 0.0]
      },
      {
        "species": [{ "element": "Sc", "occu": 1 }],
        "abc": [0.80184387, 0.40313358, -0.0],
        "properties": { "magmom": 0.0 },
        "label": "Sc",
        "xyz": [6.026734613884824, 3.029990240625406, 0.0]
      },
      {
        "species": [{ "element": "Sc", "occu": 1 }],
        "abc": [0.40313358, 0.19815613, -0.0],
        "properties": { "magmom": 0.0 },
        "label": "Sc",
        "xyz": [3.029990240625406, 1.4893602761151759, 0.0]
      },
      {
        "species": [{ "element": "Sc", "occu": 1 }],
        "abc": [0.5, 0.5, 0.81233899],
        "properties": { "magmom": 0.0 },
        "label": "Sc",
        "xyz": [3.758047445, 3.758047445, 12.225673107686873]
      },
      {
        "species": [{ "element": "Sc", "occu": 1 }],
        "abc": [-0.0, -0.0, 0.68766101],
        "properties": { "magmom": 0.0 },
        "label": "Sc",
        "xyz": [0.0, 0.0, 10.349273912313127]
      },
      {
        "species": [{ "element": "Sc", "occu": 1 }],
        "abc": [0.5, 0.5, 0.18766101000000002],
        "properties": { "magmom": 0.0 },
        "label": "Sc",
        "xyz": [3.758047445, 3.758047445, 2.824291572313127]
      },
      {
        "species": [{ "element": "Sc", "occu": 1 }],
        "abc": [-0.0, -0.0, 0.31233899],
        "properties": { "magmom": 0.0 },
        "label": "Sc",
        "xyz": [0.0, 0.0, 4.700690767686873]
      },
      {
        "species": [{ "element": "Sc", "occu": 1 }],
        "abc": [0.5, 0.5, 0.5],
        "properties": { "magmom": -0.0 },
        "label": "Sc",
        "xyz": [3.758047445, 3.758047445, 7.52498234]
      },
      {
        "species": [{ "element": "Sc", "occu": 1 }],
        "abc": [-0.0, -0.0, -0.0],
        "properties": { "magmom": -0.0 },
        "label": "Sc",
        "xyz": [0.0, 0.0, 0.0]
      },
      {
        "species": [{ "element": "C", "occu": 1 }],
        "abc": [0.35016751, 0.14983249, 0.75],
        "properties": { "magmom": 0.0 },
        "label": "C",
        "xyz": [2.631892232555024, 1.126155212444976, 11.28747351]
      },
      {
        "species": [{ "element": "C", "occu": 1 }],
        "abc": [0.85016751, 0.35016751, 0.75],
        "properties": { "magmom": 0.0 },
        "label": "C",
        "xyz": [6.389939677555024, 2.631892232555024, 11.28747351]
      },
      {
        "species": [{ "element": "C", "occu": 1 }],
        "abc": [0.14983249, 0.64983249, 0.75],
        "properties": { "magmom": 0.0 },
        "label": "C",
        "xyz": [1.126155212444976, 4.884202657444976, 11.28747351]
      },
      {
        "species": [{ "element": "C", "occu": 1 }],
        "abc": [0.64983249, 0.85016751, 0.75],
        "properties": { "magmom": 0.0 },
        "label": "C",
        "xyz": [4.884202657444976, 6.389939677555024, 11.28747351]
      },
      {
        "species": [{ "element": "C", "occu": 1 }],
        "abc": [0.64983249, 0.85016751, 0.25],
        "properties": { "magmom": 0.0 },
        "label": "C",
        "xyz": [4.884202657444976, 6.389939677555024, 3.76249117]
      },
      {
        "species": [{ "element": "C", "occu": 1 }],
        "abc": [0.14983249, 0.64983249, 0.25],
        "properties": { "magmom": 0.0 },
        "label": "C",
        "xyz": [1.126155212444976, 4.884202657444976, 3.76249117]
      },
      {
        "species": [{ "element": "C", "occu": 1 }],
        "abc": [0.85016751, 0.35016751, 0.25],
        "properties": { "magmom": 0.0 },
        "label": "C",
        "xyz": [6.389939677555024, 2.631892232555024, 3.76249117]
      },
      {
        "species": [{ "element": "C", "occu": 1 }],
        "abc": [0.35016751, 0.14983249, 0.25],
        "properties": { "magmom": 0.0 },
        "label": "C",
        "xyz": [2.631892232555024, 1.126155212444976, 3.76249117]
      },
      {
        "species": [{ "element": "C", "occu": 1 }],
        "abc": [0.6930790800000001, 0.90274533, 0.66789616],
        "properties": { "magmom": -0.0 },
        "label": "C",
        "xyz": [5.209248131553902, 6.785119561784364, 10.051813617907628]
      },
      {
        "species": [{ "element": "C", "occu": 1 }],
        "abc": [0.30692092, 0.09725467, 0.66789616],
        "properties": { "magmom": -0.0 },
        "label": "C",
        "xyz": [2.3068467584460985, 0.7309753282156363, 10.051813617907628]
      },
      {
        "species": [{ "element": "C", "occu": 1 }],
        "abc": [0.40274533, 0.19307908000000001, 0.83210384],
        "properties": { "magmom": -0.0 },
        "label": "C",
        "xyz": [3.0270721167843635, 1.4512006865539013, 12.523133402092371]
      },
      {
        "species": [{ "element": "C", "occu": 1 }],
        "abc": [0.90274533, 0.30692092, 0.66789616],
        "properties": { "magmom": -0.0 },
        "label": "C",
        "xyz": [6.785119561784364, 2.3068467584460985, 10.051813617907628]
      },
      {
        "species": [{ "element": "C", "occu": 1 }],
        "abc": [0.09725467, 0.6930790800000001, 0.66789616],
        "properties": { "magmom": -0.0 },
        "label": "C",
        "xyz": [0.7309753282156363, 5.209248131553902, 10.051813617907628]
      },
      {
        "species": [{ "element": "C", "occu": 1 }],
        "abc": [0.80692092, 0.40274533, 0.83210384],
        "properties": { "magmom": -0.0 },
        "label": "C",
        "xyz": [6.064894203446099, 3.0270721167843635, 12.523133402092371]
      },
      {
        "species": [{ "element": "C", "occu": 1 }],
        "abc": [0.19307908000000001, 0.59725467, 0.83210384],
        "properties": { "magmom": -0.0 },
        "label": "C",
        "xyz": [1.4512006865539013, 4.489022773215636, 12.523133402092371]
      },
      {
        "species": [{ "element": "C", "occu": 1 }],
        "abc": [0.59725467, 0.80692092, 0.83210384],
        "properties": { "magmom": -0.0 },
        "label": "C",
        "xyz": [4.489022773215636, 6.064894203446099, 12.523133402092371]
      },
      {
        "species": [{ "element": "C", "occu": 1 }],
        "abc": [0.30692092, 0.09725467, 0.33210384],
        "properties": { "magmom": -0.0 },
        "label": "C",
        "xyz": [2.3068467584460985, 0.7309753282156363, 4.998151062092371]
      },
      {
        "species": [{ "element": "C", "occu": 1 }],
        "abc": [0.6930790800000001, 0.90274533, 0.33210384],
        "properties": { "magmom": -0.0 },
        "label": "C",
        "xyz": [5.209248131553902, 6.785119561784364, 4.998151062092371]
      },
      {
        "species": [{ "element": "C", "occu": 1 }],
        "abc": [0.59725467, 0.80692092, 0.16789616000000002],
        "properties": { "magmom": -0.0 },
        "label": "C",
        "xyz": [4.489022773215636, 6.064894203446099, 2.526831277907629]
      },
      {
        "species": [{ "element": "C", "occu": 1 }],
        "abc": [0.09725467, 0.6930790800000001, 0.33210384],
        "properties": { "magmom": -0.0 },
        "label": "C",
        "xyz": [0.7309753282156363, 5.209248131553902, 4.998151062092371]
      },
      {
        "species": [{ "element": "C", "occu": 1 }],
        "abc": [0.90274533, 0.30692092, 0.33210384],
        "properties": { "magmom": -0.0 },
        "label": "C",
        "xyz": [6.785119561784364, 2.3068467584460985, 4.998151062092371]
      },
      {
        "species": [{ "element": "C", "occu": 1 }],
        "abc": [0.19307908000000001, 0.59725467, 0.16789616000000002],
        "properties": { "magmom": -0.0 },
        "label": "C",
        "xyz": [1.4512006865539013, 4.489022773215636, 2.526831277907629]
      },
      {
        "species": [{ "element": "C", "occu": 1 }],
        "abc": [0.80692092, 0.40274533, 0.16789616000000002],
        "properties": { "magmom": -0.0 },
        "label": "C",
        "xyz": [6.064894203446099, 3.0270721167843635, 2.526831277907629]
      },
      {
        "species": [{ "element": "C", "occu": 1 }],
        "abc": [0.40274533, 0.19307908000000001, 0.16789616000000002],
        "properties": { "magmom": -0.0 },
        "label": "C",
        "xyz": [3.0270721167843635, 1.4512006865539013, 2.526831277907629]
      },
      {
        "species": [{ "element": "C", "occu": 1 }],
        "abc": [0.39365696, 0.80331242, 0.5],
        "properties": { "magmom": 0.0 },
        "label": "C",
        "xyz": [2.958763065468934, 6.037772375035534, 7.52498234]
      },
      {
        "species": [{ "element": "C", "occu": 1 }],
        "abc": [0.60634304, 0.19668758, 0.5],
        "properties": { "magmom": 0.0 },
        "label": "C",
        "xyz": [4.557331824531066, 1.478322514964466, 7.52498234]
      },
      {
        "species": [{ "element": "C", "occu": 1 }],
        "abc": [0.30331242, 0.8936569600000001, -0.0],
        "properties": { "magmom": 0.0 },
        "label": "C",
        "xyz": [2.279724930035534, 6.716810510468934, 0.0]
      },
      {
        "species": [{ "element": "C", "occu": 1 }],
        "abc": [0.80331242, 0.60634304, 0.5],
        "properties": { "magmom": 0.0 },
        "label": "C",
        "xyz": [6.037772375035534, 4.557331824531066, 7.52498234]
      },
      {
        "species": [{ "element": "C", "occu": 1 }],
        "abc": [0.19668758, 0.39365696, 0.5],
        "properties": { "magmom": 0.0 },
        "label": "C",
        "xyz": [1.478322514964466, 2.958763065468934, 7.52498234]
      },
      {
        "species": [{ "element": "C", "occu": 1 }],
        "abc": [0.10634304, 0.30331242, -0.0],
        "properties": { "magmom": 0.0 },
        "label": "C",
        "xyz": [0.7992843795310656, 2.279724930035534, 0.0]
      },
      {
        "species": [{ "element": "C", "occu": 1 }],
        "abc": [-0.0, -0.0, 0.5426379],
        "properties": { "magmom": -0.0 },
        "label": "C",
        "xyz": [0.0, 0.0, 8.166681229029372]
      },
      {
        "species": [{ "element": "C", "occu": 1 }],
        "abc": [0.5, 0.5, 0.9573621],
        "properties": { "magmom": -0.0 },
        "label": "C",
        "xyz": [3.758047445, 3.758047445, 14.408265790970628]
      },
      {
        "species": [{ "element": "C", "occu": 1 }],
        "abc": [-0.0, -0.0, 0.4573621],
        "properties": { "magmom": -0.0 },
        "label": "C",
        "xyz": [0.0, 0.0, 6.883283450970628]
      },
      {
        "species": [{ "element": "C", "occu": 1 }],
        "abc": [0.5, 0.5, 0.0426379],
        "properties": { "magmom": -0.0 },
        "label": "C",
        "xyz": [3.758047445, 3.758047445, 0.641698889029372]
      },
      {
        "species": [{ "element": "C", "occu": 1 }],
        "abc": [-0.0, -0.0, 0.15697335],
        "properties": { "magmom": -0.0 },
        "label": "C",
        "xyz": [0.0, 0.0, 2.362443373201278]
      },
      {
        "species": [{ "element": "C", "occu": 1 }],
        "abc": [0.5, 0.5, 0.34302665],
        "properties": { "magmom": -0.0 },
        "label": "C",
        "xyz": [3.758047445, 3.758047445, 5.162538966798722]
      },
      {
        "species": [{ "element": "C", "occu": 1 }],
        "abc": [-0.0, -0.0, 0.84302665],
        "properties": { "magmom": -0.0 },
        "label": "C",
        "xyz": [0.0, 0.0, 12.687521306798722]
      },
      {
        "species": [{ "element": "C", "occu": 1 }],
        "abc": [0.5, 0.5, 0.65697335],
        "properties": { "magmom": -0.0 },
        "label": "C",
        "xyz": [3.758047445, 3.758047445, 9.887425713201278]
      },
      {
        "species": [{ "element": "C", "occu": 1 }],
        "abc": [0.69668758, 0.10634304, -0.0],
        "properties": { "magmom": 0.0 },
        "label": "C",
        "xyz": [5.236369959964466, 0.7992843795310656, 0.0]
      },
      {
        "species": [{ "element": "C", "occu": 1 }],
        "abc": [0.8936569600000001, 0.69668758, -0.0],
        "properties": { "magmom": 0.0 },
        "label": "C",
        "xyz": [6.716810510468934, 5.236369959964466, 0.0]
      }
    ]
  },
  "task_ids": null,
  "uncorrected_energy_per_atom": null,
  "energy_per_atom": -8.395166080714288,
  "formation_energy_per_atom": -0.40772761142857306,
  "energy_above_hull": 0.0,
  "is_stable": true,
  "equilibrium_reaction_energy_per_atom": null,
  "decomposes_to": null,
  "xas": null,
  "grain_boundaries": null,
  "band_gap": 0.0,
  "cbm": null,
  "vbm": null,
  "efermi": 5.44302972,
  "is_gap_direct": null,
  "is_metal": null,
  "es_source_calc_id": null,
  "bandstructure": null,
  "dos": null,
  "dos_energy_up": null,
  "dos_energy_down": null,
  "is_magnetic": null,
  "ordering": null,
  "total_magnetization": 0.0,
  "total_magnetization_normalized_vol": null,
  "total_magnetization_normalized_formula_units": null,
  "num_magnetic_sites": null,
  "num_unique_magnetic_sites": null,
  "types_of_magnetic_species": null,
  "bulk_modulus": null,
  "shear_modulus": null,
  "universal_anisotropy": null,
  "homogeneous_poisson": null,
  "e_total": null,
  "e_ionic": null,
  "e_electronic": null,
  "n": null,
  "e_ij_max": null,
  "weighted_surface_energy_EV_PER_ANG2": null,
  "weighted_surface_energy": null,
  "weighted_work_function": null,
  "surface_anisotropy": null,
  "shape_factor": null,
  "has_reconstructed": null,
  "possible_species": null,
  "has_props": null,
  "theoretical": null,
  "database_IDs": null,
  "fields_not_requested": [
    "builder_meta",
    "nsites",
    "elements",
    "nelements",
    "composition",
    "composition_reduced",
    "chemsys",
    "symmetry",
    "property_name",
    "deprecated",
    "deprecation_reasons",
    "last_updated",
    "origins",
    "warnings",
    "task_ids",
    "uncorrected_energy_per_atom",
    "equilibrium_reaction_energy_per_atom",
    "decomposes_to",
    "xas",
    "grain_boundaries",
    "cbm",
    "vbm",
    "is_gap_direct",
    "is_metal",
    "es_source_calc_id",
    "bandstructure",
    "dos",
    "dos_energy_up",
    "dos_energy_down",
    "is_magnetic",
    "ordering",
    "total_magnetization_normalized_vol",
    "total_magnetization_normalized_formula_units",
    "num_magnetic_sites",
    "num_unique_magnetic_sites",
    "types_of_magnetic_species",
    "bulk_modulus",
    "shear_modulus",
    "universal_anisotropy",
    "homogeneous_poisson",
    "e_total",
    "e_ionic",
    "e_electronic",
    "n",
    "e_ij_max",
    "weighted_surface_energy_EV_PER_ANG2",
    "weighted_surface_energy",
    "weighted_work_function",
    "surface_anisotropy",
    "shape_factor",
    "has_reconstructed",
    "possible_species",
    "has_props",
    "theoretical",
    "database_IDs"
  ]
}
