{"builder_meta": null, "nsites": null, "elements": null, "nelements": null, "composition": null, "composition_reduced": null, "formula_pretty": "Sc3Co", "formula_anonymous": "AB3", "chemsys": null, "volume": 649.7478098057832, "density": 3.9623252247993843, "density_atomic": 20.304619056430724, "symmetry": null, "property_name": null, "material_id": "mp-27162", "deprecated": null, "deprecation_reasons": null, "last_updated": null, "origins": null, "warnings": null, "structure": {"@module": "pymatgen.core.structure", "@class": "Structure", "charge": 0, "lattice": {"matrix": [[5.84431629, -0.0, 0.0], [-0.0, 8.55945622, 0.0], [0.0, 0.0, 12.98867762]], "pbc": [true, true, true], "a": 5.84431629, "b": 8.55945622, "c": 12.98867762, "alpha": 90.0, "beta": 90.0, "gamma": 90.0, "volume": 649.7478098057832}, "properties": {}, "sites": [{"species": [{"element": "Sc", "occu": 1}], "abc": [0.55031934, 0.75, 0.64570602], "properties": {"magmom": 0.005}, "label": "Sc", "xyz": [3.216240283464049, 6.419592164999999, 8.386867331073272]}, {"species": [{"element": "Sc", "occu": 1}], "abc": [0.050319340000000004, 0.25, 0.85429398], "properties": {"magmom": 0.005}, "label": "Sc", "xyz": [0.2940821384640486, 2.139864055, 11.096149098926729]}, {"species": [{"element": "Sc", "occu": 1}], "abc": [0.44968066, 0.25, 0.35429398], "properties": {"magmom": 0.005}, "label": "Sc", "xyz": [2.6280760065359514, 2.139864055, 4.601810288926728]}, {"species": [{"element": "Sc", "occu": 1}], "abc": [0.9496806600000001, 0.75, 0.14570602], "properties": {"magmom": 0.005}, "label": "Sc", "xyz": [5.5502341515359515, 6.419592164999999, 1.8925285210732723]}, {"species": [{"element": "Sc", "occu": 1}], "abc": [0.78890565, 0.75, 0.8929856700000001], "properties": {"magmom": 0.067}, "label": "Sc", "xyz": [4.610614141568039, 6.419592164999999, 11.598702986909707]}, {"species": [{"element": "Sc", "occu": 1}], "abc": [0.28890565, 0.25, 0.60701433], "properties": {"magmom": 0.067}, "label": "Sc", "xyz": [1.6884559965680386, 2.139864055, 7.884313443090296]}, {"species": [{"element": "Sc", "occu": 1}], "abc": [0.21109435000000001, 0.25, 0.10701433], "properties": {"magmom": 0.067}, "label": "Sc", "xyz": [1.2337021484319617, 2.139864055, 1.3899746330902947]}, {"species": [{"element": "Sc", "occu": 1}], "abc": [0.71109435, 0.75, 0.39298567], "properties": {"magmom": 0.067}, "label": "Sc", "xyz": [4.155860293431961, 6.419592164999999, 5.104364176909706]}, {"species": [{"element": "Sc", "occu": 1}], "abc": [0.4026259, 0.93214474, 0.21228178], "properties": {"magmom": 0.033}, "label": "Sc", "xyz": [2.353073106145911, 7.978652092733283, 2.757259605019764]}, {"species": [{"element": "Sc", "occu": 1}], "abc": [0.9026259, 0.06785526, 0.28771822], "properties": {"magmom": 0.033}, "label": "Sc", "xyz": [5.275231251145911, 0.5808041272667172, 3.737079204980237]}, {"species": [{"element": "Sc", "occu": 1}], "abc": [0.5973741, 0.43214474, 0.78771822], "properties": {"magmom": 0.033}, "label": "Sc", "xyz": [3.491243183854089, 3.698923982733283, 10.231418014980237]}, {"species": [{"element": "Sc", "occu": 1}], "abc": [0.097374099999999, 0.56785526, 0.71228178], "properties": {"magmom": 0.033}, "label": "Sc", "xyz": [0.5690850388540832, 4.860532237266717, 9.251598415019764]}, {"species": [{"element": "Sc", "occu": 1}], "abc": [0.5973741, 0.06785526, 0.78771822], "properties": {"magmom": 0.033}, "label": "Sc", "xyz": [3.491243183854089, 0.5808041272667172, 10.231418014980237]}, {"species": [{"element": "Sc", "occu": 1}], "abc": [0.097374099999999, 0.93214474, 0.71228178], "properties": {"magmom": 0.033}, "label": "Sc", "xyz": [0.5690850388540832, 7.978652092733283, 9.251598415019764]}, {"species": [{"element": "Sc", "occu": 1}], "abc": [0.4026259, 0.56785526, 0.21228178], "properties": {"magmom": 0.033}, "label": "Sc", "xyz": [2.353073106145911, 4.860532237266717, 2.757259605019764]}, {"species": [{"element": "Sc", "occu": 1}], "abc": [0.9026259, 0.43214474, 0.28771822], "properties": {"magmom": 0.033}, "label": "Sc", "xyz": [5.275231251145911, 3.698923982733283, 3.737079204980237]}, {"species": [{"element": "Sc", "occu": 1}], "abc": [0.24364203, 0.9346715, 0.463623499999999], "properties": {"magmom": 0.014}, "label": "Sc", "xyz": [1.4239210848576689, 8.00027978433173, 6.021856178556058]}, {"species": [{"element": "Sc", "occu": 1}], "abc": [0.7436420300000001, 0.0653285, 0.0363765], "properties": {"magmom": 0.014}, "label": "Sc", "xyz": [4.346079229857669, 0.5591764356682699, 0.47248263144393]}, {"species": [{"element": "Sc", "occu": 1}], "abc": [0.75635797, 0.4346715, 0.536376499999999], "properties": {"magmom": 0.014}, "label": "Sc", "xyz": [4.420395205142332, 3.7205516743317295, 6.966821441443918]}, {"species": [{"element": "Sc", "occu": 1}], "abc": [0.25635797, 0.5653285, 0.9636235], "properties": {"magmom": 0.014}, "label": "Sc", "xyz": [1.4982370601423312, 4.83890454566827, 12.51619498855607]}, {"species": [{"element": "Sc", "occu": 1}], "abc": [0.75635797, 0.0653285, 0.536376499999999], "properties": {"magmom": 0.014}, "label": "Sc", "xyz": [4.420395205142332, 0.5591764356682699, 6.966821441443918]}, {"species": [{"element": "Sc", "occu": 1}], "abc": [0.25635797, 0.9346715, 0.9636235], "properties": {"magmom": 0.014}, "label": "Sc", "xyz": [1.4982370601423312, 8.00027978433173, 12.51619498855607]}, {"species": [{"element": "Sc", "occu": 1}], "abc": [0.24364203, 0.5653285, 0.463623499999999], "properties": {"magmom": 0.014}, "label": "Sc", "xyz": [1.4239210848576689, 4.83890454566827, 6.021856178556058]}, {"species": [{"element": "Sc", "occu": 1}], "abc": [0.7436420300000001, 0.4346715, 0.0363765], "properties": {"magmom": 0.014}, "label": "Sc", "xyz": [4.346079229857669, 3.7205516743317295, 0.47248263144393]}, {"species": [{"element": "Co", "occu": 1}], "abc": [0.94766487, 0.75, 0.55975651], "properties": {"magmom": 0.513}, "label": "Co", "xyz": [5.5384532372017325, 6.419592164999999, 7.270496854086307]}, {"species": [{"element": "Co", "occu": 1}], "abc": [0.44766487, 0.25, 0.9402434900000001], "properties": {"magmom": 0.513}, "label": "Co", "xyz": [2.6162950922017325, 2.139864055, 12.212519575913696]}, {"species": [{"element": "Co", "occu": 1}], "abc": [0.05233513, 0.25, 0.44024349], "properties": {"magmom": 0.513}, "label": "Co", "xyz": [0.3058630527982677, 2.139864055, 5.7181807659136945]}, {"species": [{"element": "Co", "occu": 1}], "abc": [0.55233513, 0.75, 0.05975651], "properties": {"magmom": 0.513}, "label": "Co", "xyz": [3.2280211977982676, 6.419592164999999, 0.7761580440863062]}, {"species": [{"element": "Co", "occu": 1}], "abc": [0.38078314, 0.75, 0.819454], "properties": {"magmom": -0.281}, "label": "Co", "xyz": [2.2254171080593506, 6.419592164999999, 10.64362383041948]}, {"species": [{"element": "Co", "occu": 1}], "abc": [0.88078314, 0.25, 0.680546], "properties": {"magmom": -0.281}, "label": "Co", "xyz": [5.147575253059351, 2.139864055, 8.83939259958052]}, {"species": [{"element": "Co", "occu": 1}], "abc": [0.61921686, 0.25, 0.180545999999999], "properties": {"magmom": -0.281}, "label": "Co", "xyz": [3.6188991819406495, 2.139864055, 2.3450537895805073]}, {"species": [{"element": "Co", "occu": 1}], "abc": [0.11921686000000001, 0.75, 0.319453999999999], "properties": {"magmom": -0.281}, "label": "Co", "xyz": [0.6967410369406495, 6.419592164999999, 4.149285020419468]}]}, "task_ids": null, "uncorrected_energy_per_atom": null, "energy_per_atom": -11.97686445, "formation_energy_per_atom": -0.11944115125000102, "energy_above_hull": 0.026186492499999003, "is_stable": false, "equilibrium_reaction_energy_per_atom": null, "decomposes_to": null, "xas": null, "grain_boundaries": null, "band_gap": 0.0, "cbm": null, "vbm": null, "efermi": 4.20938494, "is_gap_direct": null, "is_metal": null, "es_source_calc_id": null, "bandstructure": null, "dos": null, "dos_energy_up": null, "dos_energy_down": null, "is_magnetic": null, "ordering": null, "total_magnetization": 2.2419525, "total_magnetization_normalized_vol": null, "total_magnetization_normalized_formula_units": null, "num_magnetic_sites": null, "num_unique_magnetic_sites": null, "types_of_magnetic_species": null, "bulk_modulus": null, "shear_modulus": null, "universal_anisotropy": null, "homogeneous_poisson": null, "e_total": null, "e_ionic": null, "e_electronic": null, "n": null, "e_ij_max": null, "weighted_surface_energy_EV_PER_ANG2": null, "weighted_surface_energy": null, "weighted_work_function": null, "surface_anisotropy": null, "shape_factor": null, "has_reconstructed": null, "possible_species": null, "has_props": null, "theoretical": null, "database_IDs": null, "fields_not_requested": ["builder_meta", "nsites", "elements", "nelements", "composition", "composition_reduced", "chemsys", "symmetry", "property_name", "deprecated", "deprecation_reasons", "last_updated", "origins", "warnings", "task_ids", "uncorrected_energy_per_atom", "equilibrium_reaction_energy_per_atom", "decomposes_to", "xas", "grain_boundaries", "cbm", "vbm", "is_gap_direct", "is_metal", "es_source_calc_id", "bandstructure", "dos", "dos_energy_up", "dos_energy_down", "is_magnetic", "ordering", "total_magnetization_normalized_vol", "total_magnetization_normalized_formula_units", "num_magnetic_sites", "num_unique_magnetic_sites", "types_of_magnetic_species", "bulk_modulus", "shear_modulus", "universal_anisotropy", "homogeneous_poisson", "e_total", "e_ionic", "e_electronic", "n", "e_ij_max", "weighted_surface_energy_EV_PER_ANG2", "weighted_surface_energy", "weighted_work_function", "surface_anisotropy", "shape_factor", "has_reconstructed", "possible_species", "has_props", "theoretical", "database_IDs"]}