{
  "builder_meta": null,
  "nsites": null,
  "elements": null,
  "nelements": null,
  "composition": null,
  "composition_reduced": null,
  "formula_pretty": "Sc3Cd",
  "formula_anonymous": "AB3",
  "chemsys": null,
  "volume": 184.55060958905298,
  "density": 4.449901329308037,
  "density_atomic": 23.068826198631623,
  "symmetry": null,
  "property_name": null,
  "material_id": "mp-972876",
  "deprecated": null,
  "deprecation_reasons": null,
  "last_updated": null,
  "origins": null,
  "warnings": null,
  "structure": {
    "@module": "pymatgen.core.structure",
    "@class": "Structure",
    "charge": 0,
    "lattice": {
      "matrix": [
        [6.38224749, 0.00010509, 0.0],
        [-3.19103641, 5.52648276, 0.0],
        [0.0, 0.0, 5.23225491]
      ],
      "pbc": [true, true, true],
      "a": 6.382247490865205,
      "b": 6.381592674757839,
      "c": 5.23225491,
      "alpha": 90.0,
      "beta": 90.0,
      "gamma": 120.00154548883783,
      "volume": 184.55060958905298
    },
    "properties": {},
    "sites": [
      {
        "species": [{ "element": "Sc", "occu": 1 }],
        "abc": [0.16968696, 0.33935199, 0.249999],
        "properties": { "magmom": 0.228 },
        "label": "Sc",
        "xyz": [9.9618649774591e-5, 1.8754407547093188, 1.30805849524509]
      },
      {
        "species": [{ "element": "Sc", "occu": 1 }],
        "abc": [0.66030058, 0.83007321, 0.249999],
        "properties": { "magmom": 0.227 },
        "label": "Sc",
        "xyz": [1.5654078832749683, 4.587454675590812, 1.30805849524509]
      },
      {
        "species": [{ "element": "Sc", "occu": 1 }],
        "abc": [0.1695961, 0.83013815, 0.249999],
        "properties": { "magmom": 0.228 },
        "label": "Sc",
        "xyz": [-1.5665967784412527, 4.587761997247443, 1.30805849524509]
      },
      {
        "species": [{ "element": "Sc", "occu": 1 }],
        "abc": [0.83035758, 0.66067957, 0.75],
        "properties": { "magmom": 0.228 },
        "label": "Sc",
        "xyz": [3.1912950175443306, 3.6513215157672954, 3.9241911825]
      },
      {
        "species": [{ "element": "Sc", "occu": 1 }],
        "abc": [0.33958488000000003, 0.16988096, 0.75],
        "properties": { "magmom": 0.228 },
        "label": "Sc",
        "xyz": [1.625218419296198, 0.9388798836672888, 3.9241911825]
      },
      {
        "species": [{ "element": "Sc", "occu": 1 }],
        "abc": [0.8303309600000001, 0.16991859, 0.75],
        "properties": { "magmom": 0.227 },
        "label": "Sc",
        "xyz": [4.757161277903429, 0.9391394177190949, 3.9241911825]
      },
      {
        "species": [{ "element": "Cd", "occu": 1 }],
        "abc": [0.33338722, 0.66667831, 0.75],
        "properties": { "magmom": -0.025 },
        "label": "Cd",
        "xyz": [0.00036498707581067436, 3.684421222343886, 3.9241911825]
      },
      {
        "species": [{ "element": "Cd", "occu": 1 }],
        "abc": [0.66675573, 0.33328022, 0.249999],
        "properties": { "magmom": -0.025 },
        "label": "Cd",
        "xyz": [3.191890767482807, 1.8419374594386733, 1.30805849524509]
      }
    ]
  },
  "task_ids": null,
  "uncorrected_energy_per_atom": null,
  "energy_per_atom": -13.73148012,
  "formation_energy_per_atom": -0.156367681249999,
  "energy_above_hull": 0.005746059999999001,
  "is_stable": false,
  "equilibrium_reaction_energy_per_atom": null,
  "decomposes_to": null,
  "xas": null,
  "grain_boundaries": null,
  "band_gap": 0.0,
  "cbm": null,
  "vbm": null,
  "efermi": 3.63698665,
  "is_gap_direct": null,
  "is_metal": null,
  "es_source_calc_id": null,
  "bandstructure": null,
  "dos": null,
  "dos_energy_up": null,
  "dos_energy_down": null,
  "is_magnetic": null,
  "ordering": null,
  "total_magnetization": 1.865894599999999,
  "total_magnetization_normalized_vol": null,
  "total_magnetization_normalized_formula_units": null,
  "num_magnetic_sites": null,
  "num_unique_magnetic_sites": null,
  "types_of_magnetic_species": null,
  "bulk_modulus": null,
  "shear_modulus": null,
  "universal_anisotropy": null,
  "homogeneous_poisson": null,
  "e_total": null,
  "e_ionic": null,
  "e_electronic": null,
  "n": null,
  "e_ij_max": null,
  "weighted_surface_energy_EV_PER_ANG2": null,
  "weighted_surface_energy": null,
  "weighted_work_function": null,
  "surface_anisotropy": null,
  "shape_factor": null,
  "has_reconstructed": null,
  "possible_species": null,
  "has_props": null,
  "theoretical": null,
  "database_IDs": null,
  "fields_not_requested": [
    "builder_meta",
    "nsites",
    "elements",
    "nelements",
    "composition",
    "composition_reduced",
    "chemsys",
    "symmetry",
    "property_name",
    "deprecated",
    "deprecation_reasons",
    "last_updated",
    "origins",
    "warnings",
    "task_ids",
    "uncorrected_energy_per_atom",
    "equilibrium_reaction_energy_per_atom",
    "decomposes_to",
    "xas",
    "grain_boundaries",
    "cbm",
    "vbm",
    "is_gap_direct",
    "is_metal",
    "es_source_calc_id",
    "bandstructure",
    "dos",
    "dos_energy_up",
    "dos_energy_down",
    "is_magnetic",
    "ordering",
    "total_magnetization_normalized_vol",
    "total_magnetization_normalized_formula_units",
    "num_magnetic_sites",
    "num_unique_magnetic_sites",
    "types_of_magnetic_species",
    "bulk_modulus",
    "shear_modulus",
    "universal_anisotropy",
    "homogeneous_poisson",
    "e_total",
    "e_ionic",
    "e_electronic",
    "n",
    "e_ij_max",
    "weighted_surface_energy_EV_PER_ANG2",
    "weighted_surface_energy",
    "weighted_work_function",
    "surface_anisotropy",
    "shape_factor",
    "has_reconstructed",
    "possible_species",
    "has_props",
    "theoretical",
    "database_IDs"
  ]
}
