{
  "builder_meta": null,
  "nsites": null,
  "elements": null,
  "nelements": null,
  "composition": null,
  "composition_reduced": null,
  "formula_pretty": "Sc3Ga5",
  "formula_anonymous": "A3B5",
  "chemsys": null,
  "volume": 578.537604608658,
  "density": 5.55083690158895,
  "density_atomic": 18.07930014402056,
  "symmetry": null,
  "property_name": null,
  "material_id": "mp-1200767",
  "deprecated": null,
  "deprecation_reasons": null,
  "last_updated": null,
  "origins": null,
  "warnings": null,
  "structure": {
    "@module": "pymatgen.core.structure",
    "@class": "Structure",
    "charge": 0,
    "lattice": {
      "matrix": [
        [-2.308e-5, 0.0, -5.72309481],
        [0.0, -9.20669413, 0.0],
        [-10.97986341, 0.0, -4.071e-5]
      ],
      "pbc": [true, true, true],
      "a": 5.723094810046539,
      "b": 9.20669413,
      "c": 10.97986341007547,
      "alpha": 90.0,
      "beta": 89.99955650319374,
      "gamma": 90.0,
      "volume": 578.537604608658
    },
    "properties": {},
    "sites": [
      {
        "species": [{ "element": "Sc", "occu": 1 }],
        "abc": [0.65119368, 0.75, 0.43129677],
        "properties": { "magmom": -0.0 },
        "label": "Sc",
        "xyz": [-4.73559465332432, -6.9050205975, -3.7268607284043074]
      },
      {
        "species": [{ "element": "Sc", "occu": 1 }],
        "abc": [0.84881456, 0.75, 0.93129222],
        "properties": { "magmom": -0.0 },
        "label": "Sc",
        "xyz": [-10.225480961035716, -6.9050205975, -4.85788411589471]
      },
      {
        "species": [{ "element": "Sc", "occu": 1 }],
        "abc": [0.34880732000000003, 0.25, 0.56870323],
        "properties": { "magmom": -0.0 },
        "label": "Sc",
        "xyz": [-6.24429183669876, -2.3016735325, -1.9962805146905027]
      },
      {
        "species": [{ "element": "Sc", "occu": 1 }],
        "abc": [0.15118544, 0.25, 0.06870678],
        "properties": { "magmom": -0.0 },
        "label": "Sc",
        "xyz": [-0.754394549100875, -2.3016735325, -0.8652514040645802]
      },
      {
        "species": [{ "element": "Sc", "occu": 1 }],
        "abc": [0.60830564, 0.99454891, 0.14652512],
        "properties": { "magmom": 0.0 },
        "label": "Sc",
        "xyz": [-1.6088398434280307, -9.156507611694899, -3.481396816215364]
      },
      {
        "species": [{ "element": "Sc", "occu": 1 }],
        "abc": [0.8916645400000001, 0.50545421, 0.64650498],
        "properties": { "magmom": 0.0 },
        "label": "Sc",
        "xyz": [-7.098556953902365, -4.6535623081907875, -5.103107020352773]
      },
      {
        "species": [{ "element": "Sc", "occu": 1 }],
        "abc": [0.39169236, 0.49454891, 0.85347488],
        "properties": { "magmom": 0.0 },
        "label": "Sc",
        "xyz": [-9.371046646525809, -4.553160546694898, -2.241727257595017]
      },
      {
        "species": [{ "element": "Sc", "occu": 1 }],
        "abc": [0.10833446000000001, 0.00545421, 0.35349302],
        "properties": { "magmom": 0.0 },
        "label": "Sc",
        "xyz": [-3.881307576347735, -0.0502152431907873, -0.6200227764709968]
      },
      {
        "species": [{ "element": "Sc", "occu": 1 }],
        "abc": [0.39169236, 0.0054510900000000004, 0.85347488],
        "properties": { "magmom": 0.0 },
        "label": "Sc",
        "xyz": [-9.371046646525809, -0.05018651830510171, -2.241727257595017]
      },
      {
        "species": [{ "element": "Sc", "occu": 1 }],
        "abc": [0.10833446000000001, 0.49454579, 0.35349302],
        "properties": { "magmom": 0.0 },
        "label": "Sc",
        "xyz": [-3.881307576347735, -4.553131821809213, -0.6200227764709968]
      },
      {
        "species": [{ "element": "Sc", "occu": 1 }],
        "abc": [0.60830564, 0.50545109, 0.14652512],
        "properties": { "magmom": 0.0 },
        "label": "Sc",
        "xyz": [-1.6088398434280307, -4.653533583305102, -3.481396816215364]
      },
      {
        "species": [{ "element": "Sc", "occu": 1 }],
        "abc": [0.8916645400000001, 0.99454579, 0.64650598],
        "properties": { "magmom": 0.0 },
        "label": "Sc",
        "xyz": [-7.098567933765776, -9.156478886809213, -5.103107020393483]
      },
      {
        "species": [{ "element": "Ga", "occu": 1 }],
        "abc": [0.62305435, 0.44937252, 0.40600437],
        "properties": { "magmom": 0.0 },
        "label": "Ga",
        "xyz": [-4.4578869065574995, -4.137235342067308, -3.5658156452708263]
      },
      {
        "species": [{ "element": "Ga", "occu": 1 }],
        "abc": [0.87695292, 0.0506232, 0.90600243],
        "properties": { "magmom": 0.0 },
        "label": "Ga",
        "xyz": [-9.94780317060148, -0.46607231828181606, -5.018921588425271]
      },
      {
        "species": [{ "element": "Ga", "occu": 1 }],
        "abc": [0.37694665, 0.94937152, 0.59399863],
        "properties": { "magmom": 0.0 },
        "label": "Ga",
        "xyz": [-6.5220325230558105, -8.740573200373179, -2.157325597946114]
      },
      {
        "species": [{ "element": "Ga", "occu": 1 }],
        "abc": [0.12304508, 0.5506242, 0.09399357],
        "properties": { "magmom": 0.0 },
        "label": "Ga",
        "xyz": [-1.03203939989872, -5.069428589975947, -0.7042024852222696]
      },
      {
        "species": [{ "element": "Ga", "occu": 1 }],
        "abc": [0.37694765, 0.55062848, 0.59399863],
        "properties": { "magmom": 0.0 },
        "label": "Ga",
        "xyz": [-6.52203252307889, -5.069467994626822, -2.157331321040924]
      },
      {
        "species": [{ "element": "Ga", "occu": 1 }],
        "abc": [0.12304508, 0.9493758, 0.09399457],
        "properties": { "magmom": 0.0 },
        "label": "Ga",
        "xyz": [-1.03205037976213, -8.740612605024054, -0.7042024852629796]
      },
      {
        "species": [{ "element": "Ga", "occu": 1 }],
        "abc": [0.62305435, 0.050628480000000003, 0.40600537000000003],
        "properties": { "magmom": 0.0 },
        "label": "Ga",
        "xyz": [-4.45789788642091, -0.46612092962682244, -3.5658156453115364]
      },
      {
        "species": [{ "element": "Ga", "occu": 1 }],
        "abc": [0.87695292, 0.449376799999999, 0.90600243],
        "properties": { "magmom": 0.0 },
        "label": "Ga",
        "xyz": [-9.94780317060148, -4.137274746718175, -5.018921588425271]
      },
      {
        "species": [{ "element": "Ga", "occu": 1 }],
        "abc": [0.33854049, 0.75, 0.24938299],
        "properties": { "magmom": 0.0 },
        "label": "Ga",
        "xyz": [-2.738198980491905, -6.9050205975, -1.93750947367538]
      },
      {
        "species": [{ "element": "Ga", "occu": 1 }],
        "abc": [0.16144878000000001, 0.75, 0.74937549],
        "properties": { "magmom": -0.0 },
        "label": "Ga",
        "xyz": [-8.228044249239664, -6.9050205975, -0.9240171819750298]
      },
      {
        "species": [{ "element": "Ga", "occu": 1 }],
        "abc": [0.66145851, 0.25, 0.75061701],
        "properties": { "magmom": 0.0 },
        "label": "Ga",
        "xyz": [-8.241687509485015, -2.3016735325, -3.7856203232298102]
      },
      {
        "species": [{ "element": "Ga", "occu": 1 }],
        "abc": [0.83855022, 0.25, 0.25062451],
        "properties": { "magmom": -0.0 },
        "label": "Ga",
        "xyz": [-2.751842240737257, -2.3016735325, -4.79911261493016]
      },
      {
        "species": [{ "element": "Ga", "occu": 1 }],
        "abc": [0.11883154, 0.75, 0.494989299999999],
        "properties": { "magmom": -0.0 },
        "label": "Ga",
        "xyz": [-5.434917646043445, -6.9050205975, -0.6801043208527104]
      },
      {
        "species": [{ "element": "Ga", "occu": 1 }],
        "abc": [0.38123046, 0.75, 0.99499451],
        "properties": { "magmom": -0.0 },
        "label": "Ga",
        "xyz": [-10.924912612298897, -6.9050205975, -2.181858573266415]
      },
      {
        "species": [{ "element": "Ga", "occu": 1 }],
        "abc": [0.88117046, 0.25, 0.5050127],
        "properties": { "magmom": -0.0 },
        "label": "Ga",
        "xyz": [-5.544990803729523, -2.3016735325, -5.043042645418329]
      },
      {
        "species": [{ "element": "Ga", "occu": 1 }],
        "abc": [0.6187695400000001, 0.25, 0.00500249],
        "properties": { "magmom": -0.0 },
        "label": "Ga",
        "xyz": [-0.0549409381108741, -2.3016735325, -3.5412769466114558]
      },
      {
        "species": [{ "element": "Ga", "occu": 1 }],
        "abc": [0.87886357, 0.75, 0.20524342],
        "properties": { "magmom": 0.0 },
        "label": "Ga",
        "xyz": [-2.2535650015724578, -6.9050205975, -5.0298278916247]
      },
      {
        "species": [{ "element": "Ga", "occu": 1 }],
        "abc": [0.62110656, 0.75, 0.70527303],
        "properties": { "magmom": -0.0 },
        "label": "Ga",
        "xyz": [-7.743815871296237, -6.9050205975, -3.5546804416580047]
      },
      {
        "species": [{ "element": "Ga", "occu": 1 }],
        "abc": [0.12113643, 0.25, 0.7947535800000001],
        "properties": { "magmom": 0.0 },
        "label": "Ga",
        "xyz": [-8.726288548837312, -2.3016735325, -0.6933076282531702]
      },
      {
        "species": [{ "element": "Ga", "occu": 1 }],
        "abc": [0.37889544000000003, 0.25, 0.29472997],
        "properties": { "magmom": -0.0 },
        "label": "Ga",
        "xyz": [-3.236103558340153, -2.3016735325, -2.1684665246537453]
      }
    ]
  },
  "task_ids": null,
  "uncorrected_energy_per_atom": null,
  "energy_per_atom": -12.0776525865625,
  "formation_energy_per_atom": -0.651484859687499,
  "energy_above_hull": 0.0,
  "is_stable": true,
  "equilibrium_reaction_energy_per_atom": null,
  "decomposes_to": null,
  "xas": null,
  "grain_boundaries": null,
  "band_gap": 0.0,
  "cbm": null,
  "vbm": null,
  "efermi": 4.33639304,
  "is_gap_direct": null,
  "is_metal": null,
  "es_source_calc_id": null,
  "bandstructure": null,
  "dos": null,
  "dos_energy_up": null,
  "dos_energy_down": null,
  "is_magnetic": null,
  "ordering": null,
  "total_magnetization": 0.0,
  "total_magnetization_normalized_vol": null,
  "total_magnetization_normalized_formula_units": null,
  "num_magnetic_sites": null,
  "num_unique_magnetic_sites": null,
  "types_of_magnetic_species": null,
  "bulk_modulus": null,
  "shear_modulus": null,
  "universal_anisotropy": null,
  "homogeneous_poisson": null,
  "e_total": null,
  "e_ionic": null,
  "e_electronic": null,
  "n": null,
  "e_ij_max": null,
  "weighted_surface_energy_EV_PER_ANG2": null,
  "weighted_surface_energy": null,
  "weighted_work_function": null,
  "surface_anisotropy": null,
  "shape_factor": null,
  "has_reconstructed": null,
  "possible_species": null,
  "has_props": null,
  "theoretical": null,
  "database_IDs": null,
  "fields_not_requested": [
    "builder_meta",
    "nsites",
    "elements",
    "nelements",
    "composition",
    "composition_reduced",
    "chemsys",
    "symmetry",
    "property_name",
    "deprecated",
    "deprecation_reasons",
    "last_updated",
    "origins",
    "warnings",
    "task_ids",
    "uncorrected_energy_per_atom",
    "equilibrium_reaction_energy_per_atom",
    "decomposes_to",
    "xas",
    "grain_boundaries",
    "cbm",
    "vbm",
    "is_gap_direct",
    "is_metal",
    "es_source_calc_id",
    "bandstructure",
    "dos",
    "dos_energy_up",
    "dos_energy_down",
    "is_magnetic",
    "ordering",
    "total_magnetization_normalized_vol",
    "total_magnetization_normalized_formula_units",
    "num_magnetic_sites",
    "num_unique_magnetic_sites",
    "types_of_magnetic_species",
    "bulk_modulus",
    "shear_modulus",
    "universal_anisotropy",
    "homogeneous_poisson",
    "e_total",
    "e_ionic",
    "e_electronic",
    "n",
    "e_ij_max",
    "weighted_surface_energy_EV_PER_ANG2",
    "weighted_surface_energy",
    "weighted_work_function",
    "surface_anisotropy",
    "shape_factor",
    "has_reconstructed",
    "possible_species",
    "has_props",
    "theoretical",
    "database_IDs"
  ]
}
