{
  "builder_meta": null,
  "nsites": null,
  "elements": null,
  "nelements": null,
  "composition": null,
  "composition_reduced": null,
  "formula_pretty": "Sc3Ga",
  "formula_anonymous": "AB3",
  "chemsys": null,
  "volume": 169.39954061108625,
  "density": 4.011001547783578,
  "density_atomic": 21.17494257638578,
  "symmetry": null,
  "property_name": null,
  "material_id": "mp-1186968",
  "deprecated": null,
  "deprecation_reasons": null,
  "last_updated": null,
  "origins": null,
  "warnings": null,
  "structure": {
    "@module": "pymatgen.core.structure",
    "@class": "Structure",
    "charge": 0,
    "lattice": {
      "matrix": [
        [3.11275942, -5.39141522, 0.0],
        [3.11276047, 5.39141625, 0.0],
        [0.0, 0.0, 5.04700554]
      ],
      "pbc": [true, true, true],
      "a": 6.225482252905905,
      "b": 6.225483669913421,
      "c": 5.04700554,
      "alpha": 90.0,
      "beta": 90.0,
      "gamma": 119.99960755200864,
      "volume": 169.39954061108625
    },
    "properties": {},
    "sites": [
      {
        "species": [{ "element": "Sc", "occu": 1 }],
        "abc": [0.17183923, 0.34368941000000003, 0.25],
        "properties": { "magmom": -0.451 },
        "label": "Sc",
        "xyz": [1.6047169913136694, 0.926516030011832, 1.261751385]
      },
      {
        "species": [{ "element": "Sc", "occu": 1 }],
        "abc": [0.65630859, 0.82816077, 0.25],
        "properties": { "magmom": -0.451 },
        "label": "Sc",
        "xyz": [4.62079685361018, 0.9265273118477726, 1.261751385]
      },
      {
        "species": [{ "element": "Sc", "occu": 1 }],
        "abc": [0.17185071, 0.82815229, 0.25],
        "properties": { "magmom": -0.451 },
        "label": "Sc",
        "xyz": [3.1127696278381647, 3.538395180318906, 1.261751385]
      },
      {
        "species": [{ "element": "Sc", "occu": 1 }],
        "abc": [0.82814616, 0.65630217, 0.75],
        "properties": { "magmom": -0.451 },
        "label": "Sc",
        "xyz": [4.620731211828048, -0.9264816271602929, 3.7852541549999996]
      },
      {
        "species": [{ "element": "Sc", "occu": 1 }],
        "abc": [0.34369583, 0.17185484, 0.75],
        "properties": { "magmom": -0.451 },
        "label": "Sc",
        "xyz": [1.6047853849773936, -0.9264659518953824, 3.7852541549999996]
      },
      {
        "species": [{ "element": "Sc", "occu": 1 }],
        "abc": [0.8281577999999991, 0.1718452, 0.75],
        "properties": { "magmom": -0.451 },
        "label": "Sc",
        "xyz": [3.112768938715717, -3.538453563717211, 3.7852541549999996]
      },
      {
        "species": [{ "element": "Ga", "occu": 1 }],
        "abc": [0.3333333, 0.6666647, 0.75],
        "properties": { "magmom": 0.09 },
        "label": "Ga",
        "xyz": [3.112753894479095, 1.7971286699285487, 3.7852541549999996]
      },
      {
        "species": [{ "element": "Ga", "occu": 1 }],
        "abc": [0.66666738, 0.33333062, 0.25],
        "properties": { "magmom": 0.09 },
        "label": "Ga",
        "xyz": [3.112753544478311, -1.7971565379189487, 1.261751385]
      }
    ]
  },
  "task_ids": null,
  "uncorrected_energy_per_atom": null,
  "energy_per_atom": -11.784358373749999,
  "formation_energy_per_atom": -0.374798870000001,
  "energy_above_hull": 0.023405615625,
  "is_stable": false,
  "equilibrium_reaction_energy_per_atom": null,
  "decomposes_to": null,
  "xas": null,
  "grain_boundaries": null,
  "band_gap": 0.0,
  "cbm": null,
  "vbm": null,
  "efermi": 4.15144332,
  "is_gap_direct": null,
  "is_metal": null,
  "es_source_calc_id": null,
  "bandstructure": null,
  "dos": null,
  "dos_energy_up": null,
  "dos_energy_down": null,
  "is_magnetic": null,
  "ordering": null,
  "total_magnetization": 3.7407404,
  "total_magnetization_normalized_vol": null,
  "total_magnetization_normalized_formula_units": null,
  "num_magnetic_sites": null,
  "num_unique_magnetic_sites": null,
  "types_of_magnetic_species": null,
  "bulk_modulus": null,
  "shear_modulus": null,
  "universal_anisotropy": null,
  "homogeneous_poisson": null,
  "e_total": null,
  "e_ionic": null,
  "e_electronic": null,
  "n": null,
  "e_ij_max": null,
  "weighted_surface_energy_EV_PER_ANG2": null,
  "weighted_surface_energy": null,
  "weighted_work_function": null,
  "surface_anisotropy": null,
  "shape_factor": null,
  "has_reconstructed": null,
  "possible_species": null,
  "has_props": null,
  "theoretical": null,
  "database_IDs": null,
  "fields_not_requested": [
    "builder_meta",
    "nsites",
    "elements",
    "nelements",
    "composition",
    "composition_reduced",
    "chemsys",
    "symmetry",
    "property_name",
    "deprecated",
    "deprecation_reasons",
    "last_updated",
    "origins",
    "warnings",
    "task_ids",
    "uncorrected_energy_per_atom",
    "equilibrium_reaction_energy_per_atom",
    "decomposes_to",
    "xas",
    "grain_boundaries",
    "cbm",
    "vbm",
    "is_gap_direct",
    "is_metal",
    "es_source_calc_id",
    "bandstructure",
    "dos",
    "dos_energy_up",
    "dos_energy_down",
    "is_magnetic",
    "ordering",
    "total_magnetization_normalized_vol",
    "total_magnetization_normalized_formula_units",
    "num_magnetic_sites",
    "num_unique_magnetic_sites",
    "types_of_magnetic_species",
    "bulk_modulus",
    "shear_modulus",
    "universal_anisotropy",
    "homogeneous_poisson",
    "e_total",
    "e_ionic",
    "e_electronic",
    "n",
    "e_ij_max",
    "weighted_surface_energy_EV_PER_ANG2",
    "weighted_surface_energy",
    "weighted_work_function",
    "surface_anisotropy",
    "shape_factor",
    "has_reconstructed",
    "possible_species",
    "has_props",
    "theoretical",
    "database_IDs"
  ]
}
