{
  "builder_meta": null,
  "nsites": null,
  "elements": null,
  "nelements": null,
  "composition": null,
  "composition_reduced": null,
  "formula_pretty": "Sc3Ga2",
  "formula_anonymous": "A2B3",
  "chemsys": null,
  "volume": 816.372848024002,
  "density": 4.4637317493891615,
  "density_atomic": 20.40932120060005,
  "symmetry": null,
  "property_name": null,
  "material_id": "mp-30666",
  "deprecated": null,
  "deprecation_reasons": null,
  "last_updated": null,
  "origins": null,
  "warnings": null,
  "structure": {
    "@module": "pymatgen.core.structure",
    "@class": "Structure",
    "charge": 0,
    "lattice": {
      "matrix": [
        [9.20990955, 0.06904534, -4.71455847],
        [-5.78348375, 8.53014964, -0.91720356],
        [0.046792230000000004, -0.06900843, 10.34632554]
      ],
      "pbc": [true, true, true],
      "a": 10.346702989126811,
      "b": 10.346661274912929,
      "c": 10.346661483582796,
      "alpha": 95.5475046268122,
      "beta": 116.85037869510819,
      "gamma": 116.85038894664403,
      "volume": 816.372848024002
    },
    "properties": {},
    "sites": [
      {
        "species": [{ "element": "Sc", "occu": 1 }],
        "abc": [0.72979947, 0.43226164, 0.56962344],
        "properties": { "magmom": -0.058 },
        "label": "Sc",
        "xyz": [4.2480628886674605, 3.69833690608418, 2.056355357705208]
      },
      {
        "species": [{ "element": "Sc", "occu": 1 }],
        "abc": [0.27020349, 0.83982943, 0.70246475],
        "properties": { "magmom": -0.058 },
        "label": "Sc",
        "xyz": [-2.3357202660335408, 7.134051012284299, 5.223744288482884]
      },
      {
        "species": [{ "element": "Sc", "occu": 1 }],
        "abc": [0.27020053, 0.93037656, 0.06773836],
        "properties": { "magmom": -0.058 },
        "label": "Sc",
        "xyz": [-2.8891256455578964, 7.9502328479360935, -1.4263777661768282]
      },
      {
        "species": [{ "element": "Sc", "occu": 1 }],
        "abc": [0.8626259900000001, 0.70245621, 0.43225381],
        "properties": { "magmom": -0.058 },
        "label": "Sc",
        "xyz": [3.9022893874535147, 6.021787734830032, -0.23895736998743544]
      },
      {
        "species": [{ "element": "Sc", "occu": 1 }],
        "abc": [0.13737357, 0.56963159, 0.83983242],
        "properties": { "magmom": -0.058 },
        "label": "Sc",
        "xyz": [-1.989959258232972, 4.810572190451491, 7.51905576613191]
      },
      {
        "species": [{ "element": "Sc", "occu": 1 }],
        "abc": [0.13737401, 0.06774619, 0.79754379],
        "properties": { "magmom": -0.058 },
        "label": "Sc",
        "xyz": [0.9107120700881347, 0.5323329286633351, 7.541852834697595]
      },
      {
        "species": [{ "element": "Sc", "occu": 1 }],
        "abc": [0.86262643, 0.66016758, 0.93036841],
        "properties": { "magmom": -0.058 },
        "label": "Sc",
        "xyz": [4.170176937158037, 5.626685316733311, 4.953483645417245]
      },
      {
        "species": [{ "element": "Sc", "occu": 1 }],
        "abc": [0.72979651, 0.79753525, 0.66017057],
        "properties": { "magmom": -0.058 },
        "label": "Sc",
        "xyz": [2.139718541729155, 6.807926739270668, 2.6581691410249286]
      },
      {
        "species": [{ "element": "Sc", "occu": 1 }],
        "abc": [0.27020053, 0.56773836, 0.43037656],
        "properties": { "magmom": -0.058 },
        "label": "Sc",
        "xyz": [-0.7748448586674596, 4.831849643915819, 2.6582081522947925]
      },
      {
        "species": [{ "element": "Sc", "occu": 1 }],
        "abc": [0.72979651, 0.16017057, 0.29753525000000003],
        "properties": { "magmom": -0.058 },
        "label": "Sc",
        "xyz": [5.808938296033541, 1.3961355377157008, -0.5091807784828837]
      },
      {
        "species": [{ "element": "Sc", "occu": 1 }],
        "abc": [0.72979947, 0.06962344, 0.93226164],
        "properties": { "magmom": -0.058 },
        "label": "Sc",
        "xyz": [6.362343675557896, 0.5799537020639061, 6.140941276176829]
      },
      {
        "species": [{ "element": "Sc", "occu": 1 }],
        "abc": [0.13737401, 0.29754379000000003, 0.56774619],
        "properties": { "magmom": -0.058 },
        "label": "Sc",
        "xyz": [-0.42907135745351344, 2.508398815169967, 4.953520879987437]
      },
      {
        "species": [{ "element": "Sc", "occu": 1 }],
        "abc": [0.86262643, 0.43036841000000003, 0.16016758],
        "properties": { "magmom": -0.058 },
        "label": "Sc",
        "xyz": [5.463177288232973, 3.719614359548509, -2.8044922561319092]
      },
      {
        "species": [{ "element": "Sc", "occu": 1 }],
        "abc": [0.8626259900000001, 0.9322538100000001, 0.20245621],
        "properties": { "magmom": -0.058 },
        "label": "Sc",
        "xyz": [2.5625059599118667, 7.997853621336664, -2.827289324697596]
      },
      {
        "species": [{ "element": "Sc", "occu": 1 }],
        "abc": [0.13737357, 0.33983242, 0.06963159000000001],
        "properties": { "magmom": -0.058 },
        "label": "Sc",
        "xyz": [-0.6969589071580358, 2.9035012332666885, -0.23892013541724444]
      },
      {
        "species": [{ "element": "Sc", "occu": 1 }],
        "abc": [0.27020349, 0.20246475, 0.33982943],
        "properties": { "magmom": -0.058 },
        "label": "Sc",
        "xyz": [1.333499488270846, 1.7222598107293314, 2.056394368975072]
      },
      {
        "species": [{ "element": "Sc", "occu": 1 }],
        "abc": [0.50000139, 0.64691567, 0.14691567],
        "properties": { "magmom": -0.015 },
        "label": "Sc",
        "xyz": [0.8704158235301558, 5.542671815804783, -1.430601795032847]
      },
      {
        "species": [{ "element": "Sc", "occu": 1 }],
        "abc": [0.50000305, 0.14692362, 0.64692362],
        "properties": { "magmom": -0.015 },
        "label": "Sc",
        "xyz": [3.7855234952824253, 1.243160161492667, 4.201229890319835]
      },
      {
        "species": [{ "element": "Sc", "occu": 1 }],
        "abc": [0.49999695, 0.85307638, 0.35307638],
        "properties": { "magmom": -0.015 },
        "label": "Sc",
        "xyz": [-0.3123054652824242, 7.287026388507332, 0.5133336196801661]
      },
      {
        "species": [{ "element": "Sc", "occu": 1 }],
        "abc": [0.49999861, 0.35308433, 0.8530843300000001],
        "properties": { "magmom": -0.015 },
        "label": "Sc",
        "xyz": [2.6028022064698444, 2.987514734195216, 6.145165305032847]
      },
      {
        "species": [{ "element": "Sc", "occu": 1 }],
        "abc": [0.83927151, 0.16963556, 0.66963556],
        "properties": { "magmom": -0.126 },
        "label": "Sc",
        "xyz": [6.77986393144947, 1.4587539991576908, 2.8158825512854193]
      },
      {
        "species": [{ "element": "Sc", "occu": 1 }],
        "abc": [0.5, 0.66963275, 0.83036725],
        "properties": { "magmom": -0.127 },
        "label": "Sc",
        "xyz": [0.7709993822536553, 5.689287891098792, 5.619781109061976]
      },
      {
        "species": [{ "element": "Sc", "occu": 1 }],
        "abc": [0.5, 0.33036725, 0.16963275],
        "properties": { "magmom": -0.127 },
        "label": "Sc",
        "xyz": [2.7022186477463452, 2.840898658901207, -0.9052175990619749]
      },
      {
        "species": [{ "element": "Sc", "occu": 1 }],
        "abc": [0.16072849, 0.83036444, 0.33036444],
        "properties": { "magmom": -0.126 },
        "label": "Sc",
        "xyz": [-3.306645901449469, 7.071432550842308, 1.8986809587145812]
      },
      {
        "species": [{ "element": "Ga", "occu": 1 }],
        "abc": [0.85352572, 0.37654112, 0.8765411200000001],
        "properties": { "magmom": 0.01 },
        "label": "Ga",
        "xyz": [5.724190544763324, 3.2103953462277, 4.699618008376971]
      },
      {
        "species": [{ "element": "Ga", "occu": 1 }],
        "abc": [0.14648046, 0.02302397, 0.52302397],
        "properties": { "magmom": 0.01 },
        "label": "Ga",
        "xyz": [1.240386488986659, 0.17041863954886008, 4.699667898211365]
      },
      {
        "species": [{ "element": "Ga", "occu": 1 }],
        "abc": [0.14647428, 0.62345888, 0.12345888000000001],
        "properties": { "magmom": 0.01 },
        "label": "Ga",
        "xyz": [-2.250972514763324, 5.3197912037723, 0.014945501623030655]
      },
      {
        "species": [{ "element": "Ga", "occu": 1 }],
        "abc": [0.4999864, 0.52300917, 0.37652827],
        "properties": { "magmom": 0.01 },
        "label": "Ga",
        "xyz": [1.5976330818454743, 4.469884589412259, 1.0587630667915628]
      },
      {
        "species": [{ "element": "Ga", "occu": 1 }],
        "abc": [0.4999864, 0.87652827, 0.02300917],
        "properties": { "magmom": 0.01 },
        "label": "Ga",
        "xyz": [-0.4634808353557433, 7.509851211076395, -2.9231096034642476]
      },
      {
        "species": [{ "element": "Ga", "occu": 1 }],
        "abc": [0.5000136, 0.12347173, 0.97699083],
        "properties": { "magmom": 0.01 },
        "label": "Ga",
        "xyz": [3.9366988653557433, 1.0203353389236043, 7.637673113464247]
      },
      {
        "species": [{ "element": "Ga", "occu": 1 }],
        "abc": [0.5000136, 0.47699083000000003, 0.62347173],
        "properties": { "magmom": 0.01 },
        "label": "Ga",
        "xyz": [1.8755849481545248, 4.060301960587742, 3.655800443208438]
      },
      {
        "species": [{ "element": "Ga", "occu": 1 }],
        "abc": [0.85351954, 0.97697603, 0.47697603],
        "properties": { "magmom": 0.01 },
        "label": "Ga",
        "xyz": [2.2328315410133412, 8.359767910451138, 0.014895611788636742]
      },
      {
        "species": [{ "element": "Ga", "occu": 1 }],
        "abc": [0.26352466, 0.3817624, 0.8817624],
        "properties": { "magmom": 0.01 },
        "label": "Ga",
        "xyz": [0.26038127505965547, 3.213836509816588, 7.53044458912068]
      },
      {
        "species": [{ "element": "Ga", "occu": 1 }],
        "abc": [0.5, 0.88176292, 0.61823708],
        "properties": { "magmom": 0.01 },
        "label": "Ga",
        "xyz": [-0.46577805253066173, 7.513428754344764, 3.230446766279028]
      },
      {
        "species": [{ "element": "Ga", "occu": 1 }],
        "abc": [0.5, 0.11823708000000001, 0.38176292],
        "properties": { "magmom": 0.01 },
        "label": "Ga",
        "xyz": [3.938996082530662, 1.0167577956552358, 1.4841167437209721]
      },
      {
        "species": [{ "element": "Ga", "occu": 1 }],
        "abc": [0.73647534, 0.618237599999999, 0.1182376],
        "properties": { "magmom": 0.01 },
        "label": "Ga",
        "xyz": [3.2128367549403514, 5.316350040183403, -2.815881079120681]
      },
      {
        "species": [{ "element": "Ga", "occu": 1 }],
        "abc": [0.0, 0.5, 0.5],
        "properties": { "magmom": 0.054 },
        "label": "Ga",
        "xyz": [-2.86834576, 4.230570605, 4.71456099]
      },
      {
        "species": [{ "element": "Ga", "occu": 1 }],
        "abc": [0.0, 0.0, 0.0],
        "properties": { "magmom": 0.054 },
        "label": "Ga",
        "xyz": [0.0, 0.0, 0.0]
      },
      {
        "species": [{ "element": "Ga", "occu": 1 }],
        "abc": [-0.0, 0.75000054, 0.7499994600000001],
        "properties": { "magmom": 0.01 },
        "label": "Ga",
        "xyz": [-4.302521788349029, 6.345860551045358, 7.071835402694287]
      },
      {
        "species": [{ "element": "Ga", "occu": 1 }],
        "abc": [0.0, 0.24999946, 0.25000054],
        "properties": { "magmom": 0.01 },
        "label": "Ga",
        "xyz": [-1.434169731650971, 2.115280658954642, 2.3572865773057137]
      }
    ]
  },
  "task_ids": null,
  "uncorrected_energy_per_atom": null,
  "energy_per_atom": -12.05332997,
  "formation_energy_per_atom": -0.6371271770000001,
  "energy_above_hull": 0.0,
  "is_stable": true,
  "equilibrium_reaction_energy_per_atom": null,
  "decomposes_to": null,
  "xas": null,
  "grain_boundaries": null,
  "band_gap": 0.0,
  "cbm": null,
  "vbm": null,
  "efermi": 3.86880937,
  "is_gap_direct": null,
  "is_metal": null,
  "es_source_calc_id": null,
  "bandstructure": null,
  "dos": null,
  "dos_energy_up": null,
  "dos_energy_down": null,
  "is_magnetic": null,
  "ordering": null,
  "total_magnetization": 2.336747,
  "total_magnetization_normalized_vol": null,
  "total_magnetization_normalized_formula_units": null,
  "num_magnetic_sites": null,
  "num_unique_magnetic_sites": null,
  "types_of_magnetic_species": null,
  "bulk_modulus": null,
  "shear_modulus": null,
  "universal_anisotropy": null,
  "homogeneous_poisson": null,
  "e_total": null,
  "e_ionic": null,
  "e_electronic": null,
  "n": null,
  "e_ij_max": null,
  "weighted_surface_energy_EV_PER_ANG2": null,
  "weighted_surface_energy": null,
  "weighted_work_function": null,
  "surface_anisotropy": null,
  "shape_factor": null,
  "has_reconstructed": null,
  "possible_species": null,
  "has_props": null,
  "theoretical": null,
  "database_IDs": null,
  "fields_not_requested": [
    "builder_meta",
    "nsites",
    "elements",
    "nelements",
    "composition",
    "composition_reduced",
    "chemsys",
    "symmetry",
    "property_name",
    "deprecated",
    "deprecation_reasons",
    "last_updated",
    "origins",
    "warnings",
    "task_ids",
    "uncorrected_energy_per_atom",
    "equilibrium_reaction_energy_per_atom",
    "decomposes_to",
    "xas",
    "grain_boundaries",
    "cbm",
    "vbm",
    "is_gap_direct",
    "is_metal",
    "es_source_calc_id",
    "bandstructure",
    "dos",
    "dos_energy_up",
    "dos_energy_down",
    "is_magnetic",
    "ordering",
    "total_magnetization_normalized_vol",
    "total_magnetization_normalized_formula_units",
    "num_magnetic_sites",
    "num_unique_magnetic_sites",
    "types_of_magnetic_species",
    "bulk_modulus",
    "shear_modulus",
    "universal_anisotropy",
    "homogeneous_poisson",
    "e_total",
    "e_ionic",
    "e_electronic",
    "n",
    "e_ij_max",
    "weighted_surface_energy_EV_PER_ANG2",
    "weighted_surface_energy",
    "weighted_work_function",
    "surface_anisotropy",
    "shape_factor",
    "has_reconstructed",
    "possible_species",
    "has_props",
    "theoretical",
    "database_IDs"
  ]
}
