{"builder_meta": null, "nsites": null, "elements": null, "nelements": null, "composition": null, "composition_reduced": null, "formula_pretty": "Sc3Hg", "formula_anonymous": "AB3", "chemsys": null, "volume": 178.44501487394166, "density": 6.243275288073444, "density_atomic": 22.305626859242707, "symmetry": null, "property_name": null, "material_id": "mp-861910", "deprecated": null, "deprecation_reasons": null, "last_updated": null, "origins": null, "warnings": null, "structure": {"@module": "pymatgen.core.structure", "@class": "Structure", "charge": 0, "lattice": {"matrix": [[6.28818664, -0.00199948, 5e-08], [-3.14583445, 5.4447208400000005, -4e-08], [4e-08, -2e-08, 5.21294537]], "pbc": [true, true, true], "a": 6.288186957891342, "b": 6.288184110881066, "c": 5.212945370000001, "alpha": 90.00000077474475, "beta": 89.99999910470518, "gamma": 120.03655240663824, "volume": 178.44501487394172}, "properties": {}, "sites": [{"species": [{"element": "Sc", "occu": 1}], "abc": [0.17093582000000002, 0.34105231, 0.25], "properties": {"magmom": 0.254}, "label": "Sc", "xyz": [0.0019822435713652883, 1.856592832033767, 1.3032363374046987]}, {"species": [{"element": "Sc", "occu": 1}], "abc": [0.65894684, 0.82906374, 0.25], "properties": {"magmom": 0.254}, "label": "Sc", "xyz": [1.5354834512203746, 4.512703066838698, 1.3032363422847923]}, {"species": [{"element": "Sc", "occu": 1}], "abc": [0.17112459, 0.82887802, 0.24999999], "properties": {"magmom": 0.251}, "label": "Sc", "xyz": [-1.5314496595503122, 4.5126672641167245, 1.303236265771655]}, {"species": [{"element": "Sc", "occu": 1}], "abc": [0.82906855, 0.65894656, 0.75], "properties": {"magmom": 0.254}, "label": "Sc", "xyz": [3.14040102059718, 3.5861223466939567, 3.909709042595565]}, {"species": [{"element": "Sc", "occu": 1}], "abc": [0.34105427, 0.17093627, 0.75], "properties": {"magmom": 0.254}, "label": "Sc", "xyz": [1.6068757272084515, 0.9300183253890872, 3.909709037715263]}, {"species": [{"element": "Sc", "occu": 1}], "abc": [0.8288785200000001, 0.17112076, 0.75000001], "properties": {"magmom": 0.251}, "label": "Sc", "xyz": [4.6738252837287915, 0.9300474271054687, 3.9097091142285496]}, {"species": [{"element": "Hg", "occu": 1}], "abc": [0.33324054000000003, 0.66675566, 0.75], "properties": {"magmom": -0.025}, "label": "Hg", "xyz": [-0.0020241834261008184, 3.6296321143950356, 3.9097090174918003]}, {"species": [{"element": "Hg", "occu": 1}], "abc": [0.66675487, 0.33324269, 0.25], "properties": {"magmom": -0.025}, "label": "Hg", "xyz": [3.1443527412762666, 1.8130802509931923, 1.3032363625080359]}]}, "task_ids": null, "uncorrected_energy_per_atom": null, "energy_per_atom": -21.16168151375, "formation_energy_per_atom": -0.27086436687499904, "energy_above_hull": 0.0, "is_stable": true, "equilibrium_reaction_energy_per_atom": null, "decomposes_to": null, "xas": null, "grain_boundaries": null, "band_gap": 0.0, "cbm": null, "vbm": null, "efermi": 4.11525239, "is_gap_direct": null, "is_metal": null, "es_source_calc_id": null, "bandstructure": null, "dos": null, "dos_energy_up": null, "dos_energy_down": null, "is_magnetic": null, "ordering": null, "total_magnetization": 2.0039104, "total_magnetization_normalized_vol": null, "total_magnetization_normalized_formula_units": null, "num_magnetic_sites": null, "num_unique_magnetic_sites": null, "types_of_magnetic_species": null, "bulk_modulus": null, "shear_modulus": null, "universal_anisotropy": null, "homogeneous_poisson": null, "e_total": null, "e_ionic": null, "e_electronic": null, "n": null, "e_ij_max": null, "weighted_surface_energy_EV_PER_ANG2": null, "weighted_surface_energy": null, "weighted_work_function": null, "surface_anisotropy": null, "shape_factor": null, "has_reconstructed": null, "possible_species": null, "has_props": null, "theoretical": null, "database_IDs": null, "fields_not_requested": ["builder_meta", "nsites", "elements", "nelements", "composition", "composition_reduced", "chemsys", "symmetry", "property_name", "deprecated", "deprecation_reasons", "last_updated", "origins", "warnings", "task_ids", "uncorrected_energy_per_atom", "equilibrium_reaction_energy_per_atom", "decomposes_to", "xas", "grain_boundaries", "cbm", "vbm", "is_gap_direct", "is_metal", "es_source_calc_id", "bandstructure", "dos", "dos_energy_up", "dos_energy_down", "is_magnetic", "ordering", "total_magnetization_normalized_vol", "total_magnetization_normalized_formula_units", "num_magnetic_sites", "num_unique_magnetic_sites", "types_of_magnetic_species", "bulk_modulus", "shear_modulus", "universal_anisotropy", "homogeneous_poisson", "e_total", "e_ionic", "e_electronic", "n", "e_ij_max", "weighted_surface_energy_EV_PER_ANG2", "weighted_surface_energy", "weighted_work_function", "surface_anisotropy", "shape_factor", "has_reconstructed", "possible_species", "has_props", "theoretical", "database_IDs"]}