{"builder_meta": null, "nsites": null, "elements": null, "nelements": null, "composition": null, "composition_reduced": null, "formula_pretty": "Sc3In", "formula_anonymous": "AB3", "chemsys": null, "volume": 185.73177687677045, "density": 4.464641710458214, "density_atomic": 23.216472109596307, "symmetry": null, "property_name": null, "material_id": "mp-19713", "deprecated": null, "deprecation_reasons": null, "last_updated": null, "origins": null, "warnings": null, "structure": {"@module": "pymatgen.core.structure", "@class": "Structure", "charge": 0, "lattice": {"matrix": [[6.40658579, -0.0, 0.0], [-3.20329289, 5.54826495, -0.0], [0.0, 0.0, 5.22519347]], "pbc": [true, true, true], "a": 6.40658579, "b": 6.406584838626822, "c": 5.22519347, "alpha": 90.0, "beta": 90.0, "gamma": 120.00000486068251, "volume": 185.73177687677045}, "properties": {}, "sites": [{"species": [{"element": "Sc", "occu": 1}], "abc": [0.83081911, 0.16918089, 0.25], "properties": {"magmom": -0.436}, "label": "Sc", "xyz": [4.780777962125574, 0.9386604021968055, 1.3062983675]}, {"species": [{"element": "Sc", "occu": 1}], "abc": [0.66163822, 0.83081911, 0.75], "properties": {"magmom": -0.436}, "label": "Sc", "xyz": [1.5774850704337662, 4.609604547803195, 3.9188951024999996]}, {"species": [{"element": "Sc", "occu": 1}], "abc": [0.16918089, 0.33836178, 0.75], "properties": {"magmom": -0.436}, "label": "Sc", "xyz": [1.6918089151829463e-09, 1.877320804393611, 3.9188951024999996]}, {"species": [{"element": "Sc", "occu": 1}], "abc": [0.83081911, 0.66163822, 0.25], "properties": {"magmom": -0.436}, "label": "Sc", "xyz": [3.2032928983081908, 3.670944145606389, 1.3062983675]}, {"species": [{"element": "Sc", "occu": 1}], "abc": [0.33836178, 0.16918089, 0.25], "properties": {"magmom": -0.436}, "label": "Sc", "xyz": [1.6258078295662344, 0.9386604021968055, 1.3062983675]}, {"species": [{"element": "Sc", "occu": 1}], "abc": [0.16918089, 0.83081911, 0.75], "properties": {"magmom": -0.436}, "label": "Sc", "xyz": [-1.577485062125575, 4.609604547803195, 3.9188951024999996]}, {"species": [{"element": "In", "occu": 1}], "abc": [0.333333, 0.666667, 0.25], "properties": {"magmom": 0.092}, "label": "In", "xyz": [-3.1999595599963016e-06, 3.69884514942165, 1.3062983675]}, {"species": [{"element": "In", "occu": 1}], "abc": [0.666667, 0.333333, 0.75], "properties": {"magmom": 0.092}, "label": "In", "xyz": [3.2032960999595597, 1.84941980057835, 3.9188951024999996]}]}, "task_ids": null, "uncorrected_energy_per_atom": null, "energy_per_atom": -14.57056251, "formation_energy_per_atom": -0.37704939874999904, "energy_above_hull": 0.0, "is_stable": true, "equilibrium_reaction_energy_per_atom": null, "decomposes_to": null, "xas": null, "grain_boundaries": null, "band_gap": 0.0, "cbm": null, "vbm": null, "efermi": 5.18435098, "is_gap_direct": null, "is_metal": null, "es_source_calc_id": null, "bandstructure": null, "dos": null, "dos_energy_up": null, "dos_energy_down": null, "is_magnetic": null, "ordering": null, "total_magnetization": 3.790031, "total_magnetization_normalized_vol": null, "total_magnetization_normalized_formula_units": null, "num_magnetic_sites": null, "num_unique_magnetic_sites": null, "types_of_magnetic_species": null, "bulk_modulus": null, "shear_modulus": null, "universal_anisotropy": null, "homogeneous_poisson": null, "e_total": null, "e_ionic": null, "e_electronic": null, "n": null, "e_ij_max": null, "weighted_surface_energy_EV_PER_ANG2": null, "weighted_surface_energy": null, "weighted_work_function": null, "surface_anisotropy": null, "shape_factor": null, "has_reconstructed": null, "possible_species": null, "has_props": null, "theoretical": null, "database_IDs": null, "fields_not_requested": ["builder_meta", "nsites", "elements", "nelements", "composition", "composition_reduced", "chemsys", "symmetry", "property_name", "deprecated", "deprecation_reasons", "last_updated", "origins", "warnings", "task_ids", "uncorrected_energy_per_atom", "equilibrium_reaction_energy_per_atom", "decomposes_to", "xas", "grain_boundaries", "cbm", "vbm", "is_gap_direct", "is_metal", "es_source_calc_id", "bandstructure", "dos", "dos_energy_up", "dos_energy_down", "is_magnetic", "ordering", "total_magnetization_normalized_vol", "total_magnetization_normalized_formula_units", "num_magnetic_sites", "num_unique_magnetic_sites", "types_of_magnetic_species", "bulk_modulus", "shear_modulus", "universal_anisotropy", "homogeneous_poisson", "e_total", "e_ionic", "e_electronic", "n", "e_ij_max", "weighted_surface_energy_EV_PER_ANG2", "weighted_surface_energy", "weighted_work_function", "surface_anisotropy", "shape_factor", "has_reconstructed", "possible_species", "has_props", "theoretical", "database_IDs"]}