{"builder_meta": null, "nsites": null, "elements": null, "nelements": null, "composition": null, "composition_reduced": null, "formula_pretty": "Sc3Os", "formula_anonymous": "AB3", "chemsys": null, "volume": 158.49680321041984, "density": 6.811966931276546, "density_atomic": 19.81210040130248, "symmetry": null, "property_name": null, "material_id": "mp-1186981", "deprecated": null, "deprecation_reasons": null, "last_updated": null, "origins": null, "warnings": null, "structure": {"@module": "pymatgen.core.structure", "@class": "Structure", "charge": 0, "lattice": {"matrix": [[3.137871999999999, -5.434953, 0.0], [3.137871999999999, 5.434953, 0.0], [0.0, 0.0, 4.646859]], "pbc": [true, true, true], "a": 6.275743366374456, "b": 6.275743366374456, "c": 4.646859, "alpha": 90.0, "beta": 90.0, "gamma": 119.99999332026077, "volume": 158.49680321041976}, "properties": {}, "sites": [{"species": [{"element": "Sc", "occu": 1}], "abc": [0.824126999999999, 0.175873, 0.75], "properties": {"magmom": 0.001}, "label": "Sc", "xyz": [3.1378719999999958, -3.5232300220619948, 3.4851442500000003]}, {"species": [{"element": "Sc", "occu": 1}], "abc": [0.351746, 0.175873, 0.75], "properties": {"magmom": 0.001}, "label": "Sc", "xyz": [1.6556008867679997, -0.955861488969, 3.4851442500000003]}, {"species": [{"element": "Sc", "occu": 1}], "abc": [0.824126999999999, 0.648254, 0.75], "properties": {"magmom": 0.001}, "label": "Sc", "xyz": [4.620143113231995, -0.9558614889689947, 3.4851442500000003]}, {"species": [{"element": "Sc", "occu": 1}], "abc": [0.175873, 0.824126999999999, 0.25], "properties": {"magmom": 0.001}, "label": "Sc", "xyz": [3.1378719999999958, 3.5232300220619948, 1.16171475]}, {"species": [{"element": "Sc", "occu": 1}], "abc": [0.648254, 0.824126999999999, 0.25], "properties": {"magmom": 0.001}, "label": "Sc", "xyz": [4.620143113231995, 0.9558614889689947, 1.16171475]}, {"species": [{"element": "Sc", "occu": 1}], "abc": [0.175873, 0.351746, 0.25], "properties": {"magmom": 0.001}, "label": "Sc", "xyz": [1.6556008867679997, 0.955861488969, 1.16171475]}, {"species": [{"element": "Os", "occu": 1}], "abc": [0.666667, 0.333333, 0.25], "properties": {"magmom": -0.0}, "label": "Os", "xyz": [3.137871999999999, -1.8116546233020001, 1.16171475]}, {"species": [{"element": "Os", "occu": 1}], "abc": [0.333333, 0.666667, 0.75], "properties": {"magmom": -0.0}, "label": "Os", "xyz": [3.137871999999999, 1.8116546233020001, 3.4851442500000003]}]}, "task_ids": null, "uncorrected_energy_per_atom": null, "energy_per_atom": -7.72941156625, "formation_energy_per_atom": -0.17321787999999902, "energy_above_hull": 0.175237932550508, "is_stable": false, "equilibrium_reaction_energy_per_atom": null, "decomposes_to": null, "xas": null, "grain_boundaries": null, "band_gap": 0.0, "cbm": null, "vbm": null, "efermi": 5.16008742, "is_gap_direct": null, "is_metal": null, "es_source_calc_id": null, "bandstructure": null, "dos": null, "dos_energy_up": null, "dos_energy_down": null, "is_magnetic": null, "ordering": null, "total_magnetization": 0.0109573, "total_magnetization_normalized_vol": null, "total_magnetization_normalized_formula_units": null, "num_magnetic_sites": null, "num_unique_magnetic_sites": null, "types_of_magnetic_species": null, "bulk_modulus": null, "shear_modulus": null, "universal_anisotropy": null, "homogeneous_poisson": null, "e_total": null, "e_ionic": null, "e_electronic": null, "n": null, "e_ij_max": null, "weighted_surface_energy_EV_PER_ANG2": null, "weighted_surface_energy": null, "weighted_work_function": null, "surface_anisotropy": null, "shape_factor": null, "has_reconstructed": null, "possible_species": null, "has_props": null, "theoretical": null, "database_IDs": null, "fields_not_requested": ["builder_meta", "nsites", "elements", "nelements", "composition", "composition_reduced", "chemsys", "symmetry", "property_name", "deprecated", "deprecation_reasons", "last_updated", "origins", "warnings", "task_ids", "uncorrected_energy_per_atom", "equilibrium_reaction_energy_per_atom", "decomposes_to", "xas", "grain_boundaries", "cbm", "vbm", "is_gap_direct", "is_metal", "es_source_calc_id", "bandstructure", "dos", "dos_energy_up", "dos_energy_down", "is_magnetic", "ordering", "total_magnetization_normalized_vol", "total_magnetization_normalized_formula_units", "num_magnetic_sites", "num_unique_magnetic_sites", "types_of_magnetic_species", "bulk_modulus", "shear_modulus", "universal_anisotropy", "homogeneous_poisson", "e_total", "e_ionic", "e_electronic", "n", "e_ij_max", "weighted_surface_energy_EV_PER_ANG2", "weighted_surface_energy", "weighted_work_function", "surface_anisotropy", "shape_factor", "has_reconstructed", "possible_species", "has_props", "theoretical", "database_IDs"]}