{"builder_meta": null, "nsites": null, "elements": null, "nelements": null, "composition": null, "composition_reduced": null, "formula_pretty": "Sc3P2", "formula_anonymous": "A2B3", "chemsys": null, "volume": 379.69991695174264, "density": 3.442923356494416, "density_atomic": 18.984995847587133, "symmetry": null, "property_name": null, "material_id": "mp-22600", "deprecated": null, "deprecation_reasons": null, "last_updated": null, "origins": null, "warnings": null, "structure": {"@module": "pymatgen.core.structure", "@class": "Structure", "charge": 0, "lattice": {"matrix": [[3.7775360300000003, 0.0, 0.0], [0.0, 6.95954184, 0.0], [0.0, 0.0, 14.44279466]], "pbc": [true, true, true], "a": 3.7775360300000003, "b": 6.95954184, "c": 14.44279466, "alpha": 90.0, "beta": 90.0, "gamma": 90.0, "volume": 379.6999169517427}, "properties": {}, "sites": [{"species": [{"element": "Sc", "occu": 1}], "abc": [0.75, 0.13546759, 0.06849843], "properties": {"magmom": -0.0}, "label": "Sc", "xyz": [2.8331520225, 0.9427923605689655, 0.9893087590223838]}, {"species": [{"element": "Sc", "occu": 1}], "abc": [0.25, 0.86453409, 0.9315132500000001], "properties": {"magmom": 0.0}, "label": "Sc", "xyz": [0.9443840075000001, 6.016761171461326, 13.453654592819246]}, {"species": [{"element": "Sc", "occu": 1}], "abc": [0.75, 0.63546759, 0.43150157], "properties": {"magmom": -0.0}, "label": "Sc", "xyz": [2.8331520225, 4.422563280568966, 6.232088570977616]}, {"species": [{"element": "Sc", "occu": 1}], "abc": [0.25, 0.36453409000000003, 0.56848675], "properties": {"magmom": 0.0}, "label": "Sc", "xyz": [0.9443840075000001, 2.536990251461326, 8.210537397180756]}, {"species": [{"element": "Sc", "occu": 1}], "abc": [0.25, 0.662477099999999, 0.72318906], "properties": {"magmom": -0.0}, "label": "Sc", "xyz": [0.9443840075000001, 4.610537095491857, 10.44487109393842]}, {"species": [{"element": "Sc", "occu": 1}], "abc": [0.75, 0.3375215, 0.27680864], "properties": {"magmom": -0.0}, "label": "Sc", "xyz": [2.8331520225, 2.34899500114956, 3.9978903476338625]}, {"species": [{"element": "Sc", "occu": 1}], "abc": [0.25, 0.16247709999999901, 0.7768109400000001], "properties": {"magmom": -0.0}, "label": "Sc", "xyz": [0.9443840075000001, 1.1307661754918572, 11.219320896061582]}, {"species": [{"element": "Sc", "occu": 1}], "abc": [0.75, 0.837521499999999, 0.22319136], "properties": {"magmom": -0.0}, "label": "Sc", "xyz": [2.8331520225, 5.828765921149553, 3.2235069823661378]}, {"species": [{"element": "Sc", "occu": 1}], "abc": [0.25, 0.50846265, 0.10305643], "properties": {"magmom": -0.0}, "label": "Sc", "xyz": [0.9443840075000001, 3.5386670867522763, 1.4884228568826638]}, {"species": [{"element": "Sc", "occu": 1}], "abc": [0.75, 0.49153662000000004, 0.89695293], "properties": {"magmom": 0.0}, "label": "Sc", "xyz": [2.8331520225, 3.4208696727821812, 12.954506987675353]}, {"species": [{"element": "Sc", "occu": 1}], "abc": [0.25, 0.00846265, 0.39694357], "properties": {"magmom": -0.0}, "label": "Sc", "xyz": [0.9443840075000001, 0.058896166752276005, 5.732974473117337]}, {"species": [{"element": "Sc", "occu": 1}], "abc": [0.75, 0.99153662, 0.60304707], "properties": {"magmom": 0.0}, "label": "Sc", "xyz": [2.8331520225, 6.900640592782181, 8.709685002324647]}, {"species": [{"element": "P", "occu": 1}], "abc": [0.25, 0.75531232, 0.54204517], "properties": {"magmom": -0.0}, "label": "P", "xyz": [0.9443840075000001, 5.256627693307469, 7.828647086754792]}, {"species": [{"element": "P", "occu": 1}], "abc": [0.75, 0.24468135, 0.45795023], "properties": {"magmom": -0.0}, "label": "P", "xyz": [2.8331520225, 1.7028700927926839, 6.614081136389772]}, {"species": [{"element": "P", "occu": 1}], "abc": [0.25, 0.25531232, 0.95795483], "properties": {"magmom": -0.0}, "label": "P", "xyz": [0.9443840075000001, 1.7768567733074687, 13.835544903245209]}, {"species": [{"element": "P", "occu": 1}], "abc": [0.75, 0.74468135, 0.04204977], "properties": {"magmom": -0.0}, "label": "P", "xyz": [2.8331520225, 5.1826410127926845, 0.6073161936102283]}, {"species": [{"element": "P", "occu": 1}], "abc": [0.25, 0.6272766, 0.29401767], "properties": {"magmom": 0.0}, "label": "P", "xyz": [0.9443840075000001, 4.3655577429529435, 4.246436834221642]}, {"species": [{"element": "P", "occu": 1}], "abc": [0.75, 0.37273117, 0.70598122], "properties": {"magmom": 0.0}, "label": "P", "xyz": [2.8331520225, 2.594038172687153, 10.196341794276286]}, {"species": [{"element": "P", "occu": 1}], "abc": [0.25, 0.1272766, 0.20598233], "properties": {"magmom": 0.0}, "label": "P", "xyz": [0.9443840075000001, 0.885786822952944, 2.9749604957783577]}, {"species": [{"element": "P", "occu": 1}], "abc": [0.75, 0.87273117, 0.79401878], "properties": {"magmom": 0.0}, "label": "P", "xyz": [2.8331520225, 6.073809092687153, 11.467850195723715]}]}, "task_ids": null, "uncorrected_energy_per_atom": null, "energy_per_atom": -11.8369750555, "formation_energy_per_atom": -1.397052117690475, "energy_above_hull": 0.0, "is_stable": true, "equilibrium_reaction_energy_per_atom": null, "decomposes_to": null, "xas": null, "grain_boundaries": null, "band_gap": 0.0, "cbm": null, "vbm": null, "efermi": 5.8954081, "is_gap_direct": null, "is_metal": null, "es_source_calc_id": null, "bandstructure": null, "dos": null, "dos_energy_up": null, "dos_energy_down": null, "is_magnetic": null, "ordering": null, "total_magnetization": 9e-07, "total_magnetization_normalized_vol": null, "total_magnetization_normalized_formula_units": null, "num_magnetic_sites": null, "num_unique_magnetic_sites": null, "types_of_magnetic_species": null, "bulk_modulus": null, "shear_modulus": null, "universal_anisotropy": null, "homogeneous_poisson": null, "e_total": null, "e_ionic": null, "e_electronic": null, "n": null, "e_ij_max": null, "weighted_surface_energy_EV_PER_ANG2": null, "weighted_surface_energy": null, "weighted_work_function": null, "surface_anisotropy": null, "shape_factor": null, "has_reconstructed": null, "possible_species": null, "has_props": null, "theoretical": null, "database_IDs": null, "fields_not_requested": ["builder_meta", "nsites", "elements", "nelements", "composition", "composition_reduced", "chemsys", "symmetry", "property_name", "deprecated", "deprecation_reasons", "last_updated", "origins", "warnings", "task_ids", "uncorrected_energy_per_atom", "equilibrium_reaction_energy_per_atom", "decomposes_to", "xas", "grain_boundaries", "cbm", "vbm", "is_gap_direct", "is_metal", "es_source_calc_id", "bandstructure", "dos", "dos_energy_up", "dos_energy_down", "is_magnetic", "ordering", "total_magnetization_normalized_vol", "total_magnetization_normalized_formula_units", "num_magnetic_sites", "num_unique_magnetic_sites", "types_of_magnetic_species", "bulk_modulus", "shear_modulus", "universal_anisotropy", "homogeneous_poisson", "e_total", "e_ionic", "e_electronic", "n", "e_ij_max", "weighted_surface_energy_EV_PER_ANG2", "weighted_surface_energy", "weighted_work_function", "surface_anisotropy", "shape_factor", "has_reconstructed", "possible_species", "has_props", "theoretical", "database_IDs"]}