{
  "builder_meta": null,
  "nsites": null,
  "elements": null,
  "nelements": null,
  "composition": null,
  "composition_reduced": null,
  "formula_pretty": "Sc3P",
  "formula_anonymous": "AB3",
  "chemsys": null,
  "volume": 331.74661241865977,
  "density": 3.320441276367059,
  "density_atomic": 20.734163276166235,
  "symmetry": null,
  "property_name": null,
  "material_id": "mp-1188800",
  "deprecated": null,
  "deprecation_reasons": null,
  "last_updated": null,
  "origins": null,
  "warnings": null,
  "structure": {
    "@module": "pymatgen.core.structure",
    "@class": "Structure",
    "charge": 0,
    "lattice": {
      "matrix": [
        [-0.0, 0.0, 5.76530597],
        [6.79953532, 0.0, 0.0],
        [0.0, 8.46262121, 0.0]
      ],
      "pbc": [true, true, true],
      "a": 5.76530597,
      "b": 6.79953532,
      "c": 8.46262121,
      "alpha": 90.0,
      "beta": 90.0,
      "gamma": 90.0,
      "volume": 331.74661241865977
    },
    "properties": {},
    "sites": [
      {
        "species": [{ "element": "Sc", "occu": 1 }],
        "abc": [0.34949202, 0.67471973, 0.049923499999999],
        "properties": { "magmom": -0.0 },
        "label": "Sc",
        "xyz": [4.587780635235863, 0.4224836699774266, 2.0149284293733594]
      },
      {
        "species": [{ "element": "Sc", "occu": 1 }],
        "abc": [0.15050798, 0.17471973000000002, 0.4500765],
        "properties": { "magmom": -0.0 },
        "label": "Sc",
        "xyz": [1.1880129752358637, 3.808826935022565, 0.8677245556266406]
      },
      {
        "species": [{ "element": "Sc", "occu": 1 }],
        "abc": [0.65050798, 0.32528027, 0.5499235],
        "properties": { "magmom": -0.0 },
        "label": "Sc",
        "xyz": [2.2117546847641365, 4.653794274977435, 3.7503775406266406]
      },
      {
        "species": [{ "element": "Sc", "occu": 1 }],
        "abc": [0.84949202, 0.82528027, 0.9500765],
        "properties": { "magmom": -0.0 },
        "label": "Sc",
        "xyz": [5.611522344764137, 8.040137540022565, 4.897581414373359]
      },
      {
        "species": [{ "element": "Sc", "occu": 1 }],
        "abc": [0.65050798, 0.32528027, 0.9500765],
        "properties": { "magmom": -0.0 },
        "label": "Sc",
        "xyz": [2.2117546847641365, 8.040137540022565, 3.7503775406266406]
      },
      {
        "species": [{ "element": "Sc", "occu": 1 }],
        "abc": [0.84949202, 0.82528027, 0.5499235],
        "properties": { "magmom": -0.0 },
        "label": "Sc",
        "xyz": [5.611522344764137, 4.653794274977435, 4.897581414373359]
      },
      {
        "species": [{ "element": "Sc", "occu": 1 }],
        "abc": [0.34949202, 0.67471973, 0.4500765],
        "properties": { "magmom": -0.0 },
        "label": "Sc",
        "xyz": [4.587780635235863, 3.808826935022565, 2.0149284293733594]
      },
      {
        "species": [{ "element": "Sc", "occu": 1 }],
        "abc": [0.15050798, 0.17471973000000002, 0.049923499999999],
        "properties": { "magmom": -0.0 },
        "label": "Sc",
        "xyz": [1.1880129752358637, 0.4224836699774266, 0.8677245556266406]
      },
      {
        "species": [{ "element": "Sc", "occu": 1 }],
        "abc": [0.8588878, 0.52667906, 0.25],
        "properties": { "magmom": 0.0 },
        "label": "Sc",
        "xyz": [3.5811728707743993, 2.1156553025, 4.951750960900166]
      },
      {
        "species": [{ "element": "Sc", "occu": 1 }],
        "abc": [0.6411122, 0.02667906, 0.25],
        "properties": { "magmom": 0.0 },
        "label": "Sc",
        "xyz": [0.18140521077439922, 2.1156553025, 3.6962079940998342]
      },
      {
        "species": [{ "element": "Sc", "occu": 1 }],
        "abc": [0.1411122, 0.47332094, 0.75],
        "properties": { "magmom": 0.0 },
        "label": "Sc",
        "xyz": [3.218362449225601, 6.3469659075, 0.8135550090998339]
      },
      {
        "species": [{ "element": "Sc", "occu": 1 }],
        "abc": [0.3588878, 0.97332094, 0.75],
        "properties": { "magmom": 0.0 },
        "label": "Sc",
        "xyz": [6.618130109225602, 6.3469659075, 2.0690979759001658]
      },
      {
        "species": [{ "element": "P", "occu": 1 }],
        "abc": [0.07361683000000001, 0.8734045500000001, 0.25],
        "properties": { "magmom": 0.0 },
        "label": "P",
        "xyz": [5.938745086373706, 2.1156553025, 0.42442354949147515]
      },
      {
        "species": [{ "element": "P", "occu": 1 }],
        "abc": [0.42638317000000003, 0.37340455, 0.25],
        "properties": { "magmom": 0.0 },
        "label": "P",
        "xyz": [2.538977426373706, 2.1156553025, 2.458229435508525]
      },
      {
        "species": [{ "element": "P", "occu": 1 }],
        "abc": [0.92638317, 0.12659545, 0.75],
        "properties": { "magmom": 0.0 },
        "label": "P",
        "xyz": [0.860790233626294, 6.3469659075, 5.3408824205085255]
      },
      {
        "species": [{ "element": "P", "occu": 1 }],
        "abc": [0.57361683, 0.62659545, 0.75],
        "properties": { "magmom": 0.0 },
        "label": "P",
        "xyz": [4.260557893626294, 6.3469659075, 3.307076534491475]
      }
    ]
  },
  "task_ids": null,
  "uncorrected_energy_per_atom": null,
  "energy_per_atom": -11.672872468125,
  "formation_energy_per_atom": -0.873487873869047,
  "energy_above_hull": 0.0,
  "is_stable": true,
  "equilibrium_reaction_energy_per_atom": null,
  "decomposes_to": null,
  "xas": null,
  "grain_boundaries": null,
  "band_gap": 0.0,
  "cbm": null,
  "vbm": null,
  "efermi": 5.08542766,
  "is_gap_direct": null,
  "is_metal": null,
  "es_source_calc_id": null,
  "bandstructure": null,
  "dos": null,
  "dos_energy_up": null,
  "dos_energy_down": null,
  "is_magnetic": null,
  "ordering": null,
  "total_magnetization": 3.08e-5,
  "total_magnetization_normalized_vol": null,
  "total_magnetization_normalized_formula_units": null,
  "num_magnetic_sites": null,
  "num_unique_magnetic_sites": null,
  "types_of_magnetic_species": null,
  "bulk_modulus": null,
  "shear_modulus": null,
  "universal_anisotropy": null,
  "homogeneous_poisson": null,
  "e_total": null,
  "e_ionic": null,
  "e_electronic": null,
  "n": null,
  "e_ij_max": null,
  "weighted_surface_energy_EV_PER_ANG2": null,
  "weighted_surface_energy": null,
  "weighted_work_function": null,
  "surface_anisotropy": null,
  "shape_factor": null,
  "has_reconstructed": null,
  "possible_species": null,
  "has_props": null,
  "theoretical": null,
  "database_IDs": null,
  "fields_not_requested": [
    "builder_meta",
    "nsites",
    "elements",
    "nelements",
    "composition",
    "composition_reduced",
    "chemsys",
    "symmetry",
    "property_name",
    "deprecated",
    "deprecation_reasons",
    "last_updated",
    "origins",
    "warnings",
    "task_ids",
    "uncorrected_energy_per_atom",
    "equilibrium_reaction_energy_per_atom",
    "decomposes_to",
    "xas",
    "grain_boundaries",
    "cbm",
    "vbm",
    "is_gap_direct",
    "is_metal",
    "es_source_calc_id",
    "bandstructure",
    "dos",
    "dos_energy_up",
    "dos_energy_down",
    "is_magnetic",
    "ordering",
    "total_magnetization_normalized_vol",
    "total_magnetization_normalized_formula_units",
    "num_magnetic_sites",
    "num_unique_magnetic_sites",
    "types_of_magnetic_species",
    "bulk_modulus",
    "shear_modulus",
    "universal_anisotropy",
    "homogeneous_poisson",
    "e_total",
    "e_ionic",
    "e_electronic",
    "n",
    "e_ij_max",
    "weighted_surface_energy_EV_PER_ANG2",
    "weighted_surface_energy",
    "weighted_work_function",
    "surface_anisotropy",
    "shape_factor",
    "has_reconstructed",
    "possible_species",
    "has_props",
    "theoretical",
    "database_IDs"
  ]
}
