{
  "builder_meta": null,
  "nsites": null,
  "elements": null,
  "nelements": null,
  "composition": null,
  "composition_reduced": null,
  "formula_pretty": "Sc3Sn",
  "formula_anonymous": "AB3",
  "chemsys": null,
  "volume": 182.91469875675338,
  "density": 4.6040667033319504,
  "density_atomic": 22.864337344594173,
  "symmetry": null,
  "property_name": null,
  "material_id": "mp-1186976",
  "deprecated": null,
  "deprecation_reasons": null,
  "last_updated": null,
  "origins": null,
  "warnings": null,
  "structure": {
    "@module": "pymatgen.core.structure",
    "@class": "Structure",
    "charge": 0,
    "lattice": {
      "matrix": [
        [3.1868022, -5.51969972, -0.0],
        [3.18680118, 5.51969972, -0.0],
        [0.0, -0.0, 5.19933882]
      ],
      "pbc": [true, true, true],
      "a": 6.3736012787821075,
      "b": 6.37360076878192,
      "c": 5.19933882,
      "alpha": 90.0,
      "beta": 90.0,
      "gamma": 119.99997554190557,
      "volume": 182.91469875675338
    },
    "properties": {},
    "sites": [
      {
        "species": [{ "element": "Sc", "occu": 1 }],
        "abc": [0.16905064, 0.33810228000000003, 0.25],
        "properties": { "magmom": 0.525 },
        "label": "Sc",
        "xyz": [1.6161956963280983, 0.9331142899735411, 1.299834705]
      },
      {
        "species": [{ "element": "Sc", "occu": 1 }],
        "abc": [0.66189772, 0.83094936, 0.25],
        "properties": { "magmom": 0.525 },
        "label": "Sc",
        "xyz": [4.7574075112392284, 0.9331142899735401, 1.299834705]
      },
      {
        "species": [{ "element": "Sc", "occu": 1 }],
        "abc": [0.16905064, 0.83094936, 0.25],
        "properties": { "magmom": 0.525 },
        "label": "Sc",
        "xyz": [3.1868013524316527, 3.6534821794523578, 1.299834705]
      },
      {
        "species": [{ "element": "Sc", "occu": 1 }],
        "abc": [0.83094936, 0.66189772, 0.75],
        "properties": { "magmom": 0.525 },
        "label": "Sc",
        "xyz": [4.757407683671901, -0.9331142899735401, 3.899504115]
      },
      {
        "species": [{ "element": "Sc", "occu": 1 }],
        "abc": [0.33810228000000003, 0.16905064, 0.75],
        "properties": { "magmom": 0.525 },
        "label": "Sc",
        "xyz": [1.6161958687607711, -0.9331142899735411, 3.899504115]
      },
      {
        "species": [{ "element": "Sc", "occu": 1 }],
        "abc": [0.83094936, 0.16905064, 0.75],
        "properties": { "magmom": 0.525 },
        "label": "Sc",
        "xyz": [3.186802027568347, -3.6534821794523578, 3.899504115]
      },
      {
        "species": [{ "element": "Sn", "occu": 1 }],
        "abc": [0.333333, 0.666667, 0.75],
        "properties": { "magmom": -0.108 },
        "label": "Sn",
        "xyz": [3.1868015199996598, 1.8399035864664803, 3.899504115]
      },
      {
        "species": [{ "element": "Sn", "occu": 1 }],
        "abc": [0.666667, 0.333333, 0.25],
        "properties": { "magmom": -0.108 },
        "label": "Sn",
        "xyz": [3.18680186000034, -1.8399035864664803, 1.299834705]
      }
    ]
  },
  "task_ids": null,
  "uncorrected_energy_per_atom": null,
  "energy_per_atom": -15.2400458975,
  "formation_energy_per_atom": -0.504634436249999,
  "energy_above_hull": 0.0,
  "is_stable": true,
  "equilibrium_reaction_energy_per_atom": null,
  "decomposes_to": null,
  "xas": null,
  "grain_boundaries": null,
  "band_gap": 0.0,
  "cbm": null,
  "vbm": null,
  "efermi": 5.76922971,
  "is_gap_direct": null,
  "is_metal": null,
  "es_source_calc_id": null,
  "bandstructure": null,
  "dos": null,
  "dos_energy_up": null,
  "dos_energy_down": null,
  "is_magnetic": null,
  "ordering": null,
  "total_magnetization": 4.6176365,
  "total_magnetization_normalized_vol": null,
  "total_magnetization_normalized_formula_units": null,
  "num_magnetic_sites": null,
  "num_unique_magnetic_sites": null,
  "types_of_magnetic_species": null,
  "bulk_modulus": null,
  "shear_modulus": null,
  "universal_anisotropy": null,
  "homogeneous_poisson": null,
  "e_total": null,
  "e_ionic": null,
  "e_electronic": null,
  "n": null,
  "e_ij_max": null,
  "weighted_surface_energy_EV_PER_ANG2": null,
  "weighted_surface_energy": null,
  "weighted_work_function": null,
  "surface_anisotropy": null,
  "shape_factor": null,
  "has_reconstructed": null,
  "possible_species": null,
  "has_props": null,
  "theoretical": null,
  "database_IDs": null,
  "fields_not_requested": [
    "builder_meta",
    "nsites",
    "elements",
    "nelements",
    "composition",
    "composition_reduced",
    "chemsys",
    "symmetry",
    "property_name",
    "deprecated",
    "deprecation_reasons",
    "last_updated",
    "origins",
    "warnings",
    "task_ids",
    "uncorrected_energy_per_atom",
    "equilibrium_reaction_energy_per_atom",
    "decomposes_to",
    "xas",
    "grain_boundaries",
    "cbm",
    "vbm",
    "is_gap_direct",
    "is_metal",
    "es_source_calc_id",
    "bandstructure",
    "dos",
    "dos_energy_up",
    "dos_energy_down",
    "is_magnetic",
    "ordering",
    "total_magnetization_normalized_vol",
    "total_magnetization_normalized_formula_units",
    "num_magnetic_sites",
    "num_unique_magnetic_sites",
    "types_of_magnetic_species",
    "bulk_modulus",
    "shear_modulus",
    "universal_anisotropy",
    "homogeneous_poisson",
    "e_total",
    "e_ionic",
    "e_electronic",
    "n",
    "e_ij_max",
    "weighted_surface_energy_EV_PER_ANG2",
    "weighted_surface_energy",
    "weighted_work_function",
    "surface_anisotropy",
    "shape_factor",
    "has_reconstructed",
    "possible_species",
    "has_props",
    "theoretical",
    "database_IDs"
  ]
}
