{
  "builder_meta": null,
  "nsites": null,
  "elements": null,
  "nelements": null,
  "composition": null,
  "composition_reduced": null,
  "formula_pretty": "Sc3Tc",
  "formula_anonymous": "AB3",
  "chemsys": null,
  "volume": 160.32948332056506,
  "density": 4.823641478411674,
  "density_atomic": 20.041185415070633,
  "symmetry": null,
  "property_name": null,
  "material_id": "mp-861889",
  "deprecated": null,
  "deprecation_reasons": null,
  "last_updated": null,
  "origins": null,
  "warnings": null,
  "structure": {
    "@module": "pymatgen.core.structure",
    "@class": "Structure",
    "charge": 0,
    "lattice": {
      "matrix": [
        [6.24644873, -2.589e-5, -1e-8],
        [-3.12324784, 5.40956025, 4e-8],
        [-1e-8, 3.0000000000000004e-8, 4.74481507]
      ],
      "pbc": [true, true, true],
      "a": 6.246448730053654,
      "b": 6.2464405198836825,
      "c": 4.74481507,
      "alpha": 89.99999925899179,
      "beta": 90.00000021248137,
      "gamma": 120.00052959288045,
      "volume": 160.32948332056506
    },
    "properties": {},
    "sites": [
      {
        "species": [{ "element": "Sc", "occu": 1 }],
        "abc": [0.17189945, 0.3437965, 0.249999299999999],
        "properties": { "magmom": -0.0 },
        "label": "Sc",
        "xyz": [-5.773843544483689e-7, 1.8597834375123437, 1.1862004581623118]
      },
      {
        "species": [{ "element": "Sc", "occu": 1 }],
        "abc": [0.65620414, 0.8281005100000001, 0.24999932],
        "properties": { "magmom": -0.0 },
        "label": "Sc",
        "xyz": [1.512582385263351, 4.479642620275523, 1.1862005675877314]
      },
      {
        "species": [{ "element": "Sc", "occu": 1 }],
        "abc": [0.17189891000000002, 0.8281004, 0.24999931],
        "properties": { "magmom": -0.0 },
        "label": "Sc",
        "xyz": [-1.5126050600452443, 4.4796545638862995, 1.1862005249826284]
      },
      {
        "species": [{ "element": "Sc", "occu": 1 }],
        "abc": [0.82810055, 0.656203499999999, 0.7499987],
        "properties": { "magmom": -0.0 },
        "label": "Sc",
        "xyz": [3.1232014573843774, 3.5497509524875914, 3.558605152207543]
      },
      {
        "species": [{ "element": "Sc", "occu": 1 }],
        "abc": [0.34379586, 0.17189949000000002, 0.74999868],
        "properties": { "magmom": -0.0 },
        "label": "Sc",
        "xyz": [1.6106184947366695, 0.9298917697244177, 3.5586050427821285]
      },
      {
        "species": [{ "element": "Sc", "occu": 1 }],
        "abc": [0.82810109, 0.17189959999999901, 0.74999869],
        "properties": { "magmom": -0.0 },
        "label": "Sc",
        "xyz": [4.635805940045267, 0.9298798261136353, 3.558605085387231]
      },
      {
        "species": [{ "element": "Tc", "occu": 1 }],
        "abc": [0.33333389, 0.66666823, 0.74999772],
        "properties": { "magmom": 0.0 },
        "label": "Tc",
        "xyz": [-1.706298764070873e-5, 3.606373349431377, 3.55860050765503]
      },
      {
        "species": [{ "element": "Tc", "occu": 1 }],
        "abc": [0.66666611, 0.33333177, 0.25000028],
        "properties": { "magmom": 0.0 },
        "label": "Tc",
        "xyz": [3.1232179429876608, 1.8031610405685632, 1.1862051027148293]
      }
    ]
  },
  "task_ids": null,
  "uncorrected_energy_per_atom": null,
  "energy_per_atom": -7.40974750625,
  "formation_energy_per_atom": -0.070235941249999,
  "energy_above_hull": 0.044151896562501,
  "is_stable": false,
  "equilibrium_reaction_energy_per_atom": null,
  "decomposes_to": null,
  "xas": null,
  "grain_boundaries": null,
  "band_gap": 0.0,
  "cbm": null,
  "vbm": null,
  "efermi": 5.08700322,
  "is_gap_direct": null,
  "is_metal": null,
  "es_source_calc_id": null,
  "bandstructure": null,
  "dos": null,
  "dos_energy_up": null,
  "dos_energy_down": null,
  "is_magnetic": null,
  "ordering": null,
  "total_magnetization": 3e-7,
  "total_magnetization_normalized_vol": null,
  "total_magnetization_normalized_formula_units": null,
  "num_magnetic_sites": null,
  "num_unique_magnetic_sites": null,
  "types_of_magnetic_species": null,
  "bulk_modulus": null,
  "shear_modulus": null,
  "universal_anisotropy": null,
  "homogeneous_poisson": null,
  "e_total": null,
  "e_ionic": null,
  "e_electronic": null,
  "n": null,
  "e_ij_max": null,
  "weighted_surface_energy_EV_PER_ANG2": null,
  "weighted_surface_energy": null,
  "weighted_work_function": null,
  "surface_anisotropy": null,
  "shape_factor": null,
  "has_reconstructed": null,
  "possible_species": null,
  "has_props": null,
  "theoretical": null,
  "database_IDs": null,
  "fields_not_requested": [
    "builder_meta",
    "nsites",
    "elements",
    "nelements",
    "composition",
    "composition_reduced",
    "chemsys",
    "symmetry",
    "property_name",
    "deprecated",
    "deprecation_reasons",
    "last_updated",
    "origins",
    "warnings",
    "task_ids",
    "uncorrected_energy_per_atom",
    "equilibrium_reaction_energy_per_atom",
    "decomposes_to",
    "xas",
    "grain_boundaries",
    "cbm",
    "vbm",
    "is_gap_direct",
    "is_metal",
    "es_source_calc_id",
    "bandstructure",
    "dos",
    "dos_energy_up",
    "dos_energy_down",
    "is_magnetic",
    "ordering",
    "total_magnetization_normalized_vol",
    "total_magnetization_normalized_formula_units",
    "num_magnetic_sites",
    "num_unique_magnetic_sites",
    "types_of_magnetic_species",
    "bulk_modulus",
    "shear_modulus",
    "universal_anisotropy",
    "homogeneous_poisson",
    "e_total",
    "e_ionic",
    "e_electronic",
    "n",
    "e_ij_max",
    "weighted_surface_energy_EV_PER_ANG2",
    "weighted_surface_energy",
    "weighted_work_function",
    "surface_anisotropy",
    "shape_factor",
    "has_reconstructed",
    "possible_species",
    "has_props",
    "theoretical",
    "database_IDs"
  ]
}
