{
  "builder_meta": null,
  "nsites": null,
  "elements": null,
  "nelements": null,
  "composition": null,
  "composition_reduced": null,
  "formula_pretty": "Sc3Te4",
  "formula_anonymous": "A3B4",
  "chemsys": null,
  "volume": 209.75837837846072,
  "density": 5.108221623029875,
  "density_atomic": 29.96548262549439,
  "symmetry": null,
  "property_name": null,
  "material_id": "mp-1219373",
  "deprecated": null,
  "deprecation_reasons": null,
  "last_updated": null,
  "origins": null,
  "warnings": null,
  "structure": {
    "@module": "pymatgen.core.structure",
    "@class": "Structure",
    "charge": 0,
    "lattice": {
      "matrix": [
        [14.068121, -2.078448, 0.0],
        [14.068121, 2.078448, 0.0],
        [13.761048, 0.0, 3.586857]
      ],
      "pbc": [true, true, true],
      "a": 14.22082889846246,
      "b": 14.22082889846246,
      "c": 14.220829272470471,
      "alpha": 16.808358357471246,
      "beta": 16.808358357471246,
      "gamma": 16.808359217104496,
      "volume": 209.75837837846072
    },
    "properties": {},
    "sites": [
      {
        "species": [{ "element": "Sc", "occu": 1 }],
        "abc": [0.9969800000000001, 0.9969800000000001, 0.9969800000000001],
        "properties": { "magmom": 0.002 },
        "label": "Sc",
        "xyz": [41.7707601842, 0.0, 3.5760246918600007]
      },
      {
        "species": [{ "element": "Sc", "occu": 1 }],
        "abc": [0.503311, 0.503311, 0.503311],
        "properties": { "magmom": 0.009000000000000001 },
        "label": "Sc",
        "xyz": [21.087366927189997, 0.0, 1.8053045835269999]
      },
      {
        "species": [{ "element": "Sc", "occu": 1 }],
        "abc": [0.416265, 0.416265, 0.416265],
        "properties": { "magmom": 0.033 },
        "label": "Sc",
        "xyz": [17.44037542185, 0.0, 1.4930830291050001]
      },
      {
        "species": [{ "element": "Te", "occu": 1 }],
        "abc": [0.293346, 0.293346, 0.293346],
        "properties": { "magmom": 0.001 },
        "label": "Te",
        "xyz": [12.29040243234, 0.0, 1.052190153522]
      },
      {
        "species": [{ "element": "Te", "occu": 1 }],
        "abc": [0.708125, 0.708125, 0.708125],
        "properties": { "magmom": -0.001 },
        "label": "Te",
        "xyz": [29.668518481249997, 0.0, 2.539943113125]
      },
      {
        "species": [{ "element": "Te", "occu": 1 }],
        "abc": [0.124155999999999, 0.124155999999999, 0.124155999999999],
        "properties": { "magmom": -0.001 },
        "label": "Te",
        "xyz": [5.201799937239958, 0.0, 0.4453298176919964]
      },
      {
        "species": [{ "element": "Te", "occu": 1 }],
        "abc": [0.872818, 0.872818, 0.872818],
        "properties": { "magmom": -0.0 },
        "label": "Te",
        "xyz": [36.56870886322, 0.0, 3.1306733530260002]
      }
    ]
  },
  "task_ids": null,
  "uncorrected_energy_per_atom": null,
  "energy_per_atom": -5.9296854942857165,
  "formation_energy_per_atom": -1.419595367380952,
  "energy_above_hull": 0.034644327142856,
  "is_stable": false,
  "equilibrium_reaction_energy_per_atom": null,
  "decomposes_to": null,
  "xas": null,
  "grain_boundaries": null,
  "band_gap": 0.0,
  "cbm": null,
  "vbm": null,
  "efermi": 5.40263328,
  "is_gap_direct": null,
  "is_metal": null,
  "es_source_calc_id": null,
  "bandstructure": null,
  "dos": null,
  "dos_energy_up": null,
  "dos_energy_down": null,
  "is_magnetic": null,
  "ordering": null,
  "total_magnetization": 0.06710819999999901,
  "total_magnetization_normalized_vol": null,
  "total_magnetization_normalized_formula_units": null,
  "num_magnetic_sites": null,
  "num_unique_magnetic_sites": null,
  "types_of_magnetic_species": null,
  "bulk_modulus": null,
  "shear_modulus": null,
  "universal_anisotropy": null,
  "homogeneous_poisson": null,
  "e_total": null,
  "e_ionic": null,
  "e_electronic": null,
  "n": null,
  "e_ij_max": null,
  "weighted_surface_energy_EV_PER_ANG2": null,
  "weighted_surface_energy": null,
  "weighted_work_function": null,
  "surface_anisotropy": null,
  "shape_factor": null,
  "has_reconstructed": null,
  "possible_species": null,
  "has_props": null,
  "theoretical": null,
  "database_IDs": null,
  "fields_not_requested": [
    "builder_meta",
    "nsites",
    "elements",
    "nelements",
    "composition",
    "composition_reduced",
    "chemsys",
    "symmetry",
    "property_name",
    "deprecated",
    "deprecation_reasons",
    "last_updated",
    "origins",
    "warnings",
    "task_ids",
    "uncorrected_energy_per_atom",
    "equilibrium_reaction_energy_per_atom",
    "decomposes_to",
    "xas",
    "grain_boundaries",
    "cbm",
    "vbm",
    "is_gap_direct",
    "is_metal",
    "es_source_calc_id",
    "bandstructure",
    "dos",
    "dos_energy_up",
    "dos_energy_down",
    "is_magnetic",
    "ordering",
    "total_magnetization_normalized_vol",
    "total_magnetization_normalized_formula_units",
    "num_magnetic_sites",
    "num_unique_magnetic_sites",
    "types_of_magnetic_species",
    "bulk_modulus",
    "shear_modulus",
    "universal_anisotropy",
    "homogeneous_poisson",
    "e_total",
    "e_ionic",
    "e_electronic",
    "n",
    "e_ij_max",
    "weighted_surface_energy_EV_PER_ANG2",
    "weighted_surface_energy",
    "weighted_work_function",
    "surface_anisotropy",
    "shape_factor",
    "has_reconstructed",
    "possible_species",
    "has_props",
    "theoretical",
    "database_IDs"
  ]
}
