{"builder_meta": null, "nsites": null, "elements": null, "nelements": null, "composition": null, "composition_reduced": null, "formula_pretty": "Sc3Tl", "formula_anonymous": "AB3", "chemsys": null, "volume": 185.33580600969526, "density": 6.079123195795783, "density_atomic": 23.166975751211908, "symmetry": null, "property_name": null, "material_id": "mp-1186974", "deprecated": null, "deprecation_reasons": null, "last_updated": null, "origins": null, "warnings": null, "structure": {"@module": "pymatgen.core.structure", "@class": "Structure", "charge": 0, "lattice": {"matrix": [[6.39113542, 3.609999999999999e-06, 0.0], [-3.19556546, 5.534883329999999, 0.0], [0.0, 0.0, 5.23929315]], "pbc": [true, true, true], "a": 6.39113542000102, "b": 6.391132300763058, "c": 5.23929315, "alpha": 90.0, "beta": 90.0, "gamma": 119.99996049010976, "volume": 185.33580600969523}, "properties": {}, "sites": [{"species": [{"element": "Sc", "occu": 1}], "abc": [0.16888368, 0.33776203, 0.25], "properties": {"magmom": 0.448}, "label": "Sc", "xyz": [1.779234046184186e-05, 1.8694740390240443, 1.3098232875]}, {"species": [{"element": "Sc", "occu": 1}], "abc": [0.66223602, 0.83111722, 0.25], "properties": {"magmom": 0.448}, "label": "Sc", "xyz": [1.5765506023786076, 4.6001392369259735, 1.3098232875]}, {"species": [{"element": "Sc", "occu": 1}], "abc": [0.16888172, 0.83111911, 0.25], "properties": {"magmom": 0.448}, "label": "Sc", "xyz": [-1.5765495785794184, 4.600147916846445, 1.3098232875]}, {"species": [{"element": "Sc", "occu": 1}], "abc": [0.831115899999999, 0.66223685, 0.75], "properties": {"magmom": 0.448}, "label": "Sc", "xyz": [3.1955530624159714, 3.6654067019051086, 3.9294698625]}, {"species": [{"element": "Sc", "occu": 1}], "abc": [0.33776475, 0.16888321, 0.75], "properties": {"magmom": 0.448}, "label": "Sc", "xyz": [1.6190229047025184, 0.9347500830766365, 3.9294698625]}, {"species": [{"element": "Sc", "occu": 1}], "abc": [0.83111947, 0.16888004, 0.75], "properties": {"magmom": 0.448}, "label": "Sc", "xyz": [4.7721298602612094, 0.9347343185070198, 3.9294698625]}, {"species": [{"element": "Tl", "occu": 1}], "abc": [0.33333303000000003, 0.66666501, 0.75], "properties": {"magmom": -0.062}, "label": "Tl", "xyz": [4.855342368159654e-06, 3.6899142538755205, 3.9294698625]}, {"species": [{"element": "Tl", "occu": 1}], "abc": [0.66666744, 0.33333252, 0.25], "properties": {"magmom": -0.062}, "label": "Tl", "xyz": [3.195576001537966, 1.8449590149643496, 1.3098232875]}]}, "task_ids": null, "uncorrected_energy_per_atom": null, "energy_per_atom": -22.12312534, "formation_energy_per_atom": -0.279433678750002, "energy_above_hull": 0.0, "is_stable": true, "equilibrium_reaction_energy_per_atom": null, "decomposes_to": null, "xas": null, "grain_boundaries": null, "band_gap": 0.0, "cbm": null, "vbm": null, "efermi": 5.20469844, "is_gap_direct": null, "is_metal": null, "es_source_calc_id": null, "bandstructure": null, "dos": null, "dos_energy_up": null, "dos_energy_down": null, "is_magnetic": null, "ordering": null, "total_magnetization": 3.811271999999999, "total_magnetization_normalized_vol": null, "total_magnetization_normalized_formula_units": null, "num_magnetic_sites": null, "num_unique_magnetic_sites": null, "types_of_magnetic_species": null, "bulk_modulus": null, "shear_modulus": null, "universal_anisotropy": null, "homogeneous_poisson": null, "e_total": null, "e_ionic": null, "e_electronic": null, "n": null, "e_ij_max": null, "weighted_surface_energy_EV_PER_ANG2": null, "weighted_surface_energy": null, "weighted_work_function": null, "surface_anisotropy": null, "shape_factor": null, "has_reconstructed": null, "possible_species": null, "has_props": null, "theoretical": null, "database_IDs": null, "fields_not_requested": ["builder_meta", "nsites", "elements", "nelements", "composition", "composition_reduced", "chemsys", "symmetry", "property_name", "deprecated", "deprecation_reasons", "last_updated", "origins", "warnings", "task_ids", "uncorrected_energy_per_atom", "equilibrium_reaction_energy_per_atom", "decomposes_to", "xas", "grain_boundaries", "cbm", "vbm", "is_gap_direct", "is_metal", "es_source_calc_id", "bandstructure", "dos", "dos_energy_up", "dos_energy_down", "is_magnetic", "ordering", "total_magnetization_normalized_vol", "total_magnetization_normalized_formula_units", "num_magnetic_sites", "num_unique_magnetic_sites", "types_of_magnetic_species", "bulk_modulus", "shear_modulus", "universal_anisotropy", "homogeneous_poisson", "e_total", "e_ionic", "e_electronic", "n", "e_ij_max", "weighted_surface_energy_EV_PER_ANG2", "weighted_surface_energy", "weighted_work_function", "surface_anisotropy", "shape_factor", "has_reconstructed", "possible_species", "has_props", "theoretical", "database_IDs"]}