{
  "builder_meta": null,
  "nsites": null,
  "elements": null,
  "nelements": null,
  "composition": null,
  "composition_reduced": null,
  "formula_pretty": "Sc3V",
  "formula_anonymous": "AB3",
  "chemsys": null,
  "volume": 171.0724927021683,
  "density": 3.607166651277635,
  "density_atomic": 21.384061587771036,
  "symmetry": null,
  "property_name": null,
  "material_id": "mp-1186979",
  "deprecated": null,
  "deprecation_reasons": null,
  "last_updated": null,
  "origins": null,
  "warnings": null,
  "structure": {
    "@module": "pymatgen.core.structure",
    "@class": "Structure",
    "charge": 0,
    "lattice": {
      "matrix": [
        [3.167111, -5.485597, 0.0],
        [3.167111, 5.485597, 0.0],
        [0.0, 0.0, 4.923376]
      ],
      "pbc": [true, true, true],
      "a": 6.334221856923706,
      "b": 6.334221856923706,
      "c": 4.923376,
      "alpha": 90.0,
      "beta": 90.0,
      "gamma": 119.99999850560154,
      "volume": 171.0724927021683
    },
    "properties": {},
    "sites": [
      {
        "species": [{ "element": "Sc", "occu": 1 }],
        "abc": [0.17125, 0.342501, 0.25],
        "properties": { "magmom": -0.133 },
        "label": "Sc",
        "xyz": [1.6271064433609999, 0.9394139718469999, 1.230844]
      },
      {
        "species": [{ "element": "Sc", "occu": 1 }],
        "abc": [0.657499, 0.8287500000000001, 0.25],
        "properties": { "magmom": -0.133 },
        "label": "Sc",
        "xyz": [4.707115556639, 0.9394139718470007, 1.230844]
      },
      {
        "species": [{ "element": "Sc", "occu": 1 }],
        "abc": [0.17125, 0.8287500000000001, 0.25],
        "properties": { "magmom": -0.133 },
        "label": "Sc",
        "xyz": [3.1671110000000002, 3.6067800275000006, 1.230844]
      },
      {
        "species": [{ "element": "Sc", "occu": 1 }],
        "abc": [0.8287500000000001, 0.657499, 0.75],
        "properties": { "magmom": -0.138 },
        "label": "Sc",
        "xyz": [4.707115556639, -0.9394139718470007, 3.692532]
      },
      {
        "species": [{ "element": "Sc", "occu": 1 }],
        "abc": [0.342501, 0.17125, 0.75],
        "properties": { "magmom": -0.138 },
        "label": "Sc",
        "xyz": [1.6271064433609999, -0.9394139718469999, 3.692532]
      },
      {
        "species": [{ "element": "Sc", "occu": 1 }],
        "abc": [0.8287500000000001, 0.17125, 0.75],
        "properties": { "magmom": -0.138 },
        "label": "Sc",
        "xyz": [3.1671110000000002, -3.6067800275000006, 3.692532]
      },
      {
        "species": [{ "element": "V", "occu": 1 }],
        "abc": [0.333333, 0.666667, 0.75],
        "properties": { "magmom": 1.718999999999999 },
        "label": "V",
        "xyz": [3.167111, 1.8285359903980003, 3.692532]
      },
      {
        "species": [{ "element": "V", "occu": 1 }],
        "abc": [0.666667, 0.333333, 0.25],
        "properties": { "magmom": 1.734999999999999 },
        "label": "V",
        "xyz": [3.167111, -1.8285359903980003, 1.230844]
      }
    ]
  },
  "task_ids": null,
  "uncorrected_energy_per_atom": null,
  "energy_per_atom": -11.8927593275,
  "formation_energy_per_atom": 0.178500121249999,
  "energy_above_hull": 0.178500121249999,
  "is_stable": false,
  "equilibrium_reaction_energy_per_atom": null,
  "decomposes_to": null,
  "xas": null,
  "grain_boundaries": null,
  "band_gap": 0.0,
  "cbm": null,
  "vbm": null,
  "efermi": 4.02826987,
  "is_gap_direct": null,
  "is_metal": null,
  "es_source_calc_id": null,
  "bandstructure": null,
  "dos": null,
  "dos_energy_up": null,
  "dos_energy_down": null,
  "is_magnetic": null,
  "ordering": null,
  "total_magnetization": 2.9086442,
  "total_magnetization_normalized_vol": null,
  "total_magnetization_normalized_formula_units": null,
  "num_magnetic_sites": null,
  "num_unique_magnetic_sites": null,
  "types_of_magnetic_species": null,
  "bulk_modulus": null,
  "shear_modulus": null,
  "universal_anisotropy": null,
  "homogeneous_poisson": null,
  "e_total": null,
  "e_ionic": null,
  "e_electronic": null,
  "n": null,
  "e_ij_max": null,
  "weighted_surface_energy_EV_PER_ANG2": null,
  "weighted_surface_energy": null,
  "weighted_work_function": null,
  "surface_anisotropy": null,
  "shape_factor": null,
  "has_reconstructed": null,
  "possible_species": null,
  "has_props": null,
  "theoretical": null,
  "database_IDs": null,
  "fields_not_requested": [
    "builder_meta",
    "nsites",
    "elements",
    "nelements",
    "composition",
    "composition_reduced",
    "chemsys",
    "symmetry",
    "property_name",
    "deprecated",
    "deprecation_reasons",
    "last_updated",
    "origins",
    "warnings",
    "task_ids",
    "uncorrected_energy_per_atom",
    "equilibrium_reaction_energy_per_atom",
    "decomposes_to",
    "xas",
    "grain_boundaries",
    "cbm",
    "vbm",
    "is_gap_direct",
    "is_metal",
    "es_source_calc_id",
    "bandstructure",
    "dos",
    "dos_energy_up",
    "dos_energy_down",
    "is_magnetic",
    "ordering",
    "total_magnetization_normalized_vol",
    "total_magnetization_normalized_formula_units",
    "num_magnetic_sites",
    "num_unique_magnetic_sites",
    "types_of_magnetic_species",
    "bulk_modulus",
    "shear_modulus",
    "universal_anisotropy",
    "homogeneous_poisson",
    "e_total",
    "e_ionic",
    "e_electronic",
    "n",
    "e_ij_max",
    "weighted_surface_energy_EV_PER_ANG2",
    "weighted_surface_energy",
    "weighted_work_function",
    "surface_anisotropy",
    "shape_factor",
    "has_reconstructed",
    "possible_species",
    "has_props",
    "theoretical",
    "database_IDs"
  ]
}
