{
  "builder_meta": null,
  "nsites": null,
  "elements": null,
  "nelements": null,
  "composition": null,
  "composition_reduced": null,
  "formula_pretty": "Sc4Al",
  "formula_anonymous": "AB4",
  "chemsys": null,
  "volume": 274.3372632768025,
  "density": 2.50354681987411,
  "density_atomic": 27.43372632768025,
  "symmetry": null,
  "property_name": null,
  "material_id": "mp-1209129",
  "deprecated": null,
  "deprecation_reasons": null,
  "last_updated": null,
  "origins": null,
  "warnings": null,
  "structure": {
    "@module": "pymatgen.core.structure",
    "@class": "Structure",
    "charge": 0,
    "lattice": {
      "matrix": [
        [0.0, 5.157251, 5.157251],
        [5.157251, 0.0, 5.157251],
        [5.157251, 5.157251, 0.0]
      ],
      "pbc": [true, true, true],
      "a": 7.293454308762207,
      "b": 7.293454308762207,
      "c": 7.293454308762207,
      "alpha": 60.00000000000001,
      "beta": 60.00000000000001,
      "gamma": 60.00000000000001,
      "volume": 274.3372632768025
    },
    "properties": {},
    "sites": [
      {
        "species": [{ "element": "Sc", "occu": 1 }],
        "abc": [0.396366, 0.396366, 0.396366],
        "properties": { "magmom": 0.14200000000000002 },
        "label": "Sc",
        "xyz": [4.088317899732, 4.088317899732, 4.088317899732]
      },
      {
        "species": [{ "element": "Sc", "occu": 1 }],
        "abc": [0.396366, 0.396366, 0.810901],
        "properties": { "magmom": 0.14200000000000002 },
        "label": "Sc",
        "xyz": [6.226178943016999, 6.226178943016999, 4.088317899732]
      },
      {
        "species": [{ "element": "Sc", "occu": 1 }],
        "abc": [0.396366, 0.810901, 0.396366],
        "properties": { "magmom": 0.14200000000000002 },
        "label": "Sc",
        "xyz": [6.226178943016999, 4.088317899732, 6.226178943016999]
      },
      {
        "species": [{ "element": "Sc", "occu": 1 }],
        "abc": [0.853634, 0.853634, 0.439098999999999],
        "properties": { "magmom": 0.14200000000000002 },
        "label": "Sc",
        "xyz": [6.6669485569829945, 6.6669485569829945, 8.804809600268]
      },
      {
        "species": [{ "element": "Sc", "occu": 1 }],
        "abc": [0.853634, 0.853634, 0.853634],
        "properties": { "magmom": 0.14200000000000002 },
        "label": "Sc",
        "xyz": [8.804809600268, 8.804809600268, 8.804809600268]
      },
      {
        "species": [{ "element": "Sc", "occu": 1 }],
        "abc": [0.810901, 0.396366, 0.396366],
        "properties": { "magmom": 0.14100000000000001 },
        "label": "Sc",
        "xyz": [4.088317899732, 6.226178943016999, 6.226178943016999]
      },
      {
        "species": [{ "element": "Sc", "occu": 1 }],
        "abc": [0.853634, 0.439098999999999, 0.853634],
        "properties": { "magmom": 0.14200000000000002 },
        "label": "Sc",
        "xyz": [6.6669485569829945, 8.804809600268, 6.6669485569829945]
      },
      {
        "species": [{ "element": "Sc", "occu": 1 }],
        "abc": [0.439098999999999, 0.853634, 0.853634],
        "properties": { "magmom": 0.14100000000000001 },
        "label": "Sc",
        "xyz": [8.804809600268, 6.6669485569829945, 6.6669485569829945]
      },
      {
        "species": [{ "element": "Al", "occu": 1 }],
        "abc": [0.0, 0.0, 0.0],
        "properties": { "magmom": 0.004 },
        "label": "Al",
        "xyz": [0.0, 0.0, 0.0]
      },
      {
        "species": [{ "element": "Al", "occu": 1 }],
        "abc": [0.25, 0.25, 0.25],
        "properties": { "magmom": 0.004 },
        "label": "Al",
        "xyz": [2.5786255, 2.5786255, 2.5786255]
      }
    ]
  },
  "task_ids": null,
  "uncorrected_energy_per_atom": null,
  "energy_per_atom": -9.960349348,
  "formation_energy_per_atom": 0.504860202,
  "energy_above_hull": 0.735914061,
  "is_stable": false,
  "equilibrium_reaction_energy_per_atom": null,
  "decomposes_to": null,
  "xas": null,
  "grain_boundaries": null,
  "band_gap": 0.0,
  "cbm": null,
  "vbm": null,
  "efermi": 2.99032085,
  "is_gap_direct": null,
  "is_metal": null,
  "es_source_calc_id": null,
  "bandstructure": null,
  "dos": null,
  "dos_energy_up": null,
  "dos_energy_down": null,
  "is_magnetic": null,
  "ordering": null,
  "total_magnetization": 1.9998189,
  "total_magnetization_normalized_vol": null,
  "total_magnetization_normalized_formula_units": null,
  "num_magnetic_sites": null,
  "num_unique_magnetic_sites": null,
  "types_of_magnetic_species": null,
  "bulk_modulus": null,
  "shear_modulus": null,
  "universal_anisotropy": null,
  "homogeneous_poisson": null,
  "e_total": null,
  "e_ionic": null,
  "e_electronic": null,
  "n": null,
  "e_ij_max": null,
  "weighted_surface_energy_EV_PER_ANG2": null,
  "weighted_surface_energy": null,
  "weighted_work_function": null,
  "surface_anisotropy": null,
  "shape_factor": null,
  "has_reconstructed": null,
  "possible_species": null,
  "has_props": null,
  "theoretical": null,
  "database_IDs": null,
  "fields_not_requested": [
    "builder_meta",
    "nsites",
    "elements",
    "nelements",
    "composition",
    "composition_reduced",
    "chemsys",
    "symmetry",
    "property_name",
    "deprecated",
    "deprecation_reasons",
    "last_updated",
    "origins",
    "warnings",
    "task_ids",
    "uncorrected_energy_per_atom",
    "equilibrium_reaction_energy_per_atom",
    "decomposes_to",
    "xas",
    "grain_boundaries",
    "cbm",
    "vbm",
    "is_gap_direct",
    "is_metal",
    "es_source_calc_id",
    "bandstructure",
    "dos",
    "dos_energy_up",
    "dos_energy_down",
    "is_magnetic",
    "ordering",
    "total_magnetization_normalized_vol",
    "total_magnetization_normalized_formula_units",
    "num_magnetic_sites",
    "num_unique_magnetic_sites",
    "types_of_magnetic_species",
    "bulk_modulus",
    "shear_modulus",
    "universal_anisotropy",
    "homogeneous_poisson",
    "e_total",
    "e_ionic",
    "e_electronic",
    "n",
    "e_ij_max",
    "weighted_surface_energy_EV_PER_ANG2",
    "weighted_surface_energy",
    "weighted_work_function",
    "surface_anisotropy",
    "shape_factor",
    "has_reconstructed",
    "possible_species",
    "has_props",
    "theoretical",
    "database_IDs"
  ]
}
