{
  "builder_meta": null,
  "nsites": null,
  "elements": null,
  "nelements": null,
  "composition": null,
  "composition_reduced": null,
  "formula_pretty": "Sc4Co",
  "formula_anonymous": "AB4",
  "chemsys": null,
  "volume": 237.22499704249537,
  "density": 3.34252351280301,
  "density_atomic": 23.722499704249536,
  "symmetry": null,
  "property_name": null,
  "material_id": "mp-1209073",
  "deprecated": null,
  "deprecation_reasons": null,
  "last_updated": null,
  "origins": null,
  "warnings": null,
  "structure": {
    "@module": "pymatgen.core.structure",
    "@class": "Structure",
    "charge": 0,
    "lattice": {
      "matrix": [
        [-4.91334, -4.91334, 0.0],
        [-4.91334, 0.0, -4.91334],
        [0.0, -4.91334, -4.91334]
      ],
      "pbc": [true, true, true],
      "a": 6.948512064550223,
      "b": 6.948512064550223,
      "c": 6.948512064550223,
      "alpha": 60.00000000000001,
      "beta": 60.00000000000001,
      "gamma": 60.00000000000001,
      "volume": 237.22499704249537
    },
    "properties": {},
    "sites": [
      {
        "species": [{ "element": "Sc", "occu": 1 }],
        "abc": [0.613501, 0.613501, 0.613501],
        "properties": { "magmom": 0.001 },
        "label": "Sc",
        "xyz": [-6.028678006679999, -6.028678006679999, -6.028678006679999]
      },
      {
        "species": [{ "element": "Sc", "occu": 1 }],
        "abc": [0.159497, 0.613501, 0.613501],
        "properties": { "magmom": 0.001 },
        "label": "Sc",
        "xyz": [-3.7980019933199993, -3.7980019933199993, -6.028678006679999]
      },
      {
        "species": [{ "element": "Sc", "occu": 1 }],
        "abc": [0.613501, 0.159497, 0.613501],
        "properties": { "magmom": 0.001 },
        "label": "Sc",
        "xyz": [-3.7980019933199993, -6.028678006679999, -3.7980019933199993]
      },
      {
        "species": [{ "element": "Sc", "occu": 1 }],
        "abc": [0.590503, 0.136498999999999, 0.136498999999999],
        "properties": { "magmom": 0.001 },
        "label": "Sc",
        "xyz": [-3.572008006679995, -3.572008006679995, -1.3413319933199903]
      },
      {
        "species": [{ "element": "Sc", "occu": 1 }],
        "abc": [0.136498999999999, 0.136498999999999, 0.136498999999999],
        "properties": { "magmom": 0.001 },
        "label": "Sc",
        "xyz": [-1.3413319933199903, -1.3413319933199903, -1.3413319933199903]
      },
      {
        "species": [{ "element": "Sc", "occu": 1 }],
        "abc": [0.613501, 0.613501, 0.159497],
        "properties": { "magmom": 0.001 },
        "label": "Sc",
        "xyz": [-6.028678006679999, -3.7980019933199993, -3.7980019933199993]
      },
      {
        "species": [{ "element": "Sc", "occu": 1 }],
        "abc": [0.136498999999999, 0.590503, 0.136498999999999],
        "properties": { "magmom": 0.001 },
        "label": "Sc",
        "xyz": [-3.572008006679995, -1.3413319933199903, -3.572008006679995]
      },
      {
        "species": [{ "element": "Sc", "occu": 1 }],
        "abc": [0.136498999999999, 0.136498999999999, 0.590503],
        "properties": { "magmom": 0.001 },
        "label": "Sc",
        "xyz": [-1.3413319933199903, -3.572008006679995, -3.572008006679995]
      },
      {
        "species": [{ "element": "Co", "occu": 1 }],
        "abc": [0.0, 0.0, 0.0],
        "properties": { "magmom": -0.001 },
        "label": "Co",
        "xyz": [0.0, 0.0, 0.0]
      },
      {
        "species": [{ "element": "Co", "occu": 1 }],
        "abc": [0.75, 0.75, 0.75],
        "properties": { "magmom": -0.001 },
        "label": "Co",
        "xyz": [-7.37001, -7.37001, -7.37001]
      }
    ]
  },
  "task_ids": null,
  "uncorrected_energy_per_atom": null,
  "energy_per_atom": -11.415203559,
  "formation_energy_per_atom": 0.35043255100000004,
  "energy_above_hull": 0.46693466600000005,
  "is_stable": false,
  "equilibrium_reaction_energy_per_atom": null,
  "decomposes_to": null,
  "xas": null,
  "grain_boundaries": null,
  "band_gap": 0.0,
  "cbm": null,
  "vbm": null,
  "efermi": 3.33674579,
  "is_gap_direct": null,
  "is_metal": null,
  "es_source_calc_id": null,
  "bandstructure": null,
  "dos": null,
  "dos_energy_up": null,
  "dos_energy_down": null,
  "is_magnetic": null,
  "ordering": null,
  "total_magnetization": 0.013764199999999002,
  "total_magnetization_normalized_vol": null,
  "total_magnetization_normalized_formula_units": null,
  "num_magnetic_sites": null,
  "num_unique_magnetic_sites": null,
  "types_of_magnetic_species": null,
  "bulk_modulus": null,
  "shear_modulus": null,
  "universal_anisotropy": null,
  "homogeneous_poisson": null,
  "e_total": null,
  "e_ionic": null,
  "e_electronic": null,
  "n": null,
  "e_ij_max": null,
  "weighted_surface_energy_EV_PER_ANG2": null,
  "weighted_surface_energy": null,
  "weighted_work_function": null,
  "surface_anisotropy": null,
  "shape_factor": null,
  "has_reconstructed": null,
  "possible_species": null,
  "has_props": null,
  "theoretical": null,
  "database_IDs": null,
  "fields_not_requested": [
    "builder_meta",
    "nsites",
    "elements",
    "nelements",
    "composition",
    "composition_reduced",
    "chemsys",
    "symmetry",
    "property_name",
    "deprecated",
    "deprecation_reasons",
    "last_updated",
    "origins",
    "warnings",
    "task_ids",
    "uncorrected_energy_per_atom",
    "equilibrium_reaction_energy_per_atom",
    "decomposes_to",
    "xas",
    "grain_boundaries",
    "cbm",
    "vbm",
    "is_gap_direct",
    "is_metal",
    "es_source_calc_id",
    "bandstructure",
    "dos",
    "dos_energy_up",
    "dos_energy_down",
    "is_magnetic",
    "ordering",
    "total_magnetization_normalized_vol",
    "total_magnetization_normalized_formula_units",
    "num_magnetic_sites",
    "num_unique_magnetic_sites",
    "types_of_magnetic_species",
    "bulk_modulus",
    "shear_modulus",
    "universal_anisotropy",
    "homogeneous_poisson",
    "e_total",
    "e_ionic",
    "e_electronic",
    "n",
    "e_ij_max",
    "weighted_surface_energy_EV_PER_ANG2",
    "weighted_surface_energy",
    "weighted_work_function",
    "surface_anisotropy",
    "shape_factor",
    "has_reconstructed",
    "possible_species",
    "has_props",
    "theoretical",
    "database_IDs"
  ]
}
