{"builder_meta": null, "nsites": null, "elements": null, "nelements": null, "composition": null, "composition_reduced": null, "formula_pretty": "Sc4C3", "formula_anonymous": "A3B4", "chemsys": null, "volume": 187.74561495263885, "density": 3.818325156564481, "density_atomic": 13.410401068045632, "symmetry": null, "property_name": null, "material_id": "mp-15661", "deprecated": null, "deprecation_reasons": null, "last_updated": null, "origins": null, "warnings": null, "structure": {"@module": "pymatgen.core.structure", "@class": "Structure", "charge": 0, "lattice": {"matrix": [[5.89052906, -1e-08, -2.08261603], [-2.94526504, 5.10134818, -2.08261603], [0.0, 1e-08, 6.24784912]], "pbc": [true, true, true], "a": 6.2478494008032435, "b": 6.247849945209029, "c": 6.24784912, "alpha": 109.47121454001304, "beta": 109.4712163845332, "gamma": 109.47122787570902, "volume": 187.74561495263885}, "properties": {}, "sites": [{"species": [{"element": "Sc", "occu": 1}], "abc": [0.40113149000000003, 0.5, -0.0], "properties": {"magmom": 0.0}, "label": "Sc", "xyz": [0.8902441787260997, 2.550674085988685, -1.876710886211785]}, {"species": [{"element": "Sc", "occu": 1}], "abc": [0.59886851, 0.59886851, 0.59886851], "properties": {"magmom": 0.0}, "label": "Sc", "xyz": [1.7638258752140106, 3.0550367835478114, 1.2472137756227801]}, {"species": [{"element": "Sc", "occu": 1}], "abc": [0.5, -0.0, 0.40113149000000003], "properties": {"magmom": 0.0}, "label": "Sc", "xyz": [2.94526453, -9.886850999999995e-10, 1.4649010118007888]}, {"species": [{"element": "Sc", "occu": 1}], "abc": [0.0, 0.40113149000000003, 0.5], "properties": {"magmom": 0.0}, "label": "Sc", "xyz": [-1.1814385539401095, 2.046311401452188, 2.288521688788215]}, {"species": [{"element": "Sc", "occu": 1}], "abc": [0.5, -0.0, 0.90113149], "properties": {"magmom": 0.0}, "label": "Sc", "xyz": [2.94526453, 4.0113149e-09, 4.588825571800789]}, {"species": [{"element": "Sc", "occu": 1}], "abc": [0.0, 0.90113149, 0.5], "properties": {"magmom": 0.0}, "label": "Sc", "xyz": [-2.6540710739401097, 4.596985491452188, 1.2472136737882151]}, {"species": [{"element": "Sc", "occu": 1}], "abc": [0.90113149, 0.5, -0.0], "properties": {"magmom": 0.0}, "label": "Sc", "xyz": [3.8355087087261004, 2.550674080988685, -2.9180189012117848]}, {"species": [{"element": "Sc", "occu": 1}], "abc": [0.09886851, 0.09886851, 0.09886851], "properties": {"magmom": 0.0}, "label": "Sc", "xyz": [0.2911938652140103, 0.5043626935478118, 0.20590524562278062]}, {"species": [{"element": "C", "occu": 1}], "abc": [0.75, 0.875, 0.125], "properties": {"magmom": -0.0}, "label": "C", "xyz": [1.8407898850000008, 4.46367965125, -2.6032699087499998]}, {"species": [{"element": "C", "occu": 1}], "abc": [0.625, 0.375, 0.25], "properties": {"magmom": -0.0}, "label": "C", "xyz": [2.5771062725, 1.9130055637499999, -0.5206537500000001]}, {"species": [{"element": "C", "occu": 1}], "abc": [0.875, 0.125, 0.75], "properties": {"magmom": -0.0}, "label": "C", "xyz": [4.7860547975, 0.63766852125, 2.60327081]}, {"species": [{"element": "C", "occu": 1}], "abc": [0.125, 0.75, 0.875], "properties": {"magmom": -0.0}, "label": "C", "xyz": [-1.4726326475, 3.8260111424999996, 3.64457895375]}, {"species": [{"element": "C", "occu": 1}], "abc": [0.375, 0.25, 0.625], "properties": {"magmom": -0.0}, "label": "C", "xyz": [1.4726321375000004, 1.2753370474999999, 2.6032706812499997]}, {"species": [{"element": "C", "occu": 1}], "abc": [0.25, 0.625, 0.375], "properties": {"magmom": -0.0}, "label": "C", "xyz": [-0.36815838499999964, 3.1883426137499993, 0.5206543937500001]}]}, "task_ids": null, "uncorrected_energy_per_atom": null, "energy_per_atom": -8.0583901, "formation_energy_per_atom": -0.48469397178571305, "energy_above_hull": 0.0, "is_stable": true, "equilibrium_reaction_energy_per_atom": null, "decomposes_to": null, "xas": null, "grain_boundaries": null, "band_gap": 0.32870000000000005, "cbm": null, "vbm": null, "efermi": 5.66266003, "is_gap_direct": null, "is_metal": null, "es_source_calc_id": null, "bandstructure": null, "dos": null, "dos_energy_up": null, "dos_energy_down": null, "is_magnetic": null, "ordering": null, "total_magnetization": 0.0, "total_magnetization_normalized_vol": null, "total_magnetization_normalized_formula_units": null, "num_magnetic_sites": null, "num_unique_magnetic_sites": null, "types_of_magnetic_species": null, "bulk_modulus": null, "shear_modulus": null, "universal_anisotropy": null, "homogeneous_poisson": null, "e_total": null, "e_ionic": null, "e_electronic": null, "n": null, "e_ij_max": null, "weighted_surface_energy_EV_PER_ANG2": null, "weighted_surface_energy": null, "weighted_work_function": null, "surface_anisotropy": null, "shape_factor": null, "has_reconstructed": null, "possible_species": null, "has_props": null, "theoretical": null, "database_IDs": null, "fields_not_requested": ["builder_meta", "nsites", "elements", "nelements", "composition", "composition_reduced", "chemsys", "symmetry", "property_name", "deprecated", "deprecation_reasons", "last_updated", "origins", "warnings", "task_ids", "uncorrected_energy_per_atom", "equilibrium_reaction_energy_per_atom", "decomposes_to", "xas", "grain_boundaries", "cbm", "vbm", "is_gap_direct", "is_metal", "es_source_calc_id", "bandstructure", "dos", "dos_energy_up", "dos_energy_down", "is_magnetic", "ordering", "total_magnetization_normalized_vol", "total_magnetization_normalized_formula_units", "num_magnetic_sites", "num_unique_magnetic_sites", "types_of_magnetic_species", "bulk_modulus", "shear_modulus", "universal_anisotropy", "homogeneous_poisson", "e_total", "e_ionic", "e_electronic", "n", "e_ij_max", "weighted_surface_energy_EV_PER_ANG2", "weighted_surface_energy", "weighted_work_function", "surface_anisotropy", "shape_factor", "has_reconstructed", "possible_species", "has_props", "theoretical", "database_IDs"]}