{
  "builder_meta": null,
  "nsites": null,
  "elements": null,
  "nelements": null,
  "composition": null,
  "composition_reduced": null,
  "formula_pretty": "Sc4Fe",
  "formula_anonymous": "AB4",
  "chemsys": null,
  "volume": 231.8879956746114,
  "density": 3.375224281346013,
  "density_atomic": 23.18879956746114,
  "symmetry": null,
  "property_name": null,
  "material_id": "mp-1209175",
  "deprecated": null,
  "deprecation_reasons": null,
  "last_updated": null,
  "origins": null,
  "warnings": null,
  "structure": {
    "@module": "pymatgen.core.structure",
    "@class": "Structure",
    "charge": 0,
    "lattice": {
      "matrix": [
        [-4.876214, -4.876214, 0.0],
        [-4.876214, 0.0, -4.876214],
        [0.0, -4.876214, -4.876214]
      ],
      "pbc": [true, true, true],
      "a": 6.896007971833559,
      "b": 6.896007971833559,
      "c": 6.896007971833559,
      "alpha": 59.99999999999999,
      "beta": 59.99999999999999,
      "gamma": 59.99999999999999,
      "volume": 231.8879956746114
    },
    "properties": {},
    "sites": [
      {
        "species": [{ "element": "Sc", "occu": 1 }],
        "abc": [0.613452, 0.613452, 0.613452],
        "properties": { "magmom": -0.001 },
        "label": "Sc",
        "xyz": [-5.982646461456, -5.982646461456, -5.982646461456]
      },
      {
        "species": [{ "element": "Sc", "occu": 1 }],
        "abc": [0.159644999999999, 0.613452, 0.613452],
        "properties": { "magmom": -0.001 },
        "label": "Sc",
        "xyz": [-3.7697864147579954, -3.7697864147579954, -5.982646461456]
      },
      {
        "species": [{ "element": "Sc", "occu": 1 }],
        "abc": [0.613452, 0.159644999999999, 0.613452],
        "properties": { "magmom": -0.001 },
        "label": "Sc",
        "xyz": [-3.7697864147579954, -5.982646461456, -3.7697864147579954]
      },
      {
        "species": [{ "element": "Sc", "occu": 1 }],
        "abc": [0.590355, 0.136548, 0.136548],
        "properties": { "magmom": -0.001 },
        "label": "Sc",
        "xyz": [-3.544534585242, -3.544534585242, -1.331674538544]
      },
      {
        "species": [{ "element": "Sc", "occu": 1 }],
        "abc": [0.136548, 0.136548, 0.136548],
        "properties": { "magmom": -0.001 },
        "label": "Sc",
        "xyz": [-1.331674538544, -1.331674538544, -1.331674538544]
      },
      {
        "species": [{ "element": "Sc", "occu": 1 }],
        "abc": [0.613452, 0.613452, 0.159644999999999],
        "properties": { "magmom": -0.001 },
        "label": "Sc",
        "xyz": [-5.982646461456, -3.7697864147579954, -3.7697864147579954]
      },
      {
        "species": [{ "element": "Sc", "occu": 1 }],
        "abc": [0.136548, 0.590355, 0.136548],
        "properties": { "magmom": -0.001 },
        "label": "Sc",
        "xyz": [-3.544534585242, -1.331674538544, -3.544534585242]
      },
      {
        "species": [{ "element": "Sc", "occu": 1 }],
        "abc": [0.136548, 0.136548, 0.590355],
        "properties": { "magmom": -0.001 },
        "label": "Sc",
        "xyz": [-1.331674538544, -3.544534585242, -3.544534585242]
      },
      {
        "species": [{ "element": "Fe", "occu": 1 }],
        "abc": [0.0, 0.0, 0.0],
        "properties": { "magmom": 0.003 },
        "label": "Fe",
        "xyz": [0.0, 0.0, 0.0]
      },
      {
        "species": [{ "element": "Fe", "occu": 1 }],
        "abc": [0.75, 0.75, 0.75],
        "properties": { "magmom": 0.003 },
        "label": "Fe",
        "xyz": [-7.314321, -7.314321, -7.314321]
      }
    ]
  },
  "task_ids": null,
  "uncorrected_energy_per_atom": null,
  "energy_per_atom": -6.35475742,
  "formation_energy_per_atom": 0.405222106,
  "energy_above_hull": 0.48740498199999904,
  "is_stable": false,
  "equilibrium_reaction_energy_per_atom": null,
  "decomposes_to": null,
  "xas": null,
  "grain_boundaries": null,
  "band_gap": 0.0,
  "cbm": null,
  "vbm": null,
  "efermi": 3.46920725,
  "is_gap_direct": null,
  "is_metal": null,
  "es_source_calc_id": null,
  "bandstructure": null,
  "dos": null,
  "dos_energy_up": null,
  "dos_energy_down": null,
  "is_magnetic": null,
  "ordering": null,
  "total_magnetization": 0.0054655,
  "total_magnetization_normalized_vol": null,
  "total_magnetization_normalized_formula_units": null,
  "num_magnetic_sites": null,
  "num_unique_magnetic_sites": null,
  "types_of_magnetic_species": null,
  "bulk_modulus": null,
  "shear_modulus": null,
  "universal_anisotropy": null,
  "homogeneous_poisson": null,
  "e_total": null,
  "e_ionic": null,
  "e_electronic": null,
  "n": null,
  "e_ij_max": null,
  "weighted_surface_energy_EV_PER_ANG2": null,
  "weighted_surface_energy": null,
  "weighted_work_function": null,
  "surface_anisotropy": null,
  "shape_factor": null,
  "has_reconstructed": null,
  "possible_species": null,
  "has_props": null,
  "theoretical": null,
  "database_IDs": null,
  "fields_not_requested": [
    "builder_meta",
    "nsites",
    "elements",
    "nelements",
    "composition",
    "composition_reduced",
    "chemsys",
    "symmetry",
    "property_name",
    "deprecated",
    "deprecation_reasons",
    "last_updated",
    "origins",
    "warnings",
    "task_ids",
    "uncorrected_energy_per_atom",
    "equilibrium_reaction_energy_per_atom",
    "decomposes_to",
    "xas",
    "grain_boundaries",
    "cbm",
    "vbm",
    "is_gap_direct",
    "is_metal",
    "es_source_calc_id",
    "bandstructure",
    "dos",
    "dos_energy_up",
    "dos_energy_down",
    "is_magnetic",
    "ordering",
    "total_magnetization_normalized_vol",
    "total_magnetization_normalized_formula_units",
    "num_magnetic_sites",
    "num_unique_magnetic_sites",
    "types_of_magnetic_species",
    "bulk_modulus",
    "shear_modulus",
    "universal_anisotropy",
    "homogeneous_poisson",
    "e_total",
    "e_ionic",
    "e_electronic",
    "n",
    "e_ij_max",
    "weighted_surface_energy_EV_PER_ANG2",
    "weighted_surface_energy",
    "weighted_work_function",
    "surface_anisotropy",
    "shape_factor",
    "has_reconstructed",
    "possible_species",
    "has_props",
    "theoretical",
    "database_IDs"
  ]
}
