{"builder_meta": null, "nsites": null, "elements": null, "nelements": null, "composition": null, "composition_reduced": null, "formula_pretty": "Sc4Ni", "formula_anonymous": "AB4", "chemsys": null, "volume": 239.25876272671223, "density": 3.310782616614176, "density_atomic": 23.925876272671225, "symmetry": null, "property_name": null, "material_id": "mp-1211596", "deprecated": null, "deprecation_reasons": null, "last_updated": null, "origins": null, "warnings": null, "structure": {"@module": "pymatgen.core.structure", "@class": "Structure", "charge": 0, "lattice": {"matrix": [[-4.927341, -4.927341, 0.0], [-4.927341, 0.0, -4.927341], [0.0, -4.927341, -4.927341]], "pbc": [true, true, true], "a": 6.968312468637008, "b": 6.968312468637008, "c": 6.968312468637008, "alpha": 59.99999999999999, "beta": 59.99999999999999, "gamma": 59.99999999999999, "volume": 239.25876272671223}, "properties": {}, "sites": [{"species": [{"element": "Sc", "occu": 1}], "abc": [0.611072, 0.611072, 0.611072], "properties": {"magmom": -0.0}, "label": "Sc", "xyz": [-6.021920239103999, -6.021920239103999, -6.021920239103999]}, {"species": [{"element": "Sc", "occu": 1}], "abc": [0.166784, 0.611072, 0.611072], "properties": {"magmom": -0.0}, "label": "Sc", "xyz": [-3.8327617608959996, -3.8327617608959996, -6.021920239103999]}, {"species": [{"element": "Sc", "occu": 1}], "abc": [0.611072, 0.166784, 0.611072], "properties": {"magmom": -0.0}, "label": "Sc", "xyz": [-3.8327617608959996, -6.021920239103999, -3.8327617608959996]}, {"species": [{"element": "Sc", "occu": 1}], "abc": [0.583216, 0.138928, 0.138928], "properties": {"magmom": -0.0}, "label": "Sc", "xyz": [-3.5582497391039998, -3.5582497391039998, -1.369091260896]}, {"species": [{"element": "Sc", "occu": 1}], "abc": [0.138928, 0.138928, 0.138928], "properties": {"magmom": -0.0}, "label": "Sc", "xyz": [-1.369091260896, -1.369091260896, -1.369091260896]}, {"species": [{"element": "Sc", "occu": 1}], "abc": [0.611072, 0.611072, 0.166784], "properties": {"magmom": -0.0}, "label": "Sc", "xyz": [-6.021920239103999, -3.8327617608959996, -3.8327617608959996]}, {"species": [{"element": "Sc", "occu": 1}], "abc": [0.138928, 0.583216, 0.138928], "properties": {"magmom": -0.0}, "label": "Sc", "xyz": [-3.5582497391039998, -1.369091260896, -3.5582497391039998]}, {"species": [{"element": "Sc", "occu": 1}], "abc": [0.138928, 0.138928, 0.583216], "properties": {"magmom": -0.0}, "label": "Sc", "xyz": [-1.369091260896, -3.5582497391039998, -3.5582497391039998]}, {"species": [{"element": "Ni", "occu": 1}], "abc": [0.0, 0.0, 0.0], "properties": {"magmom": 0.0}, "label": "Ni", "xyz": [0.0, 0.0, 0.0]}, {"species": [{"element": "Ni", "occu": 1}], "abc": [0.75, 0.75, 0.75], "properties": {"magmom": 0.0}, "label": "Ni", "xyz": [-7.3910115, -7.3910115, -7.3910115]}]}, "task_ids": null, "uncorrected_energy_per_atom": null, "energy_per_atom": -5.974874937, "formation_energy_per_atom": 0.24712768300000001, "energy_above_hull": 0.46101961, "is_stable": false, "equilibrium_reaction_energy_per_atom": null, "decomposes_to": null, "xas": null, "grain_boundaries": null, "band_gap": 0.0, "cbm": null, "vbm": null, "efermi": 3.49973156, "is_gap_direct": null, "is_metal": null, "es_source_calc_id": null, "bandstructure": null, "dos": null, "dos_energy_up": null, "dos_energy_down": null, "is_magnetic": null, "ordering": null, "total_magnetization": 0.0019808, "total_magnetization_normalized_vol": null, "total_magnetization_normalized_formula_units": null, "num_magnetic_sites": null, "num_unique_magnetic_sites": null, "types_of_magnetic_species": null, "bulk_modulus": null, "shear_modulus": null, "universal_anisotropy": null, "homogeneous_poisson": null, "e_total": null, "e_ionic": null, "e_electronic": null, "n": null, "e_ij_max": null, "weighted_surface_energy_EV_PER_ANG2": null, "weighted_surface_energy": null, "weighted_work_function": null, "surface_anisotropy": null, "shape_factor": null, "has_reconstructed": null, "possible_species": null, "has_props": null, "theoretical": null, "database_IDs": null, "fields_not_requested": ["builder_meta", "nsites", "elements", "nelements", "composition", "composition_reduced", "chemsys", "symmetry", "property_name", "deprecated", "deprecation_reasons", "last_updated", "origins", "warnings", "task_ids", "uncorrected_energy_per_atom", "equilibrium_reaction_energy_per_atom", "decomposes_to", "xas", "grain_boundaries", "cbm", "vbm", "is_gap_direct", "is_metal", "es_source_calc_id", "bandstructure", "dos", "dos_energy_up", "dos_energy_down", "is_magnetic", "ordering", "total_magnetization_normalized_vol", "total_magnetization_normalized_formula_units", "num_magnetic_sites", "num_unique_magnetic_sites", "types_of_magnetic_species", "bulk_modulus", "shear_modulus", "universal_anisotropy", "homogeneous_poisson", "e_total", "e_ionic", "e_electronic", "n", "e_ij_max", "weighted_surface_energy_EV_PER_ANG2", "weighted_surface_energy", "weighted_work_function", "surface_anisotropy", "shape_factor", "has_reconstructed", "possible_species", "has_props", "theoretical", "database_IDs"]}