{"builder_meta": null, "nsites": null, "elements": null, "nelements": null, "composition": null, "composition_reduced": null, "formula_pretty": "Sc5Bi3", "formula_anonymous": "A3B5", "chemsys": null, "volume": 795.0467363204197, "density": 7.115634999571874, "density_atomic": 24.845210510013114, "symmetry": null, "property_name": null, "material_id": "mp-607138", "deprecated": null, "deprecation_reasons": null, "last_updated": null, "origins": null, "warnings": null, "structure": {"@module": "pymatgen.core.structure", "@class": "Structure", "charge": 0, "lattice": {"matrix": [[7.82967367, -0.0, 0.0], [0.0, 8.95686832, 0.0], [0.0, 0.0, 11.33686064]], "pbc": [true, true, true], "a": 7.82967367, "b": 8.95686832, "c": 11.33686064, "alpha": 90.0, "beta": 90.0, "gamma": 90.0, "volume": 795.0467363204197}, "properties": {}, "sites": [{"species": [{"element": "Sc", "occu": 1}], "abc": [0.19347713, 0.06483646, 0.06447898], "properties": {"magmom": -0.203}, "label": "Sc", "xyz": [1.514862790508167, 0.5807316345549471, 0.7309892104693472]}, {"species": [{"element": "Sc", "occu": 1}], "abc": [0.30652287, 0.06483646, 0.56447898], "properties": {"magmom": -0.203}, "label": "Sc", "xyz": [2.3999740444918327, 0.5807316345549471, 6.399419530469347]}, {"species": [{"element": "Sc", "occu": 1}], "abc": [0.30652287, 0.43516354, 0.56447898], "properties": {"magmom": -0.203}, "label": "Sc", "xyz": [2.3999740444918327, 3.897702525445053, 6.399419530469347]}, {"species": [{"element": "Sc", "occu": 1}], "abc": [0.32411667, 0.75, 0.26944912], "properties": {"magmom": -0.338}, "label": "Sc", "xyz": [2.537727757107079, 6.71765124, 3.0547071230106364]}, {"species": [{"element": "Sc", "occu": 1}], "abc": [0.47904205, 0.75, 0.99397986], "properties": {"magmom": -0.25}, "label": "Sc", "xyz": [3.7507429257078235, 6.71765124, 11.268611151786711]}, {"species": [{"element": "Sc", "occu": 1}], "abc": [0.16034228, 0.25, 0.78713782], "properties": {"magmom": 0.042}, "label": "Sc", "xyz": [1.2554277279037676, 2.23921708, 8.923671769813405]}, {"species": [{"element": "Sc", "occu": 1}], "abc": [0.80652287, 0.93516354, 0.93552102], "properties": {"magmom": -0.203}, "label": "Sc", "xyz": [6.314810879491833, 8.376136685445053, 10.605871429530653]}, {"species": [{"element": "Sc", "occu": 1}], "abc": [0.6603422800000001, 0.75, 0.71286218], "properties": {"magmom": 0.042}, "label": "Sc", "xyz": [5.1702645629037685, 6.71765124, 8.081619190186595]}, {"species": [{"element": "Sc", "occu": 1}], "abc": [0.02095795, 0.75, 0.49397986], "properties": {"magmom": -0.25}, "label": "Sc", "xyz": [0.1640939092921765, 6.71765124, 5.60018083178671]}, {"species": [{"element": "Sc", "occu": 1}], "abc": [0.69347713, 0.93516354, 0.43552102000000004], "properties": {"magmom": -0.203}, "label": "Sc", "xyz": [5.429699625508167, 8.376136685445053, 4.937441109530653]}, {"species": [{"element": "Sc", "occu": 1}], "abc": [0.19347713, 0.43516354, 0.06447898], "properties": {"magmom": -0.203}, "label": "Sc", "xyz": [1.514862790508167, 3.897702525445053, 0.7309892104693472]}, {"species": [{"element": "Sc", "occu": 1}], "abc": [0.33965772, 0.25, 0.28713782], "properties": {"magmom": 0.042}, "label": "Sc", "xyz": [2.6594091070962325, 2.23921708, 3.2552414498134046]}, {"species": [{"element": "Sc", "occu": 1}], "abc": [0.17588333, 0.75, 0.76944912], "properties": {"magmom": -0.338}, "label": "Sc", "xyz": [1.3771090778929211, 6.71765124, 8.723137443010636]}, {"species": [{"element": "Sc", "occu": 1}], "abc": [0.97904205, 0.25, 0.5060201400000001], "properties": {"magmom": -0.25}, "label": "Sc", "xyz": [7.665579760707823, 2.23921708, 5.73667980821329]}, {"species": [{"element": "Sc", "occu": 1}], "abc": [0.69347713, 0.56483646, 0.43552102000000004], "properties": {"magmom": -0.203}, "label": "Sc", "xyz": [5.429699625508167, 5.059165794554947, 4.937441109530653]}, {"species": [{"element": "Sc", "occu": 1}], "abc": [0.67588333, 0.25, 0.73055088], "properties": {"magmom": -0.338}, "label": "Sc", "xyz": [5.291945912892921, 2.23921708, 8.282153516989363]}, {"species": [{"element": "Sc", "occu": 1}], "abc": [0.80652287, 0.56483646, 0.93552102], "properties": {"magmom": -0.203}, "label": "Sc", "xyz": [6.314810879491833, 5.059165794554947, 10.605871429530653]}, {"species": [{"element": "Sc", "occu": 1}], "abc": [0.52095795, 0.25, 0.00602014], "properties": {"magmom": -0.25}, "label": "Sc", "xyz": [4.078930744292177, 2.23921708, 0.0682494882132896]}, {"species": [{"element": "Sc", "occu": 1}], "abc": [0.82411667, 0.25, 0.23055088], "properties": {"magmom": -0.338}, "label": "Sc", "xyz": [6.452564592107079, 2.23921708, 2.6137231969893633]}, {"species": [{"element": "Sc", "occu": 1}], "abc": [0.83965772, 0.75, 0.21286218], "properties": {"magmom": 0.042}, "label": "Sc", "xyz": [6.5742459420962325, 6.71765124, 2.413188870186595]}, {"species": [{"element": "Bi", "occu": 1}], "abc": [0.06429094, 0.490653699999999, 0.324286099999999], "properties": {"magmom": 0.037}, "label": "Bi", "xyz": [0.5033770801375499, 4.394720581620775, 3.6763863231890928]}, {"species": [{"element": "Bi", "occu": 1}], "abc": [0.56429094, 0.5093463, 0.175713899999999], "properties": {"magmom": 0.037}, "label": "Bi", "xyz": [4.41821391513755, 4.562147738379216, 1.9920439968108847]}, {"species": [{"element": "Bi", "occu": 1}], "abc": [0.40193595, 0.75, 0.52590106], "properties": {"magmom": 0.045}, "label": "Bi", "xyz": [3.1470273247414364, 6.71765124, 5.962067027648279]}, {"species": [{"element": "Bi", "occu": 1}], "abc": [0.93570906, 0.9906537, 0.6757139], "properties": {"magmom": 0.037}, "label": "Bi", "xyz": [7.32629658986245, 8.873154741620784, 7.6604743168108955]}, {"species": [{"element": "Bi", "occu": 1}], "abc": [0.43570906, 0.0093463, 0.824286099999999], "properties": {"magmom": 0.037}, "label": "Bi", "xyz": [3.41145975486245, 0.083713578379216, 9.344816643189093]}, {"species": [{"element": "Bi", "occu": 1}], "abc": [0.56429094, 0.9906537, 0.175713899999999], "properties": {"magmom": 0.037}, "label": "Bi", "xyz": [4.41821391513755, 8.873154741620784, 1.9920439968108847]}, {"species": [{"element": "Bi", "occu": 1}], "abc": [0.09806405, 0.75, 0.02590106], "properties": {"magmom": 0.045}, "label": "Bi", "xyz": [0.7678095102585635, 6.71765124, 0.29363670764827837]}, {"species": [{"element": "Bi", "occu": 1}], "abc": [0.43570906, 0.490653699999999, 0.824286099999999], "properties": {"magmom": 0.037}, "label": "Bi", "xyz": [3.41145975486245, 4.394720581620775, 9.344816643189093]}, {"species": [{"element": "Bi", "occu": 1}], "abc": [0.06429094, 0.0093463, 0.324286099999999], "properties": {"magmom": 0.037}, "label": "Bi", "xyz": [0.5033770801375499, 0.083713578379216, 3.6763863231890928]}, {"species": [{"element": "Bi", "occu": 1}], "abc": [0.93570906, 0.5093463, 0.6757139], "properties": {"magmom": 0.037}, "label": "Bi", "xyz": [7.32629658986245, 4.562147738379216, 7.6604743168108955]}, {"species": [{"element": "Bi", "occu": 1}], "abc": [0.59806405, 0.25, 0.47409894], "properties": {"magmom": 0.045}, "label": "Bi", "xyz": [4.682646345258563, 2.23921708, 5.374793612351722]}, {"species": [{"element": "Bi", "occu": 1}], "abc": [0.90193595, 0.25, 0.97409894], "properties": {"magmom": 0.045}, "label": "Bi", "xyz": [7.061864159741437, 2.23921708, 11.04322393235172]}]}, "task_ids": null, "uncorrected_energy_per_atom": null, "energy_per_atom": -29.7454896365625, "formation_energy_per_atom": -0.6830823853124991, "energy_above_hull": 0.0, "is_stable": true, "equilibrium_reaction_energy_per_atom": null, "decomposes_to": null, "xas": null, "grain_boundaries": null, "band_gap": 0.0, "cbm": null, "vbm": null, "efermi": 5.86984233, "is_gap_direct": null, "is_metal": null, "es_source_calc_id": null, "bandstructure": null, "dos": null, "dos_energy_up": null, "dos_energy_down": null, "is_magnetic": null, "ordering": null, "total_magnetization": 5.6620296, "total_magnetization_normalized_vol": null, "total_magnetization_normalized_formula_units": null, "num_magnetic_sites": null, "num_unique_magnetic_sites": null, "types_of_magnetic_species": null, "bulk_modulus": null, "shear_modulus": null, "universal_anisotropy": null, "homogeneous_poisson": null, "e_total": null, "e_ionic": null, "e_electronic": null, "n": null, "e_ij_max": null, "weighted_surface_energy_EV_PER_ANG2": null, "weighted_surface_energy": null, "weighted_work_function": null, "surface_anisotropy": null, "shape_factor": null, "has_reconstructed": null, "possible_species": null, "has_props": null, "theoretical": null, "database_IDs": null, "fields_not_requested": ["builder_meta", "nsites", "elements", "nelements", "composition", "composition_reduced", "chemsys", "symmetry", "property_name", "deprecated", "deprecation_reasons", "last_updated", "origins", "warnings", "task_ids", "uncorrected_energy_per_atom", "equilibrium_reaction_energy_per_atom", "decomposes_to", "xas", "grain_boundaries", "cbm", "vbm", "is_gap_direct", "is_metal", "es_source_calc_id", "bandstructure", "dos", "dos_energy_up", "dos_energy_down", "is_magnetic", "ordering", "total_magnetization_normalized_vol", "total_magnetization_normalized_formula_units", "num_magnetic_sites", "num_unique_magnetic_sites", "types_of_magnetic_species", "bulk_modulus", "shear_modulus", "universal_anisotropy", "homogeneous_poisson", "e_total", "e_ionic", "e_electronic", "n", "e_ij_max", "weighted_surface_energy_EV_PER_ANG2", "weighted_surface_energy", "weighted_work_function", "surface_anisotropy", "shape_factor", "has_reconstructed", "possible_species", "has_props", "theoretical", "database_IDs"]}