{"builder_meta": null, "nsites": null, "elements": null, "nelements": null, "composition": null, "composition_reduced": null, "formula_pretty": "Sc5Cl8", "formula_anonymous": "A5B8", "chemsys": null, "volume": 319.1877239944506, "density": 2.644913665267386, "density_atomic": 24.55290184572697, "symmetry": null, "property_name": null, "material_id": "mp-542449", "deprecated": null, "deprecation_reasons": null, "last_updated": null, "origins": null, "warnings": null, "structure": {"@module": "pymatgen.core.structure", "@class": "Structure", "charge": 0, "lattice": {"matrix": [[3.50716232, 0.00133346, 0.6653035900000001], [1.65103044, 9.32744388, 0.88743538], [-0.03061571, -0.57653772, 9.71660846]], "pbc": [true, true, true], "a": 3.5697084171974383, "b": 9.513918877204693, "c": 9.733746094347499, "alpha": 88.02303823551624, "beta": 79.45927861484759, "gamma": 79.1494074255307, "volume": 319.1877239944506}, "properties": {}, "sites": [{"species": [{"element": "Sc", "occu": 1}], "abc": [0.0, -0.0, 0.0], "properties": {"magmom": 0.434}, "label": "Sc", "xyz": [0.0, 0.0, 0.0]}, {"species": [{"element": "Sc", "occu": 1}], "abc": [0.51287363, 0.32198975, 0.65371217], "properties": {"magmom": 0.108}, "label": "Sc", "xyz": [2.310332086455421, 2.627135495502838, 6.978826964829645]}, {"species": [{"element": "Sc", "occu": 1}], "abc": [0.48712637000000003, 0.67801025, 0.34628783], "properties": {"magmom": 0.108}, "label": "Sc", "xyz": [2.817244963544579, 6.125104124497163, 4.2905204651703555]}, {"species": [{"element": "Sc", "occu": 1}], "abc": [0.11757838, 0.38827324, 0.37659508], "properties": {"magmom": 0.033}, "label": "Sc", "xyz": [1.0418876765033604, 3.4046323734859487, 4.082019668925993]}, {"species": [{"element": "Sc", "occu": 1}], "abc": [0.88242162, 0.61172676, 0.62340492], "properties": {"magmom": 0.033}, "label": "Sc", "xyz": [4.085689373496639, 5.347607246514052, 7.187327761074008]}, {"species": [{"element": "Cl", "occu": 1}], "abc": [0.69159384, 0.18923095, 0.42865789], "properties": {"magmom": -0.001}, "label": "Cl", "xyz": [2.724834249382775, 1.5188258366453617, 4.793150985014646]}, {"species": [{"element": "Cl", "occu": 1}], "abc": [0.30840616, 0.81076905, 0.57134211], "properties": {"magmom": -0.001}, "label": "Cl", "xyz": [2.402742800617225, 7.233413783354639, 6.476196444985354]}, {"species": [{"element": "Cl", "occu": 1}], "abc": [0.36724246, 0.15240064, 0.11289938000000001], "properties": {"magmom": -0.002}, "label": "Cl", "xyz": [1.5361405190543291, 1.3569073688721813, 1.4765725177458293]}, {"species": [{"element": "Cl", "occu": 1}], "abc": [0.6327575400000001, 0.84759936, 0.88710062], "properties": {"magmom": -0.002}, "label": "Cl", "xyz": [3.5914365309456713, 7.39533225112782, 9.79277491225417]}, {"species": [{"element": "Cl", "occu": 1}], "abc": [0.67154141, 0.46567651, 0.19006783], "properties": {"magmom": -0.001}, "label": "Cl", "xyz": [3.1182317611110264, 4.2348857135142906, 2.706851406467427]}, {"species": [{"element": "Cl", "occu": 1}], "abc": [0.32845859, 0.53432349, 0.8099321700000001], "properties": {"magmom": -0.001}, "label": "Cl", "xyz": [2.009345288888974, 4.5173539064857104, 8.562496023532573]}, {"species": [{"element": "Cl", "occu": 1}], "abc": [0.97480291, 0.83195406, 0.21641085000000002], "properties": {"magmom": -0.004}, "label": "Cl", "xyz": [4.785747941295484, 7.636535648034261, 3.4896248388898807]}, {"species": [{"element": "Cl", "occu": 1}], "abc": [0.025197090000000002, 0.16804594, 0.7835891500000001], "properties": {"magmom": -0.004}, "label": "Cl", "xyz": [0.3418291087045159, 1.1157039719657407, 7.7797225911101195]}]}, "task_ids": null, "uncorrected_energy_per_atom": null, "energy_per_atom": -10.143884197692309, "formation_energy_per_atom": -1.973734355, "energy_above_hull": 0.0, "is_stable": true, "equilibrium_reaction_energy_per_atom": null, "decomposes_to": null, "xas": null, "grain_boundaries": null, "band_gap": 0.0, "cbm": null, "vbm": null, "efermi": 3.94685603, "is_gap_direct": null, "is_metal": null, "es_source_calc_id": null, "bandstructure": null, "dos": null, "dos_energy_up": null, "dos_energy_down": null, "is_magnetic": null, "ordering": null, "total_magnetization": 0.9720032, "total_magnetization_normalized_vol": null, "total_magnetization_normalized_formula_units": null, "num_magnetic_sites": null, "num_unique_magnetic_sites": null, "types_of_magnetic_species": null, "bulk_modulus": null, "shear_modulus": null, "universal_anisotropy": null, "homogeneous_poisson": null, "e_total": null, "e_ionic": null, "e_electronic": null, "n": null, "e_ij_max": null, "weighted_surface_energy_EV_PER_ANG2": null, "weighted_surface_energy": null, "weighted_work_function": null, "surface_anisotropy": null, "shape_factor": null, "has_reconstructed": null, "possible_species": null, "has_props": null, "theoretical": null, "database_IDs": null, "fields_not_requested": ["builder_meta", "nsites", "elements", "nelements", "composition", "composition_reduced", "chemsys", "symmetry", "property_name", "deprecated", "deprecation_reasons", "last_updated", "origins", "warnings", "task_ids", "uncorrected_energy_per_atom", "equilibrium_reaction_energy_per_atom", "decomposes_to", "xas", "grain_boundaries", "cbm", "vbm", "is_gap_direct", "is_metal", "es_source_calc_id", "bandstructure", "dos", "dos_energy_up", "dos_energy_down", "is_magnetic", "ordering", "total_magnetization_normalized_vol", "total_magnetization_normalized_formula_units", "num_magnetic_sites", "num_unique_magnetic_sites", "types_of_magnetic_species", "bulk_modulus", "shear_modulus", "universal_anisotropy", "homogeneous_poisson", "e_total", "e_ionic", "e_electronic", "n", "e_ij_max", "weighted_surface_energy_EV_PER_ANG2", "weighted_surface_energy", "weighted_work_function", "surface_anisotropy", "shape_factor", "has_reconstructed", "possible_species", "has_props", "theoretical", "database_IDs"]}