{"builder_meta": null, "nsites": null, "elements": null, "nelements": null, "composition": null, "composition_reduced": null, "formula_pretty": "Sc5Ga3", "formula_anonymous": "A3B5", "chemsys": null, "volume": 335.5130005114028, "density": 4.295443310253034, "density_atomic": 20.969562531962676, "symmetry": null, "property_name": null, "material_id": "mp-1179520", "deprecated": null, "deprecation_reasons": null, "last_updated": null, "origins": null, "warnings": null, "structure": {"@module": "pymatgen.core.structure", "@class": "Structure", "charge": 0, "lattice": {"matrix": [[6.98135511, 4.03279774, 0.0092593], [-6.98135511, 4.03279774, 0.0092593], [-0.0, 0.14882863, 5.95879017]], "pbc": [true, true, true], "a": 8.062435272193428, "b": 8.062435272193428, "c": 5.960648475727814, "alpha": 89.21861891684136, "beta": 89.21861891684136, "gamma": 119.97389150919257, "volume": 335.5130005114028}, "properties": {}, "sites": [{"species": [{"element": "Sc", "occu": 1}], "abc": [0.8176922600000001, 0.18230774, 0.5], "properties": {"magmom": 0.024}, "label": "Sc", "xyz": [4.435844965516898, 4.107212055000001, 2.9886543850000002]}, {"species": [{"element": "Sc", "occu": 1}], "abc": [0.18230774, 0.8176922600000001, 0.5], "properties": {"magmom": 0.024}, "label": "Sc", "xyz": [-4.435844965516898, 4.107212055000001, 2.9886543850000002]}, {"species": [{"element": "Sc", "occu": 1}], "abc": [0.25652134, 0.49712569, 0.24257936], "properties": {"magmom": 0.036000000000000004}, "label": "Sc", "xyz": [-1.6797444083607285, 3.075408793156789, 1.4524577497577702]}, {"species": [{"element": "Sc", "occu": 1}], "abc": [0.49712569, 0.25652134, 0.24257936], "properties": {"magmom": 0.036000000000000004}, "label": "Sc", "xyz": [1.6797444083607285, 3.075408793156789, 1.4524577497577702]}, {"species": [{"element": "Sc", "occu": 1}], "abc": [0.7434786600000001, 0.50287431, 0.75742064], "properties": {"magmom": 0.036000000000000004}, "label": "Sc", "xyz": [1.6797444083607287, 5.139015316843212, 4.524851020242229]}, {"species": [{"element": "Sc", "occu": 1}], "abc": [0.50287431, 0.7434786600000001, 0.75742064], "properties": {"magmom": 0.036000000000000004}, "label": "Sc", "xyz": [-1.6797444083607287, 5.139015316843212, 4.524851020242229]}, {"species": [{"element": "Sc", "occu": 1}], "abc": [0.26642657000000003, 0.26642657000000003, 0.73812232], "properties": {"magmom": 0.052000000000000005}, "label": "Sc", "xyz": [0.0, 2.2587426724019255, 4.403249871752797]}, {"species": [{"element": "Sc", "occu": 1}], "abc": [0.73357343, 0.73357343, 0.26187768], "properties": {"magmom": 0.052000000000000005}, "label": "Sc", "xyz": [0.0, 5.9556814375980744, 1.5740588982472037]}, {"species": [{"element": "Sc", "occu": 1}], "abc": [0.84984424, 0.15015576, -0.0], "properties": {"magmom": 0.024}, "label": "Sc", "xyz": [4.884773745256132, 4.03279774, 0.0092593]}, {"species": [{"element": "Sc", "occu": 1}], "abc": [0.15015576, 0.84984424, -0.0], "properties": {"magmom": 0.024}, "label": "Sc", "xyz": [-4.884773745256132, 4.03279774, 0.0092593]}, {"species": [{"element": "Ga", "occu": 1}], "abc": [0.09461948, 0.09461948, 0.30468397], "properties": {"magmom": -0.001}, "label": "Ga", "xyz": [0.0, 0.8085081480460116, 1.817300065694903]}, {"species": [{"element": "Ga", "occu": 1}], "abc": [0.90538052, 0.90538052, 0.69531603], "properties": {"magmom": -0.001}, "label": "Ga", "xyz": [0.0, 7.40591596195399, 4.160008704305097]}, {"species": [{"element": "Ga", "occu": 1}], "abc": [0.90155736, 0.49906113, 0.21646574000000002], "properties": {"magmom": 0.001}, "label": "Ga", "xyz": [2.8099691120662347, 5.68062738060035, 1.302842670438233]}, {"species": [{"element": "Ga", "occu": 1}], "abc": [0.49906113, 0.90155736, 0.21646574000000002], "properties": {"magmom": 0.001}, "label": "Ga", "xyz": [-2.8099691120662347, 5.68062738060035, 1.302842670438233]}, {"species": [{"element": "Ga", "occu": 1}], "abc": [0.09844264, 0.50093887, 0.78353426], "properties": {"magmom": 0.001}, "label": "Ga", "xyz": [-2.809969112066235, 2.5337967293996515, 4.6744660995617675]}, {"species": [{"element": "Ga", "occu": 1}], "abc": [0.50093887, 0.09844264, 0.78353426], "properties": {"magmom": 0.001}, "label": "Ga", "xyz": [2.809969112066235, 2.5337967293996515, 4.6744660995617675]}]}, "task_ids": null, "uncorrected_energy_per_atom": null, "energy_per_atom": -12.00527646875, "formation_energy_per_atom": -0.590180890624999, "energy_above_hull": 0.007125837812498001, "is_stable": false, "equilibrium_reaction_energy_per_atom": null, "decomposes_to": null, "xas": null, "grain_boundaries": null, "band_gap": 0.0, "cbm": null, "vbm": null, "efermi": 3.66576657, "is_gap_direct": null, "is_metal": null, "es_source_calc_id": null, "bandstructure": null, "dos": null, "dos_energy_up": null, "dos_energy_down": null, "is_magnetic": null, "ordering": null, "total_magnetization": 0.6305932, "total_magnetization_normalized_vol": null, "total_magnetization_normalized_formula_units": null, "num_magnetic_sites": null, "num_unique_magnetic_sites": null, "types_of_magnetic_species": null, "bulk_modulus": null, "shear_modulus": null, "universal_anisotropy": null, "homogeneous_poisson": null, "e_total": null, "e_ionic": null, "e_electronic": null, "n": null, "e_ij_max": null, "weighted_surface_energy_EV_PER_ANG2": null, "weighted_surface_energy": null, "weighted_work_function": null, "surface_anisotropy": null, "shape_factor": null, "has_reconstructed": null, "possible_species": null, "has_props": null, "theoretical": null, "database_IDs": null, "fields_not_requested": ["builder_meta", "nsites", "elements", "nelements", "composition", "composition_reduced", "chemsys", "symmetry", "property_name", "deprecated", "deprecation_reasons", "last_updated", "origins", "warnings", "task_ids", "uncorrected_energy_per_atom", "equilibrium_reaction_energy_per_atom", "decomposes_to", "xas", "grain_boundaries", "cbm", "vbm", "is_gap_direct", "is_metal", "es_source_calc_id", "bandstructure", "dos", "dos_energy_up", "dos_energy_down", "is_magnetic", "ordering", "total_magnetization_normalized_vol", "total_magnetization_normalized_formula_units", "num_magnetic_sites", "num_unique_magnetic_sites", "types_of_magnetic_species", "bulk_modulus", "shear_modulus", "universal_anisotropy", "homogeneous_poisson", "e_total", "e_ionic", "e_electronic", "n", "e_ij_max", "weighted_surface_energy_EV_PER_ANG2", "weighted_surface_energy", "weighted_work_function", "surface_anisotropy", "shape_factor", "has_reconstructed", "possible_species", "has_props", "theoretical", "database_IDs"]}