{
  "builder_meta": null,
  "nsites": null,
  "elements": null,
  "nelements": null,
  "composition": null,
  "composition_reduced": null,
  "formula_pretty": "Sc5Ge3",
  "formula_anonymous": "A3B5",
  "chemsys": null,
  "volume": 323.04656081483193,
  "density": 4.551170037485688,
  "density_atomic": 20.190410050926996,
  "symmetry": null,
  "property_name": null,
  "material_id": "mp-17190",
  "deprecated": null,
  "deprecation_reasons": null,
  "last_updated": null,
  "origins": null,
  "warnings": null,
  "structure": {
    "@module": "pymatgen.core.structure",
    "@class": "Structure",
    "charge": 0,
    "lattice": {
      "matrix": [
        [7.94300989, 1e-8, -0.0],
        [-3.97150444, 6.87884911, -0.0],
        [-0.0, -0.0, 5.91240581]
      ],
      "pbc": [true, true, true],
      "a": 7.94300989,
      "b": 7.943010298060019,
      "c": 5.91240581,
      "alpha": 90.0,
      "beta": 90.0,
      "gamma": 119.9999940221651,
      "volume": 323.04656081483193
    },
    "properties": {},
    "sites": [
      {
        "species": [{ "element": "Sc", "occu": 1 }],
        "abc": [0.333333, 0.666667, 0.0],
        "properties": { "magmom": -0.0 },
        "label": "Sc",
        "xyz": [-3.634838110055938e-6, 4.5859017029497, 0.0]
      },
      {
        "species": [{ "element": "Sc", "occu": 1 }],
        "abc": [0.666667, 0.333333, 0.5],
        "properties": { "magmom": -0.0 },
        "label": "Sc",
        "xyz": [3.9715090848381096, 2.2929474170503, 2.956202905]
      },
      {
        "species": [{ "element": "Sc", "occu": 1 }],
        "abc": [0.666667, 0.333333, 0.0],
        "properties": { "magmom": -0.0 },
        "label": "Sc",
        "xyz": [3.9715090848381096, 2.2929474170503, 0.0]
      },
      {
        "species": [{ "element": "Sc", "occu": 1 }],
        "abc": [0.333333, 0.666667, 0.5],
        "properties": { "magmom": -0.0 },
        "label": "Sc",
        "xyz": [-3.634838110055938e-6, 4.5859017029497, 2.956202905]
      },
      {
        "species": [{ "element": "Sc", "occu": 1 }],
        "abc": [0.24083138, -0.0, 0.25],
        "properties": { "magmom": -0.0 },
        "label": "Sc",
        "xyz": [1.9129260331623483, 2.4083138000000003e-9, 1.4781014525]
      },
      {
        "species": [{ "element": "Sc", "occu": 1 }],
        "abc": [0.24083138, 0.24083138, 0.75],
        "properties": { "magmom": -0.0 },
        "label": "Sc",
        "xyz": [0.9564631382010211, 1.6566427263813857, 4.4343043575]
      },
      {
        "species": [{ "element": "Sc", "occu": 1 }],
        "abc": [0.0, 0.75916862, 0.75],
        "properties": { "magmom": -0.0 },
        "label": "Sc",
        "xyz": [-3.0150415450386725, 5.222206386026928, 4.4343043575]
      },
      {
        "species": [{ "element": "Sc", "occu": 1 }],
        "abc": [-0.0, 0.24083138, 0.25],
        "properties": { "magmom": -0.0 },
        "label": "Sc",
        "xyz": [-0.9564628949613272, 1.6566427239730719, 1.4781014525]
      },
      {
        "species": [{ "element": "Sc", "occu": 1 }],
        "abc": [0.75916862, 0.75916862, 0.25],
        "properties": { "magmom": -0.0 },
        "label": "Sc",
        "xyz": [3.0150423117989793, 5.222206393618614, 1.4781014525]
      },
      {
        "species": [{ "element": "Sc", "occu": 1 }],
        "abc": [0.75916862, 0.0, 0.75],
        "properties": { "magmom": -0.0 },
        "label": "Sc",
        "xyz": [6.030083856837652, 7.5916862e-9, 4.4343043575]
      },
      {
        "species": [{ "element": "Ge", "occu": 1 }],
        "abc": [0.6066530800000001, 0.0, 0.25],
        "properties": { "magmom": 0.0 },
        "label": "Ge",
        "xyz": [4.818651414238961, 6.066530800000001e-9, 1.4781014525]
      },
      {
        "species": [{ "element": "Ge", "occu": 1 }],
        "abc": [0.6066530800000001, 0.6066530800000001, 0.75],
        "properties": { "magmom": 0.0 },
        "label": "Ge",
        "xyz": [2.4093260134792858, 4.173075005503289, 4.4343043575]
      },
      {
        "species": [{ "element": "Ge", "occu": 1 }],
        "abc": [-0.0, 0.39334692, 0.75],
        "properties": { "magmom": 0.0 },
        "label": "Ge",
        "xyz": [-1.5621790392403248, 2.705774110563241, 4.4343043575]
      },
      {
        "species": [{ "element": "Ge", "occu": 1 }],
        "abc": [0.0, 0.6066530800000001, 0.25],
        "properties": { "magmom": 0.0 },
        "label": "Ge",
        "xyz": [-2.4093254007596756, 4.173074999436759, 1.4781014525]
      },
      {
        "species": [{ "element": "Ge", "occu": 1 }],
        "abc": [0.39334692, 0.39334692, 0.25],
        "properties": { "magmom": 0.0 },
        "label": "Ge",
        "xyz": [1.5621794365207138, 2.7057741144967102, 1.4781014525]
      },
      {
        "species": [{ "element": "Ge", "occu": 1 }],
        "abc": [0.39334692, -0.0, 0.75],
        "properties": { "magmom": 0.0 },
        "label": "Ge",
        "xyz": [3.1243584757610385, 3.9334692e-9, 4.4343043575]
      }
    ]
  },
  "task_ids": null,
  "uncorrected_energy_per_atom": null,
  "energy_per_atom": -13.235313284375,
  "formation_energy_per_atom": -0.909267095,
  "energy_above_hull": 0.0,
  "is_stable": true,
  "equilibrium_reaction_energy_per_atom": null,
  "decomposes_to": null,
  "xas": null,
  "grain_boundaries": null,
  "band_gap": 0.0,
  "cbm": null,
  "vbm": null,
  "efermi": 5.17112813,
  "is_gap_direct": null,
  "is_metal": null,
  "es_source_calc_id": null,
  "bandstructure": null,
  "dos": null,
  "dos_energy_up": null,
  "dos_energy_down": null,
  "is_magnetic": null,
  "ordering": null,
  "total_magnetization": 2.97e-5,
  "total_magnetization_normalized_vol": null,
  "total_magnetization_normalized_formula_units": null,
  "num_magnetic_sites": null,
  "num_unique_magnetic_sites": null,
  "types_of_magnetic_species": null,
  "bulk_modulus": null,
  "shear_modulus": null,
  "universal_anisotropy": null,
  "homogeneous_poisson": null,
  "e_total": null,
  "e_ionic": null,
  "e_electronic": null,
  "n": null,
  "e_ij_max": null,
  "weighted_surface_energy_EV_PER_ANG2": null,
  "weighted_surface_energy": null,
  "weighted_work_function": null,
  "surface_anisotropy": null,
  "shape_factor": null,
  "has_reconstructed": null,
  "possible_species": null,
  "has_props": null,
  "theoretical": null,
  "database_IDs": null,
  "fields_not_requested": [
    "builder_meta",
    "nsites",
    "elements",
    "nelements",
    "composition",
    "composition_reduced",
    "chemsys",
    "symmetry",
    "property_name",
    "deprecated",
    "deprecation_reasons",
    "last_updated",
    "origins",
    "warnings",
    "task_ids",
    "uncorrected_energy_per_atom",
    "equilibrium_reaction_energy_per_atom",
    "decomposes_to",
    "xas",
    "grain_boundaries",
    "cbm",
    "vbm",
    "is_gap_direct",
    "is_metal",
    "es_source_calc_id",
    "bandstructure",
    "dos",
    "dos_energy_up",
    "dos_energy_down",
    "is_magnetic",
    "ordering",
    "total_magnetization_normalized_vol",
    "total_magnetization_normalized_formula_units",
    "num_magnetic_sites",
    "num_unique_magnetic_sites",
    "types_of_magnetic_species",
    "bulk_modulus",
    "shear_modulus",
    "universal_anisotropy",
    "homogeneous_poisson",
    "e_total",
    "e_ionic",
    "e_electronic",
    "n",
    "e_ij_max",
    "weighted_surface_energy_EV_PER_ANG2",
    "weighted_surface_energy",
    "weighted_work_function",
    "surface_anisotropy",
    "shape_factor",
    "has_reconstructed",
    "possible_species",
    "has_props",
    "theoretical",
    "database_IDs"
  ]
}
