{"builder_meta": null, "nsites": null, "elements": null, "nelements": null, "composition": null, "composition_reduced": null, "formula_pretty": "Sc5Ge4", "formula_anonymous": "A4B5", "chemsys": null, "volume": 715.3680524070585, "density": 4.784901808600873, "density_atomic": 19.87133478908496, "symmetry": null, "property_name": null, "material_id": "mp-1198803", "deprecated": null, "deprecation_reasons": null, "last_updated": null, "origins": null, "warnings": null, "structure": {"@module": "pymatgen.core.structure", "@class": "Structure", "charge": 0, "lattice": {"matrix": [[0.0, 0.0, 7.23318329], [7.17416486, 0.0, 0.0], [0.0, 13.78569667, 0.0]], "pbc": [true, true, true], "a": 7.23318329, "b": 7.17416486, "c": 13.78569667, "alpha": 90.0, "beta": 90.0, "gamma": 90.0, "volume": 715.3680524070585}, "properties": {}, "sites": [{"species": [{"element": "Sc", "occu": 1}], "abc": [0.16122371, 0.62066509, 0.11925826], "properties": {"magmom": -0.0}, "label": "Sc", "xyz": [4.452753678506737, 1.6440581977519944, 1.1661606451238058]}, {"species": [{"element": "Sc", "occu": 1}], "abc": [0.33877629, 0.12066509, 0.38074174], "properties": {"magmom": -0.0}, "label": "Sc", "xyz": [0.8656712485067375, 5.2487901372480055, 2.450430999876194]}, {"species": [{"element": "Sc", "occu": 1}], "abc": [0.83877629, 0.37933491, 0.6192582600000001], "properties": {"magmom": -0.0}, "label": "Sc", "xyz": [2.721411181493263, 8.536906532751996, 6.067022644876194]}, {"species": [{"element": "Sc", "occu": 1}], "abc": [0.66122371, 0.87933491, 0.88074174], "properties": {"magmom": -0.0}, "label": "Sc", "xyz": [6.308493611493263, 12.141638472248006, 4.782752290123806]}, {"species": [{"element": "Sc", "occu": 1}], "abc": [0.83877629, 0.37933491, 0.88074174], "properties": {"magmom": -0.0}, "label": "Sc", "xyz": [2.721411181493263, 12.141638472248006, 6.067022644876194]}, {"species": [{"element": "Sc", "occu": 1}], "abc": [0.66122371, 0.87933491, 0.6192582600000001], "properties": {"magmom": -0.0}, "label": "Sc", "xyz": [6.308493611493263, 8.536906532751996, 4.782752290123806]}, {"species": [{"element": "Sc", "occu": 1}], "abc": [0.16122371, 0.62066509, 0.38074174], "properties": {"magmom": -0.0}, "label": "Sc", "xyz": [4.452753678506737, 5.2487901372480055, 1.1661606451238058]}, {"species": [{"element": "Sc", "occu": 1}], "abc": [0.33877629, 0.12066509, 0.11925826], "properties": {"magmom": -0.0}, "label": "Sc", "xyz": [0.8656712485067375, 1.6440581977519944, 2.450430999876194]}, {"species": [{"element": "Sc", "occu": 1}], "abc": [0.67637443, 0.467921, 0.10045103], "properties": {"magmom": -0.0}, "label": "Sc", "xyz": [3.35694239545606, 1.38478742976907, 4.892340224859275]}, {"species": [{"element": "Sc", "occu": 1}], "abc": [0.82362557, 0.967920999999999, 0.39954897], "properties": {"magmom": -0.0}, "label": "Sc", "xyz": [6.9440248254560535, 5.50806090523093, 5.957434710140726]}, {"species": [{"element": "Sc", "occu": 1}], "abc": [0.32362557000000003, 0.532079, 0.60045103], "properties": {"magmom": -0.0}, "label": "Sc", "xyz": [3.81722246454394, 8.27763576476907, 2.3408430651407257]}, {"species": [{"element": "Sc", "occu": 1}], "abc": [0.17637443, 0.032078999999999004, 0.89954897], "properties": {"magmom": -0.0}, "label": "Sc", "xyz": [0.23014003454393286, 12.40090924023093, 1.2757485798592747]}, {"species": [{"element": "Sc", "occu": 1}], "abc": [0.32362557000000003, 0.532079, 0.89954897], "properties": {"magmom": -0.0}, "label": "Sc", "xyz": [3.81722246454394, 12.40090924023093, 2.3408430651407257]}, {"species": [{"element": "Sc", "occu": 1}], "abc": [0.17637443, 0.032078999999999004, 0.60045103], "properties": {"magmom": -0.0}, "label": "Sc", "xyz": [0.23014003454393286, 8.27763576476907, 1.2757485798592747]}, {"species": [{"element": "Sc", "occu": 1}], "abc": [0.67637443, 0.467921, 0.39954897], "properties": {"magmom": -0.0}, "label": "Sc", "xyz": [3.35694239545606, 5.50806090523093, 4.892340224859275]}, {"species": [{"element": "Sc", "occu": 1}], "abc": [0.82362557, 0.967920999999999, 0.10045103], "properties": {"magmom": -0.0}, "label": "Sc", "xyz": [6.9440248254560535, 1.38478742976907, 5.957434710140726]}, {"species": [{"element": "Sc", "occu": 1}], "abc": [0.49708045, 0.78739387, 0.25], "properties": {"magmom": -0.0}, "label": "Sc", "xyz": [5.648893433133408, 3.4464241675, 3.5954740047256806]}, {"species": [{"element": "Sc", "occu": 1}], "abc": [0.00291955, 0.28739387, 0.25], "properties": {"magmom": -0.0}, "label": "Sc", "xyz": [2.0618110031334083, 3.4464241675, 0.0211176402743195]}, {"species": [{"element": "Sc", "occu": 1}], "abc": [0.50291955, 0.21260613, 0.75], "properties": {"magmom": -0.0}, "label": "Sc", "xyz": [1.525271426866592, 10.3392725025, 3.63770928527432]}, {"species": [{"element": "Sc", "occu": 1}], "abc": [0.99708045, 0.7126061300000001, 0.75], "properties": {"magmom": -0.0}, "label": "Sc", "xyz": [5.1123538568665925, 10.3392725025, 7.212065649725681]}, {"species": [{"element": "Ge", "occu": 1}], "abc": [0.967621, 0.71944805, 0.9568836900000001], "properties": {"magmom": 0.0}, "label": "Ge", "xyz": [5.161438918905524, 13.191308298810313, 6.99898004825309]}, {"species": [{"element": "Ge", "occu": 1}], "abc": [0.532378999999999, 0.21944805, 0.54311631], "properties": {"magmom": 0.0}, "label": "Ge", "xyz": [1.574356488905523, 7.487236706189688, 3.8507948867469035]}, {"species": [{"element": "Ge", "occu": 1}], "abc": [0.032379, 0.28055195, 0.45688369], "properties": {"magmom": 0.0}, "label": "Ge", "xyz": [2.012725941094477, 6.298459963810313, 0.23420324174690998]}, {"species": [{"element": "Ge", "occu": 1}], "abc": [0.467620999999999, 0.78055195, 0.04311631], "properties": {"magmom": 0.0}, "label": "Ge", "xyz": [5.599808371094477, 0.5943883711896877, 3.382388403253083]}, {"species": [{"element": "Ge", "occu": 1}], "abc": [0.032379, 0.28055195, 0.04311631], "properties": {"magmom": 0.0}, "label": "Ge", "xyz": [2.012725941094477, 0.5943883711896877, 0.23420324174690998]}, {"species": [{"element": "Ge", "occu": 1}], "abc": [0.467620999999999, 0.78055195, 0.45688369], "properties": {"magmom": 0.0}, "label": "Ge", "xyz": [5.599808371094477, 6.298459963810313, 3.382388403253083]}, {"species": [{"element": "Ge", "occu": 1}], "abc": [0.967621, 0.71944805, 0.54311631], "properties": {"magmom": 0.0}, "label": "Ge", "xyz": [5.161438918905524, 7.487236706189688, 6.99898004825309]}, {"species": [{"element": "Ge", "occu": 1}], "abc": [0.532378999999999, 0.21944805, 0.9568836900000001], "properties": {"magmom": 0.0}, "label": "Ge", "xyz": [1.574356488905523, 13.191308298810313, 3.8507948867469035]}, {"species": [{"element": "Ge", "occu": 1}], "abc": [0.38099265, 0.42035917, 0.25], "properties": {"magmom": 0.0}, "label": "Ge", "xyz": [3.0157259859927663, 3.4464241675, 2.7557896695928186]}, {"species": [{"element": "Ge", "occu": 1}], "abc": [0.11900735, 0.92035917, 0.25], "properties": {"magmom": 0.0}, "label": "Ge", "xyz": [6.602808415992767, 3.4464241675, 0.8608019754071815]}, {"species": [{"element": "Ge", "occu": 1}], "abc": [0.6190073500000001, 0.57964083, 0.75], "properties": {"magmom": 0.0}, "label": "Ge", "xyz": [4.158438874007234, 10.3392725025, 4.477393620407182]}, {"species": [{"element": "Ge", "occu": 1}], "abc": [0.88099265, 0.07964083, 0.75], "properties": {"magmom": 0.0}, "label": "Ge", "xyz": [0.5713564440072338, 10.3392725025, 6.372381314592819]}, {"species": [{"element": "Ge", "occu": 1}], "abc": [0.85858639, 0.65979444, 0.25], "properties": {"magmom": -0.0}, "label": "Ge", "xyz": [4.733474086271379, 3.4464241675, 6.210312729169424]}, {"species": [{"element": "Ge", "occu": 1}], "abc": [0.64141361, 0.15979444, 0.25], "properties": {"magmom": -0.0}, "label": "Ge", "xyz": [1.1463916562713785, 3.4464241675, 4.639462205830577]}, {"species": [{"element": "Ge", "occu": 1}], "abc": [0.14141361, 0.34020556, 0.75], "properties": {"magmom": -0.0}, "label": "Ge", "xyz": [2.4406907737286216, 10.3392725025, 1.0228705608305768]}, {"species": [{"element": "Ge", "occu": 1}], "abc": [0.35858639000000003, 0.84020556, 0.75], "properties": {"magmom": -0.0}, "label": "Ge", "xyz": [6.027773203728622, 10.3392725025, 2.5937210841694234]}]}, "task_ids": null, "uncorrected_energy_per_atom": null, "energy_per_atom": -13.416402111111111, "formation_energy_per_atom": -0.9185857672222221, "energy_above_hull": 0.0, "is_stable": true, "equilibrium_reaction_energy_per_atom": null, "decomposes_to": null, "xas": null, "grain_boundaries": null, "band_gap": 0.0, "cbm": null, "vbm": null, "efermi": 5.27134529, "is_gap_direct": null, "is_metal": null, "es_source_calc_id": null, "bandstructure": null, "dos": null, "dos_energy_up": null, "dos_energy_down": null, "is_magnetic": null, "ordering": null, "total_magnetization": 2.2e-06, "total_magnetization_normalized_vol": null, "total_magnetization_normalized_formula_units": null, "num_magnetic_sites": null, "num_unique_magnetic_sites": null, "types_of_magnetic_species": null, "bulk_modulus": null, "shear_modulus": null, "universal_anisotropy": null, "homogeneous_poisson": null, "e_total": null, "e_ionic": null, "e_electronic": null, "n": null, "e_ij_max": null, "weighted_surface_energy_EV_PER_ANG2": null, "weighted_surface_energy": null, "weighted_work_function": null, "surface_anisotropy": null, "shape_factor": null, "has_reconstructed": null, "possible_species": null, "has_props": null, "theoretical": null, "database_IDs": null, "fields_not_requested": ["builder_meta", "nsites", "elements", "nelements", "composition", "composition_reduced", "chemsys", "symmetry", "property_name", "deprecated", "deprecation_reasons", "last_updated", "origins", "warnings", "task_ids", "uncorrected_energy_per_atom", "equilibrium_reaction_energy_per_atom", "decomposes_to", "xas", "grain_boundaries", "cbm", "vbm", "is_gap_direct", "is_metal", "es_source_calc_id", "bandstructure", "dos", "dos_energy_up", "dos_energy_down", "is_magnetic", "ordering", "total_magnetization_normalized_vol", "total_magnetization_normalized_formula_units", "num_magnetic_sites", "num_unique_magnetic_sites", "types_of_magnetic_species", "bulk_modulus", "shear_modulus", "universal_anisotropy", "homogeneous_poisson", "e_total", "e_ionic", "e_electronic", "n", "e_ij_max", "weighted_surface_energy_EV_PER_ANG2", "weighted_surface_energy", "weighted_work_function", "surface_anisotropy", "shape_factor", "has_reconstructed", "possible_species", "has_props", "theoretical", "database_IDs"]}