{"builder_meta": null, "nsites": null, "elements": null, "nelements": null, "composition": null, "composition_reduced": null, "formula_pretty": "Sc5Pb3", "formula_anonymous": "A3B5", "chemsys": null, "volume": 389.4494120249884, "density": 7.217606606434112, "density_atomic": 24.340588251561776, "symmetry": null, "property_name": null, "material_id": "mp-510209", "deprecated": null, "deprecation_reasons": null, "last_updated": null, "origins": null, "warnings": null, "structure": {"@module": "pymatgen.core.structure", "@class": "Structure", "charge": 0, "lattice": {"matrix": [[8.52162273, 0.0, -0.0], [-4.26081136, 7.37994219, -0.0], [-0.0, -0.0, 6.19263937]], "pbc": [true, true, true], "a": 8.52162273, "b": 8.521623095000567, "c": 6.19263937, "alpha": 90.0, "beta": 90.0, "gamma": 119.99999854430094, "volume": 389.4494120249884}, "properties": {}, "sites": [{"species": [{"element": "Sc", "occu": 1}], "abc": [0.333333, 0.666667, -0.0], "properties": {"magmom": -0.002}, "label": "Sc", "xyz": [-4.257478030122996e-06, 4.91996391998073, 0.0]}, {"species": [{"element": "Sc", "occu": 1}], "abc": [0.666667, 0.333333, 0.5], "properties": {"magmom": -0.002}, "label": "Sc", "xyz": [4.26081562747803, 2.45997827001927, 3.096319685]}, {"species": [{"element": "Sc", "occu": 1}], "abc": [0.666667, 0.333333, -0.0], "properties": {"magmom": -0.002}, "label": "Sc", "xyz": [4.26081562747803, 2.45997827001927, 0.0]}, {"species": [{"element": "Sc", "occu": 1}], "abc": [0.333333, 0.666667, 0.5], "properties": {"magmom": -0.002}, "label": "Sc", "xyz": [-4.257478030122996e-06, 4.91996391998073, 3.096319685]}, {"species": [{"element": "Sc", "occu": 1}], "abc": [0.23604163, -0.0, 0.25], "properties": {"magmom": -0.002}, "label": "Sc", "xyz": [2.01145771943425, 0.0, 1.5481598425]}, {"species": [{"element": "Sc", "occu": 1}], "abc": [0.23604163, 0.23604163, 0.75], "properties": {"magmom": -0.002}, "label": "Sc", "xyz": [1.0057288608973332, 1.7419735838333699, 4.6444795275]}, {"species": [{"element": "Sc", "occu": 1}], "abc": [0.0, 0.76395837, 0.75], "properties": {"magmom": -0.002}, "label": "Sc", "xyz": [-3.2550825014630833, 5.6379686061666305, 4.6444795275]}, {"species": [{"element": "Sc", "occu": 1}], "abc": [-0.0, 0.23604163, 0.25], "properties": {"magmom": -0.002}, "label": "Sc", "xyz": [-1.0057288585369168, 1.7419735838333699, 1.5481598425]}, {"species": [{"element": "Sc", "occu": 1}], "abc": [0.76395837, 0.76395837, 0.25], "properties": {"magmom": -0.002}, "label": "Sc", "xyz": [3.2550825091026674, 5.6379686061666305, 1.5481598425]}, {"species": [{"element": "Sc", "occu": 1}], "abc": [0.76395837, -0.0, 0.75], "properties": {"magmom": -0.002}, "label": "Sc", "xyz": [6.510165010565751, 0.0, 4.6444795275]}, {"species": [{"element": "Pb", "occu": 1}], "abc": [0.60722745, -0.0, 0.25], "properties": {"magmom": 0.0}, "label": "Pb", "xyz": [5.174563240199939, 0.0, 1.5481598425]}, {"species": [{"element": "Pb", "occu": 1}], "abc": [0.60722745, 0.60722745, 0.75], "properties": {"magmom": 0.0}, "label": "Pb", "xyz": [2.587281623136107, 4.4813034771811155, 4.6444795275]}, {"species": [{"element": "Pb", "occu": 1}], "abc": [-0.0, 0.39277255, 0.75], "properties": {"magmom": 0.0}, "label": "Pb", "xyz": [-1.673529742936168, 2.898638712818885, 4.6444795275]}, {"species": [{"element": "Pb", "occu": 1}], "abc": [0.0, 0.60722745, 0.25], "properties": {"magmom": 0.0}, "label": "Pb", "xyz": [-2.587281617063832, 4.4813034771811155, 1.5481598425]}, {"species": [{"element": "Pb", "occu": 1}], "abc": [0.39277255, 0.39277255, 0.25], "properties": {"magmom": 0.0}, "label": "Pb", "xyz": [1.6735297468638937, 2.898638712818885, 1.5481598425]}, {"species": [{"element": "Pb", "occu": 1}], "abc": [0.39277255, -0.0, 0.75], "properties": {"magmom": 0.0}, "label": "Pb", "xyz": [3.3470594898000616, 0.0, 4.6444795275]}]}, "task_ids": null, "uncorrected_energy_per_atom": null, "energy_per_atom": -28.8169671, "formation_energy_per_atom": -0.585987211875, "energy_above_hull": 0.0, "is_stable": true, "equilibrium_reaction_energy_per_atom": null, "decomposes_to": null, "xas": null, "grain_boundaries": null, "band_gap": 0.0, "cbm": null, "vbm": null, "efermi": 5.91568809, "is_gap_direct": null, "is_metal": null, "es_source_calc_id": null, "bandstructure": null, "dos": null, "dos_energy_up": null, "dos_energy_down": null, "is_magnetic": null, "ordering": null, "total_magnetization": 0.0241969, "total_magnetization_normalized_vol": null, "total_magnetization_normalized_formula_units": null, "num_magnetic_sites": null, "num_unique_magnetic_sites": null, "types_of_magnetic_species": null, "bulk_modulus": null, "shear_modulus": null, "universal_anisotropy": null, "homogeneous_poisson": null, "e_total": null, "e_ionic": null, "e_electronic": null, "n": null, "e_ij_max": null, "weighted_surface_energy_EV_PER_ANG2": null, "weighted_surface_energy": null, "weighted_work_function": null, "surface_anisotropy": null, "shape_factor": null, "has_reconstructed": null, "possible_species": null, "has_props": null, "theoretical": null, "database_IDs": null, "fields_not_requested": ["builder_meta", "nsites", "elements", "nelements", "composition", "composition_reduced", "chemsys", "symmetry", "property_name", "deprecated", "deprecation_reasons", "last_updated", "origins", "warnings", "task_ids", "uncorrected_energy_per_atom", "equilibrium_reaction_energy_per_atom", "decomposes_to", "xas", "grain_boundaries", "cbm", "vbm", "is_gap_direct", "is_metal", "es_source_calc_id", "bandstructure", "dos", "dos_energy_up", "dos_energy_down", "is_magnetic", "ordering", "total_magnetization_normalized_vol", "total_magnetization_normalized_formula_units", "num_magnetic_sites", "num_unique_magnetic_sites", "types_of_magnetic_species", "bulk_modulus", "shear_modulus", "universal_anisotropy", "homogeneous_poisson", "e_total", "e_ionic", "e_electronic", "n", "e_ij_max", "weighted_surface_energy_EV_PER_ANG2", "weighted_surface_energy", "weighted_work_function", "surface_anisotropy", "shape_factor", "has_reconstructed", "possible_species", "has_props", "theoretical", "database_IDs"]}