{
  "builder_meta": null,
  "nsites": null,
  "elements": null,
  "nelements": null,
  "composition": null,
  "composition_reduced": null,
  "formula_pretty": "Sc5Ru3",
  "formula_anonymous": "A3B5",
  "chemsys": null,
  "volume": 306.64491230686184,
  "density": 5.718322763232915,
  "density_atomic": 19.165307019178865,
  "symmetry": null,
  "property_name": null,
  "material_id": "mp-1209003",
  "deprecated": null,
  "deprecation_reasons": null,
  "last_updated": null,
  "origins": null,
  "warnings": null,
  "structure": {
    "@module": "pymatgen.core.structure",
    "@class": "Structure",
    "charge": 0,
    "lattice": {
      "matrix": [
        [0.0, 0.0, -5.861459],
        [-3.886151, -6.731012, 0.0],
        [-3.886151, 6.731012, 0.0]
      ],
      "pbc": [true, true, true],
      "a": 5.861459,
      "b": 7.772302885177918,
      "c": 7.772302885177918,
      "alpha": 120.00000753481943,
      "beta": 90.0,
      "gamma": 90.0,
      "volume": 306.64491230686184
    },
    "properties": {},
    "sites": [
      {
        "species": [{ "element": "Sc", "occu": 1 }],
        "abc": [0.0, 0.666667, 0.333333],
        "properties": { "magmom": 0.0 },
        "label": "Sc",
        "xyz": [-3.886151, -2.243675154008, 0.0]
      },
      {
        "species": [{ "element": "Sc", "occu": 1 }],
        "abc": [0.0, 0.333333, 0.666667],
        "properties": { "magmom": 0.0 },
        "label": "Sc",
        "xyz": [-3.886151, 2.243675154008, 0.0]
      },
      {
        "species": [{ "element": "Sc", "occu": 1 }],
        "abc": [0.5, 0.333333, 0.666667],
        "properties": { "magmom": 0.0 },
        "label": "Sc",
        "xyz": [-3.886151, 2.243675154008, -2.9307295]
      },
      {
        "species": [{ "element": "Sc", "occu": 1 }],
        "abc": [0.5, 0.666667, 0.333333],
        "properties": { "magmom": 0.0 },
        "label": "Sc",
        "xyz": [-3.886151, -2.243675154008, -2.9307295]
      },
      {
        "species": [{ "element": "Sc", "occu": 1 }],
        "abc": [0.75, 0.742981999999999, 0.742981999999999],
        "properties": { "magmom": 0.002 },
        "label": "Sc",
        "xyz": [-5.7746804845639925, 0.0, -4.39609425]
      },
      {
        "species": [{ "element": "Sc", "occu": 1 }],
        "abc": [0.25, 0.257017999999999, 0.257017999999999],
        "properties": { "magmom": 0.002 },
        "label": "Sc",
        "xyz": [-1.9976215154359924, 0.0, -1.46536475]
      },
      {
        "species": [{ "element": "Sc", "occu": 1 }],
        "abc": [0.75, 0.0, 0.257017999999999],
        "properties": { "magmom": 0.003 },
        "label": "Sc",
        "xyz": [-0.9988107577179962, 1.7299912422159933, -4.39609425]
      },
      {
        "species": [{ "element": "Sc", "occu": 1 }],
        "abc": [0.25, 0.0, 0.742981999999999],
        "properties": { "magmom": 0.003 },
        "label": "Sc",
        "xyz": [-2.8873402422819963, 5.001020757783993, -1.46536475]
      },
      {
        "species": [{ "element": "Sc", "occu": 1 }],
        "abc": [0.75, 0.257017999999999, 0.0],
        "properties": { "magmom": 0.001 },
        "label": "Sc",
        "xyz": [-0.9988107577179962, -1.7299912422159933, -4.39609425]
      },
      {
        "species": [{ "element": "Sc", "occu": 1 }],
        "abc": [0.25, 0.742981999999999, 0.0],
        "properties": { "magmom": 0.001 },
        "label": "Sc",
        "xyz": [-2.8873402422819963, -5.001020757783993, -1.46536475]
      },
      {
        "species": [{ "element": "Ru", "occu": 1 }],
        "abc": [0.75, 0.402215, 0.402215],
        "properties": { "magmom": 0.002 },
        "label": "Ru",
        "xyz": [-3.1261364489299996, 0.0, -4.39609425]
      },
      {
        "species": [{ "element": "Ru", "occu": 1 }],
        "abc": [0.25, 0.597785, 0.597785],
        "properties": { "magmom": 0.002 },
        "label": "Ru",
        "xyz": [-4.64616555107, 0.0, -1.46536475]
      },
      {
        "species": [{ "element": "Ru", "occu": 1 }],
        "abc": [0.75, 0.0, 0.597785],
        "properties": { "magmom": -0.004 },
        "label": "Ru",
        "xyz": [-2.323082775535, 4.02369800842, -4.39609425]
      },
      {
        "species": [{ "element": "Ru", "occu": 1 }],
        "abc": [0.25, 0.0, 0.402215],
        "properties": { "magmom": -0.004 },
        "label": "Ru",
        "xyz": [-1.5630682244649998, 2.70731399158, -1.46536475]
      },
      {
        "species": [{ "element": "Ru", "occu": 1 }],
        "abc": [0.75, 0.597785, 0.0],
        "properties": { "magmom": 0.007 },
        "label": "Ru",
        "xyz": [-2.323082775535, -4.02369800842, -4.39609425]
      },
      {
        "species": [{ "element": "Ru", "occu": 1 }],
        "abc": [0.25, 0.402215, 0.0],
        "properties": { "magmom": 0.007 },
        "label": "Ru",
        "xyz": [-1.5630682244649998, -2.70731399158, -1.46536475]
      }
    ]
  },
  "task_ids": null,
  "uncorrected_energy_per_atom": null,
  "energy_per_atom": -7.89193355125,
  "formation_energy_per_atom": -0.456239408124999,
  "energy_above_hull": 0.012595775535714001,
  "is_stable": false,
  "equilibrium_reaction_energy_per_atom": null,
  "decomposes_to": null,
  "xas": null,
  "grain_boundaries": null,
  "band_gap": 0.0,
  "cbm": null,
  "vbm": null,
  "efermi": 5.16081695,
  "is_gap_direct": null,
  "is_metal": null,
  "es_source_calc_id": null,
  "bandstructure": null,
  "dos": null,
  "dos_energy_up": null,
  "dos_energy_down": null,
  "is_magnetic": null,
  "ordering": null,
  "total_magnetization": 0.045433,
  "total_magnetization_normalized_vol": null,
  "total_magnetization_normalized_formula_units": null,
  "num_magnetic_sites": null,
  "num_unique_magnetic_sites": null,
  "types_of_magnetic_species": null,
  "bulk_modulus": null,
  "shear_modulus": null,
  "universal_anisotropy": null,
  "homogeneous_poisson": null,
  "e_total": null,
  "e_ionic": null,
  "e_electronic": null,
  "n": null,
  "e_ij_max": null,
  "weighted_surface_energy_EV_PER_ANG2": null,
  "weighted_surface_energy": null,
  "weighted_work_function": null,
  "surface_anisotropy": null,
  "shape_factor": null,
  "has_reconstructed": null,
  "possible_species": null,
  "has_props": null,
  "theoretical": null,
  "database_IDs": null,
  "fields_not_requested": [
    "builder_meta",
    "nsites",
    "elements",
    "nelements",
    "composition",
    "composition_reduced",
    "chemsys",
    "symmetry",
    "property_name",
    "deprecated",
    "deprecation_reasons",
    "last_updated",
    "origins",
    "warnings",
    "task_ids",
    "uncorrected_energy_per_atom",
    "equilibrium_reaction_energy_per_atom",
    "decomposes_to",
    "xas",
    "grain_boundaries",
    "cbm",
    "vbm",
    "is_gap_direct",
    "is_metal",
    "es_source_calc_id",
    "bandstructure",
    "dos",
    "dos_energy_up",
    "dos_energy_down",
    "is_magnetic",
    "ordering",
    "total_magnetization_normalized_vol",
    "total_magnetization_normalized_formula_units",
    "num_magnetic_sites",
    "num_unique_magnetic_sites",
    "types_of_magnetic_species",
    "bulk_modulus",
    "shear_modulus",
    "universal_anisotropy",
    "homogeneous_poisson",
    "e_total",
    "e_ionic",
    "e_electronic",
    "n",
    "e_ij_max",
    "weighted_surface_energy_EV_PER_ANG2",
    "weighted_surface_energy",
    "weighted_work_function",
    "surface_anisotropy",
    "shape_factor",
    "has_reconstructed",
    "possible_species",
    "has_props",
    "theoretical",
    "database_IDs"
  ]
}
