{"builder_meta": null, "nsites": null, "elements": null, "nelements": null, "composition": null, "composition_reduced": null, "formula_pretty": "Sc5Sn3", "formula_anonymous": "A3B5", "chemsys": null, "volume": 376.06734954550257, "density": 5.130054601694165, "density_atomic": 23.50420934659391, "symmetry": null, "property_name": null, "material_id": "mp-17695", "deprecated": null, "deprecation_reasons": null, "last_updated": null, "origins": null, "warnings": null, "structure": {"@module": "pymatgen.core.structure", "@class": "Structure", "charge": 0, "lattice": {"matrix": [[8.4337605, -1e-08, 0.0], [-4.21688127, 7.30385036, 0.0], [0.0, 0.0, 6.10509602]], "pbc": [true, true, true], "a": 8.4337605, "b": 8.433760592200192, "c": 6.10509602, "alpha": 90.0, "beta": 90.0, "gamma": 120.00000770779046, "volume": 376.06734954550257}, "properties": {}, "sites": [{"species": [{"element": "Sc", "occu": 1}], "abc": [0.333333, 0.666667, 0.5], "properties": {"magmom": 0.0}, "label": "Sc", "xyz": [-4.896880589910779e-06, 4.86923600461679, 3.05254801]}, {"species": [{"element": "Sc", "occu": 1}], "abc": [0.666667, 0.333333, 0.0], "properties": {"magmom": 0.0}, "label": "Sc", "xyz": [4.21688412688059, 2.4346143453832103, 0.0]}, {"species": [{"element": "Sc", "occu": 1}], "abc": [0.666667, 0.333333, 0.5], "properties": {"magmom": 0.0}, "label": "Sc", "xyz": [4.21688412688059, 2.4346143453832103, 3.05254801]}, {"species": [{"element": "Sc", "occu": 1}], "abc": [0.333333, 0.666667, 0.0], "properties": {"magmom": 0.0}, "label": "Sc", "xyz": [-4.896880589910779e-06, 4.86923600461679, 0.0]}, {"species": [{"element": "Sc", "occu": 1}], "abc": [0.763326899999999, 1.0, 0.75], "properties": {"magmom": -0.0}, "label": "Sc", "xyz": [2.220834987807442, 7.303850352366731, 4.578822015]}, {"species": [{"element": "Sc", "occu": 1}], "abc": [0.763326899999999, 0.763326899999999, 0.25], "properties": {"magmom": -0.0}, "label": "Sc", "xyz": [3.2188573503102833, 5.575225445729408, 1.526274005]}, {"species": [{"element": "Sc", "occu": 1}], "abc": [0.2366731, 0.0, 0.25], "properties": {"magmom": -0.0}, "label": "Sc", "xyz": [1.99604424219255, -2.366731e-09, 1.526274005]}, {"species": [{"element": "Sc", "occu": 1}], "abc": [0.2366731, 0.2366731, 0.75], "properties": {"magmom": -0.0}, "label": "Sc", "xyz": [0.9980218796897129, 1.728624904270585, 4.578822015]}, {"species": [{"element": "Sc", "occu": 1}], "abc": [1.0, 0.763326899999999, 0.75], "properties": {"magmom": -0.0}, "label": "Sc", "xyz": [5.214901592502841, 5.575225443362677, 4.578822015]}, {"species": [{"element": "Sc", "occu": 1}], "abc": [0.0, 0.2366731, 0.25], "properties": {"magmom": -0.0}, "label": "Sc", "xyz": [-0.998022362502837, 1.728624906637316, 1.526274005]}, {"species": [{"element": "Sn", "occu": 1}], "abc": [0.39421174000000003, 0.0, 0.75], "properties": {"magmom": -0.0}, "label": "Sn", "xyz": [3.32468740144827, -3.9421174e-09, 4.578822015]}, {"species": [{"element": "Sn", "occu": 1}], "abc": [0.39421174000000003, 0.39421174000000003, 0.25], "properties": {"magmom": -0.0}, "label": "Sn", "xyz": [1.66234329862816, 2.8792635551731096, 1.526274005]}, {"species": [{"element": "Sn", "occu": 1}], "abc": [1.0, 0.60578826, 0.25], "properties": {"magmom": -0.0}, "label": "Sn", "xyz": [5.87922333282011, 4.424586790884773, 1.526274005]}, {"species": [{"element": "Sn", "occu": 1}], "abc": [0.0, 0.39421174000000003, 0.75], "properties": {"magmom": -0.0}, "label": "Sn", "xyz": [-1.66234410282011, 2.879263559115227, 4.578822015]}, {"species": [{"element": "Sn", "occu": 1}], "abc": [0.60578826, 0.60578826, 0.75], "properties": {"magmom": -0.0}, "label": "Sn", "xyz": [2.5545359313718397, 4.424586794826891, 4.578822015]}, {"species": [{"element": "Sn", "occu": 1}], "abc": [0.60578826, 1.0, 0.25], "properties": {"magmom": -0.0}, "label": "Sn", "xyz": [0.8921918285517298, 7.303850353942118, 1.526274005]}]}, "task_ids": null, "uncorrected_energy_per_atom": null, "energy_per_atom": -17.150767485625, "formation_energy_per_atom": -0.746893971249999, "energy_above_hull": 0.0, "is_stable": true, "equilibrium_reaction_energy_per_atom": null, "decomposes_to": null, "xas": null, "grain_boundaries": null, "band_gap": 0.0, "cbm": null, "vbm": null, "efermi": 5.9810105700000005, "is_gap_direct": null, "is_metal": null, "es_source_calc_id": null, "bandstructure": null, "dos": null, "dos_energy_up": null, "dos_energy_down": null, "is_magnetic": null, "ordering": null, "total_magnetization": 1.93e-05, "total_magnetization_normalized_vol": null, "total_magnetization_normalized_formula_units": null, "num_magnetic_sites": null, "num_unique_magnetic_sites": null, "types_of_magnetic_species": null, "bulk_modulus": null, "shear_modulus": null, "universal_anisotropy": null, "homogeneous_poisson": null, "e_total": null, "e_ionic": null, "e_electronic": null, "n": null, "e_ij_max": null, "weighted_surface_energy_EV_PER_ANG2": null, "weighted_surface_energy": null, "weighted_work_function": null, "surface_anisotropy": null, "shape_factor": null, "has_reconstructed": null, "possible_species": null, "has_props": null, "theoretical": null, "database_IDs": null, "fields_not_requested": ["builder_meta", "nsites", "elements", "nelements", "composition", "composition_reduced", "chemsys", "symmetry", "property_name", "deprecated", "deprecation_reasons", "last_updated", "origins", "warnings", "task_ids", "uncorrected_energy_per_atom", "equilibrium_reaction_energy_per_atom", "decomposes_to", "xas", "grain_boundaries", "cbm", "vbm", "is_gap_direct", "is_metal", "es_source_calc_id", "bandstructure", "dos", "dos_energy_up", "dos_energy_down", "is_magnetic", "ordering", "total_magnetization_normalized_vol", "total_magnetization_normalized_formula_units", "num_magnetic_sites", "num_unique_magnetic_sites", "types_of_magnetic_species", "bulk_modulus", "shear_modulus", "universal_anisotropy", "homogeneous_poisson", "e_total", "e_ionic", "e_electronic", "n", "e_ij_max", "weighted_surface_energy_EV_PER_ANG2", "weighted_surface_energy", "weighted_work_function", "surface_anisotropy", "shape_factor", "has_reconstructed", "possible_species", "has_props", "theoretical", "database_IDs"]}