{"builder_meta": null, "nsites": null, "elements": null, "nelements": null, "composition": null, "composition_reduced": null, "formula_pretty": "Sc5Si4", "formula_anonymous": "A4B5", "chemsys": null, "volume": 684.930706886906, "density": 3.269256378459137, "density_atomic": 19.025852969080724, "symmetry": null, "property_name": null, "material_id": "mp-1209086", "deprecated": null, "deprecation_reasons": null, "last_updated": null, "origins": null, "warnings": null, "structure": {"@module": "pymatgen.core.structure", "@class": "Structure", "charge": 0, "lattice": {"matrix": [[7.029524, 0.0, 0.0], [0.0, 7.141765, 0.0], [0.0, 0.0, 13.643166]], "pbc": [true, true, true], "a": 7.029524, "b": 7.141765, "c": 13.643166, "alpha": 90.0, "beta": 90.0, "gamma": 90.0, "volume": 684.930706886906}, "properties": {}, "sites": [{"species": [{"element": "Sc", "occu": 1}], "abc": [0.207971, 0.001421999999999, 0.75], "properties": {"magmom": -0.002}, "label": "Sc", "xyz": [1.461937135804, 0.010155589829992859, 10.2323745]}, {"species": [{"element": "Sc", "occu": 1}], "abc": [0.792029, 0.998578, 0.25], "properties": {"magmom": -0.001}, "label": "Sc", "xyz": [5.5675868641960005, 7.13160941017, 3.4107915]}, {"species": [{"element": "Sc", "occu": 1}], "abc": [0.292029, 0.501421999999999, 0.25], "properties": {"magmom": -0.001}, "label": "Sc", "xyz": [2.052824864196, 3.581038089829993, 3.4107915]}, {"species": [{"element": "Sc", "occu": 1}], "abc": [0.707971, 0.498577999999999, 0.75], "properties": {"magmom": -0.001}, "label": "Sc", "xyz": [4.976699135804, 3.560726910169993, 10.2323745]}, {"species": [{"element": "Sc", "occu": 1}], "abc": [0.023583999999999, 0.679091999999999, 0.599348], "properties": {"magmom": -0.0}, "label": "Sc", "xyz": [0.16578429401599298, 4.8499154773799935, 8.177004255768]}, {"species": [{"element": "Sc", "occu": 1}], "abc": [0.976416, 0.320907999999999, 0.400652], "properties": {"magmom": -0.0}, "label": "Sc", "xyz": [6.863739705984, 2.291849522619993, 5.466161744232]}, {"species": [{"element": "Sc", "occu": 1}], "abc": [0.476416, 0.179092, 0.400652], "properties": {"magmom": -0.0}, "label": "Sc", "xyz": [3.3489777059840002, 1.27903297738, 5.466161744232]}, {"species": [{"element": "Sc", "occu": 1}], "abc": [0.976416, 0.320907999999999, 0.099347999999999], "properties": {"magmom": -0.0}, "label": "Sc", "xyz": [6.863739705984, 2.291849522619993, 1.3554212557679866]}, {"species": [{"element": "Sc", "occu": 1}], "abc": [0.523583999999999, 0.820908, 0.599348], "properties": {"magmom": -0.0}, "label": "Sc", "xyz": [3.6805462940159934, 5.86273202262, 8.177004255768]}, {"species": [{"element": "Sc", "occu": 1}], "abc": [0.023583999999999, 0.679091999999999, 0.900652], "properties": {"magmom": -0.001}, "label": "Sc", "xyz": [0.16578429401599298, 4.8499154773799935, 12.287744744232]}, {"species": [{"element": "Sc", "occu": 1}], "abc": [0.523583999999999, 0.820908, 0.900652], "properties": {"magmom": -0.001}, "label": "Sc", "xyz": [3.6805462940159934, 5.86273202262, 12.287744744232]}, {"species": [{"element": "Sc", "occu": 1}], "abc": [0.476416, 0.179092, 0.099347999999999], "properties": {"magmom": -0.001}, "label": "Sc", "xyz": [3.3489777059840002, 1.27903297738, 1.3554212557679866]}, {"species": [{"element": "Sc", "occu": 1}], "abc": [0.376032, 0.331375, 0.621081], "properties": {"magmom": -0.001}, "label": "Sc", "xyz": [2.643325968768, 2.366602376875, 8.473511182446]}, {"species": [{"element": "Sc", "occu": 1}], "abc": [0.623968, 0.668625, 0.378919], "properties": {"magmom": -0.001}, "label": "Sc", "xyz": [4.386198031232, 4.775162623125, 5.169654817554]}, {"species": [{"element": "Sc", "occu": 1}], "abc": [0.123968, 0.831375, 0.378919], "properties": {"magmom": -0.001}, "label": "Sc", "xyz": [0.871436031232, 5.937484876875, 5.169654817554]}, {"species": [{"element": "Sc", "occu": 1}], "abc": [0.623968, 0.668625, 0.121081], "properties": {"magmom": -0.0}, "label": "Sc", "xyz": [4.386198031232, 4.775162623125, 1.651928182446]}, {"species": [{"element": "Sc", "occu": 1}], "abc": [0.876031999999999, 0.168625, 0.621081], "properties": {"magmom": -0.001}, "label": "Sc", "xyz": [6.158087968767994, 1.204280123125, 8.473511182446]}, {"species": [{"element": "Sc", "occu": 1}], "abc": [0.376032, 0.331375, 0.878919], "properties": {"magmom": -0.001}, "label": "Sc", "xyz": [2.643325968768, 2.366602376875, 11.991237817554001]}, {"species": [{"element": "Sc", "occu": 1}], "abc": [0.876031999999999, 0.168625, 0.878919], "properties": {"magmom": -0.001}, "label": "Sc", "xyz": [6.158087968767994, 1.204280123125, 11.991237817554001]}, {"species": [{"element": "Sc", "occu": 1}], "abc": [0.123968, 0.831375, 0.121081], "properties": {"magmom": -0.0}, "label": "Sc", "xyz": [0.871436031232, 5.937484876875, 1.651928182446]}, {"species": [{"element": "Si", "occu": 1}], "abc": [0.080769, 0.389602, 0.75], "properties": {"magmom": -0.0}, "label": "Si", "xyz": [0.567767623956, 2.78244592753, 10.2323745]}, {"species": [{"element": "Si", "occu": 1}], "abc": [0.919230999999999, 0.610398, 0.25], "properties": {"magmom": -0.0}, "label": "Si", "xyz": [6.4617563760439936, 4.35931907247, 3.4107915]}, {"species": [{"element": "Si", "occu": 1}], "abc": [0.419230999999999, 0.889602, 0.25], "properties": {"magmom": 0.0}, "label": "Si", "xyz": [2.9469943760439934, 6.35332842753, 3.4107915]}, {"species": [{"element": "Si", "occu": 1}], "abc": [0.580769, 0.110398, 0.75], "properties": {"magmom": -0.0}, "label": "Si", "xyz": [4.082529623956, 0.78843657247, 10.2323745]}, {"species": [{"element": "Si", "occu": 1}], "abc": [0.326022, 0.634031, 0.75], "properties": {"magmom": -0.0}, "label": "Si", "xyz": [2.291779473528, 4.528100404715, 10.2323745]}, {"species": [{"element": "Si", "occu": 1}], "abc": [0.673978, 0.365969, 0.25], "properties": {"magmom": 0.0}, "label": "Si", "xyz": [4.737744526472, 2.613664595285, 3.4107915]}, {"species": [{"element": "Si", "occu": 1}], "abc": [0.173978, 0.134030999999999, 0.25], "properties": {"magmom": 0.0}, "label": "Si", "xyz": [1.222982526472, 0.957217904714993, 3.4107915]}, {"species": [{"element": "Si", "occu": 1}], "abc": [0.826021999999999, 0.865969, 0.75], "properties": {"magmom": -0.0}, "label": "Si", "xyz": [5.806541473527994, 6.184547095285001, 10.2323745]}, {"species": [{"element": "Si", "occu": 1}], "abc": [0.208951, 0.032951, 0.541196999999999], "properties": {"magmom": 0.0}, "label": "Si", "xyz": [1.468826069324, 0.235328298515, 7.383640509701987]}, {"species": [{"element": "Si", "occu": 1}], "abc": [0.791049, 0.967048999999999, 0.458802999999999], "properties": {"magmom": 0.0}, "label": "Si", "xyz": [5.5606979306760005, 6.906436701484994, 6.259525490297987]}, {"species": [{"element": "Si", "occu": 1}], "abc": [0.291049, 0.532951, 0.458802999999999], "properties": {"magmom": 0.0}, "label": "Si", "xyz": [2.0459359306760003, 3.806210798515, 6.259525490297987]}, {"species": [{"element": "Si", "occu": 1}], "abc": [0.791049, 0.967048999999999, 0.041197], "properties": {"magmom": 0.0}, "label": "Si", "xyz": [5.5606979306760005, 6.906436701484994, 0.562057509702]}, {"species": [{"element": "Si", "occu": 1}], "abc": [0.708951, 0.467049, 0.541196999999999], "properties": {"magmom": 0.0}, "label": "Si", "xyz": [4.983588069324, 3.335554201485, 7.383640509701987]}, {"species": [{"element": "Si", "occu": 1}], "abc": [0.208951, 0.032951, 0.958803], "properties": {"magmom": 0.0}, "label": "Si", "xyz": [1.468826069324, 0.235328298515, 13.081108490298]}, {"species": [{"element": "Si", "occu": 1}], "abc": [0.708951, 0.467049, 0.958803], "properties": {"magmom": -0.0}, "label": "Si", "xyz": [4.983588069324, 3.335554201485, 13.081108490298]}, {"species": [{"element": "Si", "occu": 1}], "abc": [0.291049, 0.532951, 0.041197], "properties": {"magmom": 0.0}, "label": "Si", "xyz": [2.0459359306760003, 3.806210798515, 0.562057509702]}]}, "task_ids": null, "uncorrected_energy_per_atom": null, "energy_per_atom": -11.021600540277777, "formation_energy_per_atom": -0.7896566341666661, "energy_above_hull": 0.041803782777778006, "is_stable": false, "equilibrium_reaction_energy_per_atom": null, "decomposes_to": null, "xas": null, "grain_boundaries": null, "band_gap": 0.0, "cbm": null, "vbm": null, "efermi": 5.73077789, "is_gap_direct": null, "is_metal": null, "es_source_calc_id": null, "bandstructure": null, "dos": null, "dos_energy_up": null, "dos_energy_down": null, "is_magnetic": null, "ordering": null, "total_magnetization": 0.0680542, "total_magnetization_normalized_vol": null, "total_magnetization_normalized_formula_units": null, "num_magnetic_sites": null, "num_unique_magnetic_sites": null, "types_of_magnetic_species": null, "bulk_modulus": null, "shear_modulus": null, "universal_anisotropy": null, "homogeneous_poisson": null, "e_total": null, "e_ionic": null, "e_electronic": null, "n": null, "e_ij_max": null, "weighted_surface_energy_EV_PER_ANG2": null, "weighted_surface_energy": null, "weighted_work_function": null, "surface_anisotropy": null, "shape_factor": null, "has_reconstructed": null, "possible_species": null, "has_props": null, "theoretical": null, "database_IDs": null, "fields_not_requested": ["builder_meta", "nsites", "elements", "nelements", "composition", "composition_reduced", "chemsys", "symmetry", "property_name", "deprecated", "deprecation_reasons", "last_updated", "origins", "warnings", "task_ids", "uncorrected_energy_per_atom", "equilibrium_reaction_energy_per_atom", "decomposes_to", "xas", "grain_boundaries", "cbm", "vbm", "is_gap_direct", "is_metal", "es_source_calc_id", "bandstructure", "dos", "dos_energy_up", "dos_energy_down", "is_magnetic", "ordering", "total_magnetization_normalized_vol", "total_magnetization_normalized_formula_units", "num_magnetic_sites", "num_unique_magnetic_sites", "types_of_magnetic_species", "bulk_modulus", "shear_modulus", "universal_anisotropy", "homogeneous_poisson", "e_total", "e_ionic", "e_electronic", "n", "e_ij_max", "weighted_surface_energy_EV_PER_ANG2", "weighted_surface_energy", "weighted_work_function", "surface_anisotropy", "shape_factor", "has_reconstructed", "possible_species", "has_props", "theoretical", "database_IDs"]}