{"builder_meta": null, "nsites": null, "elements": null, "nelements": null, "composition": null, "composition_reduced": null, "formula_pretty": "Sc5Si3", "formula_anonymous": "A3B5", "chemsys": null, "volume": 315.52304705512563, "density": 3.252798522375358, "density_atomic": 19.720190440945352, "symmetry": null, "property_name": null, "material_id": "mp-7822", "deprecated": null, "deprecation_reasons": null, "last_updated": null, "origins": null, "warnings": null, "structure": {"@module": "pymatgen.core.structure", "@class": "Structure", "charge": 0, "lattice": {"matrix": [[7.89501718, 1e-08, 0.0], [-3.94750758, 6.83728474, -0.0], [0.0, 0.0, 5.84513224]], "pbc": [true, true, true], "a": 7.89501718, "b": 7.895016067747698, "c": 5.84513224, "alpha": 90.0, "beta": 90.0, "gamma": 119.99999612400923, "volume": 315.52304705512563}, "properties": {}, "sites": [{"species": [{"element": "Sc", "occu": 1}], "abc": [-0.0, 0.75845423, 0.75], "properties": {"magmom": -0.0}, "label": "Sc", "xyz": [-2.994003822008063, 5.185767532767451, 4.38384918]}, {"species": [{"element": "Sc", "occu": 1}], "abc": [0.0, 0.24154577, 0.25], "properties": {"magmom": -0.0}, "label": "Sc", "xyz": [-0.9535037579919365, 1.65151720723255, 1.46128306]}, {"species": [{"element": "Sc", "occu": 1}], "abc": [0.75845423, 0.75845423, 0.25], "properties": {"magmom": -0.0}, "label": "Sc", "xyz": [2.994005354085608, 5.185767540351993, 1.46128306]}, {"species": [{"element": "Sc", "occu": 1}], "abc": [0.75845423, 0.0, 0.75], "properties": {"magmom": -0.0}, "label": "Sc", "xyz": [5.988009176093671, 7.5845423e-09, 4.38384918]}, {"species": [{"element": "Sc", "occu": 1}], "abc": [0.24154577, 0.24154577, 0.75], "properties": {"magmom": -0.0}, "label": "Sc", "xyz": [0.9535042459143921, 1.6515172096480075, 4.38384918]}, {"species": [{"element": "Sc", "occu": 1}], "abc": [0.24154577, -0.0, 0.25], "properties": {"magmom": -0.0}, "label": "Sc", "xyz": [1.9070080039063286, 2.4154577e-09, 1.46128306]}, {"species": [{"element": "Sc", "occu": 1}], "abc": [0.333333, 0.666667, 0.5], "properties": {"magmom": -0.0}, "label": "Sc", "xyz": [-3.2741749196318892e-06, 4.55819210909491, 2.92256612]}, {"species": [{"element": "Sc", "occu": 1}], "abc": [0.666667, 0.333333, -0.0], "properties": {"magmom": -0.0}, "label": "Sc", "xyz": [3.9475128741749197, 2.27909264090509, 0.0]}, {"species": [{"element": "Sc", "occu": 1}], "abc": [0.666667, 0.333333, 0.5], "properties": {"magmom": -0.0}, "label": "Sc", "xyz": [3.9475128741749197, 2.27909264090509, 2.92256612]}, {"species": [{"element": "Sc", "occu": 1}], "abc": [0.333333, 0.666667, -0.0], "properties": {"magmom": -0.0}, "label": "Sc", "xyz": [-3.2741749196318892e-06, 4.55819210909491, 0.0]}, {"species": [{"element": "Si", "occu": 1}], "abc": [0.39468113, -0.0, 0.75], "properties": {"magmom": 0.0}, "label": "Si", "xyz": [3.116014301971813, 3.9468113e-09, 4.38384918]}, {"species": [{"element": "Si", "occu": 1}], "abc": [0.39468113, 0.39468113, 0.25], "properties": {"magmom": 0.0}, "label": "Si", "xyz": [1.558007549613848, 2.6985472712617677, 1.46128306]}, {"species": [{"element": "Si", "occu": 1}], "abc": [-0.0, 0.6053188700000001, 0.25], "properties": {"magmom": 0.0}, "label": "Si", "xyz": [-2.389500827642035, 4.138737472685045, 1.46128306]}, {"species": [{"element": "Si", "occu": 1}], "abc": [0.0, 0.39468113, 0.75], "properties": {"magmom": 0.0}, "label": "Si", "xyz": [-1.5580067523579653, 2.6985472673149564, 4.38384918]}, {"species": [{"element": "Si", "occu": 1}], "abc": [0.6053188700000001, 0.6053188700000001, 0.75], "properties": {"magmom": 0.0}, "label": "Si", "xyz": [2.3895020503861524, 4.138737478738234, 4.38384918]}, {"species": [{"element": "Si", "occu": 1}], "abc": [0.6053188700000001, 0.0, 0.25], "properties": {"magmom": 0.0}, "label": "Si", "xyz": [4.779002878028187, 6.053188700000001e-09, 1.46128306]}]}, "task_ids": null, "uncorrected_energy_per_atom": null, "energy_per_atom": -11.212006133125, "formation_energy_per_atom": -0.7977898131250001, "energy_above_hull": 0.0, "is_stable": true, "equilibrium_reaction_energy_per_atom": null, "decomposes_to": null, "xas": null, "grain_boundaries": null, "band_gap": 0.0, "cbm": null, "vbm": null, "efermi": 5.36914211, "is_gap_direct": null, "is_metal": null, "es_source_calc_id": null, "bandstructure": null, "dos": null, "dos_energy_up": null, "dos_energy_down": null, "is_magnetic": null, "ordering": null, "total_magnetization": 5.4600000000000006e-05, "total_magnetization_normalized_vol": null, "total_magnetization_normalized_formula_units": null, "num_magnetic_sites": null, "num_unique_magnetic_sites": null, "types_of_magnetic_species": null, "bulk_modulus": null, "shear_modulus": null, "universal_anisotropy": null, "homogeneous_poisson": null, "e_total": null, "e_ionic": null, "e_electronic": null, "n": null, "e_ij_max": null, "weighted_surface_energy_EV_PER_ANG2": null, "weighted_surface_energy": null, "weighted_work_function": null, "surface_anisotropy": null, "shape_factor": null, "has_reconstructed": null, "possible_species": null, "has_props": null, "theoretical": null, "database_IDs": null, "fields_not_requested": ["builder_meta", "nsites", "elements", "nelements", "composition", "composition_reduced", "chemsys", "symmetry", "property_name", "deprecated", "deprecation_reasons", "last_updated", "origins", "warnings", "task_ids", "uncorrected_energy_per_atom", "equilibrium_reaction_energy_per_atom", "decomposes_to", "xas", "grain_boundaries", "cbm", "vbm", "is_gap_direct", "is_metal", "es_source_calc_id", "bandstructure", "dos", "dos_energy_up", "dos_energy_down", "is_magnetic", "ordering", "total_magnetization_normalized_vol", "total_magnetization_normalized_formula_units", "num_magnetic_sites", "num_unique_magnetic_sites", "types_of_magnetic_species", "bulk_modulus", "shear_modulus", "universal_anisotropy", "homogeneous_poisson", "e_total", "e_ionic", "e_electronic", "n", "e_ij_max", "weighted_surface_energy_EV_PER_ANG2", "weighted_surface_energy", "weighted_work_function", "surface_anisotropy", "shape_factor", "has_reconstructed", "possible_species", "has_props", "theoretical", "database_IDs"]}