{"builder_meta": null, "nsites": null, "elements": null, "nelements": null, "composition": null, "composition_reduced": null, "formula_pretty": "Sc6Pb5", "formula_anonymous": "A5B6", "chemsys": null, "volume": 542.6616311191199, "density": 7.991074502282038, "density_atomic": 24.666437778141812, "symmetry": null, "property_name": null, "material_id": "mp-672313", "deprecated": null, "deprecation_reasons": null, "last_updated": null, "origins": null, "warnings": null, "structure": {"@module": "pymatgen.core.structure", "@class": "Structure", "charge": 0, "lattice": {"matrix": [[6.00628131, -0.0, -1.74797529], [-1.04870282, 8.1375875, -3.60348618], [-0.02240059, -0.01461775, 11.11621918]], "pbc": [true, true, true], "a": 6.255464234515765, "b": 8.9613180154642, "c": 11.116251361086041, "alpha": 113.77041359173299, "beta": 106.34173601498473, "gamma": 89.99999933258617, "volume": 542.66163111912}, "properties": {}, "sites": [{"species": [{"element": "Sc", "occu": 1}], "abc": [0.4449902, 0.6949902, 0.38998039], "properties": {"magmom": -0.0}, "label": "Sc", "xyz": [1.9351623479563682, 5.649842928296578, 1.0528880363142856]}, {"species": [{"element": "Sc", "occu": 1}], "abc": [0.64217092, 0.03036604, 0.28434283], "properties": {"magmom": -0.0}, "label": "Sc", "xyz": [3.8188447956870024, 0.2429498551252675, 1.928894714943585]}, {"species": [{"element": "Sc", "occu": 1}], "abc": [0.94015873, 0.2059326, 0.88031846], "properties": {"magmom": 0.0}, "label": "Sc", "xyz": [5.411176057190514, 1.662926276433835, 7.4003634427308125]}, {"species": [{"element": "Sc", "occu": 1}], "abc": [0.14217192, 0.25397679, 0.28434283], "properties": {"magmom": -0.0}, "label": "Sc", "xyz": [0.5812089228609978, 2.0626018991908923, 1.99710236464386]}, {"species": [{"element": "Sc", "occu": 1}], "abc": [0.85782908, 0.74602321, 0.7156571700000001], "properties": {"magmom": -0.0}, "label": "Sc", "xyz": [4.353974983420312, 6.060367850809109, 3.76765359738085]}, {"species": [{"element": "Sc", "occu": 1}], "abc": [0.5598412700000001, 0.32561514, 0.11968154], "properties": {"magmom": 0.0}, "label": "Sc", "xyz": [3.0184097039068605, 2.6479722182434156, -0.8215321328310468]}, {"species": [{"element": "Sc", "occu": 1}], "abc": [0.44015873, 0.67438486, 0.88031846], "properties": {"magmom": 0.0}, "label": "Sc", "xyz": [1.9167681960931398, 5.4749975317565855, 6.586289842831047]}, {"species": [{"element": "Sc", "occu": 1}], "abc": [0.5550098, 0.3050098, 0.61001961], "properties": {"magmom": -0.0}, "label": "Sc", "xyz": [3.000015552043632, 2.4731268217034224, 4.7118696736857135]}, {"species": [{"element": "Sc", "occu": 1}], "abc": [0.05984127, 0.7940674, 0.11968154], "properties": {"magmom": 0.0}, "label": "Sc", "xyz": [-0.47599815719051286, 6.460043473566165, -1.6356057327308131]}, {"species": [{"element": "Sc", "occu": 1}], "abc": [0.0550098, 0.3050098, 0.61001961], "properties": {"magmom": -0.0}, "label": "Sc", "xyz": [-0.0031251029563678697, 2.4731268217034224, 5.585857318685714]}, {"species": [{"element": "Sc", "occu": 1}], "abc": [0.35782908, 0.96963396, 0.7156571700000001], "properties": {"magmom": -0.0}, "label": "Sc", "xyz": [1.1163331043129978, 7.880019894874733, 3.8358629950564147]}, {"species": [{"element": "Sc", "occu": 1}], "abc": [0.9449902, 0.6949902, 0.38998039], "properties": {"magmom": -0.0}, "label": "Sc", "xyz": [4.938303002956369, 5.649842928296578, 0.17890039131428548]}, {"species": [{"element": "Pb", "occu": 1}], "abc": [0.5754851, 0.67635791, 0.1509702], "properties": {"magmom": 0.0}, "label": "Pb", "xyz": [2.7438451312147567, 5.501714829301076, -1.7649622831334266]}, {"species": [{"element": "Pb", "occu": 1}], "abc": [0.7935093400000001, 0.9893758500000001, 0.58702067], "properties": {"magmom": 0.0}, "label": "Pb", "xyz": [3.715329464867344, 8.042551628362984, 1.5732135099054885]}, {"species": [{"element": "Pb", "occu": 1}], "abc": [0.0754851, 0.47461229, 0.1509702], "properties": {"magmom": 0.0}, "label": "Pb", "xyz": [-0.047724323168594755, 3.859992193809325, -0.16398708458789502]}, {"species": [{"element": "Pb", "occu": 1}], "abc": [0.25, 0.0, -0.0], "properties": {"magmom": -0.0}, "label": "Pb", "xyz": [1.5015703275, 0.0, -0.4369938225]}, {"species": [{"element": "Pb", "occu": 1}], "abc": [0.29350934, 0.59764382, 0.58702067], "properties": {"magmom": 0.0}, "label": "Pb", "xyz": [1.1229992944126679, 4.854797957685358, 3.858802111273834]}, {"species": [{"element": "Pb", "occu": 1}], "abc": [0.4245149, 0.32364209, 0.8490298], "properties": {"magmom": 0.0}, "label": "Pb", "xyz": [2.191332768785243, 2.621254920698925, 7.529719993133425]}, {"species": [{"element": "Pb", "occu": 1}], "abc": [0.70649066, 0.40235618, 0.41297933000000003], "properties": {"magmom": 0.0}, "label": "Pb", "xyz": [3.812178605587333, 3.2681717923146425, 1.905955598726166]}, {"species": [{"element": "Pb", "occu": 1}], "abc": [0.20649066, 0.01062415, 0.41297933000000003], "properties": {"magmom": 0.0}, "label": "Pb", "xyz": [1.2198484351326568, 0.0804181216370175, 4.191544200094512]}, {"species": [{"element": "Pb", "occu": 1}], "abc": [0.924514899999999, 0.5253877100000001, 0.8490298], "properties": {"magmom": 0.0}, "label": "Pb", "xyz": [4.982902223168589, 4.262977556190676, 5.928744794587895]}, {"species": [{"element": "Pb", "occu": 1}], "abc": [0.75, 0.0, -0.0], "properties": {"magmom": -0.0}, "label": "Pb", "xyz": [4.504710982500001, 0.0, -1.3109814675]}]}, "task_ids": null, "uncorrected_energy_per_atom": null, "energy_per_atom": -32.359517477272725, "formation_energy_per_atom": -0.558008870000001, "energy_above_hull": 0.0, "is_stable": true, "equilibrium_reaction_energy_per_atom": null, "decomposes_to": null, "xas": null, "grain_boundaries": null, "band_gap": 0.0, "cbm": null, "vbm": null, "efermi": 6.11957818, "is_gap_direct": null, "is_metal": null, "es_source_calc_id": null, "bandstructure": null, "dos": null, "dos_energy_up": null, "dos_energy_down": null, "is_magnetic": null, "ordering": null, "total_magnetization": 2e-07, "total_magnetization_normalized_vol": null, "total_magnetization_normalized_formula_units": null, "num_magnetic_sites": null, "num_unique_magnetic_sites": null, "types_of_magnetic_species": null, "bulk_modulus": null, "shear_modulus": null, "universal_anisotropy": null, "homogeneous_poisson": null, "e_total": null, "e_ionic": null, "e_electronic": null, "n": null, "e_ij_max": null, "weighted_surface_energy_EV_PER_ANG2": null, "weighted_surface_energy": null, "weighted_work_function": null, "surface_anisotropy": null, "shape_factor": null, "has_reconstructed": null, "possible_species": null, "has_props": null, "theoretical": null, "database_IDs": null, "fields_not_requested": ["builder_meta", "nsites", "elements", "nelements", "composition", "composition_reduced", "chemsys", "symmetry", "property_name", "deprecated", "deprecation_reasons", "last_updated", "origins", "warnings", "task_ids", "uncorrected_energy_per_atom", "equilibrium_reaction_energy_per_atom", "decomposes_to", "xas", "grain_boundaries", "cbm", "vbm", "is_gap_direct", "is_metal", "es_source_calc_id", "bandstructure", "dos", "dos_energy_up", "dos_energy_down", "is_magnetic", "ordering", "total_magnetization_normalized_vol", "total_magnetization_normalized_formula_units", "num_magnetic_sites", "num_unique_magnetic_sites", "types_of_magnetic_species", "bulk_modulus", "shear_modulus", "universal_anisotropy", "homogeneous_poisson", "e_total", "e_ionic", "e_electronic", "n", "e_ij_max", "weighted_surface_energy_EV_PER_ANG2", "weighted_surface_energy", "weighted_work_function", "surface_anisotropy", "shape_factor", "has_reconstructed", "possible_species", "has_props", "theoretical", "database_IDs"]}