{"builder_meta": null, "nsites": null, "elements": null, "nelements": null, "composition": null, "composition_reduced": null, "formula_pretty": "Sc6Sn5", "formula_anonymous": "A5B6", "chemsys": null, "volume": 516.7410095669851, "density": 5.548308438246348, "density_atomic": 23.48822770759023, "symmetry": null, "property_name": null, "material_id": "mp-1209024", "deprecated": null, "deprecation_reasons": null, "last_updated": null, "origins": null, "warnings": null, "structure": {"@module": "pymatgen.core.structure", "@class": "Structure", "charge": 0, "lattice": {"matrix": [[1.6280000000000003e-05, -4.281e-05, 6.11095595], [8.86265397, 0.00049943, 2.1520000000000004e-05], [-4.43079425, 9.54090545, -3.05558355]], "pbc": [true, true, true], "a": 6.110955950171637, "b": 8.862653984098115, "c": 10.954332719189399, "alpha": 113.8554314128127, "beta": 106.19728098193106, "gamma": 89.9997082590913, "volume": 516.7410095669851}, "properties": {}, "sites": [{"species": [{"element": "Sc", "occu": 1}], "abc": [0.55621343, 0.30639649, 0.6124963800000001], "properties": {"magmom": 0.0}, "label": "Sc", "xyz": [0.0016496849973908212, 5.843899262149335, 1.5274685000183243]}, {"species": [{"element": "Sc", "occu": 1}], "abc": [0.44381799, 0.69363187, 0.387558199999999], "properties": {"magmom": 0.0}, "label": "Sc", "xyz": [4.430235827630556, 3.6979835632888634, 1.5279506530777758]}, {"species": [{"element": "Sc", "occu": 1}], "abc": [0.9438593200000001, 0.69388085, 0.38757291], "properties": {"magmom": 0.0}, "label": "Sc", "xyz": [4.432385414905436, 3.698102627586786, 4.583636251611216]}, {"species": [{"element": "Sc", "occu": 1}], "abc": [0.05616648, 0.30614676, 0.61248145], "properties": {"magmom": 0.0}, "label": "Sc", "xyz": [-0.0005055745847304394, 5.84377809871824, -1.5282507698753165]}, {"species": [{"element": "Sc", "occu": 1}], "abc": [0.43874695, 0.6779246800000001, 0.87763185], "properties": {"magmom": 0.0}, "label": "Sc", "xyz": [2.1196128447664635, 8.373722293924587, -0.0004995702301013871]}, {"species": [{"element": "Sc", "occu": 1}], "abc": [0.56122513, 0.32206515, 0.12230905], "properties": {"magmom": -0.0}, "label": "Sc", "xyz": [2.3124348815283, 1.1670759046793717, 3.055903457108924]}, {"species": [{"element": "Sc", "occu": 1}], "abc": [0.9387378999999991, 0.1995828, 0.87753893], "properties": {"magmom": 0.0}, "label": "Sc", "xyz": [-2.1193458677784247, 8.372575450092473, 3.055196731524754]}, {"species": [{"element": "Sc", "occu": 1}], "abc": [0.06123758, 0.80037046, 0.12240933], "properties": {"magmom": 0.0}, "label": "Sc", "xyz": [6.551036876227177, 1.1682929511658866, 0.00020544272237871253]}, {"species": [{"element": "Sc", "occu": 1}], "abc": [0.14147068000000002, 0.25703278, 0.28267824], "properties": {"magmom": 0.0}, "label": "Sc", "xyz": [1.0255057708376873, 2.697128674133913, 0.0007796449550194762]}, {"species": [{"element": "Sc", "occu": 1}], "abc": [0.8585336, 0.74296851, 0.71732997], "properties": {"magmom": 0.0}, "label": "Sc", "xyz": [3.40634528523482, 6.8443117271608696, 3.0546153436232624]}, {"species": [{"element": "Sc", "occu": 1}], "abc": [0.64148057, 0.025691099999999002, 0.28275254], "properties": {"magmom": 0.0}, "label": "Sc", "xyz": [-1.0251165556925572, 2.6977006190102144, 3.0560860489786466]}, {"species": [{"element": "Sc", "occu": 1}], "abc": [0.35852395, 0.97431548, 0.7172552600000001], "properties": {"magmom": -0.0}, "label": "Sc", "xyz": [5.457016311834107, 6.843735873145045, -0.0006883408678408642]}, {"species": [{"element": "Sn", "occu": 1}], "abc": [0.29212393000000003, 0.59600208, 0.5843891800000001], "properties": {"magmom": -0.0}, "label": "Sn", "xyz": [2.692856737711623, 5.575887067876403, -0.00048067107034377443]}, {"species": [{"element": "Sn", "occu": 1}], "abc": [0.70790124, 0.40402133, 0.41565874], "properties": {"magmom": -0.0}, "label": "Sn", "xyz": [1.7390144137671224, 3.965932212926891, 3.055881980771672]}, {"species": [{"element": "Sn", "occu": 1}], "abc": [0.79206412, 0.98843937, 0.58432532], "properties": {"magmom": 0.0}, "label": "Sn", "xyz": [6.171183733453263, 5.575452378170576, 3.0548353824702703]}, {"species": [{"element": "Sn", "occu": 1}], "abc": [0.20795144000000002, 0.01158617, 0.41571701], "properties": {"magmom": 0.0}, "label": "Sn", "xyz": [-1.7392689365381544, 3.9663135704464416, 0.0005242817022610424]}, {"species": [{"element": "Sn", "occu": 1}], "abc": [0.25001374, 0.99998776, -1.033e-05], "properties": {"magmom": 0.0}, "label": "Sn", "xyz": [8.862595331443696, 0.0003901632454689, 1.5278760359494197]}, {"species": [{"element": "Sn", "occu": 1}], "abc": [0.74996343, 2.6e-07, -1.701e-05], "properties": {"magmom": 0.0}, "label": "Sn", "xyz": [8.98815048651e-05, -0.000194396606291, 4.58304546032269]}, {"species": [{"element": "Sn", "occu": 1}], "abc": [0.07249489, 0.47660489, 0.14489561], "properties": {"magmom": 0.0}, "label": "Sn", "xyz": [3.58198276505848, 1.3826702424040465, 0.0002826935441128109]}, {"species": [{"element": "Sn", "occu": 1}], "abc": [0.92749267, 0.52337002, 0.85506634], "properties": {"magmom": -0.0}, "label": "Sn", "xyz": [0.8498394624721013, 8.15832878414544, 3.05515147057801]}, {"species": [{"element": "Sn", "occu": 1}], "abc": [0.57260422, 0.6683776300000001, 0.14497057], "properties": {"magmom": 0.0}, "label": "Sn", "xyz": [5.281274210000172, 1.3834597960556991, 3.0562038597645835]}, {"species": [{"element": "Sn", "occu": 1}], "abc": [0.42737672, 0.33160456, 0.85498946], "properties": {"magmom": 0.0}, "label": "Sn", "xyz": [-0.8493789553314999, 8.157520915874576, -0.0008042832937675826]}]}, "task_ids": null, "uncorrected_energy_per_atom": null, "energy_per_atom": -18.19001962590909, "formation_energy_per_atom": -0.7243975322727281, "energy_above_hull": 0.0, "is_stable": true, "equilibrium_reaction_energy_per_atom": null, "decomposes_to": null, "xas": null, "grain_boundaries": null, "band_gap": 0.0, "cbm": null, "vbm": null, "efermi": 6.36361541, "is_gap_direct": null, "is_metal": null, "es_source_calc_id": null, "bandstructure": null, "dos": null, "dos_energy_up": null, "dos_energy_down": null, "is_magnetic": null, "ordering": null, "total_magnetization": 1.3e-06, "total_magnetization_normalized_vol": null, "total_magnetization_normalized_formula_units": null, "num_magnetic_sites": null, "num_unique_magnetic_sites": null, "types_of_magnetic_species": null, "bulk_modulus": null, "shear_modulus": null, "universal_anisotropy": null, "homogeneous_poisson": null, "e_total": null, "e_ionic": null, "e_electronic": null, "n": null, "e_ij_max": null, "weighted_surface_energy_EV_PER_ANG2": null, "weighted_surface_energy": null, "weighted_work_function": null, "surface_anisotropy": null, "shape_factor": null, "has_reconstructed": null, "possible_species": null, "has_props": null, "theoretical": null, "database_IDs": null, "fields_not_requested": ["builder_meta", "nsites", "elements", "nelements", "composition", "composition_reduced", "chemsys", "symmetry", "property_name", "deprecated", "deprecation_reasons", "last_updated", "origins", "warnings", "task_ids", "uncorrected_energy_per_atom", "equilibrium_reaction_energy_per_atom", "decomposes_to", "xas", "grain_boundaries", "cbm", "vbm", "is_gap_direct", "is_metal", "es_source_calc_id", "bandstructure", "dos", "dos_energy_up", "dos_energy_down", "is_magnetic", "ordering", "total_magnetization_normalized_vol", "total_magnetization_normalized_formula_units", "num_magnetic_sites", "num_unique_magnetic_sites", "types_of_magnetic_species", "bulk_modulus", "shear_modulus", "universal_anisotropy", "homogeneous_poisson", "e_total", "e_ionic", "e_electronic", "n", "e_ij_max", "weighted_surface_energy_EV_PER_ANG2", "weighted_surface_energy", "weighted_work_function", "surface_anisotropy", "shape_factor", "has_reconstructed", "possible_species", "has_props", "theoretical", "database_IDs"]}