{"builder_meta": null, "nsites": null, "elements": null, "nelements": null, "composition": null, "composition_reduced": null, "formula_pretty": "Sc7P3", "formula_anonymous": "A3B7", "chemsys": null, "volume": 397.3000728317549, "density": 3.407282348336054, "density_atomic": 19.865003641587744, "symmetry": null, "property_name": null, "material_id": "mp-1105778", "deprecated": null, "deprecation_reasons": null, "last_updated": null, "origins": null, "warnings": null, "structure": {"@module": "pymatgen.core.structure", "@class": "Structure", "charge": 0, "lattice": {"matrix": [[4.49400907, -7.78380287, 2.019999999999999e-06], [4.49396556, 7.78377748, -0.0], [1.229999999999999e-06, -8.699999999999999e-07, 5.6789191599999995]], "pbc": [true, true, true], "a": 8.987975558504072, "b": 8.98793181508523, "c": 5.6789191600001985, "alpha": 90.00000139677141, "beta": 89.99997331656613, "gamma": 119.99984583933063, "volume": 397.30007283175485}, "properties": {}, "sites": [{"species": [{"element": "Sc", "occu": 1}], "abc": [0.33332732, 0.66666366, 0.40801671], "properties": {"magmom": 0.113}, "label": "Sc", "xyz": [4.4939400293628955, 2.5946070784024307, 2.31709458534035]}, {"species": [{"element": "Sc", "occu": 1}], "abc": [0.66667272, 0.33333586, 0.90800339], "properties": {"magmom": 0.113}, "label": "Sc", "xyz": [4.494034241998722, -2.594637660905222, 5.156479195494846]}, {"species": [{"element": "Sc", "occu": 1}], "abc": [0.12390114, 0.87610731, 0.2359211], "properties": {"magmom": 0.003}, "label": "Sc", "xyz": [4.494009215130537, 5.855002095261749, 1.3397771053185785]}, {"species": [{"element": "Sc", "occu": 1}], "abc": [0.75224729, 0.87612364, 0.23592059], "properties": {"magmom": 0.003}, "label": "Sc", "xyz": [7.317875898787084, 0.9642066386249918, 1.33977547832903]}, {"species": [{"element": "Sc", "occu": 1}], "abc": [0.12390114, 0.24779583, 0.2359211], "properties": {"magmom": 0.003}, "label": "Sc", "xyz": [1.6703990630579075, 0.9643653468122797, 1.3397771053185785]}, {"species": [{"element": "Sc", "occu": 1}], "abc": [0.87610021, 0.1238933, 0.73591256], "properties": {"magmom": 0.003}, "label": "Sc", "xyz": [4.493975418456102, -5.855034090786646, 4.179189706791074]}, {"species": [{"element": "Sc", "occu": 1}], "abc": [0.24775176000000002, 0.12387488, 0.73591255], "properties": {"magmom": 0.003}, "label": "Sc", "xyz": [1.6700890061900326, -0.9642369994977673, 4.1791883807380135]}, {"species": [{"element": "Sc", "occu": 1}], "abc": [0.87610021, 0.75220591, 0.73591256], "properties": {"magmom": 0.003}, "label": "Sc", "xyz": [7.317590648709814, -0.9643885466686228, 4.179189706791074]}, {"species": [{"element": "Sc", "occu": 1}], "abc": [0.53486668, 0.46513895, 0.47314066], "properties": {"magmom": 0.194}, "label": "Sc", "xyz": [4.494014715038362, -0.5427591264028997, 2.686928639879739]}, {"species": [{"element": "Sc", "occu": 1}], "abc": [0.93030868, 0.46515384, 0.473175099999999], "properties": {"magmom": 0.194}, "label": "Sc", "xyz": [6.271201564886851, -3.6206858005047247, 2.687125020648444]}, {"species": [{"element": "Sc", "occu": 1}], "abc": [0.53486668, 0.06972773, 0.47314066], "properties": {"magmom": 0.194}, "label": "Sc", "xyz": [2.7170503103207784, -3.6205520759782255, 2.686928639879739]}, {"species": [{"element": "Sc", "occu": 1}], "abc": [0.46512465000000003, 0.53486644, 0.9731504400000001], "properties": {"magmom": 0.194}, "label": "Sc", "xyz": [4.493946953315423, 0.5428419182611436, 5.526443618830223]}, {"species": [{"element": "Sc", "occu": 1}], "abc": [0.06970394, 0.53485247, 0.97318576], "properties": {"magmom": 0.194}, "label": "Sc", "xyz": [2.716859915454154, 3.620610036214457, 5.52664339950512]}, {"species": [{"element": "Sc", "occu": 1}], "abc": [0.46512465000000003, 0.93025821, 0.9731504400000001], "properties": {"magmom": 0.194}, "label": "Sc", "xyz": [6.270823950402864, 3.620483473364483, 5.526443618830223]}, {"species": [{"element": "P", "occu": 1}], "abc": [0.80850623, 0.19152428, 0.18119029], "properties": {"magmom": -0.005}, "label": "P", "xyz": [4.49413807185936, -4.802470893585218, 1.0289666426695407]}, {"species": [{"element": "P", "occu": 1}], "abc": [0.38303265000000003, 0.19151632000000002, 0.18115027], "properties": {"magmom": -0.005}, "label": "P", "xyz": [2.5820201722789067, -1.490730379305967, 1.0287385128681261]}, {"species": [{"element": "P", "occu": 1}], "abc": [0.80850623, 0.61698095, 0.18119029], "properties": {"magmom": -0.005}, "label": "P", "xyz": [6.406125694111645, -1.490810846923426, 1.0289666426695407]}, {"species": [{"element": "P", "occu": 1}], "abc": [0.191492599999999, 0.80847746, 0.68120358], "properties": {"magmom": -0.005}, "label": "P", "xyz": [4.4938401803945585, 4.802467404124732, 3.8685004491376445]}, {"species": [{"element": "P", "occu": 1}], "abc": [0.61697261, 0.80848681, 0.68116635], "properties": {"magmom": -0.005}, "label": "P", "xyz": [6.405993222970448, 1.4906876595109235, 3.868289882446938]}, {"species": [{"element": "P", "occu": 1}], "abc": [0.191492599999999, 0.38301713, 0.68120358], "properties": {"magmom": -0.005}, "label": "P", "xyz": [2.5818361102283234, 1.4907788688373638, 3.8685004491376445]}]}, "task_ids": null, "uncorrected_energy_per_atom": null, "energy_per_atom": -11.718008797500001, "formation_energy_per_atom": -1.038444755392858, "energy_above_hull": 0.009564533083331, "is_stable": false, "equilibrium_reaction_energy_per_atom": null, "decomposes_to": null, "xas": null, "grain_boundaries": null, "band_gap": 0.0, "cbm": null, "vbm": null, "efermi": 5.50681271, "is_gap_direct": null, "is_metal": null, "es_source_calc_id": null, "bandstructure": null, "dos": null, "dos_energy_up": null, "dos_energy_down": null, "is_magnetic": null, "ordering": null, "total_magnetization": 2.3676475, "total_magnetization_normalized_vol": null, "total_magnetization_normalized_formula_units": null, "num_magnetic_sites": null, "num_unique_magnetic_sites": null, "types_of_magnetic_species": null, "bulk_modulus": null, "shear_modulus": null, "universal_anisotropy": null, "homogeneous_poisson": null, "e_total": null, "e_ionic": null, "e_electronic": null, "n": null, "e_ij_max": null, "weighted_surface_energy_EV_PER_ANG2": null, "weighted_surface_energy": null, "weighted_work_function": null, "surface_anisotropy": null, "shape_factor": null, "has_reconstructed": null, "possible_species": null, "has_props": null, "theoretical": null, "database_IDs": null, "fields_not_requested": ["builder_meta", "nsites", "elements", "nelements", "composition", "composition_reduced", "chemsys", "symmetry", "property_name", "deprecated", "deprecation_reasons", "last_updated", "origins", "warnings", "task_ids", "uncorrected_energy_per_atom", "equilibrium_reaction_energy_per_atom", "decomposes_to", "xas", "grain_boundaries", "cbm", "vbm", "is_gap_direct", "is_metal", "es_source_calc_id", "bandstructure", "dos", "dos_energy_up", "dos_energy_down", "is_magnetic", "ordering", "total_magnetization_normalized_vol", "total_magnetization_normalized_formula_units", "num_magnetic_sites", "num_unique_magnetic_sites", "types_of_magnetic_species", "bulk_modulus", "shear_modulus", "universal_anisotropy", "homogeneous_poisson", "e_total", "e_ionic", "e_electronic", "n", "e_ij_max", "weighted_surface_energy_EV_PER_ANG2", "weighted_surface_energy", "weighted_work_function", "surface_anisotropy", "shape_factor", "has_reconstructed", "possible_species", "has_props", "theoretical", "database_IDs"]}