{
  "builder_meta": null,
  "nsites": null,
  "elements": null,
  "nelements": null,
  "composition": null,
  "composition_reduced": null,
  "formula_pretty": "Sc8Te3",
  "formula_anonymous": "A3B8",
  "chemsys": null,
  "volume": 1055.1335881671782,
  "density": 4.673769288459787,
  "density_atomic": 23.980308821981325,
  "symmetry": null,
  "property_name": null,
  "material_id": "mp-541594",
  "deprecated": null,
  "deprecation_reasons": null,
  "last_updated": null,
  "origins": null,
  "warnings": null,
  "structure": {
    "@module": "pymatgen.core.structure",
    "@class": "Structure",
    "charge": 0,
    "lattice": {
      "matrix": [
        [3.82906385, 0.0, 0.38806399],
        [1.72922762, 14.40123455, 2.02244682],
        [-0.00508433, 0.009344690000000001, 19.13509512]
      ],
      "pbc": [true, true, true],
      "a": 3.8486781662944414,
      "b": 14.645001736620337,
      "c": 19.135098077226843,
      "alpha": 82.03622832139797,
      "beta": 84.22823053186848,
      "gamma": 82.44955544094117,
      "volume": 1055.1335881671782
    },
    "properties": {},
    "sites": [
      {
        "species": [{ "element": "Sc", "occu": 1 }],
        "abc": [0.59172527, 0.22716537, 0.5893830800000001],
        "properties": { "magmom": 0.017 },
        "label": "Sc",
        "xyz": [2.6555778545248723, 3.276969377181379, 11.96695844734922]
      },
      {
        "species": [{ "element": "Sc", "occu": 1 }],
        "abc": [0.40827473000000003, 0.77283463, 0.41061692],
        "properties": { "magmom": 0.017 },
        "label": "Sc",
        "xyz": [2.8976292854751273, 11.13360986281862, 9.57864748265078]
      },
      {
        "species": [{ "element": "Sc", "occu": 1 }],
        "abc": [0.72310357, 0.1565865, 0.39720536],
        "properties": { "magmom": 0.023 },
        "label": "Sc",
        "xyz": [3.0375639172840656, 2.2587506748191135, 8.197860671311219]
      },
      {
        "species": [{ "element": "Sc", "occu": 1 }],
        "abc": [0.27689643, 0.843413499999999, 0.60279464],
        "properties": { "magmom": 0.023 },
        "label": "Sc",
        "xyz": [2.5156432227159327, 12.151828565180873, 13.34774525868878]
      },
      {
        "species": [{ "element": "Sc", "occu": 1 }],
        "abc": [0.69737393, 0.35939377, 0.24585736],
        "properties": { "magmom": 0.033 },
        "label": "Sc",
        "xyz": [3.2905129188841893, 5.178011438392171, 5.701984466614175]
      },
      {
        "species": [{ "element": "Sc", "occu": 1 }],
        "abc": [0.30262607, 0.64060623, 0.75414264],
        "properties": { "magmom": 0.033 },
        "label": "Sc",
        "xyz": [2.2626942211158108, 9.232567801607829, 15.843621463385823]
      },
      {
        "species": [{ "element": "Sc", "occu": 1 }],
        "abc": [0.57425607, 0.42050963, 0.43097724],
        "properties": { "magmom": -0.114 },
        "label": "Sc",
        "xyz": [2.923828794441401, 6.059885160868573, 9.320096947733864]
      },
      {
        "species": [{ "element": "Sc", "occu": 1 }],
        "abc": [0.42574393, 0.57949037, 0.56902276],
        "properties": { "magmom": -0.114 },
        "label": "Sc",
        "xyz": [2.629378345558599, 8.35069407913143, 12.225508982266135]
      },
      {
        "species": [{ "element": "Sc", "occu": 1 }],
        "abc": [0.5624552700000001, 0.92841435, 0.94667612],
        "properties": { "magmom": -0.042 },
        "label": "Sc",
        "xyz": [3.754303664626137, 13.379159208807597, 20.21067489010513]
      },
      {
        "species": [{ "element": "Sc", "occu": 1 }],
        "abc": [0.43754473, 0.07158565, 0.053323880000000004],
        "properties": { "magmom": -0.042 },
        "label": "Sc",
        "xyz": [1.7989034753738629, 1.0314200311924047, 1.3349310398948713]
      },
      {
        "species": [{ "element": "Sc", "occu": 1 }],
        "abc": [0.99199348, 0.10339985, 0.91261419],
        "properties": { "magmom": -0.019 },
        "label": "Sc",
        "xyz": [3.972568218522912, 1.4976135889799687, 18.057036979235512]
      },
      {
        "species": [{ "element": "Sc", "occu": 1 }],
        "abc": [0.00800652, 0.89660015, 0.08738581000000001],
        "properties": { "magmom": -0.019 },
        "label": "Sc",
        "xyz": [1.5806389214770877, 12.912965651020032, 3.488568950764485]
      },
      {
        "species": [{ "element": "Sc", "occu": 1 }],
        "abc": [0.061189270000000004, 0.162013699999999, 0.71560575],
        "properties": { "magmom": 0.042 },
        "label": "Sc",
        "xyz": [0.5108178108403842, 2.339884407909288, 14.044593539291759]
      },
      {
        "species": [{ "element": "Sc", "occu": 1 }],
        "abc": [0.93881073, 0.8379863, 0.28439425],
        "properties": { "magmom": 0.042 },
        "label": "Sc",
        "xyz": [5.042389329159614, 12.070694832090698, 7.501012390708238]
      },
      {
        "species": [{ "element": "Sc", "occu": 1 }],
        "abc": [0.20134529, 0.06770389, 0.52960553],
        "properties": { "magmom": -0.031 },
        "label": "Sc",
        "xyz": [0.8853467185918635, 0.9799685993375352, 10.34911456626525]
      },
      {
        "species": [{ "element": "Sc", "occu": 1 }],
        "abc": [0.79865471, 0.93229611, 0.47039447],
        "properties": { "magmom": -0.031 },
        "label": "Sc",
        "xyz": [4.667860421408137, 13.430610640662465, 11.196491363734749]
      },
      {
        "species": [{ "element": "Sc", "occu": 1 }],
        "abc": [0.28765139, 0.291406599999999, 0.13329063],
        "properties": { "magmom": 0.012 },
        "label": "Sc",
        "xyz": [1.6046661866727139, 4.197860355635271, 3.2515103812841812]
      },
      {
        "species": [{ "element": "Sc", "occu": 1 }],
        "abc": [0.71234861, 0.708593399999999, 0.86670937],
        "properties": { "magmom": 0.012 },
        "label": "Sc",
        "xyz": [3.9485409533272833, 10.212718884364701, 18.294095548715816]
      },
      {
        "species": [{ "element": "Sc", "occu": 1 }],
        "abc": [0.32868572, 0.9982492, 0.34437936],
        "properties": { "magmom": 0.123 },
        "label": "Sc",
        "xyz": [2.983007758434697, 14.379238986911457, 8.73618882303149]
      },
      {
        "species": [{ "element": "Sc", "occu": 1 }],
        "abc": [0.67131428, 0.0017507999999990002, 0.65562064],
        "properties": { "magmom": 0.123 },
        "label": "Sc",
        "xyz": [2.570199381565301, 0.031340253088527205, 12.809417106968507]
      },
      {
        "species": [{ "element": "Sc", "occu": 1 }],
        "abc": [0.36605914, 0.33008913, 0.9377915800000001],
        "properties": { "magmom": -0.043000000000000003 },
        "label": "Sc",
        "xyz": [1.9676950187299183, 4.7624543551351515, 18.754373167764527]
      },
      {
        "species": [{ "element": "Sc", "occu": 1 }],
        "abc": [0.63394086, 0.66991087, 0.06220842],
        "properties": { "magmom": -0.043000000000000003 },
        "label": "Sc",
        "xyz": [3.5855121212700816, 9.648124884864849, 2.791232762235475]
      },
      {
        "species": [{ "element": "Sc", "occu": 1 }],
        "abc": [0.53835369, 0.63743042, 0.28586319],
        "properties": { "magmom": -0.04 },
        "label": "Sc",
        "xyz": [3.1621995181924945, 9.182456290617973, 6.968104138829521]
      },
      {
        "species": [{ "element": "Sc", "occu": 1 }],
        "abc": [0.46164631, 0.36256958, 0.7141368100000001],
        "properties": { "magmom": -0.04 },
        "label": "Sc",
        "xyz": [2.3910076218075056, 5.228122949382028, 14.57750179117048]
      },
      {
        "species": [{ "element": "Sc", "occu": 1 }],
        "abc": [0.16751152, 0.51290364, 0.15207532],
        "properties": { "magmom": 0.003 },
        "label": "Sc",
        "xyz": [1.5275662452653531, 7.387866717910812, 4.012301238111028]
      },
      {
        "species": [{ "element": "Sc", "occu": 1 }],
        "abc": [0.83248848, 0.48709636, 0.84792468],
        "properties": { "magmom": 0.003 },
        "label": "Sc",
        "xyz": [4.025640894734647, 7.022712522089187, 17.533304691888972]
      },
      {
        "species": [{ "element": "Sc", "occu": 1 }],
        "abc": [0.84923394, 0.11140163, 0.19013048],
        "properties": { "magmom": -0.007 },
        "label": "Sc",
        "xyz": [3.443443069252711, 1.6060977132774676, 4.193025803547394]
      },
      {
        "species": [{ "element": "Sc", "occu": 1 }],
        "abc": [0.15076606, 0.88859837, 0.80986952],
        "properties": { "magmom": -0.007 },
        "label": "Sc",
        "xyz": [2.1097640707472887, 12.804481526722531, 17.352580126452605]
      },
      {
        "species": [{ "element": "Sc", "occu": 1 }],
        "abc": [0.7609747, 0.43606778, 0.04198183],
        "properties": { "magmom": 0.015 },
        "label": "Sc",
        "xyz": [3.6676677144249545, 6.280306686664782, 1.9805570836981823]
      },
      {
        "species": [{ "element": "Sc", "occu": 1 }],
        "abc": [0.2390253, 0.56393222, 0.95801817],
        "properties": { "magmom": 0.015 },
        "label": "Sc",
        "xyz": [1.8855394255750453, 8.13027255333522, 19.565048846301817]
      },
      {
        "species": [{ "element": "Sc", "occu": 1 }],
        "abc": [0.01191112, 0.40902873, 0.56714903],
        "properties": { "magmom": -0.14300000000000002 },
        "label": "Sc",
        "xyz": [0.7500286434668347, 5.895818510287772, 11.684311767295442]
      },
      {
        "species": [{ "element": "Sc", "occu": 1 }],
        "abc": [0.9880888800000001, 0.59097127, 0.43285097],
        "properties": { "magmom": -0.14300000000000002 },
        "label": "Sc",
        "xyz": [4.803178496533166, 8.514760729712227, 9.861294162704558]
      },
      {
        "species": [{ "element": "Te", "occu": 1 }],
        "abc": [0.25934712, 0.20187527, 0.27942948],
        "properties": { "magmom": -0.003 },
        "label": "Te",
        "xyz": [1.3407242627845208, 2.9098642949820395, 5.8558349551624875]
      },
      {
        "species": [{ "element": "Te", "occu": 1 }],
        "abc": [0.7406528800000001, 0.7981247300000001, 0.72057052],
        "properties": { "magmom": -0.003 },
        "label": "Te",
        "xyz": [4.212482877215479, 11.500714945017961, 15.689770974837511]
      },
      {
        "species": [{ "element": "Te", "occu": 1 }],
        "abc": [0.10453118, 0.47731153, 0.31362411],
        "properties": { "magmom": 0.003 },
        "label": "Te",
        "xyz": [1.2240422750851052, 6.876806017033837, 7.007129149563386]
      },
      {
        "species": [{ "element": "Te", "occu": 1 }],
        "abc": [0.89546882, 0.52268747, 0.68637589],
        "properties": { "magmom": 0.003 },
        "label": "Te",
        "xyz": [4.329163135687275, 7.533758821731613, 14.538474757989793]
      },
      {
        "species": [{ "element": "Te", "occu": 1 }],
        "abc": [0.94352601, 0.28608499, 0.82686299],
        "properties": { "magmom": 0.002 },
        "label": "Te",
        "xyz": [4.103323358495215, 4.127703820538427, 16.76684211124222]
      },
      {
        "species": [{ "element": "Te", "occu": 1 }],
        "abc": [0.05647399, 0.71391501, 0.17313701],
        "properties": { "magmom": 0.002 },
        "label": "Te",
        "xyz": [1.4498837815047847, 10.282875419461572, 4.7787638187577794]
      },
      {
        "species": [{ "element": "Te", "occu": 1 }],
        "abc": [0.57448879, 0.04385822, 0.80716219],
        "properties": { "magmom": -0.003 },
        "label": "Te",
        "xyz": [2.271491224469795, 0.6391551936107721, 15.756764612545044]
      },
      {
        "species": [{ "element": "Te", "occu": 1 }],
        "abc": [0.42551121000000003, 0.95614178, 0.19283781],
        "properties": { "magmom": -0.003 },
        "label": "Te",
        "xyz": [3.2817159155302047, 13.771424046389228, 5.7888413174549544]
      },
      {
        "species": [{ "element": "Te", "occu": 1 }],
        "abc": [0.13028518, 0.7774699700000001, 0.96196068],
        "properties": { "magmom": 0.002 },
        "label": "Te",
        "xyz": [1.83840189322917, 11.205516617898255, 20.030159768760544]
      },
      {
        "species": [{ "element": "Te", "occu": 1 }],
        "abc": [0.86971482, 0.22253003000000002, 0.03803932],
        "properties": { "magmom": 0.002 },
        "label": "Te",
        "xyz": [3.7148052467708297, 3.2050626221017477, 1.515446161239455]
      },
      {
        "species": [{ "element": "Te", "occu": 1 }],
        "abc": [0.13125695, 0.26819109, 0.46929601],
        "properties": { "magmom": 0.002 },
        "label": "Te",
        "xyz": [0.9639686267896401, 3.8666682170418465, 9.573362103641534]
      },
      {
        "species": [{ "element": "Te", "occu": 1 }],
        "abc": [0.8687430500000001, 0.73180891, 0.53070399],
        "properties": { "magmom": 0.002 },
        "label": "Te",
        "xyz": [4.58923851321036, 10.543911022958154, 11.972243826358465]
      }
    ]
  },
  "task_ids": null,
  "uncorrected_energy_per_atom": null,
  "energy_per_atom": -6.238763473863637,
  "formation_energy_per_atom": -0.7760661538636361,
  "energy_above_hull": 0.012473208848484001,
  "is_stable": false,
  "equilibrium_reaction_energy_per_atom": null,
  "decomposes_to": null,
  "xas": null,
  "grain_boundaries": null,
  "band_gap": 0.0,
  "cbm": null,
  "vbm": null,
  "efermi": 5.7591832400000005,
  "is_gap_direct": null,
  "is_metal": null,
  "es_source_calc_id": null,
  "bandstructure": null,
  "dos": null,
  "dos_energy_up": null,
  "dos_energy_down": null,
  "is_magnetic": null,
  "ordering": null,
  "total_magnetization": 6.37e-5,
  "total_magnetization_normalized_vol": null,
  "total_magnetization_normalized_formula_units": null,
  "num_magnetic_sites": null,
  "num_unique_magnetic_sites": null,
  "types_of_magnetic_species": null,
  "bulk_modulus": null,
  "shear_modulus": null,
  "universal_anisotropy": null,
  "homogeneous_poisson": null,
  "e_total": null,
  "e_ionic": null,
  "e_electronic": null,
  "n": null,
  "e_ij_max": null,
  "weighted_surface_energy_EV_PER_ANG2": null,
  "weighted_surface_energy": null,
  "weighted_work_function": null,
  "surface_anisotropy": null,
  "shape_factor": null,
  "has_reconstructed": null,
  "possible_species": null,
  "has_props": null,
  "theoretical": null,
  "database_IDs": null,
  "fields_not_requested": [
    "builder_meta",
    "nsites",
    "elements",
    "nelements",
    "composition",
    "composition_reduced",
    "chemsys",
    "symmetry",
    "property_name",
    "deprecated",
    "deprecation_reasons",
    "last_updated",
    "origins",
    "warnings",
    "task_ids",
    "uncorrected_energy_per_atom",
    "equilibrium_reaction_energy_per_atom",
    "decomposes_to",
    "xas",
    "grain_boundaries",
    "cbm",
    "vbm",
    "is_gap_direct",
    "is_metal",
    "es_source_calc_id",
    "bandstructure",
    "dos",
    "dos_energy_up",
    "dos_energy_down",
    "is_magnetic",
    "ordering",
    "total_magnetization_normalized_vol",
    "total_magnetization_normalized_formula_units",
    "num_magnetic_sites",
    "num_unique_magnetic_sites",
    "types_of_magnetic_species",
    "bulk_modulus",
    "shear_modulus",
    "universal_anisotropy",
    "homogeneous_poisson",
    "e_total",
    "e_ionic",
    "e_electronic",
    "n",
    "e_ij_max",
    "weighted_surface_energy_EV_PER_ANG2",
    "weighted_surface_energy",
    "weighted_work_function",
    "surface_anisotropy",
    "shape_factor",
    "has_reconstructed",
    "possible_species",
    "has_props",
    "theoretical",
    "database_IDs"
  ]
}
