{
  "builder_meta": null,
  "nsites": null,
  "elements": null,
  "nelements": null,
  "composition": null,
  "composition_reduced": null,
  "formula_pretty": "ScAg2",
  "formula_anonymous": "AB2",
  "chemsys": null,
  "volume": 55.8761287369481,
  "density": 7.747311387233375,
  "density_atomic": 18.625376245649367,
  "symmetry": null,
  "property_name": null,
  "material_id": "mp-1018128",
  "deprecated": null,
  "deprecation_reasons": null,
  "last_updated": null,
  "origins": null,
  "warnings": null,
  "structure": {
    "@module": "pymatgen.core.structure",
    "@class": "Structure",
    "charge": 0,
    "lattice": {
      "matrix": [
        [3.53825889, -0.00030025, 0.00035151000000000003],
        [-0.00030025, 3.53825786, 0.0003515],
        [-1.7685347, -1.76853572, 4.462857599999999]
      ],
      "pbc": [true, true, true],
      "a": 3.5382589201997887,
      "b": 3.5382578901988038,
      "c": 5.115909648918533,
      "alpha": 110.21704069385017,
      "beta": 110.21702837081052,
      "gamma": 90.00972346017845,
      "volume": 55.876128736948075
    },
    "properties": {},
    "sites": [
      {
        "species": [{ "element": "Sc", "occu": 1 }],
        "abc": [1.739999999999999e-6, -2.6e-7, -9e-8],
        "properties": { "magmom": 0.0 },
        "label": "Sc",
        "xyz": [6.315816656599996e-6, -7.613012638e-7, -4.0113694659999985e-7]
      },
      {
        "species": [{ "element": "Ag", "occu": 1 }],
        "abc": [0.6666186900000001, 0.66661969, 0.33328605],
        "properties": { "magmom": 0.0 },
        "label": "Ag",
        "xyz": [1.7690414091197968, 1.7690439211088846, 1.4878768211732363]
      },
      {
        "species": [{ "element": "Ag", "occu": 1 }],
        "abc": [0.33337957, 0.33338057, 0.66671503],
        "properties": { "magmom": 0.0 },
        "label": "Ag",
        "xyz": [
          0.0003744642141938481, 0.00037697934201608163, 2.975688608192733
        ]
      }
    ]
  },
  "task_ids": null,
  "uncorrected_energy_per_atom": null,
  "energy_per_atom": -18.327429463333335,
  "formation_energy_per_atom": -0.290682248333332,
  "energy_above_hull": 0.0,
  "is_stable": true,
  "equilibrium_reaction_energy_per_atom": null,
  "decomposes_to": null,
  "xas": null,
  "grain_boundaries": null,
  "band_gap": 0.0,
  "cbm": null,
  "vbm": null,
  "efermi": 3.876758719999999,
  "is_gap_direct": null,
  "is_metal": null,
  "es_source_calc_id": null,
  "bandstructure": null,
  "dos": null,
  "dos_energy_up": null,
  "dos_energy_down": null,
  "is_magnetic": null,
  "ordering": null,
  "total_magnetization": 1.1e-6,
  "total_magnetization_normalized_vol": null,
  "total_magnetization_normalized_formula_units": null,
  "num_magnetic_sites": null,
  "num_unique_magnetic_sites": null,
  "types_of_magnetic_species": null,
  "bulk_modulus": null,
  "shear_modulus": null,
  "universal_anisotropy": null,
  "homogeneous_poisson": null,
  "e_total": null,
  "e_ionic": null,
  "e_electronic": null,
  "n": null,
  "e_ij_max": null,
  "weighted_surface_energy_EV_PER_ANG2": null,
  "weighted_surface_energy": null,
  "weighted_work_function": null,
  "surface_anisotropy": null,
  "shape_factor": null,
  "has_reconstructed": null,
  "possible_species": null,
  "has_props": null,
  "theoretical": null,
  "database_IDs": null,
  "fields_not_requested": [
    "builder_meta",
    "nsites",
    "elements",
    "nelements",
    "composition",
    "composition_reduced",
    "chemsys",
    "symmetry",
    "property_name",
    "deprecated",
    "deprecation_reasons",
    "last_updated",
    "origins",
    "warnings",
    "task_ids",
    "uncorrected_energy_per_atom",
    "equilibrium_reaction_energy_per_atom",
    "decomposes_to",
    "xas",
    "grain_boundaries",
    "cbm",
    "vbm",
    "is_gap_direct",
    "is_metal",
    "es_source_calc_id",
    "bandstructure",
    "dos",
    "dos_energy_up",
    "dos_energy_down",
    "is_magnetic",
    "ordering",
    "total_magnetization_normalized_vol",
    "total_magnetization_normalized_formula_units",
    "num_magnetic_sites",
    "num_unique_magnetic_sites",
    "types_of_magnetic_species",
    "bulk_modulus",
    "shear_modulus",
    "universal_anisotropy",
    "homogeneous_poisson",
    "e_total",
    "e_ionic",
    "e_electronic",
    "n",
    "e_ij_max",
    "weighted_surface_energy_EV_PER_ANG2",
    "weighted_surface_energy",
    "weighted_work_function",
    "surface_anisotropy",
    "shape_factor",
    "has_reconstructed",
    "possible_species",
    "has_props",
    "theoretical",
    "database_IDs"
  ]
}
