{
  "builder_meta": null,
  "nsites": null,
  "elements": null,
  "nelements": null,
  "composition": null,
  "composition_reduced": null,
  "formula_pretty": "ScAg4",
  "formula_anonymous": "AB4",
  "chemsys": null,
  "volume": 88.96617770138559,
  "density": 8.892463508788001,
  "density_atomic": 17.793235540277117,
  "symmetry": null,
  "property_name": null,
  "material_id": "mp-30354",
  "deprecated": null,
  "deprecation_reasons": null,
  "last_updated": null,
  "origins": null,
  "warnings": null,
  "structure": {
    "@module": "pymatgen.core.structure",
    "@class": "Structure",
    "charge": 0,
    "lattice": {
      "matrix": [
        [3.74073374, 1e-8, 1.63703211],
        [1.870382569999999, 4.66776784, 0.81848215],
        [-0.0010050600000000001, 3.643e-5, 5.09473262]
      ],
      "pbc": [true, true, true],
      "a": 4.083253977252142,
      "b": 5.0947326324515485,
      "c": 5.094732719266519,
      "alpha": 80.7590453428206,
      "beta": 66.37599763822053,
      "gamma": 66.3759864942186,
      "volume": 88.96617770138559
    },
    "properties": {},
    "sites": [
      {
        "species": [{ "element": "Sc", "occu": 1 }],
        "abc": [0.0, -0.0, 0.0],
        "properties": { "magmom": -0.0 },
        "label": "Sc",
        "xyz": [0.0, 0.0, 0.0]
      },
      {
        "species": [{ "element": "Ag", "occu": 1 }],
        "abc": [0.19961062000000002, 0.20075913, 0.40002063],
        "properties": { "magmom": -0.0 },
        "label": "Ag",
        "xyz": [1.121784513882295, 0.9371115853480363, 2.5290849111254885]
      },
      {
        "species": [{ "element": "Ag", "occu": 1 }],
        "abc": [0.59963025, 0.59997937, 0.20075913],
        "properties": { "magmom": -0.0 },
        "label": "Ag",
        "xyz": [3.3650462887360177, 2.8005717276008695, 2.4955004664643936]
      },
      {
        "species": [{ "element": "Ag", "occu": 1 }],
        "abc": [0.40036975, 0.40002063, 0.79924087],
        "properties": { "magmom": -0.0 },
        "label": "Ag",
        "xyz": [2.2450649612639815, 1.8672325523991307, 5.054746413535606]
      },
      {
        "species": [{ "element": "Ag", "occu": 1 }],
        "abc": [0.80038938, 0.79924087, 0.59997937],
        "properties": { "magmom": -0.0 },
        "label": "Ag",
        "xyz": [4.488326736117705, 3.7306926946519634, 5.021161968874512]
      }
    ]
  },
  "task_ids": null,
  "uncorrected_energy_per_atom": null,
  "energy_per_atom": -19.550716262,
  "formation_energy_per_atom": -0.18631707499999903,
  "energy_above_hull": 0.0,
  "is_stable": true,
  "equilibrium_reaction_energy_per_atom": null,
  "decomposes_to": null,
  "xas": null,
  "grain_boundaries": null,
  "band_gap": 0.0,
  "cbm": null,
  "vbm": null,
  "efermi": 3.81840438,
  "is_gap_direct": null,
  "is_metal": null,
  "es_source_calc_id": null,
  "bandstructure": null,
  "dos": null,
  "dos_energy_up": null,
  "dos_energy_down": null,
  "is_magnetic": null,
  "ordering": null,
  "total_magnetization": 0.0,
  "total_magnetization_normalized_vol": null,
  "total_magnetization_normalized_formula_units": null,
  "num_magnetic_sites": null,
  "num_unique_magnetic_sites": null,
  "types_of_magnetic_species": null,
  "bulk_modulus": null,
  "shear_modulus": null,
  "universal_anisotropy": null,
  "homogeneous_poisson": null,
  "e_total": null,
  "e_ionic": null,
  "e_electronic": null,
  "n": null,
  "e_ij_max": null,
  "weighted_surface_energy_EV_PER_ANG2": null,
  "weighted_surface_energy": null,
  "weighted_work_function": null,
  "surface_anisotropy": null,
  "shape_factor": null,
  "has_reconstructed": null,
  "possible_species": null,
  "has_props": null,
  "theoretical": null,
  "database_IDs": null,
  "fields_not_requested": [
    "builder_meta",
    "nsites",
    "elements",
    "nelements",
    "composition",
    "composition_reduced",
    "chemsys",
    "symmetry",
    "property_name",
    "deprecated",
    "deprecation_reasons",
    "last_updated",
    "origins",
    "warnings",
    "task_ids",
    "uncorrected_energy_per_atom",
    "equilibrium_reaction_energy_per_atom",
    "decomposes_to",
    "xas",
    "grain_boundaries",
    "cbm",
    "vbm",
    "is_gap_direct",
    "is_metal",
    "es_source_calc_id",
    "bandstructure",
    "dos",
    "dos_energy_up",
    "dos_energy_down",
    "is_magnetic",
    "ordering",
    "total_magnetization_normalized_vol",
    "total_magnetization_normalized_formula_units",
    "num_magnetic_sites",
    "num_unique_magnetic_sites",
    "types_of_magnetic_species",
    "bulk_modulus",
    "shear_modulus",
    "universal_anisotropy",
    "homogeneous_poisson",
    "e_total",
    "e_ionic",
    "e_electronic",
    "n",
    "e_ij_max",
    "weighted_surface_energy_EV_PER_ANG2",
    "weighted_surface_energy",
    "weighted_work_function",
    "surface_anisotropy",
    "shape_factor",
    "has_reconstructed",
    "possible_species",
    "has_props",
    "theoretical",
    "database_IDs"
  ]
}
