{"builder_meta": null, "nsites": null, "elements": null, "nelements": null, "composition": null, "composition_reduced": null, "formula_pretty": "ScAu2", "formula_anonymous": "AB2", "chemsys": null, "volume": 55.12513539975147, "density": 13.220691580038213, "density_atomic": 18.37504513325049, "symmetry": null, "property_name": null, "material_id": "mp-1018148", "deprecated": null, "deprecation_reasons": null, "last_updated": null, "origins": null, "warnings": null, "structure": {"@module": "pymatgen.core.structure", "@class": "Structure", "charge": 0, "lattice": {"matrix": [[3.54418709, 0.00135182, 0.00094686], [0.00135182, 3.54418665, 0.00094764], [-1.77159581, -1.7715951300000001, 4.38755747]], "pbc": [true, true, true], "a": 3.5441874742857267, "b": 3.5441870344942443, "c": 5.052500526590975, "alpha": 110.52027463428281, "beta": 110.52029455880015, "gamma": 89.95628852145458, "volume": 55.12513539975147}, "properties": {}, "sites": [{"species": [{"element": "Sc", "occu": 1}], "abc": [-1.1e-07, 0.99999912, 1e-07], "properties": {"magmom": -0.0}, "label": "Sc", "xyz": [0.0013512517902375001, 3.544183353807535, 0.0009480778176692]}, {"species": [{"element": "Au", "occu": 1}], "abc": [0.66338807, 0.66338744, 0.32621891000000003], "properties": {"magmom": 0.0}, "label": "Au", "xyz": [1.7741401596643898, 1.7741378576165547, 1.4325610035273597]}, {"species": [{"element": "Au", "occu": 1}], "abc": [0.33661205, 0.33661145000000003, 0.67378099], "properties": {"magmom": 0.0}, "label": "Au", "xyz": [-0.00019645870287865463, -0.00019827434200525573, 2.9568905267786367]}]}, "task_ids": null, "uncorrected_energy_per_atom": null, "energy_per_atom": -38.40238830333333, "formation_energy_per_atom": -0.8795857516666671, "energy_above_hull": 0.0, "is_stable": true, "equilibrium_reaction_energy_per_atom": null, "decomposes_to": null, "xas": null, "grain_boundaries": null, "band_gap": 0.0, "cbm": null, "vbm": null, "efermi": 5.91485178, "is_gap_direct": null, "is_metal": null, "es_source_calc_id": null, "bandstructure": null, "dos": null, "dos_energy_up": null, "dos_energy_down": null, "is_magnetic": null, "ordering": null, "total_magnetization": 0.0, "total_magnetization_normalized_vol": null, "total_magnetization_normalized_formula_units": null, "num_magnetic_sites": null, "num_unique_magnetic_sites": null, "types_of_magnetic_species": null, "bulk_modulus": null, "shear_modulus": null, "universal_anisotropy": null, "homogeneous_poisson": null, "e_total": null, "e_ionic": null, "e_electronic": null, "n": null, "e_ij_max": null, "weighted_surface_energy_EV_PER_ANG2": null, "weighted_surface_energy": null, "weighted_work_function": null, "surface_anisotropy": null, "shape_factor": null, "has_reconstructed": null, "possible_species": null, "has_props": null, "theoretical": null, "database_IDs": null, "fields_not_requested": ["builder_meta", "nsites", "elements", "nelements", "composition", "composition_reduced", "chemsys", "symmetry", "property_name", "deprecated", "deprecation_reasons", "last_updated", "origins", "warnings", "task_ids", "uncorrected_energy_per_atom", "equilibrium_reaction_energy_per_atom", "decomposes_to", "xas", "grain_boundaries", "cbm", "vbm", "is_gap_direct", "is_metal", "es_source_calc_id", "bandstructure", "dos", "dos_energy_up", "dos_energy_down", "is_magnetic", "ordering", "total_magnetization_normalized_vol", "total_magnetization_normalized_formula_units", "num_magnetic_sites", "num_unique_magnetic_sites", "types_of_magnetic_species", "bulk_modulus", "shear_modulus", "universal_anisotropy", "homogeneous_poisson", "e_total", "e_ionic", "e_electronic", "n", "e_ij_max", "weighted_surface_energy_EV_PER_ANG2", "weighted_surface_energy", "weighted_work_function", "surface_anisotropy", "shape_factor", "has_reconstructed", "possible_species", "has_props", "theoretical", "database_IDs"]}