{"builder_meta": null, "nsites": null, "elements": null, "nelements": null, "composition": null, "composition_reduced": null, "formula_pretty": "ScBr3", "formula_anonymous": "AB3", "chemsys": null, "volume": 300.2699630449898, "density": 3.148514650548815, "density_atomic": 37.53374538062373, "symmetry": null, "property_name": null, "material_id": "mp-1186984", "deprecated": null, "deprecation_reasons": null, "last_updated": null, "origins": null, "warnings": null, "structure": {"@module": "pymatgen.core.structure", "@class": "Structure", "charge": 0, "lattice": {"matrix": [[9.91869736, -1e-08, -0.0], [-4.9593507, 8.58984621, 0.0], [-0.0, -0.0, 3.52429183]], "pbc": [true, true, true], "a": 9.91869736, "b": 9.918700382461497, "c": 3.52429183, "alpha": 90.0, "beta": 90.0, "gamma": 120.00000345134544, "volume": 300.2699630449898}, "properties": {}, "sites": [{"species": [{"element": "Sc", "occu": 1}], "abc": [0.333333, 0.666666, 0.749999], "properties": {"magmom": -0.0}, "label": "Sc", "xyz": [-1.3466653201454903e-06, 5.7265584101025295, 2.64321534820817]}, {"species": [{"element": "Sc", "occu": 1}], "abc": [0.666667, 0.333333, 0.250001], "properties": {"magmom": -0.0}, "label": "Sc", "xyz": [4.95935296601602, 2.86327920005126, 0.88107648179183]}, {"species": [{"element": "Br", "occu": 1}], "abc": [0.21594073, 0.43187947, 0.250001], "properties": {"magmom": -0.0}, "label": "Br", "xyz": [8.996707344000043e-06, 3.709778226396901, 0.88107648179183]}, {"species": [{"element": "Br", "occu": 1}], "abc": [0.56812153, 0.78405927, 0.250001], "properties": {"magmom": -0.0}, "label": "Br", "xyz": [1.746600630254171, 6.73494854314365, 0.88107648179183]}, {"species": [{"element": "Br", "occu": 1}], "abc": [0.21593973, 0.78405927, 0.250001], "properties": {"magmom": -0.0}, "label": "Br", "xyz": [-1.7465840596458762, 6.734948546665469, 0.88107648179183]}, {"species": [{"element": "Br", "occu": 1}], "abc": [0.78406027, 0.56812153, 0.749999], "properties": {"magmom": -0.0}, "label": "Br", "xyz": [4.959342622639316, 4.880076563449298, 2.64321534820817]}, {"species": [{"element": "Br", "occu": 1}], "abc": [0.43187847, 0.21593973, 0.749999], "properties": {"magmom": -0.0}, "label": "Br", "xyz": [3.2127509890965285, 1.8548890670101383, 2.64321534820817]}, {"species": [{"element": "Br", "occu": 1}], "abc": [0.78405927, 0.21593973, 0.749999], "properties": {"magmom": -0.0}, "label": "Br", "xyz": [6.705925760299216, 1.8548890634883304, 2.64321534820817]}]}, "task_ids": null, "uncorrected_energy_per_atom": null, "energy_per_atom": -4.8795625575, "formation_energy_per_atom": -2.068735379999999, "energy_above_hull": 0.0, "is_stable": true, "equilibrium_reaction_energy_per_atom": null, "decomposes_to": null, "xas": null, "grain_boundaries": null, "band_gap": 2.2256, "cbm": null, "vbm": null, "efermi": -1.7035941700000001, "is_gap_direct": null, "is_metal": null, "es_source_calc_id": null, "bandstructure": null, "dos": null, "dos_energy_up": null, "dos_energy_down": null, "is_magnetic": null, "ordering": null, "total_magnetization": 0.0, "total_magnetization_normalized_vol": null, "total_magnetization_normalized_formula_units": null, "num_magnetic_sites": null, "num_unique_magnetic_sites": null, "types_of_magnetic_species": null, "bulk_modulus": null, "shear_modulus": null, "universal_anisotropy": null, "homogeneous_poisson": null, "e_total": null, "e_ionic": null, "e_electronic": null, "n": null, "e_ij_max": null, "weighted_surface_energy_EV_PER_ANG2": null, "weighted_surface_energy": null, "weighted_work_function": null, "surface_anisotropy": null, "shape_factor": null, "has_reconstructed": null, "possible_species": null, "has_props": null, "theoretical": null, "database_IDs": null, "fields_not_requested": ["builder_meta", "nsites", "elements", "nelements", "composition", "composition_reduced", "chemsys", "symmetry", "property_name", "deprecated", "deprecation_reasons", "last_updated", "origins", "warnings", "task_ids", "uncorrected_energy_per_atom", "equilibrium_reaction_energy_per_atom", "decomposes_to", "xas", "grain_boundaries", "cbm", "vbm", "is_gap_direct", "is_metal", "es_source_calc_id", "bandstructure", "dos", "dos_energy_up", "dos_energy_down", "is_magnetic", "ordering", "total_magnetization_normalized_vol", "total_magnetization_normalized_formula_units", "num_magnetic_sites", "num_unique_magnetic_sites", "types_of_magnetic_species", "bulk_modulus", "shear_modulus", "universal_anisotropy", "homogeneous_poisson", "e_total", "e_ionic", "e_electronic", "n", "e_ij_max", "weighted_surface_energy_EV_PER_ANG2", "weighted_surface_energy", "weighted_work_function", "surface_anisotropy", "shape_factor", "has_reconstructed", "possible_species", "has_props", "theoretical", "database_IDs"]}