{
  "builder_meta": null,
  "nsites": null,
  "elements": null,
  "nelements": null,
  "composition": null,
  "composition_reduced": null,
  "formula_pretty": "ScCd3",
  "formula_anonymous": "AB3",
  "chemsys": null,
  "volume": 169.4982650951719,
  "density": 7.488449735352803,
  "density_atomic": 21.187283136896486,
  "symmetry": null,
  "property_name": null,
  "material_id": "mp-30494",
  "deprecated": null,
  "deprecation_reasons": null,
  "last_updated": null,
  "origins": null,
  "warnings": null,
  "structure": {
    "@module": "pymatgen.core.structure",
    "@class": "Structure",
    "charge": 0,
    "lattice": {
      "matrix": [
        [6.35416496, -2e-8, -0.0],
        [-3.17708401, 5.50286939, 0.0],
        [0.0, 0.0, 4.84749721]
      ],
      "pbc": [true, true, true],
      "a": 6.35416496,
      "b": 6.354166690447824,
      "c": 4.84749721,
      "alpha": 90.0,
      "beta": 90.0,
      "gamma": 120.00000710197759,
      "volume": 169.4982650951719
    },
    "properties": {},
    "sites": [
      {
        "species": [{ "element": "Sc", "occu": 1 }],
        "abc": [0.333333, 0.666667, 0.25],
        "properties": { "magmom": -0.0 },
        "label": "Sc",
        "xyz": [-4.197082990042844e-6, 3.6685814209564698, 1.2118743025]
      },
      {
        "species": [{ "element": "Sc", "occu": 1 }],
        "abc": [0.666667, 0.333333, 0.75],
        "properties": { "magmom": -0.0 },
        "label": "Sc",
        "xyz": [3.17708514708299, 1.83428794904353, 3.6356229075]
      },
      {
        "species": [{ "element": "Cd", "occu": 1 }],
        "abc": [0.83410479, 0.66820857, 0.25],
        "properties": { "magmom": -0.0 },
        "label": "Cd",
        "xyz": [3.177084666494193, 3.6770644693065764, 1.2118743025]
      },
      {
        "species": [{ "element": "Cd", "occu": 1 }],
        "abc": [0.16589521000000002, 0.83410479, 0.75],
        "properties": { "magmom": -0.0 },
        "label": "Cd",
        "xyz": [-1.5958954605595665, 4.589969713625474, 3.6356229075]
      },
      {
        "species": [{ "element": "Cd", "occu": 1 }],
        "abc": [0.66820857, 0.83410479, 0.75],
        "properties": { "magmom": -0.0 },
        "label": "Cd",
        "xyz": [1.595886490492299, 4.589969703579207, 3.6356229075]
      },
      {
        "species": [{ "element": "Cd", "occu": 1 }],
        "abc": [0.33179143, 0.16589521000000002, 0.25],
        "properties": { "magmom": -0.0 },
        "label": "Cd",
        "xyz": [1.5811944595077005, 0.9128996664207935, 1.2118743025]
      },
      {
        "species": [{ "element": "Cd", "occu": 1 }],
        "abc": [0.83410479, 0.16589521000000002, 0.25],
        "properties": { "magmom": -0.0 },
        "label": "Cd",
        "xyz": [4.772976410559567, 0.9128996563745262, 1.2118743025]
      },
      {
        "species": [{ "element": "Cd", "occu": 1 }],
        "abc": [0.16589521000000002, 0.33179143, 0.75],
        "properties": { "magmom": -0.0 },
        "label": "Cd",
        "xyz": [-3.7164941926182138e-6, 1.8258049006934234, 3.6356229075]
      }
    ]
  },
  "task_ids": null,
  "uncorrected_energy_per_atom": null,
  "energy_per_atom": -18.1630693275,
  "formation_energy_per_atom": -0.23470672124999903,
  "energy_above_hull": 0.0,
  "is_stable": true,
  "equilibrium_reaction_energy_per_atom": null,
  "decomposes_to": null,
  "xas": null,
  "grain_boundaries": null,
  "band_gap": 0.0,
  "cbm": null,
  "vbm": null,
  "efermi": 3.22563794,
  "is_gap_direct": null,
  "is_metal": null,
  "es_source_calc_id": null,
  "bandstructure": null,
  "dos": null,
  "dos_energy_up": null,
  "dos_energy_down": null,
  "is_magnetic": null,
  "ordering": null,
  "total_magnetization": 7e-7,
  "total_magnetization_normalized_vol": null,
  "total_magnetization_normalized_formula_units": null,
  "num_magnetic_sites": null,
  "num_unique_magnetic_sites": null,
  "types_of_magnetic_species": null,
  "bulk_modulus": null,
  "shear_modulus": null,
  "universal_anisotropy": null,
  "homogeneous_poisson": null,
  "e_total": null,
  "e_ionic": null,
  "e_electronic": null,
  "n": null,
  "e_ij_max": null,
  "weighted_surface_energy_EV_PER_ANG2": null,
  "weighted_surface_energy": null,
  "weighted_work_function": null,
  "surface_anisotropy": null,
  "shape_factor": null,
  "has_reconstructed": null,
  "possible_species": null,
  "has_props": null,
  "theoretical": null,
  "database_IDs": null,
  "fields_not_requested": [
    "builder_meta",
    "nsites",
    "elements",
    "nelements",
    "composition",
    "composition_reduced",
    "chemsys",
    "symmetry",
    "property_name",
    "deprecated",
    "deprecation_reasons",
    "last_updated",
    "origins",
    "warnings",
    "task_ids",
    "uncorrected_energy_per_atom",
    "equilibrium_reaction_energy_per_atom",
    "decomposes_to",
    "xas",
    "grain_boundaries",
    "cbm",
    "vbm",
    "is_gap_direct",
    "is_metal",
    "es_source_calc_id",
    "bandstructure",
    "dos",
    "dos_energy_up",
    "dos_energy_down",
    "is_magnetic",
    "ordering",
    "total_magnetization_normalized_vol",
    "total_magnetization_normalized_formula_units",
    "num_magnetic_sites",
    "num_unique_magnetic_sites",
    "types_of_magnetic_species",
    "bulk_modulus",
    "shear_modulus",
    "universal_anisotropy",
    "homogeneous_poisson",
    "e_total",
    "e_ionic",
    "e_electronic",
    "n",
    "e_ij_max",
    "weighted_surface_energy_EV_PER_ANG2",
    "weighted_surface_energy",
    "weighted_work_function",
    "surface_anisotropy",
    "shape_factor",
    "has_reconstructed",
    "possible_species",
    "has_props",
    "theoretical",
    "database_IDs"
  ]
}
