{
  "builder_meta": null,
  "nsites": null,
  "elements": null,
  "nelements": null,
  "composition": null,
  "composition_reduced": null,
  "formula_pretty": "ScCd7",
  "formula_anonymous": "AB7",
  "chemsys": null,
  "volume": 344.6249211532786,
  "density": 8.016199424215662,
  "density_atomic": 21.539057572079912,
  "symmetry": null,
  "property_name": null,
  "material_id": "mp-31502",
  "deprecated": null,
  "deprecation_reasons": null,
  "last_updated": null,
  "origins": null,
  "warnings": null,
  "structure": {
    "@module": "pymatgen.core.structure",
    "@class": "Structure",
    "charge": 0,
    "lattice": {
      "matrix": [
        [6.23771723, -0.02254885, 0.0],
        [-1.91515429, 5.93648007, -0.0],
        [0.0, -0.0, 9.31748608]
      ],
      "pbc": [true, true, true],
      "a": 6.2377579860135,
      "b": 6.237756934669114,
      "c": 9.31748608,
      "alpha": 90.0,
      "beta": 90.0,
      "gamma": 108.087220329211,
      "volume": 344.6249211532786
    },
    "properties": {},
    "sites": [
      {
        "species": [{ "element": "Sc", "occu": 1 }],
        "abc": [0.52147821, 0.47852179, 0.75],
        "properties": { "magmom": -0.0 },
        "label": "Sc",
        "xyz": [2.33639055660958, 2.8289763354601667, 6.98811456]
      },
      {
        "species": [{ "element": "Sc", "occu": 1 }],
        "abc": [0.47852179, 0.52147821, 0.25],
        "properties": { "magmom": -0.0 },
        "label": "Sc",
        "xyz": [1.9861723833904208, 3.084954884539833, 2.32937152]
      },
      {
        "species": [{ "element": "Cd", "occu": 1 }],
        "abc": [0.59898693, 0.99718798, 0.75],
        "properties": { "magmom": -0.0 },
        "label": "Cd",
        "xyz": [1.82654225597237, 5.9062801028770275, 6.98811456]
      },
      {
        "species": [{ "element": "Cd", "occu": 1 }],
        "abc": [0.40101307, 0.00281202, 0.25],
        "properties": { "magmom": -0.0 },
        "label": "Cd",
        "xyz": [2.4960206840276307, 0.007651117122971901, 2.32937152]
      },
      {
        "species": [{ "element": "Cd", "occu": 1 }],
        "abc": [0.99718798, 0.59898693, 0.25],
        "properties": { "magmom": -0.0 },
        "label": "Cd",
        "xyz": [5.0730242557514655, 3.533388529952662, 2.32937152]
      },
      {
        "species": [{ "element": "Cd", "occu": 1 }],
        "abc": [0.00281202, 0.40101307, 0.75],
        "properties": { "magmom": -0.0 },
        "label": "Cd",
        "xyz": [-0.7504613157514657, 2.380542690047338, 6.98811456]
      },
      {
        "species": [{ "element": "Cd", "occu": 1 }],
        "abc": [0.29115199, 0.70884801, 0.98212991],
        "properties": { "magmom": 0.0 },
        "label": "Cd",
        "xyz": [0.45857047726232514, 4.201496941474449, 9.150981765176653]
      },
      {
        "species": [{ "element": "Cd", "occu": 1 }],
        "abc": [0.70884801, 0.29115199, 0.48212991],
        "properties": { "magmom": 0.0 },
        "label": "Cd",
        "xyz": [3.863992462737675, 1.712434278525551, 4.4922387251766525]
      },
      {
        "species": [{ "element": "Cd", "occu": 1 }],
        "abc": [0.70884801, 0.29115199, 0.01787009],
        "properties": { "magmom": 0.0 },
        "label": "Cd",
        "xyz": [3.863992462737675, 1.712434278525551, 0.1665043148233472]
      },
      {
        "species": [{ "element": "Cd", "occu": 1 }],
        "abc": [0.29115199, 0.70884801, 0.5178700900000001],
        "properties": { "magmom": 0.0 },
        "label": "Cd",
        "xyz": [0.45857047726232514, 4.201496941474449, 4.825247354823348]
      },
      {
        "species": [{ "element": "Cd", "occu": 1 }],
        "abc": [0.20984272, 0.20984272, 0.0],
        "properties": { "magmom": 0.0 },
        "label": "Cd",
        "xyz": [0.9070583647007968, 1.2409954130977185, 0.0]
      },
      {
        "species": [{ "element": "Cd", "occu": 1 }],
        "abc": [0.79015728, 0.79015728, 0.5],
        "properties": { "magmom": 0.0 },
        "label": "Cd",
        "xyz": [3.4155045752992033, 4.672935806902282, 4.65874304]
      },
      {
        "species": [{ "element": "Cd", "occu": 1 }],
        "abc": [0.79015728, 0.79015728, -0.0],
        "properties": { "magmom": 0.0 },
        "label": "Cd",
        "xyz": [3.4155045752992033, 4.672935806902282, 0.0]
      },
      {
        "species": [{ "element": "Cd", "occu": 1 }],
        "abc": [0.20984272, 0.20984272, 0.5],
        "properties": { "magmom": 0.0 },
        "label": "Cd",
        "xyz": [0.9070583647007968, 1.2409954130977185, 4.65874304]
      },
      {
        "species": [{ "element": "Cd", "occu": 1 }],
        "abc": [0.08716254, 0.91283746, 0.75],
        "properties": { "magmom": 0.0 },
        "label": "Cd",
        "xyz": [-1.2045293000231392, 5.417075973399343, 6.98811456]
      },
      {
        "species": [{ "element": "Cd", "occu": 1 }],
        "abc": [0.91283746, 0.08716254, 0.25],
        "properties": { "magmom": 0.0 },
        "label": "Cd",
        "xyz": [5.52709224002314, 0.49685524660065683, 2.32937152]
      }
    ]
  },
  "task_ids": null,
  "uncorrected_energy_per_atom": null,
  "energy_per_atom": -19.141764751875,
  "formation_energy_per_atom": -0.125089603749998,
  "energy_above_hull": 0.0,
  "is_stable": true,
  "equilibrium_reaction_energy_per_atom": null,
  "decomposes_to": null,
  "xas": null,
  "grain_boundaries": null,
  "band_gap": 0.0,
  "cbm": null,
  "vbm": null,
  "efermi": 2.84628555,
  "is_gap_direct": null,
  "is_metal": null,
  "es_source_calc_id": null,
  "bandstructure": null,
  "dos": null,
  "dos_energy_up": null,
  "dos_energy_down": null,
  "is_magnetic": null,
  "ordering": null,
  "total_magnetization": 2e-7,
  "total_magnetization_normalized_vol": null,
  "total_magnetization_normalized_formula_units": null,
  "num_magnetic_sites": null,
  "num_unique_magnetic_sites": null,
  "types_of_magnetic_species": null,
  "bulk_modulus": null,
  "shear_modulus": null,
  "universal_anisotropy": null,
  "homogeneous_poisson": null,
  "e_total": null,
  "e_ionic": null,
  "e_electronic": null,
  "n": null,
  "e_ij_max": null,
  "weighted_surface_energy_EV_PER_ANG2": null,
  "weighted_surface_energy": null,
  "weighted_work_function": null,
  "surface_anisotropy": null,
  "shape_factor": null,
  "has_reconstructed": null,
  "possible_species": null,
  "has_props": null,
  "theoretical": null,
  "database_IDs": null,
  "fields_not_requested": [
    "builder_meta",
    "nsites",
    "elements",
    "nelements",
    "composition",
    "composition_reduced",
    "chemsys",
    "symmetry",
    "property_name",
    "deprecated",
    "deprecation_reasons",
    "last_updated",
    "origins",
    "warnings",
    "task_ids",
    "uncorrected_energy_per_atom",
    "equilibrium_reaction_energy_per_atom",
    "decomposes_to",
    "xas",
    "grain_boundaries",
    "cbm",
    "vbm",
    "is_gap_direct",
    "is_metal",
    "es_source_calc_id",
    "bandstructure",
    "dos",
    "dos_energy_up",
    "dos_energy_down",
    "is_magnetic",
    "ordering",
    "total_magnetization_normalized_vol",
    "total_magnetization_normalized_formula_units",
    "num_magnetic_sites",
    "num_unique_magnetic_sites",
    "types_of_magnetic_species",
    "bulk_modulus",
    "shear_modulus",
    "universal_anisotropy",
    "homogeneous_poisson",
    "e_total",
    "e_ionic",
    "e_electronic",
    "n",
    "e_ij_max",
    "weighted_surface_energy_EV_PER_ANG2",
    "weighted_surface_energy",
    "weighted_work_function",
    "surface_anisotropy",
    "shape_factor",
    "has_reconstructed",
    "possible_species",
    "has_props",
    "theoretical",
    "database_IDs"
  ]
}
