{
  "builder_meta": null,
  "nsites": null,
  "elements": null,
  "nelements": null,
  "composition": null,
  "composition_reduced": null,
  "formula_pretty": "ScCl",
  "formula_anonymous": "AB",
  "chemsys": null,
  "volume": 104.84252931588209,
  "density": 2.547098788059759,
  "density_atomic": 26.210632328970522,
  "symmetry": null,
  "property_name": null,
  "material_id": "mp-27507",
  "deprecated": null,
  "deprecation_reasons": null,
  "last_updated": null,
  "origins": null,
  "warnings": null,
  "structure": {
    "@module": "pymatgen.core.structure",
    "@class": "Structure",
    "charge": 0,
    "lattice": {
      "matrix": [
        [9.963051, -1.747415999999999, 0.0],
        [9.963051, 1.747415999999999, 0.0],
        [9.656572, 0.0, 3.011056]
      ],
      "pbc": [true, true, true],
      "a": 10.115129653427928,
      "b": 10.115129653427928,
      "c": 10.115129313376078,
      "alpha": 19.895811637311187,
      "beta": 19.895811637311187,
      "gamma": 19.89581164388021,
      "volume": 104.84252931588202
    },
    "properties": {},
    "sites": [
      {
        "species": [{ "element": "Sc", "occu": 1 }],
        "abc": [0.790809, 0.790809, 0.790809],
        "properties": { "magmom": -0.458 },
        "label": "Sc",
        "xyz": [23.394244843266, 0.0, 2.381170184304]
      },
      {
        "species": [{ "element": "Sc", "occu": 1 }],
        "abc": [0.209191, 0.209191, 0.209191],
        "properties": { "magmom": -0.458 },
        "label": "Sc",
        "xyz": [6.188429156734, 0.0, 0.629885815696]
      },
      {
        "species": [{ "element": "Cl", "occu": 1 }],
        "abc": [0.597529, 0.597529, 0.597529],
        "properties": { "magmom": -0.001 },
        "label": "Cl",
        "xyz": [17.676505612546, 0.0, 1.7991932806239999]
      },
      {
        "species": [{ "element": "Cl", "occu": 1 }],
        "abc": [0.402470999999999, 0.402470999999999, 0.402470999999999],
        "properties": { "magmom": -0.001 },
        "label": "Cl",
        "xyz": [11.90616838745397, 0.0, 1.211862719375997]
      }
    ]
  },
  "task_ids": null,
  "uncorrected_energy_per_atom": null,
  "energy_per_atom": -10.362704231500002,
  "formation_energy_per_atom": -1.587241105250003,
  "energy_above_hull": 0.021389462749999002,
  "is_stable": false,
  "equilibrium_reaction_energy_per_atom": null,
  "decomposes_to": null,
  "xas": null,
  "grain_boundaries": null,
  "band_gap": 0.0,
  "cbm": null,
  "vbm": null,
  "efermi": 3.29397932,
  "is_gap_direct": null,
  "is_metal": null,
  "es_source_calc_id": null,
  "bandstructure": null,
  "dos": null,
  "dos_energy_up": null,
  "dos_energy_down": null,
  "is_magnetic": null,
  "ordering": null,
  "total_magnetization": 1.5526911,
  "total_magnetization_normalized_vol": null,
  "total_magnetization_normalized_formula_units": null,
  "num_magnetic_sites": null,
  "num_unique_magnetic_sites": null,
  "types_of_magnetic_species": null,
  "bulk_modulus": null,
  "shear_modulus": null,
  "universal_anisotropy": null,
  "homogeneous_poisson": null,
  "e_total": null,
  "e_ionic": null,
  "e_electronic": null,
  "n": null,
  "e_ij_max": null,
  "weighted_surface_energy_EV_PER_ANG2": null,
  "weighted_surface_energy": null,
  "weighted_work_function": null,
  "surface_anisotropy": null,
  "shape_factor": null,
  "has_reconstructed": null,
  "possible_species": null,
  "has_props": null,
  "theoretical": null,
  "database_IDs": null,
  "fields_not_requested": [
    "builder_meta",
    "nsites",
    "elements",
    "nelements",
    "composition",
    "composition_reduced",
    "chemsys",
    "symmetry",
    "property_name",
    "deprecated",
    "deprecation_reasons",
    "last_updated",
    "origins",
    "warnings",
    "task_ids",
    "uncorrected_energy_per_atom",
    "equilibrium_reaction_energy_per_atom",
    "decomposes_to",
    "xas",
    "grain_boundaries",
    "cbm",
    "vbm",
    "is_gap_direct",
    "is_metal",
    "es_source_calc_id",
    "bandstructure",
    "dos",
    "dos_energy_up",
    "dos_energy_down",
    "is_magnetic",
    "ordering",
    "total_magnetization_normalized_vol",
    "total_magnetization_normalized_formula_units",
    "num_magnetic_sites",
    "num_unique_magnetic_sites",
    "types_of_magnetic_species",
    "bulk_modulus",
    "shear_modulus",
    "universal_anisotropy",
    "homogeneous_poisson",
    "e_total",
    "e_ionic",
    "e_electronic",
    "n",
    "e_ij_max",
    "weighted_surface_energy_EV_PER_ANG2",
    "weighted_surface_energy",
    "weighted_work_function",
    "surface_anisotropy",
    "shape_factor",
    "has_reconstructed",
    "possible_species",
    "has_props",
    "theoretical",
    "database_IDs"
  ]
}
