{
  "builder_meta": null,
  "nsites": null,
  "elements": null,
  "nelements": null,
  "composition": null,
  "composition_reduced": null,
  "formula_pretty": "ScCl3",
  "formula_anonymous": "AB3",
  "chemsys": null,
  "volume": 216.39147042729132,
  "density": 2.322312633108773,
  "density_atomic": 27.048933803411416,
  "symmetry": null,
  "property_name": null,
  "material_id": "mp-23309",
  "deprecated": null,
  "deprecation_reasons": null,
  "last_updated": null,
  "origins": null,
  "warnings": null,
  "structure": {
    "@module": "pymatgen.core.structure",
    "@class": "Structure",
    "charge": 0,
    "lattice": {
      "matrix": [
        [5.75773708, 0.03981732, 4.18912167],
        [2.15442813, 5.33961462, 4.18912996],
        [0.05856005, 0.03980487, 7.12017102]
      ],
      "pbc": [true, true, true],
      "a": 7.120524002307871,
      "b": 7.120523483510369,
      "c": 7.120523089013865,
      "alpha": 53.48958099495405,
      "beta": 53.48959366896352,
      "gamma": 53.489604511337475,
      "volume": 216.39147042729132
    },
    "properties": {},
    "sites": [
      {
        "species": [{ "element": "Sc", "occu": 1 }],
        "abc": [0.6666838700000001, 0.6666838700000001, 0.6666838700000001],
        "properties": { "magmom": -0.0 },
        "label": "Sc",
        "xyz": [5.313953963043557, 3.612917768937255, 10.332548391197655]
      },
      {
        "species": [{ "element": "Sc", "occu": 1 }],
        "abc": [0.33331613, 0.33331613, 0.33331613],
        "properties": { "magmom": -0.0 },
        "label": "Sc",
        "xyz": [2.656771296956444, 1.8063190410627452, 5.165874258802344]
      },
      {
        "species": [{ "element": "Cl", "occu": 1 }],
        "abc": [0.56298571, 0.28185254, 0.92255133],
        "properties": { "magmom": 0.0 },
        "label": "Cl",
        "xyz": [3.902779390677443, 1.5641225611976088, 10.10785580160589]
      },
      {
        "species": [{ "element": "Cl", "occu": 1 }],
        "abc": [0.28185254, 0.92255133, 0.56298571],
        "properties": { "magmom": 0.0 },
        "label": "Cl",
        "xyz": [3.6433718286979815, 4.959700755144845, 9.053956536215512]
      },
      {
        "species": [{ "element": "Cl", "occu": 1 }],
        "abc": [0.07744867, 0.43701429, 0.71814746],
        "properties": { "magmom": 0.0 },
        "label": "Cl",
        "xyz": [1.4294997098086342, 2.3651574567960143, 7.268484289775417]
      },
      {
        "species": [{ "element": "Cl", "occu": 1 }],
        "abc": [0.71814746, 0.07744867, 0.43701429],
        "properties": { "magmom": 0.0 },
        "label": "Cl",
        "xyz": [4.3273534313020185, 0.45953605485515486, 6.444466113784487]
      },
      {
        "species": [{ "element": "Cl", "occu": 1 }],
        "abc": [0.43701429, 0.71814746, 0.07744867],
        "properties": { "magmom": 0.0 },
        "label": "Cl",
        "xyz": [4.067945869322557, 3.8551142488023906, 5.3905668483941085]
      },
      {
        "species": [{ "element": "Cl", "occu": 1 }],
        "abc": [0.92255133, 0.56298571, 0.28185254],
        "properties": { "magmom": 0.0 },
        "label": "Cl",
        "xyz": [6.541225550191366, 3.0540793532039854, 8.229938360224583]
      }
    ]
  },
  "task_ids": null,
  "uncorrected_energy_per_atom": null,
  "energy_per_atom": -9.8069524525,
  "formation_energy_per_atom": -2.343001440624999,
  "energy_above_hull": 0.0,
  "is_stable": true,
  "equilibrium_reaction_energy_per_atom": null,
  "decomposes_to": null,
  "xas": null,
  "grain_boundaries": null,
  "band_gap": 3.8723,
  "cbm": null,
  "vbm": null,
  "efermi": -1.3655892,
  "is_gap_direct": null,
  "is_metal": null,
  "es_source_calc_id": null,
  "bandstructure": null,
  "dos": null,
  "dos_energy_up": null,
  "dos_energy_down": null,
  "is_magnetic": null,
  "ordering": null,
  "total_magnetization": 0.0,
  "total_magnetization_normalized_vol": null,
  "total_magnetization_normalized_formula_units": null,
  "num_magnetic_sites": null,
  "num_unique_magnetic_sites": null,
  "types_of_magnetic_species": null,
  "bulk_modulus": null,
  "shear_modulus": null,
  "universal_anisotropy": null,
  "homogeneous_poisson": null,
  "e_total": null,
  "e_ionic": null,
  "e_electronic": null,
  "n": null,
  "e_ij_max": null,
  "weighted_surface_energy_EV_PER_ANG2": null,
  "weighted_surface_energy": null,
  "weighted_work_function": null,
  "surface_anisotropy": null,
  "shape_factor": null,
  "has_reconstructed": null,
  "possible_species": null,
  "has_props": null,
  "theoretical": null,
  "database_IDs": null,
  "fields_not_requested": [
    "builder_meta",
    "nsites",
    "elements",
    "nelements",
    "composition",
    "composition_reduced",
    "chemsys",
    "symmetry",
    "property_name",
    "deprecated",
    "deprecation_reasons",
    "last_updated",
    "origins",
    "warnings",
    "task_ids",
    "uncorrected_energy_per_atom",
    "equilibrium_reaction_energy_per_atom",
    "decomposes_to",
    "xas",
    "grain_boundaries",
    "cbm",
    "vbm",
    "is_gap_direct",
    "is_metal",
    "es_source_calc_id",
    "bandstructure",
    "dos",
    "dos_energy_up",
    "dos_energy_down",
    "is_magnetic",
    "ordering",
    "total_magnetization_normalized_vol",
    "total_magnetization_normalized_formula_units",
    "num_magnetic_sites",
    "num_unique_magnetic_sites",
    "types_of_magnetic_species",
    "bulk_modulus",
    "shear_modulus",
    "universal_anisotropy",
    "homogeneous_poisson",
    "e_total",
    "e_ionic",
    "e_electronic",
    "n",
    "e_ij_max",
    "weighted_surface_energy_EV_PER_ANG2",
    "weighted_surface_energy",
    "weighted_work_function",
    "surface_anisotropy",
    "shape_factor",
    "has_reconstructed",
    "possible_species",
    "has_props",
    "theoretical",
    "database_IDs"
  ]
}
