{
  "builder_meta": null,
  "nsites": null,
  "elements": null,
  "nelements": null,
  "composition": null,
  "composition_reduced": null,
  "formula_pretty": "ScCo2",
  "formula_anonymous": "AB2",
  "chemsys": null,
  "volume": 81.95896944523425,
  "density": 6.597759713545664,
  "density_atomic": 13.659828240872374,
  "symmetry": null,
  "property_name": null,
  "material_id": "mp-253",
  "deprecated": null,
  "deprecation_reasons": null,
  "last_updated": null,
  "origins": null,
  "warnings": null,
  "structure": {
    "@module": "pymatgen.core.structure",
    "@class": "Structure",
    "charge": 0,
    "lattice": {
      "matrix": [
        [4.22244134, -7.683000000000001e-5, 2.43785938],
        [1.407414849999999, 3.98099374, 2.43785621],
        [1.05e-6, -2.149999999999999e-6, 4.87571769]
      ],
      "pbc": [true, true, true],
      "a": 4.875671157112405,
      "b": 4.875681554260417,
      "c": 4.875717690000587,
      "alpha": 59.99981029457945,
      "beta": 59.999664691162316,
      "gamma": 60.001498800756856,
      "volume": 81.95896944523425
    },
    "properties": {},
    "sites": [
      {
        "species": [{ "element": "Sc", "occu": 1 }],
        "abc": [0.12500033, 0.12500133, 0.12499867],
        "properties": { "magmom": -0.468 },
        "label": "Sc",
        "xyz": [0.703735420265996, 0.49761963969917977, 1.218926722137827]
      },
      {
        "species": [{ "element": "Sc", "occu": 1 }],
        "abc": [0.87499867, 0.87499867, 0.87500133],
        "properties": { "magmom": -0.468 },
        "label": "Sc",
        "xyz": [4.926117597292663, 3.48329512037765, 8.532504120002793]
      },
      {
        "species": [{ "element": "Co", "occu": 1 }],
        "abc": [0.5, 0.5, 0.5],
        "properties": { "magmom": 1.476 },
        "label": "Co",
        "xyz": [2.814928619999999, 1.9904573800000003, 4.87571664]
      },
      {
        "species": [{ "element": "Co", "occu": 1 }],
        "abc": [0.5, 0.5, 0.0],
        "properties": { "magmom": 1.476 },
        "label": "Co",
        "xyz": [2.814928094999999, 1.9904584550000002, 2.437857795]
      },
      {
        "species": [{ "element": "Co", "occu": 1 }],
        "abc": [1e-6, 0.499998999999999, 0.5],
        "properties": { "magmom": 1.476 },
        "label": "Co",
        "xyz": [0.7037107650264882, 1.9904918139294263, 3.6567869500031676]
      },
      {
        "species": [{ "element": "Co", "occu": 1 }],
        "abc": [0.5, 0.0, 0.5],
        "properties": { "magmom": 1.476 },
        "label": "Co",
        "xyz": [2.1112211949999997, -3.949e-5, 3.656788535]
      }
    ]
  },
  "task_ids": null,
  "uncorrected_energy_per_atom": null,
  "energy_per_atom": -12.894902195,
  "formation_energy_per_atom": -0.272585656666668,
  "energy_above_hull": 0.0,
  "is_stable": true,
  "equilibrium_reaction_energy_per_atom": null,
  "decomposes_to": null,
  "xas": null,
  "grain_boundaries": null,
  "band_gap": 0.0,
  "cbm": null,
  "vbm": null,
  "efermi": 5.26011652,
  "is_gap_direct": null,
  "is_metal": null,
  "es_source_calc_id": null,
  "bandstructure": null,
  "dos": null,
  "dos_energy_up": null,
  "dos_energy_down": null,
  "is_magnetic": null,
  "ordering": null,
  "total_magnetization": 4.2419294,
  "total_magnetization_normalized_vol": null,
  "total_magnetization_normalized_formula_units": null,
  "num_magnetic_sites": null,
  "num_unique_magnetic_sites": null,
  "types_of_magnetic_species": null,
  "bulk_modulus": null,
  "shear_modulus": null,
  "universal_anisotropy": null,
  "homogeneous_poisson": null,
  "e_total": null,
  "e_ionic": null,
  "e_electronic": null,
  "n": null,
  "e_ij_max": null,
  "weighted_surface_energy_EV_PER_ANG2": null,
  "weighted_surface_energy": null,
  "weighted_work_function": null,
  "surface_anisotropy": null,
  "shape_factor": null,
  "has_reconstructed": null,
  "possible_species": null,
  "has_props": null,
  "theoretical": null,
  "database_IDs": null,
  "fields_not_requested": [
    "builder_meta",
    "nsites",
    "elements",
    "nelements",
    "composition",
    "composition_reduced",
    "chemsys",
    "symmetry",
    "property_name",
    "deprecated",
    "deprecation_reasons",
    "last_updated",
    "origins",
    "warnings",
    "task_ids",
    "uncorrected_energy_per_atom",
    "equilibrium_reaction_energy_per_atom",
    "decomposes_to",
    "xas",
    "grain_boundaries",
    "cbm",
    "vbm",
    "is_gap_direct",
    "is_metal",
    "es_source_calc_id",
    "bandstructure",
    "dos",
    "dos_energy_up",
    "dos_energy_down",
    "is_magnetic",
    "ordering",
    "total_magnetization_normalized_vol",
    "total_magnetization_normalized_formula_units",
    "num_magnetic_sites",
    "num_unique_magnetic_sites",
    "types_of_magnetic_species",
    "bulk_modulus",
    "shear_modulus",
    "universal_anisotropy",
    "homogeneous_poisson",
    "e_total",
    "e_ionic",
    "e_electronic",
    "n",
    "e_ij_max",
    "weighted_surface_energy_EV_PER_ANG2",
    "weighted_surface_energy",
    "weighted_work_function",
    "surface_anisotropy",
    "shape_factor",
    "has_reconstructed",
    "possible_species",
    "has_props",
    "theoretical",
    "database_IDs"
  ]
}
