{
  "builder_meta": null,
  "nsites": null,
  "elements": null,
  "nelements": null,
  "composition": null,
  "composition_reduced": null,
  "formula_pretty": "ScCu2",
  "formula_anonymous": "AB2",
  "chemsys": null,
  "volume": 44.673410178112434,
  "density": 6.395130303773691,
  "density_atomic": 14.891136726037479,
  "symmetry": null,
  "property_name": null,
  "material_id": "mp-1018149",
  "deprecated": null,
  "deprecation_reasons": null,
  "last_updated": null,
  "origins": null,
  "warnings": null,
  "structure": {
    "@module": "pymatgen.core.structure",
    "@class": "Structure",
    "charge": 0,
    "lattice": {
      "matrix": [
        [3.27586419, 0.00085537, -0.00111946],
        [0.00085537, 3.27586419, -0.00111946],
        [-1.63976979, -1.63976979, 4.16403365]
      ],
      "pbc": [true, true, true],
      "a": 3.2758644929503546,
      "b": 3.2758644929503546,
      "c": 4.766221371980703,
      "alpha": 110.14689141402343,
      "beta": 110.14689141402343,
      "gamma": 89.97007199287336,
      "volume": 44.673410178112434
    },
    "properties": {},
    "sites": [
      {
        "species": [{ "element": "Sc", "occu": 1 }],
        "abc": [0.0, 0.0, 0.0],
        "properties": { "magmom": 0.0 },
        "label": "Sc",
        "xyz": [0.0, 0.0, 0.0]
      },
      {
        "species": [{ "element": "Cu", "occu": 1 }],
        "abc": [0.67312944, 0.67312944, 0.34768913],
        "properties": { "magmom": -0.0 },
        "label": "Cu",
        "xyz": [1.6355262707744638, 1.6355262707744638, 1.4462821540934199]
      },
      {
        "species": [{ "element": "Cu", "occu": 1 }],
        "abc": [0.32687056000000003, 0.32687056000000003, 0.65231087],
        "properties": { "magmom": -0.0 },
        "label": "Cu",
        "xyz": [
          0.0014234992255364176, 0.0014234992255364176, 2.7155125759065806
        ]
      }
    ]
  },
  "task_ids": null,
  "uncorrected_energy_per_atom": null,
  "energy_per_atom": -11.267108943333334,
  "formation_energy_per_atom": -0.23641582500000102,
  "energy_above_hull": 0.0,
  "is_stable": true,
  "equilibrium_reaction_energy_per_atom": null,
  "decomposes_to": null,
  "xas": null,
  "grain_boundaries": null,
  "band_gap": 0.0,
  "cbm": null,
  "vbm": null,
  "efermi": 6.14072967,
  "is_gap_direct": null,
  "is_metal": null,
  "es_source_calc_id": null,
  "bandstructure": null,
  "dos": null,
  "dos_energy_up": null,
  "dos_energy_down": null,
  "is_magnetic": null,
  "ordering": null,
  "total_magnetization": 4e-7,
  "total_magnetization_normalized_vol": null,
  "total_magnetization_normalized_formula_units": null,
  "num_magnetic_sites": null,
  "num_unique_magnetic_sites": null,
  "types_of_magnetic_species": null,
  "bulk_modulus": null,
  "shear_modulus": null,
  "universal_anisotropy": null,
  "homogeneous_poisson": null,
  "e_total": null,
  "e_ionic": null,
  "e_electronic": null,
  "n": null,
  "e_ij_max": null,
  "weighted_surface_energy_EV_PER_ANG2": null,
  "weighted_surface_energy": null,
  "weighted_work_function": null,
  "surface_anisotropy": null,
  "shape_factor": null,
  "has_reconstructed": null,
  "possible_species": null,
  "has_props": null,
  "theoretical": null,
  "database_IDs": null,
  "fields_not_requested": [
    "builder_meta",
    "nsites",
    "elements",
    "nelements",
    "composition",
    "composition_reduced",
    "chemsys",
    "symmetry",
    "property_name",
    "deprecated",
    "deprecation_reasons",
    "last_updated",
    "origins",
    "warnings",
    "task_ids",
    "uncorrected_energy_per_atom",
    "equilibrium_reaction_energy_per_atom",
    "decomposes_to",
    "xas",
    "grain_boundaries",
    "cbm",
    "vbm",
    "is_gap_direct",
    "is_metal",
    "es_source_calc_id",
    "bandstructure",
    "dos",
    "dos_energy_up",
    "dos_energy_down",
    "is_magnetic",
    "ordering",
    "total_magnetization_normalized_vol",
    "total_magnetization_normalized_formula_units",
    "num_magnetic_sites",
    "num_unique_magnetic_sites",
    "types_of_magnetic_species",
    "bulk_modulus",
    "shear_modulus",
    "universal_anisotropy",
    "homogeneous_poisson",
    "e_total",
    "e_ionic",
    "e_electronic",
    "n",
    "e_ij_max",
    "weighted_surface_energy_EV_PER_ANG2",
    "weighted_surface_energy",
    "weighted_work_function",
    "surface_anisotropy",
    "shape_factor",
    "has_reconstructed",
    "possible_species",
    "has_props",
    "theoretical",
    "database_IDs"
  ]
}
