{"builder_meta": null, "nsites": null, "elements": null, "nelements": null, "composition": null, "composition_reduced": null, "formula_pretty": "ScF3", "formula_anonymous": "AB3", "chemsys": null, "volume": 131.06174327441713, "density": 2.583420852964234, "density_atomic": 16.38271790930214, "symmetry": null, "property_name": null, "material_id": "mp-1078300", "deprecated": null, "deprecation_reasons": null, "last_updated": null, "origins": null, "warnings": null, "structure": {"@module": "pymatgen.core.structure", "@class": "Structure", "charge": 0, "lattice": {"matrix": [[4.94336584, 0.0075058, 2.83857748], [1.64682898, 4.66099517, 2.83857748], [0.01059413, 0.0075058, 5.7003756800000005]], "pbc": [true, true, true], "a": 5.700389835360008, "b": 5.700389791417278, "c": 5.70039046607858, "alpha": 60.02816349632822, "beta": 60.028172341578575, "gamma": 60.02816903871121, "volume": 131.06174327441715}, "properties": {}, "sites": [{"species": [{"element": "Sc", "occu": 1}], "abc": [0.5, 0.5, 0.5], "properties": {"magmom": -0.0}, "label": "Sc", "xyz": [3.3003944750000005, 2.3380033849999995, 5.68876532]}, {"species": [{"element": "Sc", "occu": 1}], "abc": [-0.0, -0.0, 0.0], "properties": {"magmom": -0.0}, "label": "Sc", "xyz": [0.0, 0.0, 0.0]}, {"species": [{"element": "F", "occu": 1}], "abc": [0.72658453, 0.25, 0.77341547], "properties": {"magmom": 0.0}, "label": "F", "xyz": [4.011674054507647, 1.1765074924999999, 7.180869589898154]}, {"species": [{"element": "F", "occu": 1}], "abc": [0.25, 0.77341547, 0.72658453], "properties": {"magmom": 0.0}, "label": "F", "xyz": [2.51722200054313, 3.6122158182385538, 7.046848890101847]}, {"species": [{"element": "F", "occu": 1}], "abc": [0.77341547, 0.72658453, 0.25], "properties": {"magmom": 0.0}, "label": "F", "xyz": [5.022484607449225, 3.394288536761446, 5.6829601400000005]}, {"species": [{"element": "F", "occu": 1}], "abc": [0.27341547, 0.75, 0.22658453], "properties": {"magmom": 0.0}, "label": "F", "xyz": [2.5891148954923535, 3.4994992775, 4.196661050101847]}, {"species": [{"element": "F", "occu": 1}], "abc": [0.75, 0.22658453, 0.27341547], "properties": {"magmom": 0.0}, "label": "F", "xyz": [4.083566949456871, 1.0637909517614461, 4.3306817498981545]}, {"species": [{"element": "F", "occu": 1}], "abc": [0.22658453, 0.27341547, 0.75], "properties": {"magmom": 0.0}, "label": "F", "xyz": [1.578304342550776, 1.2817182332385537, 5.6945705]}]}, "task_ids": null, "uncorrected_energy_per_atom": null, "energy_per_atom": -9.41200943375, "formation_energy_per_atom": -4.217866632500001, "energy_above_hull": 0.0, "is_stable": true, "equilibrium_reaction_energy_per_atom": null, "decomposes_to": null, "xas": null, "grain_boundaries": null, "band_gap": 6.105700000000001, "cbm": null, "vbm": null, "efermi": -3.41262636, "is_gap_direct": null, "is_metal": null, "es_source_calc_id": null, "bandstructure": null, "dos": null, "dos_energy_up": null, "dos_energy_down": null, "is_magnetic": null, "ordering": null, "total_magnetization": 0.0, "total_magnetization_normalized_vol": null, "total_magnetization_normalized_formula_units": null, "num_magnetic_sites": null, "num_unique_magnetic_sites": null, "types_of_magnetic_species": null, "bulk_modulus": null, "shear_modulus": null, "universal_anisotropy": null, "homogeneous_poisson": null, "e_total": null, "e_ionic": null, "e_electronic": null, "n": null, "e_ij_max": null, "weighted_surface_energy_EV_PER_ANG2": null, "weighted_surface_energy": null, "weighted_work_function": null, "surface_anisotropy": null, "shape_factor": null, "has_reconstructed": null, "possible_species": null, "has_props": null, "theoretical": null, "database_IDs": null, "fields_not_requested": ["builder_meta", "nsites", "elements", "nelements", "composition", "composition_reduced", "chemsys", "symmetry", "property_name", "deprecated", "deprecation_reasons", "last_updated", "origins", "warnings", "task_ids", "uncorrected_energy_per_atom", "equilibrium_reaction_energy_per_atom", "decomposes_to", "xas", "grain_boundaries", "cbm", "vbm", "is_gap_direct", "is_metal", "es_source_calc_id", "bandstructure", "dos", "dos_energy_up", "dos_energy_down", "is_magnetic", "ordering", "total_magnetization_normalized_vol", "total_magnetization_normalized_formula_units", "num_magnetic_sites", "num_unique_magnetic_sites", "types_of_magnetic_species", "bulk_modulus", "shear_modulus", "universal_anisotropy", "homogeneous_poisson", "e_total", "e_ionic", "e_electronic", "n", "e_ij_max", "weighted_surface_energy_EV_PER_ANG2", "weighted_surface_energy", "weighted_work_function", "surface_anisotropy", "shape_factor", "has_reconstructed", "possible_species", "has_props", "theoretical", "database_IDs"]}