{"builder_meta": null, "nsites": null, "elements": null, "nelements": null, "composition": null, "composition_reduced": null, "formula_pretty": "ScFe2", "formula_anonymous": "AB2", "chemsys": null, "volume": 87.13754688944184, "density": 5.970254288411766, "density_atomic": 14.52292448157364, "symmetry": null, "property_name": null, "material_id": "mp-540", "deprecated": null, "deprecation_reasons": null, "last_updated": null, "origins": null, "warnings": null, "structure": {"@module": "pymatgen.core.structure", "@class": "Structure", "charge": 0, "lattice": {"matrix": [[-0.0, 3.51877727, 3.51877727], [3.51877727, 0.0, 3.51877727], [3.51877727, 3.51877727, -0.0]], "pbc": [true, true, true], "a": 4.976302538204174, "b": 4.976302538204174, "c": 4.976302538204174, "alpha": 59.99999999999999, "beta": 59.99999999999999, "gamma": 59.99999999999999, "volume": 87.13754688944184}, "properties": {}, "sites": [{"species": [{"element": "Sc", "occu": 1}], "abc": [0.75, 0.75, 0.75], "properties": {"magmom": -0.81}, "label": "Sc", "xyz": [5.278165905, 5.278165905, 5.278165905]}, {"species": [{"element": "Sc", "occu": 1}], "abc": [0.5, 0.5, 0.5], "properties": {"magmom": -0.81}, "label": "Sc", "xyz": [3.51877727, 3.51877727, 3.51877727]}, {"species": [{"element": "Fe", "occu": 1}], "abc": [0.125, 0.625, 0.125], "properties": {"magmom": 2.4130000000000003}, "label": "Fe", "xyz": [2.6390829525000004, 0.8796943175, 2.6390829525000004]}, {"species": [{"element": "Fe", "occu": 1}], "abc": [0.125, 0.125, 0.625], "properties": {"magmom": 2.4130000000000003}, "label": "Fe", "xyz": [2.6390829525000004, 2.6390829525000004, 0.8796943175]}, {"species": [{"element": "Fe", "occu": 1}], "abc": [0.625, 0.125, 0.125], "properties": {"magmom": 2.4130000000000003}, "label": "Fe", "xyz": [0.8796943175, 2.6390829525000004, 2.6390829525000004]}, {"species": [{"element": "Fe", "occu": 1}], "abc": [0.125, 0.125, 0.125], "properties": {"magmom": 2.4130000000000003}, "label": "Fe", "xyz": [0.8796943175, 0.8796943175, 0.8796943175]}]}, "task_ids": null, "uncorrected_energy_per_atom": null, "energy_per_atom": -8.031446761666666, "formation_energy_per_atom": -0.27394291999999804, "energy_above_hull": 0.0, "is_stable": true, "equilibrium_reaction_energy_per_atom": null, "decomposes_to": null, "xas": null, "grain_boundaries": null, "band_gap": 0.0, "cbm": null, "vbm": null, "efermi": 5.03813107, "is_gap_direct": null, "is_metal": null, "es_source_calc_id": null, "bandstructure": null, "dos": null, "dos_energy_up": null, "dos_energy_down": null, "is_magnetic": null, "ordering": null, "total_magnetization": 6.6347678, "total_magnetization_normalized_vol": null, "total_magnetization_normalized_formula_units": null, "num_magnetic_sites": null, "num_unique_magnetic_sites": null, "types_of_magnetic_species": null, "bulk_modulus": null, "shear_modulus": null, "universal_anisotropy": null, "homogeneous_poisson": null, "e_total": null, "e_ionic": null, "e_electronic": null, "n": null, "e_ij_max": null, "weighted_surface_energy_EV_PER_ANG2": null, "weighted_surface_energy": null, "weighted_work_function": null, "surface_anisotropy": null, "shape_factor": null, "has_reconstructed": null, "possible_species": null, "has_props": null, "theoretical": null, "database_IDs": null, "fields_not_requested": ["builder_meta", "nsites", "elements", "nelements", "composition", "composition_reduced", "chemsys", "symmetry", "property_name", "deprecated", "deprecation_reasons", "last_updated", "origins", "warnings", "task_ids", "uncorrected_energy_per_atom", "equilibrium_reaction_energy_per_atom", "decomposes_to", "xas", "grain_boundaries", "cbm", "vbm", "is_gap_direct", "is_metal", "es_source_calc_id", "bandstructure", "dos", "dos_energy_up", "dos_energy_down", "is_magnetic", "ordering", "total_magnetization_normalized_vol", "total_magnetization_normalized_formula_units", "num_magnetic_sites", "num_unique_magnetic_sites", "types_of_magnetic_species", "bulk_modulus", "shear_modulus", "universal_anisotropy", "homogeneous_poisson", "e_total", "e_ionic", "e_electronic", "n", "e_ij_max", "weighted_surface_energy_EV_PER_ANG2", "weighted_surface_energy", "weighted_work_function", "surface_anisotropy", "shape_factor", "has_reconstructed", "possible_species", "has_props", "theoretical", "database_IDs"]}