{
  "builder_meta": null,
  "nsites": null,
  "elements": null,
  "nelements": null,
  "composition": null,
  "composition_reduced": null,
  "formula_pretty": "ScFe3",
  "formula_anonymous": "AB3",
  "chemsys": null,
  "volume": 113.47042962251311,
  "density": 6.219231950514366,
  "density_atomic": 14.183803702814139,
  "symmetry": null,
  "property_name": null,
  "material_id": "mp-1186986",
  "deprecated": null,
  "deprecation_reasons": null,
  "last_updated": null,
  "origins": null,
  "warnings": null,
  "structure": {
    "@module": "pymatgen.core.structure",
    "@class": "Structure",
    "charge": 0,
    "lattice": {
      "matrix": [
        [2.743493, -4.75187, 0.0],
        [2.743493, 4.75187, 0.0],
        [0.0, 0.0, 4.351954]
      ],
      "pbc": [true, true, true],
      "a": 5.486986635481173,
      "b": 5.486986635481173,
      "c": 4.351954,
      "alpha": 90.0,
      "beta": 90.0,
      "gamma": 120.0000076623287,
      "volume": 113.47042962251311
    },
    "properties": {},
    "sites": [
      {
        "species": [{ "element": "Sc", "occu": 1 }],
        "abc": [0.333333, 0.666667, 0.75],
        "properties": { "magmom": -0.20400000000000001 },
        "label": "Sc",
        "xyz": [2.743493, 1.5839598345800001, 3.2639655000000003]
      },
      {
        "species": [{ "element": "Sc", "occu": 1 }],
        "abc": [0.666667, 0.333333, 0.25],
        "properties": { "magmom": -0.20400000000000001 },
        "label": "Sc",
        "xyz": [2.743493, -1.5839598345800001, 1.0879885]
      },
      {
        "species": [{ "element": "Fe", "occu": 1 }],
        "abc": [0.148273, 0.296546, 0.25],
        "properties": { "magmom": 2.35 },
        "label": "Fe",
        "xyz": [1.2203578127669998, 0.70457402051, 1.0879885]
      },
      {
        "species": [{ "element": "Fe", "occu": 1 }],
        "abc": [0.703453999999999, 0.851727, 0.25],
        "properties": { "magmom": 2.228 },
        "label": "Fe",
        "xyz": [4.266628187232998, 0.7045740205100048, 1.0879885]
      },
      {
        "species": [{ "element": "Fe", "occu": 1 }],
        "abc": [0.148273, 0.851727, 0.25],
        "properties": { "magmom": 2.406 },
        "label": "Fe",
        "xyz": [2.743493, 3.3427219589800004, 1.0879885]
      },
      {
        "species": [{ "element": "Fe", "occu": 1 }],
        "abc": [0.851727, 0.703453999999999, 0.75],
        "properties": { "magmom": 2.35 },
        "label": "Fe",
        "xyz": [4.266628187232998, -0.7045740205100048, 3.2639655000000003]
      },
      {
        "species": [{ "element": "Fe", "occu": 1 }],
        "abc": [0.296546, 0.148273, 0.75],
        "properties": { "magmom": 2.228 },
        "label": "Fe",
        "xyz": [1.2203578127669998, -0.70457402051, 3.2639655000000003]
      },
      {
        "species": [{ "element": "Fe", "occu": 1 }],
        "abc": [0.851727, 0.148273, 0.75],
        "properties": { "magmom": 2.406 },
        "label": "Fe",
        "xyz": [2.743493, -3.3427219589800004, 3.2639655000000003]
      }
    ]
  },
  "task_ids": null,
  "uncorrected_energy_per_atom": null,
  "energy_per_atom": -7.90685949875,
  "formation_energy_per_atom": 0.028773685000000004,
  "energy_above_hull": 0.234230874999999,
  "is_stable": false,
  "equilibrium_reaction_energy_per_atom": null,
  "decomposes_to": null,
  "xas": null,
  "grain_boundaries": null,
  "band_gap": 0.0,
  "cbm": null,
  "vbm": null,
  "efermi": 4.98672805,
  "is_gap_direct": null,
  "is_metal": null,
  "es_source_calc_id": null,
  "bandstructure": null,
  "dos": null,
  "dos_energy_up": null,
  "dos_energy_down": null,
  "is_magnetic": null,
  "ordering": null,
  "total_magnetization": 13.4651347,
  "total_magnetization_normalized_vol": null,
  "total_magnetization_normalized_formula_units": null,
  "num_magnetic_sites": null,
  "num_unique_magnetic_sites": null,
  "types_of_magnetic_species": null,
  "bulk_modulus": null,
  "shear_modulus": null,
  "universal_anisotropy": null,
  "homogeneous_poisson": null,
  "e_total": null,
  "e_ionic": null,
  "e_electronic": null,
  "n": null,
  "e_ij_max": null,
  "weighted_surface_energy_EV_PER_ANG2": null,
  "weighted_surface_energy": null,
  "weighted_work_function": null,
  "surface_anisotropy": null,
  "shape_factor": null,
  "has_reconstructed": null,
  "possible_species": null,
  "has_props": null,
  "theoretical": null,
  "database_IDs": null,
  "fields_not_requested": [
    "builder_meta",
    "nsites",
    "elements",
    "nelements",
    "composition",
    "composition_reduced",
    "chemsys",
    "symmetry",
    "property_name",
    "deprecated",
    "deprecation_reasons",
    "last_updated",
    "origins",
    "warnings",
    "task_ids",
    "uncorrected_energy_per_atom",
    "equilibrium_reaction_energy_per_atom",
    "decomposes_to",
    "xas",
    "grain_boundaries",
    "cbm",
    "vbm",
    "is_gap_direct",
    "is_metal",
    "es_source_calc_id",
    "bandstructure",
    "dos",
    "dos_energy_up",
    "dos_energy_down",
    "is_magnetic",
    "ordering",
    "total_magnetization_normalized_vol",
    "total_magnetization_normalized_formula_units",
    "num_magnetic_sites",
    "num_unique_magnetic_sites",
    "types_of_magnetic_species",
    "bulk_modulus",
    "shear_modulus",
    "universal_anisotropy",
    "homogeneous_poisson",
    "e_total",
    "e_ionic",
    "e_electronic",
    "n",
    "e_ij_max",
    "weighted_surface_energy_EV_PER_ANG2",
    "weighted_surface_energy",
    "weighted_work_function",
    "surface_anisotropy",
    "shape_factor",
    "has_reconstructed",
    "possible_species",
    "has_props",
    "theoretical",
    "database_IDs"
  ]
}
