{"builder_meta": null, "nsites": null, "elements": null, "nelements": null, "composition": null, "composition_reduced": null, "formula_pretty": "ScGa2", "formula_anonymous": "AB2", "chemsys": null, "volume": 105.10091344476464, "density": 5.826906138026305, "density_atomic": 17.516818907460774, "symmetry": null, "property_name": null, "material_id": "mp-11412", "deprecated": null, "deprecation_reasons": null, "last_updated": null, "origins": null, "warnings": null, "structure": {"@module": "pymatgen.core.structure", "@class": "Structure", "charge": 0, "lattice": {"matrix": [[3.96332568, 1e-08, 1.59087982], [1.70684067, 4.9234889200000005, 1.4800981], [0.12795522, -0.14809674, 5.41354076]], "pbc": [true, true, true], "a": 4.270696552956051, "b": 5.417078419568285, "c": 5.417077509405349, "alpha": 75.18822560545061, "beta": 66.78465301355514, "gamma": 66.78464973305447, "volume": 105.10091344476467}, "properties": {}, "sites": [{"species": [{"element": "Sc", "occu": 1}], "abc": [0.51532128, 0.73467872, 0.23467872], "properties": {"magmom": 0.0}, "label": "Sc", "xyz": [3.326393948400931, 3.5824273894536227, 3.177653618975629]}, {"species": [{"element": "Sc", "occu": 1}], "abc": [0.48467872, 0.26532128, 0.76532128], "properties": {"magmom": 0.0}, "label": "Sc", "xyz": [2.471727621599069, 1.1929648005463778, 5.3068650610243715]}, {"species": [{"element": "Ga", "occu": 1}], "abc": [0.16584276, 0.31899645, 0.34931703000000003], "properties": {"magmom": -0.0}, "label": "Ga", "xyz": [1.2464619214190948, 1.5188427753832794, 2.6270239197959913]}, {"species": [{"element": "Ga", "occu": 1}], "abc": [0.83415724, 0.68100355, 0.65068297], "properties": {"magmom": -0.0}, "label": "Ga", "xyz": [4.551659648580905, 3.256549414616721, 5.857494760204009]}, {"species": [{"element": "Ga", "occu": 1}], "abc": [0.16584276, 0.84931703, 0.81899645], "properties": {"magmom": -0.0}, "label": "Ga", "xyz": [2.211732589016656, 4.060312284114162, 5.954579086948048]}, {"species": [{"element": "Ga", "occu": 1}], "abc": [0.83415724, 0.15068297, 0.18100355], "properties": {"magmom": -0.0}, "label": "Ga", "xyz": [3.5863889809833442, 0.7150799058858379, 2.529939593051952]}]}, "task_ids": null, "uncorrected_energy_per_atom": null, "energy_per_atom": -12.037669985, "formation_energy_per_atom": -0.609656900000002, "energy_above_hull": 0.0, "is_stable": true, "equilibrium_reaction_energy_per_atom": null, "decomposes_to": null, "xas": null, "grain_boundaries": null, "band_gap": 0.0, "cbm": null, "vbm": null, "efermi": 4.54431604, "is_gap_direct": null, "is_metal": null, "es_source_calc_id": null, "bandstructure": null, "dos": null, "dos_energy_up": null, "dos_energy_down": null, "is_magnetic": null, "ordering": null, "total_magnetization": 0.0, "total_magnetization_normalized_vol": null, "total_magnetization_normalized_formula_units": null, "num_magnetic_sites": null, "num_unique_magnetic_sites": null, "types_of_magnetic_species": null, "bulk_modulus": null, "shear_modulus": null, "universal_anisotropy": null, "homogeneous_poisson": null, "e_total": null, "e_ionic": null, "e_electronic": null, "n": null, "e_ij_max": null, "weighted_surface_energy_EV_PER_ANG2": null, "weighted_surface_energy": null, "weighted_work_function": null, "surface_anisotropy": null, "shape_factor": null, "has_reconstructed": null, "possible_species": null, "has_props": null, "theoretical": null, "database_IDs": null, "fields_not_requested": ["builder_meta", "nsites", "elements", "nelements", "composition", "composition_reduced", "chemsys", "symmetry", "property_name", "deprecated", "deprecation_reasons", "last_updated", "origins", "warnings", "task_ids", "uncorrected_energy_per_atom", "equilibrium_reaction_energy_per_atom", "decomposes_to", "xas", "grain_boundaries", "cbm", "vbm", "is_gap_direct", "is_metal", "es_source_calc_id", "bandstructure", "dos", "dos_energy_up", "dos_energy_down", "is_magnetic", "ordering", "total_magnetization_normalized_vol", "total_magnetization_normalized_formula_units", "num_magnetic_sites", "num_unique_magnetic_sites", "types_of_magnetic_species", "bulk_modulus", "shear_modulus", "universal_anisotropy", "homogeneous_poisson", "e_total", "e_ionic", "e_electronic", "n", "e_ij_max", "weighted_surface_energy_EV_PER_ANG2", "weighted_surface_energy", "weighted_work_function", "surface_anisotropy", "shape_factor", "has_reconstructed", "possible_species", "has_props", "theoretical", "database_IDs"]}