{
  "builder_meta": null,
  "nsites": null,
  "elements": null,
  "nelements": null,
  "composition": null,
  "composition_reduced": null,
  "formula_pretty": "ScGa",
  "formula_anonymous": "AB",
  "chemsys": null,
  "volume": 79.860804794319,
  "density": 4.769018143046059,
  "density_atomic": 19.96520119857975,
  "symmetry": null,
  "property_name": null,
  "material_id": "mp-11411",
  "deprecated": null,
  "deprecation_reasons": null,
  "last_updated": null,
  "origins": null,
  "warnings": null,
  "structure": {
    "@module": "pymatgen.core.structure",
    "@class": "Structure",
    "charge": 0,
    "lattice": {
      "matrix": [
        [3.8578580000000002, -0.0, -0.0],
        [0.0, 3.78289915, -1.49021423],
        [-1e-6, -0.02379436, 5.48158248]
      ],
      "pbc": [true, true, true],
      "a": 3.8578580000000002,
      "b": 4.0658411713156255,
      "c": 5.481634122833424,
      "alpha": 111.74989522793182,
      "beta": 90.00001045231735,
      "gamma": 90.0,
      "volume": 79.860804794319
    },
    "properties": {},
    "sites": [
      {
        "species": [{ "element": "Sc", "occu": 1 }],
        "abc": [0.25, 0.86261157, 0.72504935],
        "properties": { "magmom": 0.0 },
        "label": "Sc",
        "xyz": [0.96446377495065, 3.2459204896814993, 2.688941777518747]
      },
      {
        "species": [{ "element": "Sc", "occu": 1 }],
        "abc": [0.75, 0.13738843, 0.27495065],
        "properties": { "magmom": 0.0 },
        "label": "Sc",
        "xyz": [2.8933932250493504, 0.5131843003185005, 1.302426472481253]
      },
      {
        "species": [{ "element": "Ga", "occu": 1 }],
        "abc": [0.25, 0.58028201, 0.16177625],
        "properties": { "magmom": -0.0 },
        "label": "Ga",
        "xyz": [0.9644643382237501, 2.1912989600573414, 0.02204534896509769]
      },
      {
        "species": [{ "element": "Ga", "occu": 1 }],
        "abc": [0.75, 0.41971799, 0.83822375],
        "properties": { "magmom": -0.0 },
        "label": "Ga",
        "xyz": [2.89339266177625, 1.5678058299426585, 3.9693229010349027]
      }
    ]
  },
  "task_ids": null,
  "uncorrected_energy_per_atom": null,
  "energy_per_atom": -12.0980915925,
  "formation_energy_per_atom": -0.6774599400000001,
  "energy_above_hull": 0.0,
  "is_stable": true,
  "equilibrium_reaction_energy_per_atom": null,
  "decomposes_to": null,
  "xas": null,
  "grain_boundaries": null,
  "band_gap": 0.0,
  "cbm": null,
  "vbm": null,
  "efermi": 3.69856263,
  "is_gap_direct": null,
  "is_metal": null,
  "es_source_calc_id": null,
  "bandstructure": null,
  "dos": null,
  "dos_energy_up": null,
  "dos_energy_down": null,
  "is_magnetic": null,
  "ordering": null,
  "total_magnetization": 0.00041109999999900006,
  "total_magnetization_normalized_vol": null,
  "total_magnetization_normalized_formula_units": null,
  "num_magnetic_sites": null,
  "num_unique_magnetic_sites": null,
  "types_of_magnetic_species": null,
  "bulk_modulus": null,
  "shear_modulus": null,
  "universal_anisotropy": null,
  "homogeneous_poisson": null,
  "e_total": null,
  "e_ionic": null,
  "e_electronic": null,
  "n": null,
  "e_ij_max": null,
  "weighted_surface_energy_EV_PER_ANG2": null,
  "weighted_surface_energy": null,
  "weighted_work_function": null,
  "surface_anisotropy": null,
  "shape_factor": null,
  "has_reconstructed": null,
  "possible_species": null,
  "has_props": null,
  "theoretical": null,
  "database_IDs": null,
  "fields_not_requested": [
    "builder_meta",
    "nsites",
    "elements",
    "nelements",
    "composition",
    "composition_reduced",
    "chemsys",
    "symmetry",
    "property_name",
    "deprecated",
    "deprecation_reasons",
    "last_updated",
    "origins",
    "warnings",
    "task_ids",
    "uncorrected_energy_per_atom",
    "equilibrium_reaction_energy_per_atom",
    "decomposes_to",
    "xas",
    "grain_boundaries",
    "cbm",
    "vbm",
    "is_gap_direct",
    "is_metal",
    "es_source_calc_id",
    "bandstructure",
    "dos",
    "dos_energy_up",
    "dos_energy_down",
    "is_magnetic",
    "ordering",
    "total_magnetization_normalized_vol",
    "total_magnetization_normalized_formula_units",
    "num_magnetic_sites",
    "num_unique_magnetic_sites",
    "types_of_magnetic_species",
    "bulk_modulus",
    "shear_modulus",
    "universal_anisotropy",
    "homogeneous_poisson",
    "e_total",
    "e_ionic",
    "e_electronic",
    "n",
    "e_ij_max",
    "weighted_surface_energy_EV_PER_ANG2",
    "weighted_surface_energy",
    "weighted_work_function",
    "surface_anisotropy",
    "shape_factor",
    "has_reconstructed",
    "possible_species",
    "has_props",
    "theoretical",
    "database_IDs"
  ]
}
