{"builder_meta": null, "nsites": null, "elements": null, "nelements": null, "composition": null, "composition_reduced": null, "formula_pretty": "ScGe2", "formula_anonymous": "AB2", "chemsys": null, "volume": 110.38740172714243, "density": 5.723373479287294, "density_atomic": 18.397900287857073, "symmetry": null, "property_name": null, "material_id": "mp-10212", "deprecated": null, "deprecation_reasons": null, "last_updated": null, "origins": null, "warnings": null, "structure": {"@module": "pymatgen.core.structure", "@class": "Structure", "charge": 0, "lattice": {"matrix": [[3.79181724, 0.0, -0.0], [0.0, 3.7324416, -0.97570901], [-0.0, 0.04230657, 7.78866196]], "pbc": [true, true, true], "a": 3.79181724, "b": 3.8578657791071143, "c": 7.788776859880902, "alpha": 104.33880935926034, "beta": 90.0, "gamma": 90.0, "volume": 110.38740172714243}, "properties": {}, "sites": [{"species": [{"element": "Sc", "occu": 1}], "abc": [0.75, 0.10314831, 0.20629461000000002], "properties": {"magmom": -0.0}, "label": "Sc", "xyz": [2.84386293, 0.3937226605722837, 1.5061162460267625]}, {"species": [{"element": "Sc", "occu": 1}], "abc": [0.25, 0.89685169, 0.7937053900000001], "properties": {"magmom": -0.0}, "label": "Sc", "xyz": [0.94795431, 3.381025509427716, 5.306836703973238]}, {"species": [{"element": "Ge", "occu": 1}], "abc": [0.75, 0.44456403, 0.88912806], "properties": {"magmom": -0.0}, "label": "Ge", "xyz": [2.84386293, 1.6969252379450024, 6.491352768897688]}, {"species": [{"element": "Ge", "occu": 1}], "abc": [0.25, 0.55543597, 0.11087194], "properties": {"magmom": -0.0}, "label": "Ge", "xyz": [0.94795431, 2.077822932054998, 0.3216001811023127]}, {"species": [{"element": "Ge", "occu": 1}], "abc": [0.75, 0.74787779, 0.49575758000000003], "properties": {"magmom": 0.0}, "label": "Ge", "xyz": [2.84386293, 2.8123839778733646, 3.131577106645769]}, {"species": [{"element": "Ge", "occu": 1}], "abc": [0.25, 0.25212221, 0.50424242], "properties": {"magmom": 0.0}, "label": "Ge", "xyz": [0.94795431, 0.9623641921266354, 3.6813758433542305]}]}, "task_ids": null, "uncorrected_energy_per_atom": null, "energy_per_atom": -13.618639584999999, "formation_energy_per_atom": -0.571158746666666, "energy_above_hull": 0.019243668333334, "is_stable": false, "equilibrium_reaction_energy_per_atom": null, "decomposes_to": null, "xas": null, "grain_boundaries": null, "band_gap": 0.0, "cbm": null, "vbm": null, "efermi": 6.24546845, "is_gap_direct": null, "is_metal": null, "es_source_calc_id": null, "bandstructure": null, "dos": null, "dos_energy_up": null, "dos_energy_down": null, "is_magnetic": null, "ordering": null, "total_magnetization": 0.0, "total_magnetization_normalized_vol": null, "total_magnetization_normalized_formula_units": null, "num_magnetic_sites": null, "num_unique_magnetic_sites": null, "types_of_magnetic_species": null, "bulk_modulus": null, "shear_modulus": null, "universal_anisotropy": null, "homogeneous_poisson": null, "e_total": null, "e_ionic": null, "e_electronic": null, "n": null, "e_ij_max": null, "weighted_surface_energy_EV_PER_ANG2": null, "weighted_surface_energy": null, "weighted_work_function": null, "surface_anisotropy": null, "shape_factor": null, "has_reconstructed": null, "possible_species": null, "has_props": null, "theoretical": null, "database_IDs": null, "fields_not_requested": ["builder_meta", "nsites", "elements", "nelements", "composition", "composition_reduced", "chemsys", "symmetry", "property_name", "deprecated", "deprecation_reasons", "last_updated", "origins", "warnings", "task_ids", "uncorrected_energy_per_atom", "equilibrium_reaction_energy_per_atom", "decomposes_to", "xas", "grain_boundaries", "cbm", "vbm", "is_gap_direct", "is_metal", "es_source_calc_id", "bandstructure", "dos", "dos_energy_up", "dos_energy_down", "is_magnetic", "ordering", "total_magnetization_normalized_vol", "total_magnetization_normalized_formula_units", "num_magnetic_sites", "num_unique_magnetic_sites", "types_of_magnetic_species", "bulk_modulus", "shear_modulus", "universal_anisotropy", "homogeneous_poisson", "e_total", "e_ionic", "e_electronic", "n", "e_ij_max", "weighted_surface_energy_EV_PER_ANG2", "weighted_surface_energy", "weighted_work_function", "surface_anisotropy", "shape_factor", "has_reconstructed", "possible_species", "has_props", "theoretical", "database_IDs"]}