{
  "builder_meta": null,
  "nsites": null,
  "elements": null,
  "nelements": null,
  "composition": null,
  "composition_reduced": null,
  "formula_pretty": "ScH3",
  "formula_anonymous": "AB3",
  "chemsys": null,
  "volume": 26.961992537406505,
  "density": 2.954982621572295,
  "density_atomic": 6.740498134351626,
  "symmetry": null,
  "property_name": null,
  "material_id": "mp-973053",
  "deprecated": null,
  "deprecation_reasons": null,
  "last_updated": null,
  "origins": null,
  "warnings": null,
  "structure": {
    "@module": "pymatgen.core.structure",
    "@class": "Structure",
    "charge": 0,
    "lattice": {
      "matrix": [
        [-1.66077598, 1.66077598, 2.44382376],
        [1.66077598, -1.66077598, 2.44382376],
        [1.66077598, 1.66077598, -2.44382376]
      ],
      "pbc": [true, true, true],
      "a": 3.3894879084354996,
      "b": 3.3894879084354996,
      "c": 3.3894879084354996,
      "alpha": 121.32167167172958,
      "beta": 121.32167167172958,
      "gamma": 87.72564646365812,
      "volume": 26.961992537406505
    },
    "properties": {},
    "sites": [
      {
        "species": [{ "element": "Sc", "occu": 1 }],
        "abc": [0.0, -0.0, 0.0],
        "properties": { "magmom": -0.0 },
        "label": "Sc",
        "xyz": [0.0, 0.0, 0.0]
      },
      {
        "species": [{ "element": "H", "occu": 1 }],
        "abc": [0.750000999999999, 0.250001, 0.5],
        "properties": { "magmom": 0.0 },
        "label": "H",
        "xyz": [1.5543122344752192e-15, 1.6607759799999984, 1.2219167676475173]
      },
      {
        "species": [{ "element": "H", "occu": 1 }],
        "abc": [0.250001, 0.750000999999999, 0.5],
        "properties": { "magmom": 0.0 },
        "label": "H",
        "xyz": [1.6607759799999984, 1.5543122344752192e-15, 1.2219167676475173]
      },
      {
        "species": [{ "element": "H", "occu": 1 }],
        "abc": [0.499998999999999, 0.499998999999999, -0.0],
        "properties": { "magmom": 0.0 },
        "label": "H",
        "xyz": [0.0, 0.0, 2.443818872352475]
      }
    ]
  },
  "task_ids": null,
  "uncorrected_energy_per_atom": null,
  "energy_per_atom": -5.9194629225,
  "formation_energy_per_atom": -0.47850678281249903,
  "energy_above_hull": 0.07506386281249901,
  "is_stable": false,
  "equilibrium_reaction_energy_per_atom": null,
  "decomposes_to": null,
  "xas": null,
  "grain_boundaries": null,
  "band_gap": 0.0,
  "cbm": null,
  "vbm": null,
  "efermi": 5.43418901,
  "is_gap_direct": null,
  "is_metal": null,
  "es_source_calc_id": null,
  "bandstructure": null,
  "dos": null,
  "dos_energy_up": null,
  "dos_energy_down": null,
  "is_magnetic": null,
  "ordering": null,
  "total_magnetization": 0.0,
  "total_magnetization_normalized_vol": null,
  "total_magnetization_normalized_formula_units": null,
  "num_magnetic_sites": null,
  "num_unique_magnetic_sites": null,
  "types_of_magnetic_species": null,
  "bulk_modulus": null,
  "shear_modulus": null,
  "universal_anisotropy": null,
  "homogeneous_poisson": null,
  "e_total": null,
  "e_ionic": null,
  "e_electronic": null,
  "n": null,
  "e_ij_max": null,
  "weighted_surface_energy_EV_PER_ANG2": null,
  "weighted_surface_energy": null,
  "weighted_work_function": null,
  "surface_anisotropy": null,
  "shape_factor": null,
  "has_reconstructed": null,
  "possible_species": null,
  "has_props": null,
  "theoretical": null,
  "database_IDs": null,
  "fields_not_requested": [
    "builder_meta",
    "nsites",
    "elements",
    "nelements",
    "composition",
    "composition_reduced",
    "chemsys",
    "symmetry",
    "property_name",
    "deprecated",
    "deprecation_reasons",
    "last_updated",
    "origins",
    "warnings",
    "task_ids",
    "uncorrected_energy_per_atom",
    "equilibrium_reaction_energy_per_atom",
    "decomposes_to",
    "xas",
    "grain_boundaries",
    "cbm",
    "vbm",
    "is_gap_direct",
    "is_metal",
    "es_source_calc_id",
    "bandstructure",
    "dos",
    "dos_energy_up",
    "dos_energy_down",
    "is_magnetic",
    "ordering",
    "total_magnetization_normalized_vol",
    "total_magnetization_normalized_formula_units",
    "num_magnetic_sites",
    "num_unique_magnetic_sites",
    "types_of_magnetic_species",
    "bulk_modulus",
    "shear_modulus",
    "universal_anisotropy",
    "homogeneous_poisson",
    "e_total",
    "e_ionic",
    "e_electronic",
    "n",
    "e_ij_max",
    "weighted_surface_energy_EV_PER_ANG2",
    "weighted_surface_energy",
    "weighted_work_function",
    "surface_anisotropy",
    "shape_factor",
    "has_reconstructed",
    "possible_species",
    "has_props",
    "theoretical",
    "database_IDs"
  ]
}
