{
  "builder_meta": null,
  "nsites": null,
  "elements": null,
  "nelements": null,
  "composition": null,
  "composition_reduced": null,
  "formula_pretty": "ScHg3",
  "formula_anonymous": "AB3",
  "chemsys": null,
  "volume": 173.09914560592654,
  "density": 12.408075597361528,
  "density_atomic": 21.637393200740817,
  "symmetry": null,
  "property_name": null,
  "material_id": "mp-30722",
  "deprecated": null,
  "deprecation_reasons": null,
  "last_updated": null,
  "origins": null,
  "warnings": null,
  "structure": {
    "@module": "pymatgen.core.structure",
    "@class": "Structure",
    "charge": 0,
    "lattice": {
      "matrix": [
        [6.4297891, 1e-8, 0.0],
        [-3.21489404, 5.56836015, -0.0],
        [0.0, 0.0, 4.83471501]
      ],
      "pbc": [true, true, true],
      "a": 6.4297891,
      "b": 6.4297883673209295,
      "c": 4.83471501,
      "alpha": 90.0,
      "beta": 90.0,
      "gamma": 119.99999843269221,
      "volume": 173.09914560592654
    },
    "properties": {},
    "sites": [
      {
        "species": [{ "element": "Sc", "occu": 1 }],
        "abc": [0.666667, 0.333333, 0.75],
        "properties": { "magmom": -0.0 },
        "label": "Sc",
        "xyz": [3.2148979348943802, 1.8561182005466201, 3.6260362575]
      },
      {
        "species": [{ "element": "Sc", "occu": 1 }],
        "abc": [0.333333, 0.666667, 0.25],
        "properties": { "magmom": -0.0 },
        "label": "Sc",
        "xyz": [-2.8748943798895255e-6, 3.7122419594533804, 1.2086787525]
      },
      {
        "species": [{ "element": "Hg", "occu": 1 }],
        "abc": [0.66140179, 0.830701399999999, 0.75],
        "properties": { "magmom": -0.0 },
        "label": "Hg",
        "xyz": [1.5820570401828356, 4.625644578923223, 3.6260362575]
      },
      {
        "species": [{ "element": "Hg", "occu": 1 }],
        "abc": [0.33859821, 0.1692986, 0.25],
        "properties": { "magmom": -0.0 },
        "label": "Hg",
        "xyz": [1.632838019817167, 0.942715581076772, 1.2086787525]
      },
      {
        "species": [{ "element": "Hg", "occu": 1 }],
        "abc": [0.830701399999999, 0.1692986, 0.25],
        "properties": { "magmom": -0.0 },
        "label": "Hg",
        "xyz": [4.796957746954389, 0.9427155859978039, 1.2086787525]
      },
      {
        "species": [{ "element": "Hg", "occu": 1 }],
        "abc": [0.1692986, 0.33859821, 0.75],
        "properties": { "magmom": -0.0 },
        "label": "Hg",
        "xyz": [-3.0743584085168862e-6, 1.8854367811183177, 3.6260362575]
      },
      {
        "species": [{ "element": "Hg", "occu": 1 }],
        "abc": [0.1692986, 0.830701399999999, 0.75],
        "properties": { "magmom": -0.0 },
        "label": "Hg",
        "xyz": [-1.582062686954393, 4.625644574002191, 3.6260362575]
      },
      {
        "species": [{ "element": "Hg", "occu": 1 }],
        "abc": [0.830701399999999, 0.66140179, 0.25],
        "properties": { "magmom": -0.0 },
        "label": "Hg",
        "xyz": [3.214898134358402, 3.6829233788816826, 1.2086787525]
      }
    ]
  },
  "task_ids": null,
  "uncorrected_energy_per_atom": null,
  "energy_per_atom": -40.13305882875,
  "formation_energy_per_atom": -0.25758209812500604,
  "energy_above_hull": 0.0,
  "is_stable": true,
  "equilibrium_reaction_energy_per_atom": null,
  "decomposes_to": null,
  "xas": null,
  "grain_boundaries": null,
  "band_gap": 0.0,
  "cbm": null,
  "vbm": null,
  "efermi": 3.80067075,
  "is_gap_direct": null,
  "is_metal": null,
  "es_source_calc_id": null,
  "bandstructure": null,
  "dos": null,
  "dos_energy_up": null,
  "dos_energy_down": null,
  "is_magnetic": null,
  "ordering": null,
  "total_magnetization": 2.2e-6,
  "total_magnetization_normalized_vol": null,
  "total_magnetization_normalized_formula_units": null,
  "num_magnetic_sites": null,
  "num_unique_magnetic_sites": null,
  "types_of_magnetic_species": null,
  "bulk_modulus": null,
  "shear_modulus": null,
  "universal_anisotropy": null,
  "homogeneous_poisson": null,
  "e_total": null,
  "e_ionic": null,
  "e_electronic": null,
  "n": null,
  "e_ij_max": null,
  "weighted_surface_energy_EV_PER_ANG2": null,
  "weighted_surface_energy": null,
  "weighted_work_function": null,
  "surface_anisotropy": null,
  "shape_factor": null,
  "has_reconstructed": null,
  "possible_species": null,
  "has_props": null,
  "theoretical": null,
  "database_IDs": null,
  "fields_not_requested": [
    "builder_meta",
    "nsites",
    "elements",
    "nelements",
    "composition",
    "composition_reduced",
    "chemsys",
    "symmetry",
    "property_name",
    "deprecated",
    "deprecation_reasons",
    "last_updated",
    "origins",
    "warnings",
    "task_ids",
    "uncorrected_energy_per_atom",
    "equilibrium_reaction_energy_per_atom",
    "decomposes_to",
    "xas",
    "grain_boundaries",
    "cbm",
    "vbm",
    "is_gap_direct",
    "is_metal",
    "es_source_calc_id",
    "bandstructure",
    "dos",
    "dos_energy_up",
    "dos_energy_down",
    "is_magnetic",
    "ordering",
    "total_magnetization_normalized_vol",
    "total_magnetization_normalized_formula_units",
    "num_magnetic_sites",
    "num_unique_magnetic_sites",
    "types_of_magnetic_species",
    "bulk_modulus",
    "shear_modulus",
    "universal_anisotropy",
    "homogeneous_poisson",
    "e_total",
    "e_ionic",
    "e_electronic",
    "n",
    "e_ij_max",
    "weighted_surface_energy_EV_PER_ANG2",
    "weighted_surface_energy",
    "weighted_work_function",
    "surface_anisotropy",
    "shape_factor",
    "has_reconstructed",
    "possible_species",
    "has_props",
    "theoretical",
    "database_IDs"
  ]
}
