{"builder_meta": null, "nsites": null, "elements": null, "nelements": null, "composition": null, "composition_reduced": null, "formula_pretty": "ScI2", "formula_anonymous": "AB2", "chemsys": null, "volume": 215.2566484672, "density": 4.609480933626658, "density_atomic": 35.87610807786667, "symmetry": null, "property_name": null, "material_id": "mp-862329", "deprecated": null, "deprecation_reasons": null, "last_updated": null, "origins": null, "warnings": null, "structure": {"@module": "pymatgen.core.structure", "@class": "Structure", "charge": 0, "lattice": {"matrix": [[7.24, 0.0, 0.0], [0.0, 7.24, 0.0], [0.0, 0.0, 4.106572]], "pbc": [true, true, true], "a": 7.24, "b": 7.24, "c": 4.106572, "alpha": 90.0, "beta": 90.0, "gamma": 90.0, "volume": 215.2566484672}, "properties": {}, "sites": [{"species": [{"element": "Sc", "occu": 1}], "abc": [0.0, 0.0, 0.0], "properties": {"magmom": -0.6990000000000001}, "label": "Sc", "xyz": [0.0, 0.0, 0.0]}, {"species": [{"element": "Sc", "occu": 1}], "abc": [0.5, 0.5, 0.5], "properties": {"magmom": -0.669}, "label": "Sc", "xyz": [3.62, 3.62, 2.053286]}, {"species": [{"element": "I", "occu": 1}], "abc": [0.293265999999999, 0.293265999999999, 0.0], "properties": {"magmom": 0.011}, "label": "I", "xyz": [2.123245839999993, 2.123245839999993, 0.0]}, {"species": [{"element": "I", "occu": 1}], "abc": [0.706734, 0.706734, 0.0], "properties": {"magmom": 0.011}, "label": "I", "xyz": [5.11675416, 5.11675416, 0.0]}, {"species": [{"element": "I", "occu": 1}], "abc": [0.206734, 0.793265999999999, 0.5], "properties": {"magmom": 0.007}, "label": "I", "xyz": [1.49675416, 5.743245839999993, 2.053286]}, {"species": [{"element": "I", "occu": 1}], "abc": [0.793265999999999, 0.206734, 0.5], "properties": {"magmom": 0.007}, "label": "I", "xyz": [5.743245839999993, 1.49675416, 2.053286]}]}, "task_ids": null, "uncorrected_energy_per_atom": null, "energy_per_atom": -4.388543976666667, "formation_energy_per_atom": -1.261712531666666, "energy_above_hull": 0.11583555219999901, "is_stable": false, "equilibrium_reaction_energy_per_atom": null, "decomposes_to": null, "xas": null, "grain_boundaries": null, "band_gap": 0.0, "cbm": null, "vbm": null, "efermi": 4.98869849, "is_gap_direct": null, "is_metal": null, "es_source_calc_id": null, "bandstructure": null, "dos": null, "dos_energy_up": null, "dos_energy_down": null, "is_magnetic": null, "ordering": null, "total_magnetization": 1.9711637, "total_magnetization_normalized_vol": null, "total_magnetization_normalized_formula_units": null, "num_magnetic_sites": null, "num_unique_magnetic_sites": null, "types_of_magnetic_species": null, "bulk_modulus": null, "shear_modulus": null, "universal_anisotropy": null, "homogeneous_poisson": null, "e_total": null, "e_ionic": null, "e_electronic": null, "n": null, "e_ij_max": null, "weighted_surface_energy_EV_PER_ANG2": null, "weighted_surface_energy": null, "weighted_work_function": null, "surface_anisotropy": null, "shape_factor": null, "has_reconstructed": null, "possible_species": null, "has_props": null, "theoretical": null, "database_IDs": null, "fields_not_requested": ["builder_meta", "nsites", "elements", "nelements", "composition", "composition_reduced", "chemsys", "symmetry", "property_name", "deprecated", "deprecation_reasons", "last_updated", "origins", "warnings", "task_ids", "uncorrected_energy_per_atom", "equilibrium_reaction_energy_per_atom", "decomposes_to", "xas", "grain_boundaries", "cbm", "vbm", "is_gap_direct", "is_metal", "es_source_calc_id", "bandstructure", "dos", "dos_energy_up", "dos_energy_down", "is_magnetic", "ordering", "total_magnetization_normalized_vol", "total_magnetization_normalized_formula_units", "num_magnetic_sites", "num_unique_magnetic_sites", "types_of_magnetic_species", "bulk_modulus", "shear_modulus", "universal_anisotropy", "homogeneous_poisson", "e_total", "e_ionic", "e_electronic", "n", "e_ij_max", "weighted_surface_energy_EV_PER_ANG2", "weighted_surface_energy", "weighted_work_function", "surface_anisotropy", "shape_factor", "has_reconstructed", "possible_species", "has_props", "theoretical", "database_IDs"]}