{
  "builder_meta": null,
  "nsites": null,
  "elements": null,
  "nelements": null,
  "composition": null,
  "composition_reduced": null,
  "formula_pretty": "ScI3",
  "formula_anonymous": "AB3",
  "chemsys": null,
  "volume": 386.05404598578195,
  "density": 3.661873491465322,
  "density_atomic": 48.256755748222744,
  "symmetry": null,
  "property_name": null,
  "material_id": "mp-1186991",
  "deprecated": null,
  "deprecation_reasons": null,
  "last_updated": null,
  "origins": null,
  "warnings": null,
  "structure": {
    "@module": "pymatgen.core.structure",
    "@class": "Structure",
    "charge": 0,
    "lattice": {
      "matrix": [
        [10.81192604, -0.0, 0.0],
        [-5.40596302, 9.36340171, 0.0],
        [-0.0, 0.0, 3.8133914300000002]
      ],
      "pbc": [true, true, true],
      "a": 10.81192604,
      "b": 10.811925256698663,
      "c": 3.8133914300000002,
      "alpha": 90.0,
      "beta": 90.0,
      "gamma": 120.00000239655746,
      "volume": 386.054045985782
    },
    "properties": {},
    "sites": [
      {
        "species": [{ "element": "Sc", "occu": 1 }],
        "abc": [0.333333999999999, 0.666667, 0.749999],
        "properties": { "magmom": -0.0 },
        "label": "Sc",
        "xyz": [5.405963009241788e-6, 6.24227092780057, 2.8600397591085702]
      },
      {
        "species": [{ "element": "Sc", "occu": 1 }],
        "abc": [0.666666, 0.333331999999999, 0.25],
        "properties": { "magmom": -0.0 },
        "label": "Sc",
        "xyz": [5.405963020000005, 3.1211214187977108, 0.9533478575000001]
      },
      {
        "species": [{ "element": "I", "occu": 1 }],
        "abc": [0.21510501, 0.43021102, 0.25],
        "properties": { "magmom": -0.0 },
        "label": "I",
        "xyz": [-5.405963019899929e-6, 4.028238600328844, 0.9533478575000001]
      },
      {
        "species": [{ "element": "I", "occu": 1 }],
        "abc": [0.56978798, 0.7848949900000001, 0.25],
        "properties": { "magmom": -0.0 },
        "label": "I",
        "xyz": [1.9173922077177288, 7.349287091536433, 0.9533478575000001]
      },
      {
        "species": [{ "element": "I", "occu": 1 }],
        "abc": [0.21510601000000001, 0.7848949900000001, 0.25],
        "properties": { "magmom": -0.0 },
        "label": "I",
        "xyz": [-1.917403019643769, 7.349287091536433, 0.9533478575000001]
      },
      {
        "species": [{ "element": "I", "occu": 1 }],
        "abc": [0.78489399, 0.56978798, 0.749999],
        "properties": { "magmom": -0.0 },
        "label": "I",
        "xyz": [5.4059630200000015, 5.335153746269445, 2.8600397591085702]
      },
      {
        "species": [{ "element": "I", "occu": 1 }],
        "abc": [0.43021302, 0.21510701000000002, 0.749999],
        "properties": { "magmom": -0.0 },
        "label": "I",
        "xyz": [3.488570812282271, 2.014133345266987, 2.8600397591085702]
      },
      {
        "species": [{ "element": "I", "occu": 1 }],
        "abc": [0.78489399, 0.21510701000000002, 0.749999],
        "properties": { "magmom": -0.0 },
        "label": "I",
        "xyz": [7.32335522771773, 2.014133345266987, 2.8600397591085702]
      }
    ]
  },
  "task_ids": null,
  "uncorrected_energy_per_atom": null,
  "energy_per_atom": -4.199572586249999,
  "formation_energy_per_atom": -1.473445848749999,
  "energy_above_hull": 0.0,
  "is_stable": true,
  "equilibrium_reaction_energy_per_atom": null,
  "decomposes_to": null,
  "xas": null,
  "grain_boundaries": null,
  "band_gap": 1.6942,
  "cbm": null,
  "vbm": null,
  "efermi": -0.69312736,
  "is_gap_direct": null,
  "is_metal": null,
  "es_source_calc_id": null,
  "bandstructure": null,
  "dos": null,
  "dos_energy_up": null,
  "dos_energy_down": null,
  "is_magnetic": null,
  "ordering": null,
  "total_magnetization": 0.0,
  "total_magnetization_normalized_vol": null,
  "total_magnetization_normalized_formula_units": null,
  "num_magnetic_sites": null,
  "num_unique_magnetic_sites": null,
  "types_of_magnetic_species": null,
  "bulk_modulus": null,
  "shear_modulus": null,
  "universal_anisotropy": null,
  "homogeneous_poisson": null,
  "e_total": null,
  "e_ionic": null,
  "e_electronic": null,
  "n": null,
  "e_ij_max": null,
  "weighted_surface_energy_EV_PER_ANG2": null,
  "weighted_surface_energy": null,
  "weighted_work_function": null,
  "surface_anisotropy": null,
  "shape_factor": null,
  "has_reconstructed": null,
  "possible_species": null,
  "has_props": null,
  "theoretical": null,
  "database_IDs": null,
  "fields_not_requested": [
    "builder_meta",
    "nsites",
    "elements",
    "nelements",
    "composition",
    "composition_reduced",
    "chemsys",
    "symmetry",
    "property_name",
    "deprecated",
    "deprecation_reasons",
    "last_updated",
    "origins",
    "warnings",
    "task_ids",
    "uncorrected_energy_per_atom",
    "equilibrium_reaction_energy_per_atom",
    "decomposes_to",
    "xas",
    "grain_boundaries",
    "cbm",
    "vbm",
    "is_gap_direct",
    "is_metal",
    "es_source_calc_id",
    "bandstructure",
    "dos",
    "dos_energy_up",
    "dos_energy_down",
    "is_magnetic",
    "ordering",
    "total_magnetization_normalized_vol",
    "total_magnetization_normalized_formula_units",
    "num_magnetic_sites",
    "num_unique_magnetic_sites",
    "types_of_magnetic_species",
    "bulk_modulus",
    "shear_modulus",
    "universal_anisotropy",
    "homogeneous_poisson",
    "e_total",
    "e_ionic",
    "e_electronic",
    "n",
    "e_ij_max",
    "weighted_surface_energy_EV_PER_ANG2",
    "weighted_surface_energy",
    "weighted_work_function",
    "surface_anisotropy",
    "shape_factor",
    "has_reconstructed",
    "possible_species",
    "has_props",
    "theoretical",
    "database_IDs"
  ]
}
