{"builder_meta": null, "nsites": null, "elements": null, "nelements": null, "composition": null, "composition_reduced": null, "formula_pretty": "SCl", "formula_anonymous": "AB", "chemsys": null, "volume": 465.5479909369948, "density": 1.926611715763964, "density_atomic": 29.096749433562174, "symmetry": null, "property_name": null, "material_id": "mp-28096", "deprecated": null, "deprecation_reasons": null, "last_updated": null, "origins": null, "warnings": null, "structure": {"@module": "pymatgen.core.structure", "@class": "Structure", "charge": 0, "lattice": {"matrix": [[4.71670516, 0.0, 1.05096279], [2.35835309, 8.81024641, 0.52548089], [-0.01981607, -1e-08, 11.1986707]], "pbc": [true, true, true], "a": 4.8323731594668065, "b": 9.13555697633076, "c": 11.198688232273845, "alpha": 86.72872467259843, "beta": 77.54009864099098, "gamma": 74.66384675918609, "volume": 465.5479909369948}, "properties": {}, "sites": [{"species": [{"element": "S", "occu": 1}], "abc": [0.39477435, 0.35377643000000003, 0.86608249], "properties": {"magmom": 0.0}, "label": "S", "xyz": [2.6792015992927003, 3.1168575136892915, 10.299768510139902]}, {"species": [{"element": "S", "occu": 1}], "abc": [0.61463327, 0.64622357, 0.13391851], "properties": {"magmom": 0.0}, "label": "S", "xyz": [4.420413530688549, 5.693388886310698, 2.4852441270932575]}, {"species": [{"element": "S", "occu": 1}], "abc": [0.49854978, 0.14622357, 0.36608149], "properties": {"magmom": 0.0}, "label": "S", "xyz": [2.6891048315516515, 1.2882656789890685, 4.7004210153206065]}, {"species": [{"element": "S", "occu": 1}], "abc": [0.01085584, 0.85377643, 0.63391751], "properties": {"magmom": 0.0}, "label": "S", "xyz": [2.0521483246514176, 7.521980721010941, 7.559085727645572]}, {"species": [{"element": "S", "occu": 1}], "abc": [0.53937493, 0.52829832, 0.81333307], "properties": {"magmom": 0.0}, "label": "S", "xyz": [3.773869425871013, 4.6544383690557005, 9.952722873018008]}, {"species": [{"element": "S", "occu": 1}], "abc": [0.88100632, 0.47170168, 0.18666693], "properties": {"magmom": 0.0}, "label": "S", "xyz": [5.264187165171237, 4.155808030944299, 3.264196558345679]}, {"species": [{"element": "S", "occu": 1}], "abc": [0.81767425, 0.97170168, 0.31333307], "properties": {"magmom": 0.0}, "label": "S", "xyz": [6.142134983711887, 8.56093123467764, 4.878869745062101]}, {"species": [{"element": "S", "occu": 1}], "abc": [0.102708, 0.028298320000000002, 0.68666693], "properties": {"magmom": 0.0}, "label": "S", "xyz": [0.5375737440355237, 0.24931516532236192, 7.812569342264375]}, {"species": [{"element": "Cl", "occu": 1}], "abc": [0.62492224, 0.23502957, 0.99522389], "properties": {"magmom": 0.0}, "label": "Cl", "xyz": [3.4821352403877173, 2.0706684153841044, 11.925458185386388]}, {"species": [{"element": "Cl", "occu": 1}], "abc": [0.8551757, 0.76497043, 0.00477611], "properties": {"magmom": 0.0}, "label": "Cl", "xyz": [5.837587370515654, 6.739577984615895, 1.3542212651092627]}, {"species": [{"element": "Cl", "occu": 1}], "abc": [0.60995181, 0.26497043, 0.49522389], "properties": {"magmom": 0.0}, "label": "Cl", "xyz": [3.492043290657556, 2.334454774711417, 6.326122820266256]}, {"species": [{"element": "Cl", "occu": 1}], "abc": [0.37014513, 0.73502957, 0.50477611], "properties": {"magmom": 0.0}, "label": "Cl", "xyz": [3.4693220235406543, 6.475791625288582, 6.428074184266606]}, {"species": [{"element": "Cl", "occu": 1}], "abc": [0.90993769, 0.46310597000000003, 0.67213384], "properties": {"magmom": -0.0}, "label": "Cl", "xyz": [5.370756141825618, 4.08007770292073, 8.726669531174956]}, {"species": [{"element": "Cl", "occu": 1}], "abc": [0.045177499999999, 0.53689403, 0.32786616], "properties": {"magmom": -0.0}, "label": "Cl", "xyz": [1.4727776232417569, 4.730168697079271, 4.001272583678823]}, {"species": [{"element": "Cl", "occu": 1}], "abc": [0.12304266, 0.03689403, 0.17213384], "properties": {"magmom": -0.0}, "label": "Cl", "xyz": [0.6639540827523696, 0.3250454936365939, 2.076370555449196]}, {"species": [{"element": "Cl", "occu": 1}], "abc": [0.33207153, 0.96310597, 0.82786616], "properties": {"magmom": -0.0}, "label": "Cl", "xyz": [3.821222385609851, 8.485200906363406, 10.126089113441793]}]}, "task_ids": null, "uncorrected_energy_per_atom": null, "energy_per_atom": -3.466514059999999, "formation_energy_per_atom": -0.47306287624999904, "energy_above_hull": 0.0, "is_stable": true, "equilibrium_reaction_energy_per_atom": null, "decomposes_to": null, "xas": null, "grain_boundaries": null, "band_gap": 2.8804, "cbm": null, "vbm": null, "efermi": -1.09798258, "is_gap_direct": null, "is_metal": null, "es_source_calc_id": null, "bandstructure": null, "dos": null, "dos_energy_up": null, "dos_energy_down": null, "is_magnetic": null, "ordering": null, "total_magnetization": 0.0, "total_magnetization_normalized_vol": null, "total_magnetization_normalized_formula_units": null, "num_magnetic_sites": null, "num_unique_magnetic_sites": null, "types_of_magnetic_species": null, "bulk_modulus": null, "shear_modulus": null, "universal_anisotropy": null, "homogeneous_poisson": null, "e_total": null, "e_ionic": null, "e_electronic": null, "n": null, "e_ij_max": null, "weighted_surface_energy_EV_PER_ANG2": null, "weighted_surface_energy": null, "weighted_work_function": null, "surface_anisotropy": null, "shape_factor": null, "has_reconstructed": null, "possible_species": null, "has_props": null, "theoretical": null, "database_IDs": null, "fields_not_requested": ["builder_meta", "nsites", "elements", "nelements", "composition", "composition_reduced", "chemsys", "symmetry", "property_name", "deprecated", "deprecation_reasons", "last_updated", "origins", "warnings", "task_ids", "uncorrected_energy_per_atom", "equilibrium_reaction_energy_per_atom", "decomposes_to", "xas", "grain_boundaries", "cbm", "vbm", "is_gap_direct", "is_metal", "es_source_calc_id", "bandstructure", "dos", "dos_energy_up", "dos_energy_down", "is_magnetic", "ordering", "total_magnetization_normalized_vol", "total_magnetization_normalized_formula_units", "num_magnetic_sites", "num_unique_magnetic_sites", "types_of_magnetic_species", "bulk_modulus", "shear_modulus", "universal_anisotropy", "homogeneous_poisson", "e_total", "e_ionic", "e_electronic", "n", "e_ij_max", "weighted_surface_energy_EV_PER_ANG2", "weighted_surface_energy", "weighted_work_function", "surface_anisotropy", "shape_factor", "has_reconstructed", "possible_species", "has_props", "theoretical", "database_IDs"]}