{"builder_meta": null, "nsites": null, "elements": null, "nelements": null, "composition": null, "composition_reduced": null, "formula_pretty": "SCl2", "formula_anonymous": "AB2", "chemsys": null, "volume": 848.2355285515226, "density": 1.612640475164748, "density_atomic": 35.34314702298011, "symmetry": null, "property_name": null, "material_id": "mp-28128", "deprecated": null, "deprecation_reasons": null, "last_updated": null, "origins": null, "warnings": null, "structure": {"@module": "pymatgen.core.structure", "@class": "Structure", "charge": 0, "lattice": {"matrix": [[5.181333, 0.0, 0.0], [0.0, 9.730728, 0.0], [0.0, 0.0, 16.824014]], "pbc": [true, true, true], "a": 5.181333, "b": 9.730728, "c": 16.824014, "alpha": 90.0, "beta": 90.0, "gamma": 90.0, "volume": 848.2355285515226}, "properties": {}, "sites": [{"species": [{"element": "S", "occu": 1}], "abc": [0.214165, 0.300981, 0.30658799999999903], "properties": {"magmom": -0.0}, "label": "S", "xyz": [1.109660181945, 2.9287642441679997, 5.158040804231983]}, {"species": [{"element": "S", "occu": 1}], "abc": [0.714164999999999, 0.199019, 0.693411999999999], "properties": {"magmom": -0.0}, "label": "S", "xyz": [3.7003266819449956, 1.9365997558319998, 11.665973195767982]}, {"species": [{"element": "S", "occu": 1}], "abc": [0.785835, 0.800980999999999, 0.193412], "properties": {"magmom": -0.0}, "label": "S", "xyz": [4.071672818055, 7.79412824416799, 3.2539661957679997]}, {"species": [{"element": "S", "occu": 1}], "abc": [0.285835, 0.699019, 0.806588], "properties": {"magmom": -0.0}, "label": "S", "xyz": [1.4810063180550002, 6.8019637558319985, 13.570047804231999]}, {"species": [{"element": "S", "occu": 1}], "abc": [0.5850500000000001, 0.289738, 0.152235999999999], "properties": {"magmom": -0.0}, "label": "S", "xyz": [3.0313388716500005, 2.8193616692639996, 2.561220595303983]}, {"species": [{"element": "S", "occu": 1}], "abc": [0.08505, 0.210261999999999, 0.847764], "properties": {"magmom": -0.0}, "label": "S", "xyz": [0.44067237165000006, 2.0460023307359902, 14.262793404695998]}, {"species": [{"element": "S", "occu": 1}], "abc": [0.41495000000000004, 0.789737999999999, 0.347763999999999], "properties": {"magmom": -0.0}, "label": "S", "xyz": [2.1499941283500004, 7.68472566926399, 5.850786404695983]}, {"species": [{"element": "S", "occu": 1}], "abc": [0.91495, 0.710262, 0.652235999999999], "properties": {"magmom": -0.0}, "label": "S", "xyz": [4.740660628350001, 6.911366330735999, 10.973227595303984]}, {"species": [{"element": "Cl", "occu": 1}], "abc": [0.034277, 0.276802999999999, 0.414676999999999], "properties": {"magmom": 0.0}, "label": "Cl", "xyz": [0.17760055124100002, 2.6934947025839904, 6.976531653477982]}, {"species": [{"element": "Cl", "occu": 1}], "abc": [0.534277, 0.223196999999999, 0.585322999999999], "properties": {"magmom": 0.0}, "label": "Cl", "xyz": [2.768267051241, 2.17186929741599, 9.847482346521982]}, {"species": [{"element": "Cl", "occu": 1}], "abc": [0.965723, 0.776802999999999, 0.085323], "properties": {"magmom": 0.0}, "label": "Cl", "xyz": [5.003732448759, 7.55885870258399, 1.4354753465219998]}, {"species": [{"element": "Cl", "occu": 1}], "abc": [0.465723, 0.723197, 0.914677], "properties": {"magmom": 0.0}, "label": "Cl", "xyz": [2.4130659487590003, 7.037233297415999, 15.388538653477998]}, {"species": [{"element": "Cl", "occu": 1}], "abc": [0.061683999999999004, 0.479369, 0.264989], "properties": {"magmom": -0.0}, "label": "Cl", "xyz": [0.31960534477199487, 4.664609350631999, 4.458178645845999]}, {"species": [{"element": "Cl", "occu": 1}], "abc": [0.561684, 0.020631, 0.735011], "properties": {"magmom": -0.0}, "label": "Cl", "xyz": [2.910271844772, 0.20075464936799997, 12.365835354153997]}, {"species": [{"element": "Cl", "occu": 1}], "abc": [0.938315999999999, 0.979368999999999, 0.235011], "properties": {"magmom": -0.0}, "label": "Cl", "xyz": [4.8617276552279955, 9.52997335063199, 3.9538283541539996]}, {"species": [{"element": "Cl", "occu": 1}], "abc": [0.438316, 0.520631, 0.764988999999999], "properties": {"magmom": -0.0}, "label": "Cl", "xyz": [2.2710611552280002, 5.066118649367999, 12.870185645845982]}, {"species": [{"element": "Cl", "occu": 1}], "abc": [0.496104, 0.465076999999999, 0.09364], "properties": {"magmom": -0.0}, "label": "Cl", "xyz": [2.570480026632, 4.52553778605599, 1.57540067096]}, {"species": [{"element": "Cl", "occu": 1}], "abc": [0.996104, 0.034922999999999, 0.90636], "properties": {"magmom": -0.0}, "label": "Cl", "xyz": [5.161146526632001, 0.33982621394399026, 15.24861332904]}, {"species": [{"element": "Cl", "occu": 1}], "abc": [0.503896, 0.965077, 0.40636000000000005], "properties": {"magmom": -0.0}, "label": "Cl", "xyz": [2.6108529733680004, 9.390901786055998, 6.83660632904]}, {"species": [{"element": "Cl", "occu": 1}], "abc": [0.003895999999999, 0.534922999999999, 0.5936400000000001], "properties": {"magmom": -0.0}, "label": "Cl", "xyz": [0.020186473367994822, 5.2051902139439905, 9.98740767096]}, {"species": [{"element": "Cl", "occu": 1}], "abc": [0.429664, 0.140271999999999, 0.084052], "properties": {"magmom": 0.0}, "label": "Cl", "xyz": [2.226232262112, 1.3649486780159903, 1.4140920247279998]}, {"species": [{"element": "Cl", "occu": 1}], "abc": [0.929663999999999, 0.359728, 0.915948], "properties": {"magmom": 0.0}, "label": "Cl", "xyz": [4.816898762111996, 3.5004153219839997, 15.409921975271999]}, {"species": [{"element": "Cl", "occu": 1}], "abc": [0.570336, 0.640272, 0.415948], "properties": {"magmom": 0.0}, "label": "Cl", "xyz": [2.955100737888, 6.230312678015999, 6.997914975271999]}, {"species": [{"element": "Cl", "occu": 1}], "abc": [0.070336, 0.859727999999999, 0.584052], "properties": {"magmom": 0.0}, "label": "Cl", "xyz": [0.364434237888, 8.36577932198399, 9.826099024727998]}]}, "task_ids": null, "uncorrected_energy_per_atom": null, "energy_per_atom": -3.123094563333333, "formation_energy_per_atom": -0.5112795074999991, "energy_above_hull": 0.053359090729166, "is_stable": false, "equilibrium_reaction_energy_per_atom": null, "decomposes_to": null, "xas": null, "grain_boundaries": null, "band_gap": 2.093, "cbm": null, "vbm": null, "efermi": -0.37249507, "is_gap_direct": null, "is_metal": null, "es_source_calc_id": null, "bandstructure": null, "dos": null, "dos_energy_up": null, "dos_energy_down": null, "is_magnetic": null, "ordering": null, "total_magnetization": 0.0002922, "total_magnetization_normalized_vol": null, "total_magnetization_normalized_formula_units": null, "num_magnetic_sites": null, "num_unique_magnetic_sites": null, "types_of_magnetic_species": null, "bulk_modulus": null, "shear_modulus": null, "universal_anisotropy": null, "homogeneous_poisson": null, "e_total": null, "e_ionic": null, "e_electronic": null, "n": null, "e_ij_max": null, "weighted_surface_energy_EV_PER_ANG2": null, "weighted_surface_energy": null, "weighted_work_function": null, "surface_anisotropy": null, "shape_factor": null, "has_reconstructed": null, "possible_species": null, "has_props": null, "theoretical": null, "database_IDs": null, "fields_not_requested": ["builder_meta", "nsites", "elements", "nelements", "composition", "composition_reduced", "chemsys", "symmetry", "property_name", "deprecated", "deprecation_reasons", "last_updated", "origins", "warnings", "task_ids", "uncorrected_energy_per_atom", "equilibrium_reaction_energy_per_atom", "decomposes_to", "xas", "grain_boundaries", "cbm", "vbm", "is_gap_direct", "is_metal", "es_source_calc_id", "bandstructure", "dos", "dos_energy_up", "dos_energy_down", "is_magnetic", "ordering", "total_magnetization_normalized_vol", "total_magnetization_normalized_formula_units", "num_magnetic_sites", "num_unique_magnetic_sites", "types_of_magnetic_species", "bulk_modulus", "shear_modulus", "universal_anisotropy", "homogeneous_poisson", "e_total", "e_ionic", "e_electronic", "n", "e_ij_max", "weighted_surface_energy_EV_PER_ANG2", "weighted_surface_energy", "weighted_work_function", "surface_anisotropy", "shape_factor", "has_reconstructed", "possible_species", "has_props", "theoretical", "database_IDs"]}