{"builder_meta": null, "nsites": null, "elements": null, "nelements": null, "composition": null, "composition_reduced": null, "formula_pretty": "SCl4", "formula_anonymous": "AB4", "chemsys": null, "volume": 4855.3111600425145, "density": 1.902935844173941, "density_atomic": 30.345694750265714, "symmetry": null, "property_name": null, "material_id": "mp-1210452", "deprecated": null, "deprecation_reasons": null, "last_updated": null, "origins": null, "warnings": null, "structure": {"@module": "pymatgen.core.structure", "@class": "Structure", "charge": 0, "lattice": {"matrix": [[16.9331994, -0.0, 0.0], [0.0, 16.9331994, -0.0], [0.0, -0.0, 16.9331994]], "pbc": [true, true, true], "a": 16.9331994, "b": 16.9331994, "c": 16.9331994, "alpha": 90.0, "beta": 90.0, "gamma": 90.0, "volume": 4855.3111600425145}, "properties": {}, "sites": [{"species": [{"element": "S", "occu": 1}], "abc": [0.08734832000000001, 0.08734832000000001, 0.08734832000000001], "properties": {"magmom": -0.0}, "label": "S", "xyz": [1.479086519815008, 1.479086519815008, 1.479086519815008]}, {"species": [{"element": "S", "occu": 1}], "abc": [0.91265168, 0.91265168, 0.08734832000000001], "properties": {"magmom": -0.0}, "label": "S", "xyz": [15.45411288018499, 15.45411288018499, 1.479086519815008]}, {"species": [{"element": "S", "occu": 1}], "abc": [0.91265168, 0.08734832000000001, 0.91265168], "properties": {"magmom": -0.0}, "label": "S", "xyz": [15.45411288018499, 1.479086519815008, 15.45411288018499]}, {"species": [{"element": "S", "occu": 1}], "abc": [0.58734832, 0.58734832, 0.58734832], "properties": {"magmom": -0.0}, "label": "S", "xyz": [9.945686219815009, 9.945686219815009, 9.945686219815009]}, {"species": [{"element": "S", "occu": 1}], "abc": [0.08734832000000001, 0.91265168, 0.91265168], "properties": {"magmom": -0.0}, "label": "S", "xyz": [1.479086519815008, 15.45411288018499, 15.45411288018499]}, {"species": [{"element": "S", "occu": 1}], "abc": [0.41265168, 0.41265168, 0.58734832], "properties": {"magmom": -0.0}, "label": "S", "xyz": [6.987513180184992, 6.987513180184992, 9.945686219815009]}, {"species": [{"element": "S", "occu": 1}], "abc": [0.58734832, 0.41265168, 0.41265168], "properties": {"magmom": -0.0}, "label": "S", "xyz": [9.945686219815009, 6.987513180184992, 6.987513180184992]}, {"species": [{"element": "S", "occu": 1}], "abc": [0.41265168, 0.58734832, 0.41265168], "properties": {"magmom": -0.0}, "label": "S", "xyz": [6.987513180184992, 9.945686219815009, 6.987513180184992]}, {"species": [{"element": "S", "occu": 1}], "abc": [0.08965535000000001, 0.40268311, 0.32883199], "properties": {"magmom": -0.0}, "label": "S", "xyz": [1.51815191882679, 6.818713396642134, 5.568177655768806]}, {"species": [{"element": "S", "occu": 1}], "abc": [0.91034465, 0.59731689, 0.32883199], "properties": {"magmom": -0.0}, "label": "S", "xyz": [15.41504748117321, 10.114486003357866, 5.568177655768806]}, {"species": [{"element": "S", "occu": 1}], "abc": [0.91034465, 0.40268311, 0.67116801], "properties": {"magmom": -0.0}, "label": "S", "xyz": [15.41504748117321, 6.818713396642134, 11.365021744231194]}, {"species": [{"element": "S", "occu": 1}], "abc": [0.32883199, 0.08965535000000001, 0.40268311], "properties": {"magmom": -0.0}, "label": "S", "xyz": [5.568177655768806, 1.51815191882679, 6.818713396642134]}, {"species": [{"element": "S", "occu": 1}], "abc": [0.90268311, 0.58965535, 0.82883199], "properties": {"magmom": -0.0}, "label": "S", "xyz": [15.285313096642133, 9.98475161882679, 14.034777355768805]}, {"species": [{"element": "S", "occu": 1}], "abc": [0.08965535000000001, 0.59731689, 0.67116801], "properties": {"magmom": -0.0}, "label": "S", "xyz": [1.51815191882679, 10.114486003357866, 11.365021744231194]}, {"species": [{"element": "S", "occu": 1}], "abc": [0.32883199, 0.91034465, 0.59731689], "properties": {"magmom": -0.0}, "label": "S", "xyz": [5.568177655768806, 15.41504748117321, 10.114486003357866]}, {"species": [{"element": "S", "occu": 1}], "abc": [0.09731689, 0.41034465000000003, 0.82883199], "properties": {"magmom": -0.0}, "label": "S", "xyz": [1.647886303357866, 6.94844778117321, 14.034777355768805]}, {"species": [{"element": "S", "occu": 1}], "abc": [0.67116801, 0.91034465, 0.40268311], "properties": {"magmom": -0.0}, "label": "S", "xyz": [11.365021744231194, 15.41504748117321, 6.818713396642134]}, {"species": [{"element": "S", "occu": 1}], "abc": [0.90268311, 0.41034465000000003, 0.17116801], "properties": {"magmom": -0.0}, "label": "S", "xyz": [15.285313096642133, 6.94844778117321, 2.898422044231194]}, {"species": [{"element": "S", "occu": 1}], "abc": [0.67116801, 0.08965535000000001, 0.59731689], "properties": {"magmom": -0.0}, "label": "S", "xyz": [11.365021744231194, 1.51815191882679, 10.114486003357866]}, {"species": [{"element": "S", "occu": 1}], "abc": [0.09731689, 0.58965535, 0.17116801], "properties": {"magmom": -0.0}, "label": "S", "xyz": [1.647886303357866, 9.98475161882679, 2.898422044231194]}, {"species": [{"element": "S", "occu": 1}], "abc": [0.40268311, 0.32883199, 0.08965535000000001], "properties": {"magmom": -0.0}, "label": "S", "xyz": [6.818713396642134, 5.568177655768806, 1.51815191882679]}, {"species": [{"element": "S", "occu": 1}], "abc": [0.58965535, 0.82883199, 0.90268311], "properties": {"magmom": -0.0}, "label": "S", "xyz": [9.98475161882679, 14.034777355768805, 15.285313096642133]}, {"species": [{"element": "S", "occu": 1}], "abc": [0.40268311, 0.67116801, 0.91034465], "properties": {"magmom": -0.0}, "label": "S", "xyz": [6.818713396642134, 11.365021744231194, 15.41504748117321]}, {"species": [{"element": "S", "occu": 1}], "abc": [0.41034465000000003, 0.17116801, 0.90268311], "properties": {"magmom": -0.0}, "label": "S", "xyz": [6.94844778117321, 2.898422044231194, 15.285313096642133]}, {"species": [{"element": "S", "occu": 1}], "abc": [0.59731689, 0.67116801, 0.08965535000000001], "properties": {"magmom": -0.0}, "label": "S", "xyz": [10.114486003357866, 11.365021744231194, 1.51815191882679]}, {"species": [{"element": "S", "occu": 1}], "abc": [0.58965535, 0.17116801, 0.09731689], "properties": {"magmom": -0.0}, "label": "S", "xyz": [9.98475161882679, 2.898422044231194, 1.647886303357866]}, {"species": [{"element": "S", "occu": 1}], "abc": [0.59731689, 0.32883199, 0.91034465], "properties": {"magmom": -0.0}, "label": "S", "xyz": [10.114486003357866, 5.568177655768806, 15.41504748117321]}, {"species": [{"element": "S", "occu": 1}], "abc": [0.41034465000000003, 0.82883199, 0.09731689], "properties": {"magmom": -0.0}, "label": "S", "xyz": [6.94844778117321, 14.034777355768805, 1.647886303357866]}, {"species": [{"element": "S", "occu": 1}], "abc": [0.82883199, 0.90268311, 0.58965535], "properties": {"magmom": -0.0}, "label": "S", "xyz": [14.034777355768805, 15.285313096642133, 9.98475161882679]}, {"species": [{"element": "S", "occu": 1}], "abc": [0.82883199, 0.09731689, 0.41034465000000003], "properties": {"magmom": -0.0}, "label": "S", "xyz": [14.034777355768805, 1.647886303357866, 6.94844778117321]}, {"species": [{"element": "S", "occu": 1}], "abc": [0.17116801, 0.09731689, 0.58965535], "properties": {"magmom": -0.0}, "label": "S", "xyz": [2.898422044231194, 1.647886303357866, 9.98475161882679]}, {"species": [{"element": "S", "occu": 1}], "abc": [0.17116801, 0.90268311, 0.41034465000000003], "properties": {"magmom": -0.0}, "label": "S", "xyz": [2.898422044231194, 15.285313096642133, 6.94844778117321]}, {"species": [{"element": "Cl", "occu": 1}], "abc": [0.07449886, 0.28155746, 0.31745195], "properties": {"magmom": -0.0}, "label": "Cl", "xyz": [1.2615040514526838, 4.767668612737523, 5.375477169268829]}, {"species": [{"element": "Cl", "occu": 1}], "abc": [0.92550114, 0.71844254, 0.31745195], "properties": {"magmom": -0.0}, "label": "Cl", "xyz": [15.671695348547317, 12.165530787262474, 5.375477169268829]}, {"species": [{"element": "Cl", "occu": 1}], "abc": [0.92550114, 0.28155746, 0.68254805], "properties": {"magmom": -0.0}, "label": "Cl", "xyz": [15.671695348547317, 4.767668612737523, 11.55772223073117]}, {"species": [{"element": "Cl", "occu": 1}], "abc": [0.31745195, 0.07449886, 0.28155746], "properties": {"magmom": -0.0}, "label": "Cl", "xyz": [5.375477169268829, 1.2615040514526838, 4.767668612737523]}, {"species": [{"element": "Cl", "occu": 1}], "abc": [0.78155746, 0.5744988600000001, 0.81745195], "properties": {"magmom": -0.0}, "label": "Cl", "xyz": [13.234268312737525, 9.728103751452684, 13.84207686926883]}, {"species": [{"element": "Cl", "occu": 1}], "abc": [0.07449886, 0.71844254, 0.68254805], "properties": {"magmom": -0.0}, "label": "Cl", "xyz": [1.2615040514526838, 12.165530787262474, 11.55772223073117]}, {"species": [{"element": "Cl", "occu": 1}], "abc": [0.31745195, 0.92550114, 0.71844254], "properties": {"magmom": -0.0}, "label": "Cl", "xyz": [5.375477169268829, 15.671695348547317, 12.165530787262474]}, {"species": [{"element": "Cl", "occu": 1}], "abc": [0.21844254000000002, 0.42550114, 0.81745195], "properties": {"magmom": -0.0}, "label": "Cl", "xyz": [3.6989310872624763, 7.205095648547315, 13.84207686926883]}, {"species": [{"element": "Cl", "occu": 1}], "abc": [0.68254805, 0.92550114, 0.28155746], "properties": {"magmom": -0.0}, "label": "Cl", "xyz": [11.55772223073117, 15.671695348547317, 4.767668612737523]}, {"species": [{"element": "Cl", "occu": 1}], "abc": [0.78155746, 0.42550114, 0.18254805000000002], "properties": {"magmom": -0.0}, "label": "Cl", "xyz": [13.234268312737525, 7.205095648547315, 3.09112253073117]}, {"species": [{"element": "Cl", "occu": 1}], "abc": [0.68254805, 0.07449886, 0.71844254], "properties": {"magmom": -0.0}, "label": "Cl", "xyz": [11.55772223073117, 1.2615040514526838, 12.165530787262474]}, {"species": [{"element": "Cl", "occu": 1}], "abc": [0.21844254000000002, 0.5744988600000001, 0.18254805000000002], "properties": {"magmom": -0.0}, "label": "Cl", "xyz": [3.6989310872624763, 9.728103751452684, 3.09112253073117]}, {"species": [{"element": "Cl", "occu": 1}], "abc": [0.28155746, 0.31745195, 0.07449886], "properties": {"magmom": -0.0}, "label": "Cl", "xyz": [4.767668612737523, 5.375477169268829, 1.2615040514526838]}, {"species": [{"element": "Cl", "occu": 1}], "abc": [0.5744988600000001, 0.81745195, 0.78155746], "properties": {"magmom": -0.0}, "label": "Cl", "xyz": [9.728103751452684, 13.84207686926883, 13.234268312737525]}, {"species": [{"element": "Cl", "occu": 1}], "abc": [0.28155746, 0.68254805, 0.92550114], "properties": {"magmom": -0.0}, "label": "Cl", "xyz": [4.767668612737523, 11.55772223073117, 15.671695348547317]}, {"species": [{"element": "Cl", "occu": 1}], "abc": [0.42550114, 0.18254805000000002, 0.78155746], "properties": {"magmom": -0.0}, "label": "Cl", "xyz": [7.205095648547315, 3.09112253073117, 13.234268312737525]}, {"species": [{"element": "Cl", "occu": 1}], "abc": [0.71844254, 0.68254805, 0.07449886], "properties": {"magmom": -0.0}, "label": "Cl", "xyz": [12.165530787262474, 11.55772223073117, 1.2615040514526838]}, {"species": [{"element": "Cl", "occu": 1}], "abc": [0.5744988600000001, 0.18254805000000002, 0.21844254000000002], "properties": {"magmom": -0.0}, "label": "Cl", "xyz": [9.728103751452684, 3.09112253073117, 3.6989310872624763]}, {"species": [{"element": "Cl", "occu": 1}], "abc": [0.71844254, 0.31745195, 0.92550114], "properties": {"magmom": -0.0}, "label": "Cl", "xyz": [12.165530787262474, 5.375477169268829, 15.671695348547317]}, {"species": [{"element": "Cl", "occu": 1}], "abc": [0.42550114, 0.81745195, 0.21844254000000002], "properties": {"magmom": -0.0}, "label": "Cl", "xyz": [7.205095648547315, 13.84207686926883, 3.6989310872624763]}, {"species": [{"element": "Cl", "occu": 1}], "abc": [0.81745195, 0.78155746, 0.5744988600000001], "properties": {"magmom": -0.0}, "label": "Cl", "xyz": [13.84207686926883, 13.234268312737525, 9.728103751452684]}, {"species": [{"element": "Cl", "occu": 1}], "abc": [0.81745195, 0.21844254000000002, 0.42550114], "properties": {"magmom": -0.0}, "label": "Cl", "xyz": [13.84207686926883, 3.6989310872624763, 7.205095648547315]}, {"species": [{"element": "Cl", "occu": 1}], "abc": [0.18254805000000002, 0.21844254000000002, 0.5744988600000001], "properties": {"magmom": -0.0}, "label": "Cl", "xyz": [3.09112253073117, 3.6989310872624763, 9.728103751452684]}, {"species": [{"element": "Cl", "occu": 1}], "abc": [0.18254805000000002, 0.78155746, 0.42550114], "properties": {"magmom": -0.0}, "label": "Cl", "xyz": [3.09112253073117, 13.234268312737525, 7.205095648547315]}, {"species": [{"element": "Cl", "occu": 1}], "abc": [0.04741741, 0.09546871, 0.59224645], "properties": {"magmom": -0.0}, "label": "Cl", "xyz": [0.8029284585615539, 1.616590702890774, 10.028627231792129]}, {"species": [{"element": "Cl", "occu": 1}], "abc": [0.95258259, 0.90453129, 0.59224645], "properties": {"magmom": -0.0}, "label": "Cl", "xyz": [16.130270941438447, 15.316608697109226, 10.028627231792129]}, {"species": [{"element": "Cl", "occu": 1}], "abc": [0.95258259, 0.09546871, 0.40775355], "properties": {"magmom": -0.0}, "label": "Cl", "xyz": [16.130270941438447, 1.616590702890774, 6.90457216820787]}, {"species": [{"element": "Cl", "occu": 1}], "abc": [0.59224645, 0.04741741, 0.09546871], "properties": {"magmom": -0.0}, "label": "Cl", "xyz": [10.028627231792129, 0.8029284585615539, 1.616590702890774]}, {"species": [{"element": "Cl", "occu": 1}], "abc": [0.59546871, 0.54741741, 0.09224645000000001], "properties": {"magmom": -0.0}, "label": "Cl", "xyz": [10.083190402890773, 9.269528158561554, 1.5620275317921302]}, {"species": [{"element": "Cl", "occu": 1}], "abc": [0.04741741, 0.90453129, 0.40775355], "properties": {"magmom": -0.0}, "label": "Cl", "xyz": [0.8029284585615539, 15.316608697109226, 6.90457216820787]}, {"species": [{"element": "Cl", "occu": 1}], "abc": [0.59224645, 0.95258259, 0.90453129], "properties": {"magmom": -0.0}, "label": "Cl", "xyz": [10.028627231792129, 16.130270941438447, 15.316608697109226]}, {"species": [{"element": "Cl", "occu": 1}], "abc": [0.40453129, 0.45258259, 0.09224645000000001], "properties": {"magmom": -0.0}, "label": "Cl", "xyz": [6.850008997109225, 7.663671241438446, 1.5620275317921302]}, {"species": [{"element": "Cl", "occu": 1}], "abc": [0.40775355, 0.95258259, 0.09546871], "properties": {"magmom": -0.0}, "label": "Cl", "xyz": [6.90457216820787, 16.130270941438447, 1.616590702890774]}, {"species": [{"element": "Cl", "occu": 1}], "abc": [0.59546871, 0.45258259, 0.90775355], "properties": {"magmom": -0.0}, "label": "Cl", "xyz": [10.083190402890773, 7.663671241438446, 15.37117186820787]}, {"species": [{"element": "Cl", "occu": 1}], "abc": [0.40775355, 0.04741741, 0.90453129], "properties": {"magmom": -0.0}, "label": "Cl", "xyz": [6.90457216820787, 0.8029284585615539, 15.316608697109226]}, {"species": [{"element": "Cl", "occu": 1}], "abc": [0.40453129, 0.54741741, 0.90775355], "properties": {"magmom": -0.0}, "label": "Cl", "xyz": [6.850008997109225, 9.269528158561554, 15.37117186820787]}, {"species": [{"element": "Cl", "occu": 1}], "abc": [0.09546871, 0.59224645, 0.04741741], "properties": {"magmom": -0.0}, "label": "Cl", "xyz": [1.616590702890774, 10.028627231792129, 0.8029284585615539]}, {"species": [{"element": "Cl", "occu": 1}], "abc": [0.54741741, 0.09224645000000001, 0.59546871], "properties": {"magmom": -0.0}, "label": "Cl", "xyz": [9.269528158561554, 1.5620275317921302, 10.083190402890773]}, {"species": [{"element": "Cl", "occu": 1}], "abc": [0.09546871, 0.40775355, 0.95258259], "properties": {"magmom": -0.0}, "label": "Cl", "xyz": [1.616590702890774, 6.90457216820787, 16.130270941438447]}, {"species": [{"element": "Cl", "occu": 1}], "abc": [0.45258259, 0.90775355, 0.59546871], "properties": {"magmom": -0.0}, "label": "Cl", "xyz": [7.663671241438446, 15.37117186820787, 10.083190402890773]}, {"species": [{"element": "Cl", "occu": 1}], "abc": [0.90453129, 0.40775355, 0.04741741], "properties": {"magmom": -0.0}, "label": "Cl", "xyz": [15.316608697109226, 6.90457216820787, 0.8029284585615539]}, {"species": [{"element": "Cl", "occu": 1}], "abc": [0.54741741, 0.90775355, 0.40453129], "properties": {"magmom": -0.0}, "label": "Cl", "xyz": [9.269528158561554, 15.37117186820787, 6.850008997109225]}, {"species": [{"element": "Cl", "occu": 1}], "abc": [0.90453129, 0.59224645, 0.95258259], "properties": {"magmom": -0.0}, "label": "Cl", "xyz": [15.316608697109226, 10.028627231792129, 16.130270941438447]}, {"species": [{"element": "Cl", "occu": 1}], "abc": [0.45258259, 0.09224645000000001, 0.40453129], "properties": {"magmom": -0.0}, "label": "Cl", "xyz": [7.663671241438446, 1.5620275317921302, 6.850008997109225]}, {"species": [{"element": "Cl", "occu": 1}], "abc": [0.09224645000000001, 0.59546871, 0.54741741], "properties": {"magmom": -0.0}, "label": "Cl", "xyz": [1.5620275317921302, 10.083190402890773, 9.269528158561554]}, {"species": [{"element": "Cl", "occu": 1}], "abc": [0.09224645000000001, 0.40453129, 0.45258259], "properties": {"magmom": -0.0}, "label": "Cl", "xyz": [1.5620275317921302, 6.850008997109225, 7.663671241438446]}, {"species": [{"element": "Cl", "occu": 1}], "abc": [0.90775355, 0.40453129, 0.54741741], "properties": {"magmom": -0.0}, "label": "Cl", "xyz": [15.37117186820787, 6.850008997109225, 9.269528158561554]}, {"species": [{"element": "Cl", "occu": 1}], "abc": [0.90775355, 0.59546871, 0.45258259], "properties": {"magmom": -0.0}, "label": "Cl", "xyz": [15.37117186820787, 10.083190402890773, 7.663671241438446]}, {"species": [{"element": "Cl", "occu": 1}], "abc": [0.07831036, 0.08110477, 0.21009495], "properties": {"magmom": -0.0}, "label": "Cl", "xyz": [1.326044940965784, 1.373363242701138, 3.55757968128303]}, {"species": [{"element": "Cl", "occu": 1}], "abc": [0.92168964, 0.9188952300000001, 0.21009495], "properties": {"magmom": -0.0}, "label": "Cl", "xyz": [15.607154459034215, 15.559836157298863, 3.55757968128303]}, {"species": [{"element": "Cl", "occu": 1}], "abc": [0.92168964, 0.08110477, 0.78990505], "properties": {"magmom": -0.0}, "label": "Cl", "xyz": [15.607154459034215, 1.373363242701138, 13.375619718716969]}, {"species": [{"element": "Cl", "occu": 1}], "abc": [0.21009495, 0.07831036, 0.08110477], "properties": {"magmom": -0.0}, "label": "Cl", "xyz": [3.55757968128303, 1.326044940965784, 1.373363242701138]}, {"species": [{"element": "Cl", "occu": 1}], "abc": [0.58110477, 0.57831036, 0.71009495], "properties": {"magmom": -0.0}, "label": "Cl", "xyz": [9.839962942701138, 9.792644640965785, 12.02417938128303]}, {"species": [{"element": "Cl", "occu": 1}], "abc": [0.07831036, 0.9188952300000001, 0.78990505], "properties": {"magmom": -0.0}, "label": "Cl", "xyz": [1.326044940965784, 15.559836157298863, 13.375619718716969]}, {"species": [{"element": "Cl", "occu": 1}], "abc": [0.21009495, 0.92168964, 0.9188952300000001], "properties": {"magmom": -0.0}, "label": "Cl", "xyz": [3.55757968128303, 15.607154459034215, 15.559836157298863]}, {"species": [{"element": "Cl", "occu": 1}], "abc": [0.41889523, 0.42168964000000003, 0.71009495], "properties": {"magmom": -0.0}, "label": "Cl", "xyz": [7.093236457298862, 7.140554759034217, 12.02417938128303]}, {"species": [{"element": "Cl", "occu": 1}], "abc": [0.78990505, 0.92168964, 0.08110477], "properties": {"magmom": -0.0}, "label": "Cl", "xyz": [13.375619718716969, 15.607154459034215, 1.373363242701138]}, {"species": [{"element": "Cl", "occu": 1}], "abc": [0.58110477, 0.42168964000000003, 0.28990505], "properties": {"magmom": -0.0}, "label": "Cl", "xyz": [9.839962942701138, 7.140554759034217, 4.90902001871697]}, {"species": [{"element": "Cl", "occu": 1}], "abc": [0.78990505, 0.07831036, 0.9188952300000001], "properties": {"magmom": -0.0}, "label": "Cl", "xyz": [13.375619718716969, 1.326044940965784, 15.559836157298863]}, {"species": [{"element": "Cl", "occu": 1}], "abc": [0.41889523, 0.57831036, 0.28990505], "properties": {"magmom": -0.0}, "label": "Cl", "xyz": [7.093236457298862, 9.792644640965785, 4.90902001871697]}, {"species": [{"element": "Cl", "occu": 1}], "abc": [0.08110477, 0.21009495, 0.07831036], "properties": {"magmom": -0.0}, "label": "Cl", "xyz": [1.373363242701138, 3.55757968128303, 1.326044940965784]}, {"species": [{"element": "Cl", "occu": 1}], "abc": [0.57831036, 0.71009495, 0.58110477], "properties": {"magmom": -0.0}, "label": "Cl", "xyz": [9.792644640965785, 12.02417938128303, 9.839962942701138]}, {"species": [{"element": "Cl", "occu": 1}], "abc": [0.08110477, 0.78990505, 0.92168964], "properties": {"magmom": -0.0}, "label": "Cl", "xyz": [1.373363242701138, 13.375619718716969, 15.607154459034215]}, {"species": [{"element": "Cl", "occu": 1}], "abc": [0.42168964000000003, 0.28990505, 0.58110477], "properties": {"magmom": -0.0}, "label": "Cl", "xyz": [7.140554759034217, 4.90902001871697, 9.839962942701138]}, {"species": [{"element": "Cl", "occu": 1}], "abc": [0.9188952300000001, 0.78990505, 0.07831036], "properties": {"magmom": -0.0}, "label": "Cl", "xyz": [15.559836157298863, 13.375619718716969, 1.326044940965784]}, {"species": [{"element": "Cl", "occu": 1}], "abc": [0.57831036, 0.28990505, 0.41889523], "properties": {"magmom": -0.0}, "label": "Cl", "xyz": [9.792644640965785, 4.90902001871697, 7.093236457298862]}, {"species": [{"element": "Cl", "occu": 1}], "abc": [0.9188952300000001, 0.21009495, 0.92168964], "properties": {"magmom": -0.0}, "label": "Cl", "xyz": [15.559836157298863, 3.55757968128303, 15.607154459034215]}, {"species": [{"element": "Cl", "occu": 1}], "abc": [0.42168964000000003, 0.71009495, 0.41889523], "properties": {"magmom": -0.0}, "label": "Cl", "xyz": [7.140554759034217, 12.02417938128303, 7.093236457298862]}, {"species": [{"element": "Cl", "occu": 1}], "abc": [0.71009495, 0.58110477, 0.57831036], "properties": {"magmom": -0.0}, "label": "Cl", "xyz": [12.02417938128303, 9.839962942701138, 9.792644640965785]}, {"species": [{"element": "Cl", "occu": 1}], "abc": [0.71009495, 0.41889523, 0.42168964000000003], "properties": {"magmom": -0.0}, "label": "Cl", "xyz": [12.02417938128303, 7.093236457298862, 7.140554759034217]}, {"species": [{"element": "Cl", "occu": 1}], "abc": [0.28990505, 0.41889523, 0.57831036], "properties": {"magmom": -0.0}, "label": "Cl", "xyz": [4.90902001871697, 7.093236457298862, 9.792644640965785]}, {"species": [{"element": "Cl", "occu": 1}], "abc": [0.28990505, 0.58110477, 0.42168964000000003], "properties": {"magmom": -0.0}, "label": "Cl", "xyz": [4.90902001871697, 9.839962942701138, 7.140554759034217]}, {"species": [{"element": "Cl", "occu": 1}], "abc": [0.42422282, 0.42422282, 0.42422282], "properties": {"magmom": -0.0}, "label": "Cl", "xyz": [7.183449601090308, 7.183449601090308, 7.183449601090308]}, {"species": [{"element": "Cl", "occu": 1}], "abc": [0.57577718, 0.57577718, 0.42422282], "properties": {"magmom": -0.0}, "label": "Cl", "xyz": [9.749749798909692, 9.749749798909692, 7.183449601090308]}, {"species": [{"element": "Cl", "occu": 1}], "abc": [0.57577718, 0.42422282, 0.57577718], "properties": {"magmom": -0.0}, "label": "Cl", "xyz": [9.749749798909692, 7.183449601090308, 9.749749798909692]}, {"species": [{"element": "Cl", "occu": 1}], "abc": [0.92422282, 0.92422282, 0.92422282], "properties": {"magmom": -0.0}, "label": "Cl", "xyz": [15.650049301090307, 15.650049301090307, 15.650049301090307]}, {"species": [{"element": "Cl", "occu": 1}], "abc": [0.42422282, 0.57577718, 0.57577718], "properties": {"magmom": -0.0}, "label": "Cl", "xyz": [7.183449601090308, 9.749749798909692, 9.749749798909692]}, {"species": [{"element": "Cl", "occu": 1}], "abc": [0.07577718, 0.07577718, 0.92422282], "properties": {"magmom": -0.0}, "label": "Cl", "xyz": [1.283150098909692, 1.283150098909692, 15.650049301090307]}, {"species": [{"element": "Cl", "occu": 1}], "abc": [0.92422282, 0.07577718, 0.07577718], "properties": {"magmom": -0.0}, "label": "Cl", "xyz": [15.650049301090307, 1.283150098909692, 1.283150098909692]}, {"species": [{"element": "Cl", "occu": 1}], "abc": [0.07577718, 0.92422282, 0.07577718], "properties": {"magmom": -0.0}, "label": "Cl", "xyz": [1.283150098909692, 15.650049301090307, 1.283150098909692]}, {"species": [{"element": "Cl", "occu": 1}], "abc": [0.21065773000000002, 0.40587049000000003, 0.31182538], "properties": {"magmom": -0.0}, "label": "Cl", "xyz": [3.567109347241362, 6.872685937745707, 5.280201337520771]}, {"species": [{"element": "Cl", "occu": 1}], "abc": [0.78934227, 0.59412951, 0.31182538], "properties": {"magmom": -0.0}, "label": "Cl", "xyz": [13.366090052758638, 10.060513462254294, 5.280201337520771]}, {"species": [{"element": "Cl", "occu": 1}], "abc": [0.78934227, 0.40587049000000003, 0.68817462], "properties": {"magmom": -0.0}, "label": "Cl", "xyz": [13.366090052758638, 6.872685937745707, 11.652998062479227]}, {"species": [{"element": "Cl", "occu": 1}], "abc": [0.31182538, 0.21065773000000002, 0.40587049000000003], "properties": {"magmom": -0.0}, "label": "Cl", "xyz": [5.280201337520771, 3.567109347241362, 6.872685937745707]}, {"species": [{"element": "Cl", "occu": 1}], "abc": [0.90587049, 0.71065773, 0.81182538], "properties": {"magmom": -0.0}, "label": "Cl", "xyz": [15.339285637745705, 12.033709047241361, 13.746801037520772]}, {"species": [{"element": "Cl", "occu": 1}], "abc": [0.21065773000000002, 0.59412951, 0.68817462], "properties": {"magmom": -0.0}, "label": "Cl", "xyz": [3.567109347241362, 10.060513462254294, 11.652998062479227]}, {"species": [{"element": "Cl", "occu": 1}], "abc": [0.31182538, 0.78934227, 0.59412951], "properties": {"magmom": -0.0}, "label": "Cl", "xyz": [5.280201337520771, 13.366090052758638, 10.060513462254294]}, {"species": [{"element": "Cl", "occu": 1}], "abc": [0.09412951, 0.28934227, 0.81182538], "properties": {"magmom": -0.0}, "label": "Cl", "xyz": [1.593913762254294, 4.899490352758638, 13.746801037520772]}, {"species": [{"element": "Cl", "occu": 1}], "abc": [0.68817462, 0.78934227, 0.40587049000000003], "properties": {"magmom": -0.0}, "label": "Cl", "xyz": [11.652998062479227, 13.366090052758638, 6.872685937745707]}, {"species": [{"element": "Cl", "occu": 1}], "abc": [0.90587049, 0.28934227, 0.18817462000000001], "properties": {"magmom": -0.0}, "label": "Cl", "xyz": [15.339285637745705, 4.899490352758638, 3.186398362479228]}, {"species": [{"element": "Cl", "occu": 1}], "abc": [0.68817462, 0.21065773000000002, 0.59412951], "properties": {"magmom": -0.0}, "label": "Cl", "xyz": [11.652998062479227, 3.567109347241362, 10.060513462254294]}, {"species": [{"element": "Cl", "occu": 1}], "abc": [0.09412951, 0.71065773, 0.18817462000000001], "properties": {"magmom": -0.0}, "label": "Cl", "xyz": [1.593913762254294, 12.033709047241361, 3.186398362479228]}, {"species": [{"element": "Cl", "occu": 1}], "abc": [0.40587049000000003, 0.31182538, 0.21065773000000002], "properties": {"magmom": -0.0}, "label": "Cl", "xyz": [6.872685937745707, 5.280201337520771, 3.567109347241362]}, {"species": [{"element": "Cl", "occu": 1}], "abc": [0.71065773, 0.81182538, 0.90587049], "properties": {"magmom": -0.0}, "label": "Cl", "xyz": [12.033709047241361, 13.746801037520772, 15.339285637745705]}, {"species": [{"element": "Cl", "occu": 1}], "abc": [0.40587049000000003, 0.68817462, 0.78934227], "properties": {"magmom": -0.0}, "label": "Cl", "xyz": [6.872685937745707, 11.652998062479227, 13.366090052758638]}, {"species": [{"element": "Cl", "occu": 1}], "abc": [0.28934227, 0.18817462000000001, 0.90587049], "properties": {"magmom": -0.0}, "label": "Cl", "xyz": [4.899490352758638, 3.186398362479228, 15.339285637745705]}, {"species": [{"element": "Cl", "occu": 1}], "abc": [0.59412951, 0.68817462, 0.21065773000000002], "properties": {"magmom": -0.0}, "label": "Cl", "xyz": [10.060513462254294, 11.652998062479227, 3.567109347241362]}, {"species": [{"element": "Cl", "occu": 1}], "abc": [0.71065773, 0.18817462000000001, 0.09412951], "properties": {"magmom": -0.0}, "label": "Cl", "xyz": [12.033709047241361, 3.186398362479228, 1.593913762254294]}, {"species": [{"element": "Cl", "occu": 1}], "abc": [0.59412951, 0.31182538, 0.78934227], "properties": {"magmom": -0.0}, "label": "Cl", "xyz": [10.060513462254294, 5.280201337520771, 13.366090052758638]}, {"species": [{"element": "Cl", "occu": 1}], "abc": [0.28934227, 0.81182538, 0.09412951], "properties": {"magmom": -0.0}, "label": "Cl", "xyz": [4.899490352758638, 13.746801037520772, 1.593913762254294]}, {"species": [{"element": "Cl", "occu": 1}], "abc": [0.81182538, 0.90587049, 0.71065773], "properties": {"magmom": -0.0}, "label": "Cl", "xyz": [13.746801037520772, 15.339285637745705, 12.033709047241361]}, {"species": [{"element": "Cl", "occu": 1}], "abc": [0.81182538, 0.09412951, 0.28934227], "properties": {"magmom": -0.0}, "label": "Cl", "xyz": [13.746801037520772, 1.593913762254294, 4.899490352758638]}, {"species": [{"element": "Cl", "occu": 1}], "abc": [0.18817462000000001, 0.09412951, 0.71065773], "properties": {"magmom": -0.0}, "label": "Cl", "xyz": [3.186398362479228, 1.593913762254294, 12.033709047241361]}, {"species": [{"element": "Cl", "occu": 1}], "abc": [0.18817462000000001, 0.90587049, 0.28934227], "properties": {"magmom": -0.0}, "label": "Cl", "xyz": [3.186398362479228, 15.339285637745705, 4.899490352758638]}, {"species": [{"element": "Cl", "occu": 1}], "abc": [0.06938032, 0.42066414, 0.17180834], "properties": {"magmom": -0.0}, "label": "Cl", "xyz": [1.174830792995808, 7.123189763049516, 2.909264879802996]}, {"species": [{"element": "Cl", "occu": 1}], "abc": [0.9306196800000001, 0.57933586, 0.17180834], "properties": {"magmom": -0.0}, "label": "Cl", "xyz": [15.758368607004192, 9.810009636950484, 2.909264879802996]}, {"species": [{"element": "Cl", "occu": 1}], "abc": [0.9306196800000001, 0.42066414, 0.82819166], "properties": {"magmom": -0.0}, "label": "Cl", "xyz": [15.758368607004192, 7.123189763049516, 14.023934520197004]}, {"species": [{"element": "Cl", "occu": 1}], "abc": [0.17180834, 0.06938032, 0.42066414], "properties": {"magmom": -0.0}, "label": "Cl", "xyz": [2.909264879802996, 1.174830792995808, 7.123189763049516]}, {"species": [{"element": "Cl", "occu": 1}], "abc": [0.92066414, 0.56938032, 0.67180834], "properties": {"magmom": -0.0}, "label": "Cl", "xyz": [15.589789463049515, 9.64143049299581, 11.375864579802995]}, {"species": [{"element": "Cl", "occu": 1}], "abc": [0.06938032, 0.57933586, 0.82819166], "properties": {"magmom": -0.0}, "label": "Cl", "xyz": [1.174830792995808, 9.810009636950484, 14.023934520197004]}, {"species": [{"element": "Cl", "occu": 1}], "abc": [0.17180834, 0.9306196800000001, 0.57933586], "properties": {"magmom": -0.0}, "label": "Cl", "xyz": [2.909264879802996, 15.758368607004192, 9.810009636950484]}, {"species": [{"element": "Cl", "occu": 1}], "abc": [0.07933586000000001, 0.43061968, 0.67180834], "properties": {"magmom": -0.0}, "label": "Cl", "xyz": [1.3434099369504842, 7.291768907004192, 11.375864579802995]}, {"species": [{"element": "Cl", "occu": 1}], "abc": [0.82819166, 0.9306196800000001, 0.42066414], "properties": {"magmom": -0.0}, "label": "Cl", "xyz": [14.023934520197004, 15.758368607004192, 7.123189763049516]}, {"species": [{"element": "Cl", "occu": 1}], "abc": [0.92066414, 0.43061968, 0.32819166], "properties": {"magmom": -0.0}, "label": "Cl", "xyz": [15.589789463049515, 7.291768907004192, 5.557334820197004]}, {"species": [{"element": "Cl", "occu": 1}], "abc": [0.82819166, 0.06938032, 0.57933586], "properties": {"magmom": -0.0}, "label": "Cl", "xyz": [14.023934520197004, 1.174830792995808, 9.810009636950484]}, {"species": [{"element": "Cl", "occu": 1}], "abc": [0.07933586000000001, 0.56938032, 0.32819166], "properties": {"magmom": -0.0}, "label": "Cl", "xyz": [1.3434099369504842, 9.64143049299581, 5.557334820197004]}, {"species": [{"element": "Cl", "occu": 1}], "abc": [0.42066414, 0.17180834, 0.06938032], "properties": {"magmom": -0.0}, "label": "Cl", "xyz": [7.123189763049516, 2.909264879802996, 1.174830792995808]}, {"species": [{"element": "Cl", "occu": 1}], "abc": [0.56938032, 0.67180834, 0.92066414], "properties": {"magmom": -0.0}, "label": "Cl", "xyz": [9.64143049299581, 11.375864579802995, 15.589789463049515]}, {"species": [{"element": "Cl", "occu": 1}], "abc": [0.42066414, 0.82819166, 0.9306196800000001], "properties": {"magmom": -0.0}, "label": "Cl", "xyz": [7.123189763049516, 14.023934520197004, 15.758368607004192]}, {"species": [{"element": "Cl", "occu": 1}], "abc": [0.43061968, 0.32819166, 0.92066414], "properties": {"magmom": -0.0}, "label": "Cl", "xyz": [7.291768907004192, 5.557334820197004, 15.589789463049515]}, {"species": [{"element": "Cl", "occu": 1}], "abc": [0.57933586, 0.82819166, 0.06938032], "properties": {"magmom": -0.0}, "label": "Cl", "xyz": [9.810009636950484, 14.023934520197004, 1.174830792995808]}, {"species": [{"element": "Cl", "occu": 1}], "abc": [0.56938032, 0.32819166, 0.07933586000000001], "properties": {"magmom": -0.0}, "label": "Cl", "xyz": [9.64143049299581, 5.557334820197004, 1.3434099369504842]}, {"species": [{"element": "Cl", "occu": 1}], "abc": [0.57933586, 0.17180834, 0.9306196800000001], "properties": {"magmom": -0.0}, "label": "Cl", "xyz": [9.810009636950484, 2.909264879802996, 15.758368607004192]}, {"species": [{"element": "Cl", "occu": 1}], "abc": [0.43061968, 0.67180834, 0.07933586000000001], "properties": {"magmom": -0.0}, "label": "Cl", "xyz": [7.291768907004192, 11.375864579802995, 1.3434099369504842]}, {"species": [{"element": "Cl", "occu": 1}], "abc": [0.67180834, 0.92066414, 0.56938032], "properties": {"magmom": -0.0}, "label": "Cl", "xyz": [11.375864579802995, 15.589789463049515, 9.64143049299581]}, {"species": [{"element": "Cl", "occu": 1}], "abc": [0.67180834, 0.07933586000000001, 0.43061968], "properties": {"magmom": -0.0}, "label": "Cl", "xyz": [11.375864579802995, 1.3434099369504842, 7.291768907004192]}, {"species": [{"element": "Cl", "occu": 1}], "abc": [0.32819166, 0.07933586000000001, 0.56938032], "properties": {"magmom": -0.0}, "label": "Cl", "xyz": [5.557334820197004, 1.3434099369504842, 9.64143049299581]}, {"species": [{"element": "Cl", "occu": 1}], "abc": [0.32819166, 0.92066414, 0.43061968], "properties": {"magmom": -0.0}, "label": "Cl", "xyz": [5.557334820197004, 15.589789463049515, 7.291768907004192]}]}, "task_ids": null, "uncorrected_energy_per_atom": null, "energy_per_atom": -2.944405329312499, "formation_energy_per_atom": -0.6378991758125, "energy_above_hull": 0.0, "is_stable": true, "equilibrium_reaction_energy_per_atom": null, "decomposes_to": null, "xas": null, "grain_boundaries": null, "band_gap": 2.6189, "cbm": null, "vbm": null, "efermi": -0.51326788, "is_gap_direct": null, "is_metal": null, "es_source_calc_id": null, "bandstructure": null, "dos": null, "dos_energy_up": null, "dos_energy_down": null, "is_magnetic": null, "ordering": null, "total_magnetization": 0.0, "total_magnetization_normalized_vol": null, "total_magnetization_normalized_formula_units": null, "num_magnetic_sites": null, "num_unique_magnetic_sites": null, "types_of_magnetic_species": null, "bulk_modulus": null, "shear_modulus": null, "universal_anisotropy": null, "homogeneous_poisson": null, "e_total": null, "e_ionic": null, "e_electronic": null, "n": null, "e_ij_max": null, "weighted_surface_energy_EV_PER_ANG2": null, "weighted_surface_energy": null, "weighted_work_function": null, "surface_anisotropy": null, "shape_factor": null, "has_reconstructed": null, "possible_species": null, "has_props": null, "theoretical": null, "database_IDs": null, "fields_not_requested": ["builder_meta", "nsites", "elements", "nelements", "composition", "composition_reduced", "chemsys", "symmetry", "property_name", "deprecated", "deprecation_reasons", "last_updated", "origins", "warnings", "task_ids", "uncorrected_energy_per_atom", "equilibrium_reaction_energy_per_atom", "decomposes_to", "xas", "grain_boundaries", "cbm", "vbm", "is_gap_direct", "is_metal", "es_source_calc_id", "bandstructure", "dos", "dos_energy_up", "dos_energy_down", "is_magnetic", "ordering", "total_magnetization_normalized_vol", "total_magnetization_normalized_formula_units", "num_magnetic_sites", "num_unique_magnetic_sites", "types_of_magnetic_species", "bulk_modulus", "shear_modulus", "universal_anisotropy", "homogeneous_poisson", "e_total", "e_ionic", "e_electronic", "n", "e_ij_max", "weighted_surface_energy_EV_PER_ANG2", "weighted_surface_energy", "weighted_work_function", "surface_anisotropy", "shape_factor", "has_reconstructed", "possible_species", "has_props", "theoretical", "database_IDs"]}