{"builder_meta": null, "nsites": null, "elements": null, "nelements": null, "composition": null, "composition_reduced": null, "formula_pretty": "ScMn2", "formula_anonymous": "AB2", "chemsys": null, "volume": 203.54109643401657, "density": 5.05263246755157, "density_atomic": 16.961758036168046, "symmetry": null, "property_name": null, "material_id": "mp-2039", "deprecated": null, "deprecation_reasons": null, "last_updated": null, "origins": null, "warnings": null, "structure": {"@module": "pymatgen.core.structure", "@class": "Structure", "charge": 0, "lattice": {"matrix": [[5.34235869, 7.947000000000001e-05, 2.84e-06], [-2.67111035, 4.6266586400000005, 2.799999999999998e-07], [1.46e-06, 2.5300000000000003e-06, 8.23470183]], "pbc": [true, true, true], "a": 5.342358690591832, "b": 5.342359092476268, "c": 8.234701830000517, "alpha": 89.99998683107066, "beta": 89.99995938282522, "gamma": 119.9982907808485, "volume": 203.5410964340166}, "properties": {}, "sites": [{"species": [{"element": "Sc", "occu": 1}], "abc": [0.33333043, 0.66666731, 0.06594515000000001], "properties": {"magmom": 0.544}, "label": "Sc", "xyz": [2.886388419727918e-05, 3.0844687264275605, 0.5430397807098926]}, {"species": [{"element": "Sc", "occu": 1}], "abc": [0.6666702, 0.3333335, 0.5659923], "properties": {"magmom": 0.544}, "label": "Sc", "xyz": [2.6712216008310707, 1.5422747300177533, 4.660779815252657]}, {"species": [{"element": "Sc", "occu": 1}], "abc": [0.66666957, 0.33333269, 0.93405485], "properties": {"magmom": 0.544}, "label": "Sc", "xyz": [2.671220936115803, 1.54227191357244, 7.691665169290109]}, {"species": [{"element": "Sc", "occu": 1}], "abc": [0.3333298, 0.666666499999999, 0.4340077], "properties": {"magmom": 0.544}, "label": "Sc", "xyz": [2.8199168931565055e-05, 3.084465909982243, 3.5739251347473435]}, {"species": [{"element": "Mn", "occu": 1}], "abc": [0.0, 0.0, 0.0], "properties": {"magmom": 3.610999999999999}, "label": "Mn", "xyz": [0.0, 0.0, 0.0]}, {"species": [{"element": "Mn", "occu": 1}], "abc": [0.0, 0.0, 0.5], "properties": {"magmom": 3.613}, "label": "Mn", "xyz": [7.3e-07, 1.2650000000000002e-06, 4.117350915]}, {"species": [{"element": "Mn", "occu": 1}], "abc": [0.82901687, 0.6580359, 0.24994394], "properties": {"magmom": -3.356}, "label": "Mn", "xyz": [2.6712193413576877, 3.0445739964940035, 2.0582163587733735]}, {"species": [{"element": "Mn", "occu": 1}], "abc": [0.17098692000000001, 0.82902464, 0.7500559], "properties": {"magmom": -3.356}, "label": "Mn", "xyz": [-1.3009417432890749, 3.8356294994008495, 6.176487410062049]}, {"species": [{"element": "Mn", "occu": 1}], "abc": [0.65804256, 0.82902651, 0.75005593], "properties": {"magmom": -3.356}, "label": "Mn", "xyz": [1.301079192602126, 3.835676857564293, 6.176489040341647]}, {"species": [{"element": "Mn", "occu": 1}], "abc": [0.34195744, 0.17097349, 0.24994407000000002], "properties": {"magmom": -3.356}, "label": "Mn", "xyz": [1.3701706073978743, 0.7910637824357076, 2.0582159096583554]}, {"species": [{"element": "Mn", "occu": 1}], "abc": [0.8290130800000001, 0.17097536, 0.2499441], "properties": {"magmom": -3.356}, "label": "Mn", "xyz": [3.9721915432890764, 0.791111140599151, 2.058217539937951]}, {"species": [{"element": "Mn", "occu": 1}], "abc": [0.17098313, 0.3419641, 0.75005606], "properties": {"magmom": -3.356}, "label": "Mn", "xyz": [3.045864231239016e-05, 1.5821666435059971, 6.176488591226628]}]}, "task_ids": null, "uncorrected_energy_per_atom": null, "energy_per_atom": -13.757095673333334, "formation_energy_per_atom": -0.168710104655171, "energy_above_hull": 0.0, "is_stable": true, "equilibrium_reaction_energy_per_atom": null, "decomposes_to": null, "xas": null, "grain_boundaries": null, "band_gap": 0.0, "cbm": null, "vbm": null, "efermi": 5.60004222, "is_gap_direct": null, "is_metal": null, "es_source_calc_id": null, "bandstructure": null, "dos": null, "dos_energy_up": null, "dos_energy_down": null, "is_magnetic": null, "ordering": null, "total_magnetization": 9.531692, "total_magnetization_normalized_vol": null, "total_magnetization_normalized_formula_units": null, "num_magnetic_sites": null, "num_unique_magnetic_sites": null, "types_of_magnetic_species": null, "bulk_modulus": null, "shear_modulus": null, "universal_anisotropy": null, "homogeneous_poisson": null, "e_total": null, "e_ionic": null, "e_electronic": null, "n": null, "e_ij_max": null, "weighted_surface_energy_EV_PER_ANG2": null, "weighted_surface_energy": null, "weighted_work_function": null, "surface_anisotropy": null, "shape_factor": null, "has_reconstructed": null, "possible_species": null, "has_props": null, "theoretical": null, "database_IDs": null, "fields_not_requested": ["builder_meta", "nsites", "elements", "nelements", "composition", "composition_reduced", "chemsys", "symmetry", "property_name", "deprecated", "deprecation_reasons", "last_updated", "origins", "warnings", "task_ids", "uncorrected_energy_per_atom", "equilibrium_reaction_energy_per_atom", "decomposes_to", "xas", "grain_boundaries", "cbm", "vbm", "is_gap_direct", "is_metal", "es_source_calc_id", "bandstructure", "dos", "dos_energy_up", "dos_energy_down", "is_magnetic", "ordering", "total_magnetization_normalized_vol", "total_magnetization_normalized_formula_units", "num_magnetic_sites", "num_unique_magnetic_sites", "types_of_magnetic_species", "bulk_modulus", "shear_modulus", "universal_anisotropy", "homogeneous_poisson", "e_total", "e_ionic", "e_electronic", "n", "e_ij_max", "weighted_surface_energy_EV_PER_ANG2", "weighted_surface_energy", "weighted_work_function", "surface_anisotropy", "shape_factor", "has_reconstructed", "possible_species", "has_props", "theoretical", "database_IDs"]}