{"builder_meta": null, "nsites": null, "elements": null, "nelements": null, "composition": null, "composition_reduced": null, "formula_pretty": "ScNi2", "formula_anonymous": "AB2", "chemsys": null, "volume": 80.50237736607001, "density": 6.697352904944474, "density_atomic": 13.417062894345001, "symmetry": null, "property_name": null, "material_id": "mp-850", "deprecated": null, "deprecation_reasons": null, "last_updated": null, "origins": null, "warnings": null, "structure": {"@module": "pymatgen.core.structure", "@class": "Structure", "charge": 0, "lattice": {"matrix": [[4.19731958, 0.0, 2.42332381], [1.39910653, 3.95726665, 2.42332381], [0.0, 0.0, 4.8466466]], "pbc": [true, true, true], "a": 4.846647289081834, "b": 4.846643860405237, "c": 4.8466466, "alpha": 59.99997433968467, "beta": 59.99999774139023, "gamma": 59.99997505314943, "volume": 80.50237736607001}, "properties": {}, "sites": [{"species": [{"element": "Sc", "occu": 1}], "abc": [0.125, 0.124999, 0.125], "properties": {"magmom": 0.0}, "label": "Sc", "xyz": [0.6995518646434701, 0.49465437398335005, 1.21165935417619]}, {"species": [{"element": "Sc", "occu": 1}], "abc": [0.875, 0.875000999999999, 0.875], "properties": {"magmom": 0.0}, "label": "Sc", "xyz": [4.896874245356529, 3.4626122760166465, 8.481634865823807]}, {"species": [{"element": "Ni", "occu": 1}], "abc": [0.0, 0.5, 0.5], "properties": {"magmom": 0.0}, "label": "Ni", "xyz": [0.699553265, 1.978633325, 3.6349852049999996]}, {"species": [{"element": "Ni", "occu": 1}], "abc": [0.5, 0.0, 0.5], "properties": {"magmom": 0.0}, "label": "Ni", "xyz": [2.09865979, 0.0, 3.6349852049999996]}, {"species": [{"element": "Ni", "occu": 1}], "abc": [0.5, 0.5, -0.0], "properties": {"magmom": 0.0}, "label": "Ni", "xyz": [2.798213055, 1.978633325, 2.42332381]}, {"species": [{"element": "Ni", "occu": 1}], "abc": [0.5, 0.5, 0.5], "properties": {"magmom": 0.0}, "label": "Ni", "xyz": [2.798213055, 1.978633325, 4.846647109999999]}]}, "task_ids": null, "uncorrected_energy_per_atom": null, "energy_per_atom": -6.485169296666666, "formation_energy_per_atom": -0.520921808333332, "energy_above_hull": 0.0, "is_stable": true, "equilibrium_reaction_energy_per_atom": null, "decomposes_to": null, "xas": null, "grain_boundaries": null, "band_gap": 0.0, "cbm": null, "vbm": null, "efermi": 6.85009494, "is_gap_direct": null, "is_metal": null, "es_source_calc_id": null, "bandstructure": null, "dos": null, "dos_energy_up": null, "dos_energy_down": null, "is_magnetic": null, "ordering": null, "total_magnetization": 1e-07, "total_magnetization_normalized_vol": null, "total_magnetization_normalized_formula_units": null, "num_magnetic_sites": null, "num_unique_magnetic_sites": null, "types_of_magnetic_species": null, "bulk_modulus": null, "shear_modulus": null, "universal_anisotropy": null, "homogeneous_poisson": null, "e_total": null, "e_ionic": null, "e_electronic": null, "n": null, "e_ij_max": null, "weighted_surface_energy_EV_PER_ANG2": null, "weighted_surface_energy": null, "weighted_work_function": null, "surface_anisotropy": null, "shape_factor": null, "has_reconstructed": null, "possible_species": null, "has_props": null, "theoretical": null, "database_IDs": null, "fields_not_requested": ["builder_meta", "nsites", "elements", "nelements", "composition", "composition_reduced", "chemsys", "symmetry", "property_name", "deprecated", "deprecation_reasons", "last_updated", "origins", "warnings", "task_ids", "uncorrected_energy_per_atom", "equilibrium_reaction_energy_per_atom", "decomposes_to", "xas", "grain_boundaries", "cbm", "vbm", "is_gap_direct", "is_metal", "es_source_calc_id", "bandstructure", "dos", "dos_energy_up", "dos_energy_down", "is_magnetic", "ordering", "total_magnetization_normalized_vol", "total_magnetization_normalized_formula_units", "num_magnetic_sites", "num_unique_magnetic_sites", "types_of_magnetic_species", "bulk_modulus", "shear_modulus", "universal_anisotropy", "homogeneous_poisson", "e_total", "e_ionic", "e_electronic", "n", "e_ij_max", "weighted_surface_energy_EV_PER_ANG2", "weighted_surface_energy", "weighted_work_function", "surface_anisotropy", "shape_factor", "has_reconstructed", "possible_species", "has_props", "theoretical", "database_IDs"]}