{"builder_meta": null, "nsites": null, "elements": null, "nelements": null, "composition": null, "composition_reduced": null, "formula_pretty": "ScO2", "formula_anonymous": "AB2", "chemsys": null, "volume": 176.55397838819457, "density": 2.895121521509624, "density_atomic": 14.712831532349547, "symmetry": null, "property_name": null, "material_id": "mp-1179114", "deprecated": null, "deprecation_reasons": null, "last_updated": null, "origins": null, "warnings": null, "structure": {"@module": "pymatgen.core.structure", "@class": "Structure", "charge": 0, "lattice": {"matrix": [[3.246837, 0.0, 0.0], [0.0, 5.282277, 0.0], [0.0, 0.0, 10.294277]], "pbc": [true, true, true], "a": 3.246837, "b": 5.282277, "c": 10.294277, "alpha": 90.0, "beta": 90.0, "gamma": 90.0, "volume": 176.55397838819457}, "properties": {}, "sites": [{"species": [{"element": "Sc", "occu": 1}], "abc": [0.25, 0.394735, 0.340128999999999], "properties": {"magmom": -0.023}, "label": "Sc", "xyz": [0.81170925, 2.085099611595, 3.50138214173299]}, {"species": [{"element": "Sc", "occu": 1}], "abc": [0.25, 0.105265, 0.840129], "properties": {"magmom": -0.023}, "label": "Sc", "xyz": [0.81170925, 0.5560388884049999, 8.648520641732999]}, {"species": [{"element": "Sc", "occu": 1}], "abc": [0.75, 0.605264999999999, 0.659871], "properties": {"magmom": -0.023}, "label": "Sc", "xyz": [2.4351277500000004, 3.1971773884049948, 6.792894858266999]}, {"species": [{"element": "Sc", "occu": 1}], "abc": [0.75, 0.894735, 0.15987099999999901], "properties": {"magmom": -0.023}, "label": "Sc", "xyz": [2.4351277500000004, 4.726238111594999, 1.6457563582669896]}, {"species": [{"element": "O", "occu": 1}], "abc": [0.25, 0.809495, 0.715456], "properties": {"magmom": 0.059000000000000004}, "label": "O", "xyz": [0.81170925, 4.275976820115, 7.365102245311999]}, {"species": [{"element": "O", "occu": 1}], "abc": [0.25, 0.690504999999999, 0.215455999999999], "properties": {"magmom": 0.059000000000000004}, "label": "O", "xyz": [0.81170925, 3.6474386798849947, 2.2179637453119896]}, {"species": [{"element": "O", "occu": 1}], "abc": [0.75, 0.190504999999999, 0.284543999999999], "properties": {"magmom": 0.059000000000000004}, "label": "O", "xyz": [2.4351277500000004, 1.0063001798849946, 2.9291747546879896]}, {"species": [{"element": "O", "occu": 1}], "abc": [0.75, 0.309494999999999, 0.784544], "properties": {"magmom": 0.059000000000000004}, "label": "O", "xyz": [2.4351277500000004, 1.6348383201149947, 8.076313254688]}, {"species": [{"element": "O", "occu": 1}], "abc": [0.25, 0.382534999999999, 0.547026999999999], "properties": {"magmom": 0.795}, "label": "O", "xyz": [0.81170925, 2.020655832194995, 5.63124746447899]}, {"species": [{"element": "O", "occu": 1}], "abc": [0.25, 0.117465, 0.047027], "properties": {"magmom": 0.795}, "label": "O", "xyz": [0.81170925, 0.6204826678049999, 0.484108964479]}, {"species": [{"element": "O", "occu": 1}], "abc": [0.75, 0.617464999999999, 0.452972999999999], "properties": {"magmom": 0.795}, "label": "O", "xyz": [2.4351277500000004, 3.2616211678049947, 4.663029535520989]}, {"species": [{"element": "O", "occu": 1}], "abc": [0.75, 0.882535, 0.952973], "properties": {"magmom": 0.795}, "label": "O", "xyz": [2.4351277500000004, 4.661794332194999, 9.810168035520999]}]}, "task_ids": null, "uncorrected_energy_per_atom": null, "energy_per_atom": -8.444467868333332, "formation_energy_per_atom": -3.035004163333332, "energy_above_hull": 0.272273037291666, "is_stable": false, "equilibrium_reaction_energy_per_atom": null, "decomposes_to": null, "xas": null, "grain_boundaries": null, "band_gap": 0.5864, "cbm": null, "vbm": null, "efermi": 0.32283481, "is_gap_direct": null, "is_metal": null, "es_source_calc_id": null, "bandstructure": null, "dos": null, "dos_energy_up": null, "dos_energy_down": null, "is_magnetic": null, "ordering": null, "total_magnetization": 3.9992716, "total_magnetization_normalized_vol": null, "total_magnetization_normalized_formula_units": null, "num_magnetic_sites": null, "num_unique_magnetic_sites": null, "types_of_magnetic_species": null, "bulk_modulus": null, "shear_modulus": null, "universal_anisotropy": null, "homogeneous_poisson": null, "e_total": null, "e_ionic": null, "e_electronic": null, "n": null, "e_ij_max": null, "weighted_surface_energy_EV_PER_ANG2": null, "weighted_surface_energy": null, "weighted_work_function": null, "surface_anisotropy": null, "shape_factor": null, "has_reconstructed": null, "possible_species": null, "has_props": null, "theoretical": null, "database_IDs": null, "fields_not_requested": ["builder_meta", "nsites", "elements", "nelements", "composition", "composition_reduced", "chemsys", "symmetry", "property_name", "deprecated", "deprecation_reasons", "last_updated", "origins", "warnings", "task_ids", "uncorrected_energy_per_atom", "equilibrium_reaction_energy_per_atom", "decomposes_to", "xas", "grain_boundaries", "cbm", "vbm", "is_gap_direct", "is_metal", "es_source_calc_id", "bandstructure", "dos", "dos_energy_up", "dos_energy_down", "is_magnetic", "ordering", "total_magnetization_normalized_vol", "total_magnetization_normalized_formula_units", "num_magnetic_sites", "num_unique_magnetic_sites", "types_of_magnetic_species", "bulk_modulus", "shear_modulus", "universal_anisotropy", "homogeneous_poisson", "e_total", "e_ionic", "e_electronic", "n", "e_ij_max", "weighted_surface_energy_EV_PER_ANG2", "weighted_surface_energy", "weighted_work_function", "surface_anisotropy", "shape_factor", "has_reconstructed", "possible_species", "has_props", "theoretical", "database_IDs"]}