{"builder_meta": null, "nsites": null, "elements": null, "nelements": null, "composition": null, "composition_reduced": null, "formula_pretty": "ScO3", "formula_anonymous": "AB3", "chemsys": null, "volume": 75.20180971737405, "density": 4.105059039329238, "density_atomic": 9.400226214671756, "symmetry": null, "property_name": null, "material_id": "mp-1186987", "deprecated": null, "deprecation_reasons": null, "last_updated": null, "origins": null, "warnings": null, "structure": {"@module": "pymatgen.core.structure", "@class": "Structure", "charge": 0, "lattice": {"matrix": [[2.183936, -3.782687, 0.0], [2.183936, 3.782687, 0.0], [0.0, 0.0, 4.5515360000000005]], "pbc": [true, true, true], "a": 4.367871036565183, "b": 4.367871036565183, "c": 4.5515360000000005, "alpha": 90.0, "beta": 90.0, "gamma": 119.99998540700119, "volume": 75.20180971737406}, "properties": {}, "sites": [{"species": [{"element": "Sc", "occu": 1}], "abc": [0.333333, 0.666667, 0.75], "properties": {"magmom": 0.0}, "label": "Sc", "xyz": [2.183936, 1.2608981884580002, 3.4136520000000004]}, {"species": [{"element": "Sc", "occu": 1}], "abc": [0.666667, 0.333333, 0.25], "properties": {"magmom": 0.0}, "label": "Sc", "xyz": [2.183936, -1.2608981884580002, 1.1378840000000001]}, {"species": [{"element": "O", "occu": 1}], "abc": [0.173968999999999, 0.347937999999999, 0.25], "properties": {"magmom": -0.001}, "label": "O", "xyz": [1.1398114859519959, 0.6580702747030001, 1.1378840000000001]}, {"species": [{"element": "O", "occu": 1}], "abc": [0.652061999999999, 0.826031, 0.25], "properties": {"magmom": -0.001}, "label": "O", "xyz": [3.228060514047998, 0.6580702747030034, 1.1378840000000001]}, {"species": [{"element": "O", "occu": 1}], "abc": [0.173968999999999, 0.826031, 0.25], "properties": {"magmom": -0.001}, "label": "O", "xyz": [2.183935999999998, 2.4665464505940036, 1.1378840000000001]}, {"species": [{"element": "O", "occu": 1}], "abc": [0.826031, 0.652061999999999, 0.75], "properties": {"magmom": -0.001}, "label": "O", "xyz": [3.228060514047998, -0.6580702747030034, 3.4136520000000004]}, {"species": [{"element": "O", "occu": 1}], "abc": [0.347937999999999, 0.173968999999999, 0.75], "properties": {"magmom": -0.001}, "label": "O", "xyz": [1.1398114859519959, -0.6580702747030001, 3.4136520000000004]}, {"species": [{"element": "O", "occu": 1}], "abc": [0.826031, 0.173968999999999, 0.75], "properties": {"magmom": -0.001}, "label": "O", "xyz": [2.183935999999998, -2.4665464505940036, 3.4136520000000004]}]}, "task_ids": null, "uncorrected_energy_per_atom": null, "energy_per_atom": -7.08160816625, "formation_energy_per_atom": -1.787520136249999, "energy_above_hull": 0.6929377642187491, "is_stable": false, "equilibrium_reaction_energy_per_atom": null, "decomposes_to": null, "xas": null, "grain_boundaries": null, "band_gap": 0.0, "cbm": null, "vbm": null, "efermi": 4.0754743, "is_gap_direct": null, "is_metal": null, "es_source_calc_id": null, "bandstructure": null, "dos": null, "dos_energy_up": null, "dos_energy_down": null, "is_magnetic": null, "ordering": null, "total_magnetization": 0.0103501, "total_magnetization_normalized_vol": null, "total_magnetization_normalized_formula_units": null, "num_magnetic_sites": null, "num_unique_magnetic_sites": null, "types_of_magnetic_species": null, "bulk_modulus": null, "shear_modulus": null, "universal_anisotropy": null, "homogeneous_poisson": null, "e_total": null, "e_ionic": null, "e_electronic": null, "n": null, "e_ij_max": null, "weighted_surface_energy_EV_PER_ANG2": null, "weighted_surface_energy": null, "weighted_work_function": null, "surface_anisotropy": null, "shape_factor": null, "has_reconstructed": null, "possible_species": null, "has_props": null, "theoretical": null, "database_IDs": null, "fields_not_requested": ["builder_meta", "nsites", "elements", "nelements", "composition", "composition_reduced", "chemsys", "symmetry", "property_name", "deprecated", "deprecation_reasons", "last_updated", "origins", "warnings", "task_ids", "uncorrected_energy_per_atom", "equilibrium_reaction_energy_per_atom", "decomposes_to", "xas", "grain_boundaries", "cbm", "vbm", "is_gap_direct", "is_metal", "es_source_calc_id", "bandstructure", "dos", "dos_energy_up", "dos_energy_down", "is_magnetic", "ordering", "total_magnetization_normalized_vol", "total_magnetization_normalized_formula_units", "num_magnetic_sites", "num_unique_magnetic_sites", "types_of_magnetic_species", "bulk_modulus", "shear_modulus", "universal_anisotropy", "homogeneous_poisson", "e_total", "e_ionic", "e_electronic", "n", "e_ij_max", "weighted_surface_energy_EV_PER_ANG2", "weighted_surface_energy", "weighted_work_function", "surface_anisotropy", "shape_factor", "has_reconstructed", "possible_species", "has_props", "theoretical", "database_IDs"]}