{"builder_meta": null, "nsites": null, "elements": null, "nelements": null, "composition": null, "composition_reduced": null, "formula_pretty": "ScRe2", "formula_anonymous": "AB2", "chemsys": null, "volume": 207.04393543398834, "density": 13.38960337373169, "density_atomic": 17.253661286165695, "symmetry": null, "property_name": null, "material_id": "mp-11557", "deprecated": null, "deprecation_reasons": null, "last_updated": null, "origins": null, "warnings": null, "structure": {"@module": "pymatgen.core.structure", "@class": "Structure", "charge": 0, "lattice": {"matrix": [[5.28014091, 0.0, 0.0], [-2.64006995, 4.57273594, -0.0], [0.0, -0.0, 8.57513327]], "pbc": [true, true, true], "a": 5.28014091, "b": 5.280140463838125, "c": 8.57513327, "alpha": 90.0, "beta": 90.0, "gamma": 119.99999646759117, "volume": 207.04393543398834}, "properties": {}, "sites": [{"species": [{"element": "Sc", "occu": 1}], "abc": [0.333333, 0.666667, 0.43746488], "properties": {"magmom": 0.0}, "label": "Sc", "xyz": [-2.3034036200630936e-06, 3.0484921509119802, 3.7513196469445576]}, {"species": [{"element": "Sc", "occu": 1}], "abc": [0.666667, 0.333333, 0.9374648800000001], "properties": {"magmom": 0.0}, "label": "Sc", "xyz": [2.64007326340362, 1.52424378908802, 8.038886281944558]}, {"species": [{"element": "Sc", "occu": 1}], "abc": [0.666667, 0.333333, 0.56253512], "properties": {"magmom": 0.0}, "label": "Sc", "xyz": [2.64007326340362, 1.52424378908802, 4.823813623055443]}, {"species": [{"element": "Sc", "occu": 1}], "abc": [0.333333, 0.666667, 0.06253512], "properties": {"magmom": 0.0}, "label": "Sc", "xyz": [-2.3034036200630936e-06, 3.0484921509119802, 0.5362469880554425]}, {"species": [{"element": "Re", "occu": 1}], "abc": [0.65660721, 0.82830311, 0.75], "properties": {"magmom": -0.0}, "label": "Re", "xyz": [1.2802004411194168, 3.7876114003107735, 6.4313499525]}, {"species": [{"element": "Re", "occu": 1}], "abc": [0.34339279, 0.17169689, 0.25], "properties": {"magmom": -0.0}, "label": "Re", "xyz": [1.3598705188805835, 0.7851245396892266, 2.1437833175]}, {"species": [{"element": "Re", "occu": 1}], "abc": [0.82830311, 0.17169689, 0.25], "properties": {"magmom": -0.0}, "label": "Re", "xyz": [3.9202653371937743, 0.7851245396892266, 2.1437833175]}, {"species": [{"element": "Re", "occu": 1}], "abc": [0.17169689, 0.34339279, 0.75], "properties": {"magmom": -0.0}, "label": "Re", "xyz": [2.787083109412336e-06, 1.5702445523698727, 6.4313499525]}, {"species": [{"element": "Re", "occu": 1}], "abc": [0.17169689, 0.82830311, 0.75], "properties": {"magmom": -0.0}, "label": "Re", "xyz": [-1.2801943771937747, 3.7876114003107735, 6.4313499525]}, {"species": [{"element": "Re", "occu": 1}], "abc": [0.82830311, 0.65660721, 0.25], "properties": {"magmom": -0.0}, "label": "Re", "xyz": [2.6400681729168904, 3.0024913876301276, 2.1437833175]}, {"species": [{"element": "Re", "occu": 1}], "abc": [-0.0, -0.0, 0.5], "properties": {"magmom": -0.0}, "label": "Re", "xyz": [0.0, 0.0, 4.287566635]}, {"species": [{"element": "Re", "occu": 1}], "abc": [-0.0, -0.0, -0.0], "properties": {"magmom": -0.0}, "label": "Re", "xyz": [0.0, 0.0, 0.0]}]}, "task_ids": null, "uncorrected_energy_per_atom": null, "energy_per_atom": -39.129222115833336, "formation_energy_per_atom": -0.38931652583333204, "energy_above_hull": 0.0, "is_stable": true, "equilibrium_reaction_energy_per_atom": null, "decomposes_to": null, "xas": null, "grain_boundaries": null, "band_gap": 0.0, "cbm": null, "vbm": null, "efermi": 6.06164916, "is_gap_direct": null, "is_metal": null, "es_source_calc_id": null, "bandstructure": null, "dos": null, "dos_energy_up": null, "dos_energy_down": null, "is_magnetic": null, "ordering": null, "total_magnetization": 1.67e-05, "total_magnetization_normalized_vol": null, "total_magnetization_normalized_formula_units": null, "num_magnetic_sites": null, "num_unique_magnetic_sites": null, "types_of_magnetic_species": null, "bulk_modulus": null, "shear_modulus": null, "universal_anisotropy": null, "homogeneous_poisson": null, "e_total": null, "e_ionic": null, "e_electronic": null, "n": null, "e_ij_max": null, "weighted_surface_energy_EV_PER_ANG2": null, "weighted_surface_energy": null, "weighted_work_function": null, "surface_anisotropy": null, "shape_factor": null, "has_reconstructed": null, "possible_species": null, "has_props": null, "theoretical": null, "database_IDs": null, "fields_not_requested": ["builder_meta", "nsites", "elements", "nelements", "composition", "composition_reduced", "chemsys", "symmetry", "property_name", "deprecated", "deprecation_reasons", "last_updated", "origins", "warnings", "task_ids", "uncorrected_energy_per_atom", "equilibrium_reaction_energy_per_atom", "decomposes_to", "xas", "grain_boundaries", "cbm", "vbm", "is_gap_direct", "is_metal", "es_source_calc_id", "bandstructure", "dos", "dos_energy_up", "dos_energy_down", "is_magnetic", "ordering", "total_magnetization_normalized_vol", "total_magnetization_normalized_formula_units", "num_magnetic_sites", "num_unique_magnetic_sites", "types_of_magnetic_species", "bulk_modulus", "shear_modulus", "universal_anisotropy", "homogeneous_poisson", "e_total", "e_ionic", "e_electronic", "n", "e_ij_max", "weighted_surface_energy_EV_PER_ANG2", "weighted_surface_energy", "weighted_work_function", "surface_anisotropy", "shape_factor", "has_reconstructed", "possible_species", "has_props", "theoretical", "database_IDs"]}