{"builder_meta": null, "nsites": null, "elements": null, "nelements": null, "composition": null, "composition_reduced": null, "formula_pretty": "ScRu2", "formula_anonymous": "AB2", "chemsys": null, "volume": 194.4607410519056, "density": 8.440005172326991, "density_atomic": 16.205061754325467, "symmetry": null, "property_name": null, "material_id": "mp-567750", "deprecated": null, "deprecation_reasons": null, "last_updated": null, "origins": null, "warnings": null, "structure": {"@module": "pymatgen.core.structure", "@class": "Structure", "charge": 0, "lattice": {"matrix": [[5.10082003, 0.0, 0.0], [-2.55041002, 4.41744012, 1.02e-06], [-0.0, 1.029999999999998e-06, 8.63020803]], "pbc": [true, true, true], "a": 5.10082003, "b": 5.100820373616685, "c": 8.630208030000063, "alpha": 89.99998262067577, "beta": 90.0, "gamma": 119.99999783643607, "volume": 194.4607410519056}, "properties": {}, "sites": [{"species": [{"element": "Sc", "occu": 1}], "abc": [0.333333, 0.666667, 0.43208855], "properties": {"magmom": -0.0}, "label": "Sc", "xyz": [-2.5537433501199303e-06, 2.9449619975312467, 3.7290147538813967]}, {"species": [{"element": "Sc", "occu": 1}], "abc": [0.666667, 0.333333, 0.56791145], "properties": {"magmom": -0.0}, "label": "Sc", "xyz": [2.5504125637433503, 1.4724791524687535, 4.901194296118604]}, {"species": [{"element": "Sc", "occu": 1}], "abc": [0.666667, 0.333333, 0.9320934], "properties": {"magmom": -0.0}, "label": "Sc", "xyz": [2.5504125637433503, 1.4724795275761622, 8.044160285389662]}, {"species": [{"element": "Sc", "occu": 1}], "abc": [0.333333, 0.666667, 0.0679066], "properties": {"magmom": -0.0}, "label": "Sc", "xyz": [-2.5537433501199303e-06, 2.944961622423838, 0.5860487646103381]}, {"species": [{"element": "Ru", "occu": 1}], "abc": [0.17198245, 0.343964899999999, 0.7500102200000001], "properties": {"magmom": 0.0}, "label": "Ru", "xyz": [-1.7198219515179858e-09, 1.5194451216423104, 6.472744574070266]}, {"species": [{"element": "Ru", "occu": 1}], "abc": [0.17198245, 0.82801855, 0.7500102200000001], "properties": {"magmom": 0.0}, "label": "Ru", "xyz": [-1.2345352808973977, 3.657723135384753, 6.472745067804988]}, {"species": [{"element": "Ru", "occu": 1}], "abc": [0.343964899999999, 0.17198245, 0.24998978], "properties": {"magmom": 0.0}, "label": "Ru", "xyz": [1.3158772877927931, 0.7597224320553675, 2.1574639821960324]}, {"species": [{"element": "Ru", "occu": 1}], "abc": [0.82801755, 0.6560351, 0.24998978], "properties": {"magmom": 0.0}, "label": "Ru", "xyz": [2.550410011719825, 2.8979960283576855, 2.1574644759297352]}, {"species": [{"element": "Ru", "occu": 1}], "abc": [0.6560351, 0.82801755, 0.7500102200000001], "properties": {"magmom": 0.0}, "label": "Ru", "xyz": [1.2345327222072018, 3.6577187179446327, 6.472745067803968]}, {"species": [{"element": "Ru", "occu": 1}], "abc": [0.0, 0.0, 0.0], "properties": {"magmom": 0.0}, "label": "Ru", "xyz": [0.0, 0.0, 0.0]}, {"species": [{"element": "Ru", "occu": 1}], "abc": [0.82801755, 0.17198145, 0.24998978], "properties": {"magmom": 0.0}, "label": "Ru", "xyz": [3.7849452908973977, 0.7597180146152475, 2.1574639821950123]}, {"species": [{"element": "Ru", "occu": 1}], "abc": [0.0, 0.0, 0.5], "properties": {"magmom": 0.0}, "label": "Ru", "xyz": [0.0, 5.14999999999999e-07, 4.315104015]}]}, "task_ids": null, "uncorrected_energy_per_atom": null, "energy_per_atom": -8.683817863333331, "formation_energy_per_atom": -0.39005980166666304, "energy_above_hull": 0.0, "is_stable": true, "equilibrium_reaction_energy_per_atom": null, "decomposes_to": null, "xas": null, "grain_boundaries": null, "band_gap": 0.0, "cbm": null, "vbm": null, "efermi": 6.41528927, "is_gap_direct": null, "is_metal": null, "es_source_calc_id": null, "bandstructure": null, "dos": null, "dos_energy_up": null, "dos_energy_down": null, "is_magnetic": null, "ordering": null, "total_magnetization": 1.899999999999999e-06, "total_magnetization_normalized_vol": null, "total_magnetization_normalized_formula_units": null, "num_magnetic_sites": null, "num_unique_magnetic_sites": null, "types_of_magnetic_species": null, "bulk_modulus": null, "shear_modulus": null, "universal_anisotropy": null, "homogeneous_poisson": null, "e_total": null, "e_ionic": null, "e_electronic": null, "n": null, "e_ij_max": null, "weighted_surface_energy_EV_PER_ANG2": null, "weighted_surface_energy": null, "weighted_work_function": null, "surface_anisotropy": null, "shape_factor": null, "has_reconstructed": null, "possible_species": null, "has_props": null, "theoretical": null, "database_IDs": null, "fields_not_requested": ["builder_meta", "nsites", "elements", "nelements", "composition", "composition_reduced", "chemsys", "symmetry", "property_name", "deprecated", "deprecation_reasons", "last_updated", "origins", "warnings", "task_ids", "uncorrected_energy_per_atom", "equilibrium_reaction_energy_per_atom", "decomposes_to", "xas", "grain_boundaries", "cbm", "vbm", "is_gap_direct", "is_metal", "es_source_calc_id", "bandstructure", "dos", "dos_energy_up", "dos_energy_down", "is_magnetic", "ordering", "total_magnetization_normalized_vol", "total_magnetization_normalized_formula_units", "num_magnetic_sites", "num_unique_magnetic_sites", "types_of_magnetic_species", "bulk_modulus", "shear_modulus", "universal_anisotropy", "homogeneous_poisson", "e_total", "e_ionic", "e_electronic", "n", "e_ij_max", "weighted_surface_energy_EV_PER_ANG2", "weighted_surface_energy", "weighted_work_function", "surface_anisotropy", "shape_factor", "has_reconstructed", "possible_species", "has_props", "theoretical", "database_IDs"]}