{
  "builder_meta": null,
  "nsites": null,
  "elements": null,
  "nelements": null,
  "composition": null,
  "composition_reduced": null,
  "formula_pretty": "ScS2",
  "formula_anonymous": "AB2",
  "chemsys": null,
  "volume": 138.583250612177,
  "density": 2.614189199510279,
  "density_atomic": 23.097208435362834,
  "symmetry": null,
  "property_name": null,
  "material_id": "mp-862373",
  "deprecated": null,
  "deprecation_reasons": null,
  "last_updated": null,
  "origins": null,
  "warnings": null,
  "structure": {
    "@module": "pymatgen.core.structure",
    "@class": "Structure",
    "charge": 0,
    "lattice": {
      "matrix": [
        [6.061861, 0.0, 0.0],
        [0.0, 6.061861, 0.0],
        [0.0, 0.0, 3.771366999999999]
      ],
      "pbc": [true, true, true],
      "a": 6.061861,
      "b": 6.061861,
      "c": 3.771366999999999,
      "alpha": 90.0,
      "beta": 90.0,
      "gamma": 90.0,
      "volume": 138.58325061217695
    },
    "properties": {},
    "sites": [
      {
        "species": [{ "element": "Sc", "occu": 1 }],
        "abc": [0.0, 0.0, 0.0],
        "properties": { "magmom": 0.0 },
        "label": "Sc",
        "xyz": [0.0, 0.0, 0.0]
      },
      {
        "species": [{ "element": "Sc", "occu": 1 }],
        "abc": [0.5, 0.5, 0.5],
        "properties": { "magmom": -0.0 },
        "label": "Sc",
        "xyz": [3.0309305, 3.0309305, 1.8856834999999994]
      },
      {
        "species": [{ "element": "S", "occu": 1 }],
        "abc": [0.296809, 0.296809, 0.0],
        "properties": { "magmom": -0.042 },
        "label": "S",
        "xyz": [1.799214901549, 1.799214901549, 0.0]
      },
      {
        "species": [{ "element": "S", "occu": 1 }],
        "abc": [0.703191, 0.703191, 0.0],
        "properties": { "magmom": -0.043000000000000003 },
        "label": "S",
        "xyz": [4.262646098451, 4.262646098451, 0.0]
      },
      {
        "species": [{ "element": "S", "occu": 1 }],
        "abc": [0.203190999999999, 0.796809, 0.5],
        "properties": { "magmom": -0.04 },
        "label": "S",
        "xyz": [1.231715598450994, 4.830145401549, 1.8856834999999994]
      },
      {
        "species": [{ "element": "S", "occu": 1 }],
        "abc": [0.796809, 0.203190999999999, 0.5],
        "properties": { "magmom": -0.041 },
        "label": "S",
        "xyz": [4.830145401549, 1.231715598450994, 1.8856834999999994]
      }
    ]
  },
  "task_ids": null,
  "uncorrected_energy_per_atom": null,
  "energy_per_atom": -10.650976538802084,
  "formation_energy_per_atom": -1.494814699010416,
  "energy_above_hull": 0.314399350729166,
  "is_stable": false,
  "equilibrium_reaction_energy_per_atom": null,
  "decomposes_to": null,
  "xas": null,
  "grain_boundaries": null,
  "band_gap": 0.0,
  "cbm": null,
  "vbm": null,
  "efermi": 2.25613096,
  "is_gap_direct": null,
  "is_metal": null,
  "es_source_calc_id": null,
  "bandstructure": null,
  "dos": null,
  "dos_energy_up": null,
  "dos_energy_down": null,
  "is_magnetic": null,
  "ordering": null,
  "total_magnetization": 0.193835099999999,
  "total_magnetization_normalized_vol": null,
  "total_magnetization_normalized_formula_units": null,
  "num_magnetic_sites": null,
  "num_unique_magnetic_sites": null,
  "types_of_magnetic_species": null,
  "bulk_modulus": null,
  "shear_modulus": null,
  "universal_anisotropy": null,
  "homogeneous_poisson": null,
  "e_total": null,
  "e_ionic": null,
  "e_electronic": null,
  "n": null,
  "e_ij_max": null,
  "weighted_surface_energy_EV_PER_ANG2": null,
  "weighted_surface_energy": null,
  "weighted_work_function": null,
  "surface_anisotropy": null,
  "shape_factor": null,
  "has_reconstructed": null,
  "possible_species": null,
  "has_props": null,
  "theoretical": null,
  "database_IDs": null,
  "fields_not_requested": [
    "builder_meta",
    "nsites",
    "elements",
    "nelements",
    "composition",
    "composition_reduced",
    "chemsys",
    "symmetry",
    "property_name",
    "deprecated",
    "deprecation_reasons",
    "last_updated",
    "origins",
    "warnings",
    "task_ids",
    "uncorrected_energy_per_atom",
    "equilibrium_reaction_energy_per_atom",
    "decomposes_to",
    "xas",
    "grain_boundaries",
    "cbm",
    "vbm",
    "is_gap_direct",
    "is_metal",
    "es_source_calc_id",
    "bandstructure",
    "dos",
    "dos_energy_up",
    "dos_energy_down",
    "is_magnetic",
    "ordering",
    "total_magnetization_normalized_vol",
    "total_magnetization_normalized_formula_units",
    "num_magnetic_sites",
    "num_unique_magnetic_sites",
    "types_of_magnetic_species",
    "bulk_modulus",
    "shear_modulus",
    "universal_anisotropy",
    "homogeneous_poisson",
    "e_total",
    "e_ionic",
    "e_electronic",
    "n",
    "e_ij_max",
    "weighted_surface_energy_EV_PER_ANG2",
    "weighted_surface_energy",
    "weighted_work_function",
    "surface_anisotropy",
    "shape_factor",
    "has_reconstructed",
    "possible_species",
    "has_props",
    "theoretical",
    "database_IDs"
  ]
}
