{
  "builder_meta": null,
  "nsites": null,
  "elements": null,
  "nelements": null,
  "composition": null,
  "composition_reduced": null,
  "formula_pretty": "ScSn2",
  "formula_anonymous": "AB2",
  "chemsys": null,
  "volume": 282.4047354783488,
  "density": 6.641478338506865,
  "density_atomic": 23.533727956529066,
  "symmetry": null,
  "property_name": null,
  "material_id": "mp-2398",
  "deprecated": null,
  "deprecation_reasons": null,
  "last_updated": null,
  "origins": null,
  "warnings": null,
  "structure": {
    "@module": "pymatgen.core.structure",
    "@class": "Structure",
    "charge": 0,
    "lattice": {
      "matrix": [
        [4.21452189, 0.0, -0.56953804],
        [-0.07696552, 4.21381916, -0.56953804],
        [0.0030758, 0.00313356, 15.90100729]
      ],
      "pbc": [true, true, true],
      "a": 4.252830626805659,
      "b": 4.252830725935258,
      "c": 15.901007896242838,
      "alpha": 97.68507211864531,
      "beta": 97.6850761445668,
      "gamma": 89.99999775020936,
      "volume": 282.4047354783488
    },
    "properties": {},
    "sites": [
      {
        "species": [{ "element": "Sc", "occu": 1 }],
        "abc": [0.951197699999999, 0.201197699999999, 0.40239541],
        "properties": { "magmom": -0.0 },
        "label": "Sc",
        "xyz": [3.994595930566423, 0.8490716533688875, 5.742159330451525]
      },
      {
        "species": [{ "element": "Sc", "occu": 1 }],
        "abc": [0.701197699999999, 0.4511977, 0.90239541],
        "properties": { "magmom": -0.0 },
        "label": "Sc",
        "xyz": [2.923261978066423, 1.9040932233688914, 13.692662975451524]
      },
      {
        "species": [{ "element": "Sc", "occu": 1 }],
        "abc": [0.0488023, 0.7988023, 0.59760459],
        "properties": { "magmom": -0.0 },
        "label": "Sc",
        "xyz": [0.146036239433573, 3.3678810666311083, 9.019771879548477]
      },
      {
        "species": [{ "element": "Sc", "occu": 1 }],
        "abc": [0.298802299999999, 0.5488023, 0.09760459],
        "properties": { "magmom": -0.0 },
        "label": "Sc",
        "xyz": [1.217370191933569, 2.3128594966311082, 1.069268234548478]
      },
      {
        "species": [{ "element": "Sn", "occu": 1 }],
        "abc": [0.78271225, 0.03271225, 0.0654245],
        "properties": { "magmom": -0.0 },
        "label": "Sn",
        "xyz": [3.296441428541633, 0.13804851741292998, 0.575900179946625]
      },
      {
        "species": [{ "element": "Sn", "occu": 1 }],
        "abc": [0.53271225, 0.28271225, 0.5654245],
        "properties": { "magmom": -0.0 },
        "label": "Sn",
        "xyz": [2.225107476041633, 1.19307008741293, 8.526403824946625]
      },
      {
        "species": [{ "element": "Sn", "occu": 1 }],
        "abc": [0.21728775, 0.96728775, 0.9345755],
        "properties": { "magmom": -0.0 },
        "label": "Sn",
        "xyz": [0.8441907414583676, 4.07890420258707, 14.186031030053375]
      },
      {
        "species": [{ "element": "Sn", "occu": 1 }],
        "abc": [0.46728775, 0.71728775, 0.4345755],
        "properties": { "magmom": -0.0 },
        "label": "Sn",
        "xyz": [1.9155246939583679, 3.02388263258707, 6.235527385053375]
      },
      {
        "species": [{ "element": "Sn", "occu": 1 }],
        "abc": [0.125, 0.375, 0.75],
        "properties": { "magmom": 0.0 },
        "label": "Sn",
        "xyz": [0.50026001625, 1.582532355, 11.6409864475]
      },
      {
        "species": [{ "element": "Sn", "occu": 1 }],
        "abc": [0.875, 0.625, 0.25],
        "properties": { "magmom": 0.0 },
        "label": "Sn",
        "xyz": [3.64037215375, 2.634420365, 3.1209447625]
      },
      {
        "species": [{ "element": "Sn", "occu": 1 }],
        "abc": [0.375, 0.125, 0.25],
        "properties": { "magmom": 0.0 },
        "label": "Sn",
        "xyz": [1.5715939687500002, 0.527510785, 3.6904828025]
      },
      {
        "species": [{ "element": "Sn", "occu": 1 }],
        "abc": [0.625, 0.875, 0.75],
        "properties": { "magmom": 0.0 },
        "label": "Sn",
        "xyz": [2.56903820125, 3.689441935, 11.0714484075]
      }
    ]
  },
  "task_ids": null,
  "uncorrected_energy_per_atom": null,
  "energy_per_atom": -20.770760773333333,
  "formation_energy_per_atom": -0.47380913500000005,
  "energy_above_hull": 0.0,
  "is_stable": true,
  "equilibrium_reaction_energy_per_atom": null,
  "decomposes_to": null,
  "xas": null,
  "grain_boundaries": null,
  "band_gap": 0.0,
  "cbm": null,
  "vbm": null,
  "efermi": 7.5865219,
  "is_gap_direct": null,
  "is_metal": null,
  "es_source_calc_id": null,
  "bandstructure": null,
  "dos": null,
  "dos_energy_up": null,
  "dos_energy_down": null,
  "is_magnetic": null,
  "ordering": null,
  "total_magnetization": 4e-7,
  "total_magnetization_normalized_vol": null,
  "total_magnetization_normalized_formula_units": null,
  "num_magnetic_sites": null,
  "num_unique_magnetic_sites": null,
  "types_of_magnetic_species": null,
  "bulk_modulus": null,
  "shear_modulus": null,
  "universal_anisotropy": null,
  "homogeneous_poisson": null,
  "e_total": null,
  "e_ionic": null,
  "e_electronic": null,
  "n": null,
  "e_ij_max": null,
  "weighted_surface_energy_EV_PER_ANG2": null,
  "weighted_surface_energy": null,
  "weighted_work_function": null,
  "surface_anisotropy": null,
  "shape_factor": null,
  "has_reconstructed": null,
  "possible_species": null,
  "has_props": null,
  "theoretical": null,
  "database_IDs": null,
  "fields_not_requested": [
    "builder_meta",
    "nsites",
    "elements",
    "nelements",
    "composition",
    "composition_reduced",
    "chemsys",
    "symmetry",
    "property_name",
    "deprecated",
    "deprecation_reasons",
    "last_updated",
    "origins",
    "warnings",
    "task_ids",
    "uncorrected_energy_per_atom",
    "equilibrium_reaction_energy_per_atom",
    "decomposes_to",
    "xas",
    "grain_boundaries",
    "cbm",
    "vbm",
    "is_gap_direct",
    "is_metal",
    "es_source_calc_id",
    "bandstructure",
    "dos",
    "dos_energy_up",
    "dos_energy_down",
    "is_magnetic",
    "ordering",
    "total_magnetization_normalized_vol",
    "total_magnetization_normalized_formula_units",
    "num_magnetic_sites",
    "num_unique_magnetic_sites",
    "types_of_magnetic_species",
    "bulk_modulus",
    "shear_modulus",
    "universal_anisotropy",
    "homogeneous_poisson",
    "e_total",
    "e_ionic",
    "e_electronic",
    "n",
    "e_ij_max",
    "weighted_surface_energy_EV_PER_ANG2",
    "weighted_surface_energy",
    "weighted_work_function",
    "surface_anisotropy",
    "shape_factor",
    "has_reconstructed",
    "possible_species",
    "has_props",
    "theoretical",
    "database_IDs"
  ]
}
