{"builder_meta": null, "nsites": null, "elements": null, "nelements": null, "composition": null, "composition_reduced": null, "formula_pretty": "ScTe3", "formula_anonymous": "AB3", "chemsys": null, "volume": 225.41294784238747, "density": 6.302259117269245, "density_atomic": 28.176618480298433, "symmetry": null, "property_name": null, "material_id": "mp-1187016", "deprecated": null, "deprecation_reasons": null, "last_updated": null, "origins": null, "warnings": null, "structure": {"@module": "pymatgen.core.structure", "@class": "Structure", "charge": 0, "lattice": {"matrix": [[3.571794, -6.186528, 0.0], [3.571794, 6.186528, 0.0], [0.0, 0.0, 5.100532]], "pbc": [true, true, true], "a": 7.143587409223744, "b": 7.143587409223744, "c": 5.100532, "alpha": 90.0, "beta": 90.0, "gamma": 119.99999452859737, "volume": 225.41294784238747}, "properties": {}, "sites": [{"species": [{"element": "Sc", "occu": 1}], "abc": [0.333333, 0.666667, 0.75], "properties": {"magmom": -0.0}, "label": "Sc", "xyz": [3.5717940000000006, 2.062180124352, 3.825399]}, {"species": [{"element": "Sc", "occu": 1}], "abc": [0.666667, 0.333333, 0.25], "properties": {"magmom": -0.0}, "label": "Sc", "xyz": [3.5717940000000006, -2.062180124352, 1.275133]}, {"species": [{"element": "Te", "occu": 1}], "abc": [0.184175999999999, 0.368353, 0.25], "properties": {"magmom": -0.001}, "label": "Te", "xyz": [1.9735197670259965, 1.139416167456006, 1.275133]}, {"species": [{"element": "Te", "occu": 1}], "abc": [0.631647, 0.815824, 0.25], "properties": {"magmom": -0.001}, "label": "Te", "xyz": [5.170068232974, 1.1394161674560004, 1.275133]}, {"species": [{"element": "Te", "occu": 1}], "abc": [0.184175999999999, 0.815824, 0.25], "properties": {"magmom": 0.002}, "label": "Te", "xyz": [3.5717939999999966, 3.9077080381440066, 1.275133]}, {"species": [{"element": "Te", "occu": 1}], "abc": [0.815824, 0.631647, 0.75], "properties": {"magmom": -0.001}, "label": "Te", "xyz": [5.170068232974, -1.1394161674560004, 3.825399]}, {"species": [{"element": "Te", "occu": 1}], "abc": [0.368353, 0.184175999999999, 0.75], "properties": {"magmom": -0.001}, "label": "Te", "xyz": [1.9735197670259965, -1.139416167456006, 3.825399]}, {"species": [{"element": "Te", "occu": 1}], "abc": [0.815824, 0.184175999999999, 0.75], "properties": {"magmom": 0.002}, "label": "Te", "xyz": [3.5717939999999966, -3.9077080381440066, 3.825399]}]}, "task_ids": null, "uncorrected_energy_per_atom": null, "energy_per_atom": -4.5406142825, "formation_energy_per_atom": -0.600017586249999, "energy_above_hull": 0.325289263125, "is_stable": false, "equilibrium_reaction_energy_per_atom": null, "decomposes_to": null, "xas": null, "grain_boundaries": null, "band_gap": 0.0, "cbm": null, "vbm": null, "efermi": 6.91016344, "is_gap_direct": null, "is_metal": null, "es_source_calc_id": null, "bandstructure": null, "dos": null, "dos_energy_up": null, "dos_energy_down": null, "is_magnetic": null, "ordering": null, "total_magnetization": 9.93e-05, "total_magnetization_normalized_vol": null, "total_magnetization_normalized_formula_units": null, "num_magnetic_sites": null, "num_unique_magnetic_sites": null, "types_of_magnetic_species": null, "bulk_modulus": null, "shear_modulus": null, "universal_anisotropy": null, "homogeneous_poisson": null, "e_total": null, "e_ionic": null, "e_electronic": null, "n": null, "e_ij_max": null, "weighted_surface_energy_EV_PER_ANG2": null, "weighted_surface_energy": null, "weighted_work_function": null, "surface_anisotropy": null, "shape_factor": null, "has_reconstructed": null, "possible_species": null, "has_props": null, "theoretical": null, "database_IDs": null, "fields_not_requested": ["builder_meta", "nsites", "elements", "nelements", "composition", "composition_reduced", "chemsys", "symmetry", "property_name", "deprecated", "deprecation_reasons", "last_updated", "origins", "warnings", "task_ids", "uncorrected_energy_per_atom", "equilibrium_reaction_energy_per_atom", "decomposes_to", "xas", "grain_boundaries", "cbm", "vbm", "is_gap_direct", "is_metal", "es_source_calc_id", "bandstructure", "dos", "dos_energy_up", "dos_energy_down", "is_magnetic", "ordering", "total_magnetization_normalized_vol", "total_magnetization_normalized_formula_units", "num_magnetic_sites", "num_unique_magnetic_sites", "types_of_magnetic_species", "bulk_modulus", "shear_modulus", "universal_anisotropy", "homogeneous_poisson", "e_total", "e_ionic", "e_electronic", "n", "e_ij_max", "weighted_surface_energy_EV_PER_ANG2", "weighted_surface_energy", "weighted_work_function", "surface_anisotropy", "shape_factor", "has_reconstructed", "possible_species", "has_props", "theoretical", "database_IDs"]}