{
  "builder_meta": null,
  "nsites": null,
  "elements": null,
  "nelements": null,
  "composition": null,
  "composition_reduced": null,
  "formula_pretty": "ScZn2",
  "formula_anonymous": "AB2",
  "chemsys": null,
  "volume": 199.25226046181496,
  "density": 5.859495838864961,
  "density_atomic": 16.60435503848458,
  "symmetry": null,
  "property_name": null,
  "material_id": "mp-13503",
  "deprecated": null,
  "deprecation_reasons": null,
  "last_updated": null,
  "origins": null,
  "warnings": null,
  "structure": {
    "@module": "pymatgen.core.structure",
    "@class": "Structure",
    "charge": 0,
    "lattice": {
      "matrix": [
        [5.22584519, 3.8820000000000004e-5, 2.069999999999999e-6],
        [-2.61288834, 4.52573454, -2.2e-6],
        [2.94e-6, -2.09e-6, 8.42472586]
      ],
      "pbc": [true, true, true],
      "a": 5.225845190144597,
      "b": 5.22584525257511,
      "c": 8.424725860000773,
      "alpha": 90.00004642748831,
      "beta": 89.9999573101115,
      "gamma": 119.99914031520439,
      "volume": 199.25226046181496
    },
    "properties": {},
    "sites": [
      {
        "species": [{ "element": "Sc", "occu": 1 }],
        "abc": [0.3333325, 0.6666675200000001, 0.5613118300000001],
        "properties": { "magmom": -0.136 },
        "label": "Sc",
        "xyz": [1.7902387738105565e-5, 3.0171719887860666, 4.7288975130546556]
      },
      {
        "species": [{ "element": "Sc", "occu": 1 }],
        "abc": [0.66666728, 0.33333281, 0.06139883],
        "properties": { "magmom": -0.136 },
        "label": "Sc",
        "xyz": [2.612938766442508, 1.5086015632325123, 0.5172689575438315]
      },
      {
        "species": [{ "element": "Sc", "occu": 1 }],
        "abc": [0.66666728, 0.33333287, 0.43863961],
        "properties": { "magmom": -0.136 },
        "label": "Sc",
        "xyz": [2.612939718757101, 1.5086010463433546, 3.6954191122562707]
      },
      {
        "species": [{ "element": "Sc", "occu": 1 }],
        "abc": [0.33333246, 0.66666762, 0.93864907],
        "properties": { "magmom": -0.136 },
        "label": "Sc",
        "xyz": [1.8541436582428342e-5, 3.017171652723136, 7.907860316823379]
      },
      {
        "species": [{ "element": "Zn", "occu": 1 }],
        "abc": [0.9999998600000001, 0.9999999900000001, 7.952000000000001e-5],
        "properties": { "magmom": -0.002 },
        "label": "Zn",
        "xyz": [2.6129561447443463, 4.5257733145710235, 0.0006698042001194002]
      },
      {
        "species": [{ "element": "Zn", "occu": 1 }],
        "abc": [0.99999981, 1.00000004, 0.49992085],
        "properties": { "magmom": -0.002 },
        "label": "Zn",
        "xyz": [2.61295722234118, 4.52577249618743, 4.2116959829477]
      },
      {
        "species": [{ "element": "Zn", "occu": 1 }],
        "abc": [0.17080496, 0.34160442, 0.25021561000000003],
        "properties": { "magmom": -0.007 },
        "label": "Zn",
        "xyz": [2.6808367573005163e-5, 1.5460170303085892, 2.107997522179218]
      },
      {
        "species": [{ "element": "Zn", "occu": 1 }],
        "abc": [0.82921351, 0.17078646, 0.74978478],
        "properties": { "magmom": -0.007 },
        "label": "Zn",
        "xyz": [3.8870976871198937, 0.7729648040045966, 6.316732566242166]
      },
      {
        "species": [{ "element": "Zn", "occu": 1 }],
        "abc": [0.34157477, 0.17078946, 0.7497842],
        "properties": { "magmom": -0.007 },
        "label": "Zn",
        "xyz": [1.3387652845665081, 0.7729594510735418, 6.316726670482375]
      },
      {
        "species": [{ "element": "Zn", "occu": 1 }],
        "abc": [0.65839562, 0.82919503, 0.2502157],
        "properties": { "magmom": -0.007 },
        "label": "Zn",
        "xyz": [1.2740802940552753, 3.752741623634492, 2.1079982170178693]
      },
      {
        "species": [{ "element": "Zn", "occu": 1 }],
        "abc": [0.17080141000000001, 0.82919852, 0.2502157],
        "properties": { "magmom": -0.007 },
        "label": "Zn",
        "xyz": [-1.2740206819253808, 3.7527384900408043, 2.1079972076901767]
      },
      {
        "species": [{ "element": "Zn", "occu": 1 }],
        "abc": [0.82921053, 0.65842526, 0.74978429],
        "properties": { "magmom": -0.007 },
        "label": "Zn",
        "xyz": [2.612936379448195, 2.979888564094089, 6.316727365314964]
      }
    ]
  },
  "task_ids": null,
  "uncorrected_energy_per_atom": null,
  "energy_per_atom": -3.297137684166666,
  "formation_energy_per_atom": -0.346485575833333,
  "energy_above_hull": 0.0,
  "is_stable": true,
  "equilibrium_reaction_energy_per_atom": null,
  "decomposes_to": null,
  "xas": null,
  "grain_boundaries": null,
  "band_gap": 0.0,
  "cbm": null,
  "vbm": null,
  "efermi": 3.61710564,
  "is_gap_direct": null,
  "is_metal": null,
  "es_source_calc_id": null,
  "bandstructure": null,
  "dos": null,
  "dos_energy_up": null,
  "dos_energy_down": null,
  "is_magnetic": null,
  "ordering": null,
  "total_magnetization": 0.920235999999999,
  "total_magnetization_normalized_vol": null,
  "total_magnetization_normalized_formula_units": null,
  "num_magnetic_sites": null,
  "num_unique_magnetic_sites": null,
  "types_of_magnetic_species": null,
  "bulk_modulus": null,
  "shear_modulus": null,
  "universal_anisotropy": null,
  "homogeneous_poisson": null,
  "e_total": null,
  "e_ionic": null,
  "e_electronic": null,
  "n": null,
  "e_ij_max": null,
  "weighted_surface_energy_EV_PER_ANG2": null,
  "weighted_surface_energy": null,
  "weighted_work_function": null,
  "surface_anisotropy": null,
  "shape_factor": null,
  "has_reconstructed": null,
  "possible_species": null,
  "has_props": null,
  "theoretical": null,
  "database_IDs": null,
  "fields_not_requested": [
    "builder_meta",
    "nsites",
    "elements",
    "nelements",
    "composition",
    "composition_reduced",
    "chemsys",
    "symmetry",
    "property_name",
    "deprecated",
    "deprecation_reasons",
    "last_updated",
    "origins",
    "warnings",
    "task_ids",
    "uncorrected_energy_per_atom",
    "equilibrium_reaction_energy_per_atom",
    "decomposes_to",
    "xas",
    "grain_boundaries",
    "cbm",
    "vbm",
    "is_gap_direct",
    "is_metal",
    "es_source_calc_id",
    "bandstructure",
    "dos",
    "dos_energy_up",
    "dos_energy_down",
    "is_magnetic",
    "ordering",
    "total_magnetization_normalized_vol",
    "total_magnetization_normalized_formula_units",
    "num_magnetic_sites",
    "num_unique_magnetic_sites",
    "types_of_magnetic_species",
    "bulk_modulus",
    "shear_modulus",
    "universal_anisotropy",
    "homogeneous_poisson",
    "e_total",
    "e_ionic",
    "e_electronic",
    "n",
    "e_ij_max",
    "weighted_surface_energy_EV_PER_ANG2",
    "weighted_surface_energy",
    "weighted_work_function",
    "surface_anisotropy",
    "shape_factor",
    "has_reconstructed",
    "possible_species",
    "has_props",
    "theoretical",
    "database_IDs"
  ]
}
