{
  "builder_meta": null,
  "nsites": null,
  "elements": null,
  "nelements": null,
  "composition": null,
  "composition_reduced": null,
  "formula_pretty": "ScZn6",
  "formula_anonymous": "AB6",
  "chemsys": null,
  "volume": 1261.8087186656774,
  "density": 6.907572308698063,
  "density_atomic": 15.021532365067587,
  "symmetry": null,
  "property_name": null,
  "material_id": "mp-1219746",
  "deprecated": null,
  "deprecation_reasons": null,
  "last_updated": null,
  "origins": null,
  "warnings": null,
  "structure": {
    "@module": "pymatgen.core.structure",
    "@class": "Structure",
    "charge": 0,
    "lattice": {
      "matrix": [
        [-6.76855829, 6.78990206, -6.86394586],
        [6.76855829, -6.78990206, -6.86394586],
        [-6.76855829, -6.78990206, -6.86394586]
      ],
      "pbc": [true, true, true],
      "a": 11.791094269766955,
      "b": 11.791094269766955,
      "c": 11.791094269766955,
      "alpha": 70.06484360708454,
      "beta": 70.31836498786357,
      "gamma": 108.79905525439018,
      "volume": 1261.8087186656774
    },
    "properties": {},
    "sites": [
      {
        "species": [{ "element": "Sc", "occu": 1 }],
        "abc": [0.80835509, 0.5105435700000001, 0.29781253],
        "properties": { "magmom": 0.0 },
        "label": "Sc",
        "xyz": [-4.031516101350874, -6.857801080784043e-6, -11.097018079416173]
      },
      {
        "species": [{ "element": "Sc", "occu": 1 }],
        "abc": [0.19164491, 0.48945643, 0.70218747],
        "properties": { "magmom": 0.0 },
        "label": "Sc",
        "xyz": [-2.7370421886491254, -6.78989520219892, -9.494819500583827]
      },
      {
        "species": [{ "element": "Sc", "occu": 1 }],
        "abc": [0.80835509, 0.10616662, 0.70218747],
        "properties": { "magmom": 0.0 },
        "label": "Sc",
        "xyz": [-9.505600410963542, 6.789902060155839e-6, -11.097004282884996]
      },
      {
        "species": [{ "element": "Sc", "occu": 1 }],
        "abc": [0.19164491, 0.89383338, 0.29781253],
        "properties": { "magmom": 0.0 },
        "label": "Sc",
        "xyz": [2.737042120963542, -6.78990884990206, -9.494833297115004]
      },
      {
        "species": [{ "element": "Sc", "occu": 1 }],
        "abc": [0.70157316, 0.18636575, 0.11206109],
        "properties": { "magmom": 0.0 },
        "label": "Sc",
        "xyz": [-4.245703405730865, 2.7373240286494194, -6.86394586]
      },
      {
        "species": [{ "element": "Sc", "occu": 1 }],
        "abc": [0.29842684, 0.81363425, 0.88793891],
        "properties": { "magmom": 0.0 },
        "label": "Sc",
        "xyz": [-2.5228548842691354, -9.52722608864942, -13.72789172]
      },
      {
        "species": [{ "element": "Sc", "occu": 1 }],
        "abc": [0.29842684, 0.18636575, 0.51520842],
        "properties": { "magmom": 0.0 },
        "label": "Sc",
        "xyz": [-4.245710241974738, -2.7373308864504997, -6.863952792585319]
      },
      {
        "species": [{ "element": "Sc", "occu": 1 }],
        "abc": [0.70157316, 0.81363425, 0.48479158],
        "properties": { "magmom": 0.0 },
        "label": "Sc",
        "xyz": [-2.522848048025262, -4.0525711735495005, -13.727884787414684]
      },
      {
        "species": [{ "element": "Sc", "occu": 1 }],
        "abc": [0.49361476, 0.30251591, 0.80890116],
        "properties": { "magmom": 0.0 },
        "label": "Sc",
        "xyz": [-6.768558357685583, -4.1948171773417595, -11.016851584696724]
      },
      {
        "species": [{ "element": "Sc", "occu": 1 }],
        "abc": [0.50638524, 0.69748409, 0.19109884],
        "properties": { "magmom": 0.0 },
        "label": "Sc",
        "xyz": [6.768558313829942e-8, -2.595084882658242, -9.574985995303276]
      },
      {
        "species": [{ "element": "Sc", "occu": 1 }],
        "abc": [0.88858293, 0.69748409, 0.80890116],
        "properties": { "magmom": 0.0 },
        "label": "Sc",
        "xyz": [-6.76855829, -4.19481724524078, -16.438931923942736]
      },
      {
        "species": [{ "element": "Sc", "occu": 1 }],
        "abc": [0.11141707, 0.30251591, 0.19109884],
        "properties": { "magmom": 0.0 },
        "label": "Sc",
        "xyz": [-2.220446049250313e-16, -2.595084814759221, -4.152905656057265]
      },
      {
        "species": [{ "element": "Zn", "occu": 1 }],
        "abc": [0.19012241, 0.5, 0.30987759],
        "properties": { "magmom": 0.0 },
        "label": "Zn",
        "xyz": [0.0, -4.208076973377671, -6.863945859999999]
      },
      {
        "species": [{ "element": "Zn", "occu": 1 }],
        "abc": [0.80987759, 0.5, 0.69012241],
        "properties": { "magmom": 0.0 },
        "label": "Zn",
        "xyz": [-6.76855829, -2.5818250866223287, -13.72789172]
      },
      {
        "species": [{ "element": "Zn", "occu": 1 }],
        "abc": [0.30753561, 0.8075356100000001, 0.5],
        "properties": { "magmom": -0.0 },
        "label": "Zn",
        "xyz": [4.440892098500626e-16, -6.78990206, -11.08576141412415]
      },
      {
        "species": [{ "element": "Zn", "occu": 1 }],
        "abc": [0.69246439, 0.19246439, 0.5],
        "properties": { "magmom": -0.0 },
        "label": "Zn",
        "xyz": [-6.76855829, 4.440892098500626e-16, -9.506076165875852]
      },
      {
        "species": [{ "element": "Zn", "occu": 1 }],
        "abc": [0.5, 0.6919648700000001, 0.80803513],
        "properties": { "magmom": -0.0 },
        "label": "Zn",
        "xyz": [-4.169907465545456, -6.789902060000001, -13.727891720000002]
      },
      {
        "species": [{ "element": "Zn", "occu": 1 }],
        "abc": [0.5, 0.30803513, 0.19196487],
        "properties": { "magmom": -0.0 },
        "label": "Zn",
        "xyz": [-2.5986508244545448, 0.0, -6.86394586]
      },
      {
        "species": [{ "element": "Zn", "occu": 1 }],
        "abc": [0.77948695, 0.45258518000000003, 0.08199666],
        "properties": { "magmom": 0.0 },
        "label": "Zn",
        "xyz": [-2.7676528581444844, 1.6628817108935263, -9.01969703087571]
      },
      {
        "species": [{ "element": "Zn", "occu": 1 }],
        "abc": [0.46541916, 0.54741482, 0.67309823],
        "properties": { "magmom": 0.0 },
        "label": "Zn",
        "xyz": [-4.000912200413805, -5.127013559204413, -11.572147413070152]
      },
      {
        "species": [{ "element": "Zn", "occu": 1 }],
        "abc": [0.5345808400000001, 0.8614836100000001, 0.9180033400000001],
        "properties": { "magmom": 0.0 },
        "label": "Zn",
        "xyz": [-4.000898663297225, -8.452790560795588, -15.88363602692985]
      },
      {
        "species": [{ "element": "Zn", "occu": 1 }],
        "abc": [0.22051305000000002, 0.13851639, 0.32690177],
        "properties": { "magmom": 0.0 },
        "label": "Zn",
        "xyz": [-2.7676528581444844, -1.662881710893526, -4.708194689124291]
      },
      {
        "species": [{ "element": "Zn", "occu": 1 }],
        "abc": [0.68637805, 0.22428286, 0.85712394],
        "properties": { "magmom": -0.0 },
        "label": "Zn",
        "xyz": [-8.929211578688086, -2.6822065233842256, -12.13397950252822]
      },
      {
        "species": [{ "element": "Zn", "occu": 1 }],
        "abc": [0.08140679, 0.54350199, 0.14287606],
        "properties": { "magmom": -0.0 },
        "label": "Zn",
        "xyz": [2.16065335637367, -4.107695604514795, -5.270033573888763]
      },
      {
        "species": [{ "element": "Zn", "occu": 1 }],
        "abc": [0.31362195, 0.45649801, 0.46209519],
        "properties": { "magmom": -0.0 },
        "label": "Zn",
        "xyz": [-2.160653288688087, -4.1076955366157755, -8.45785807747178]
      },
      {
        "species": [{ "element": "Zn", "occu": 1 }],
        "abc": [0.91859321, 0.77571714, 0.53790481],
        "properties": { "magmom": -0.0 },
        "label": "Zn",
        "xyz": [-4.607905068997495, -2.6822064554852045, -15.32180400611124]
      },
      {
        "species": [{ "element": "Zn", "occu": 1 }],
        "abc": [0.54045353, 0.31354807, 0.54564965],
        "properties": { "magmom": -0.0 },
        "label": "Zn",
        "xyz": [-5.229084294272361, -2.164241832294032, -9.607130402881324]
      },
      {
        "species": [{ "element": "Zn", "occu": 1 }],
        "abc": [0.45954647, 0.91389882, 0.22690446],
        "properties": { "magmom": -0.0 },
        "label": "Zn",
        "xyz": [1.539494301402508, -4.625667017608029, -10.984714041064535]
      },
      {
        "species": [{ "element": "Zn", "occu": 1 }],
        "abc": [0.14080228, 0.68645193, 0.77309554],
        "properties": { "magmom": -0.0 },
        "label": "Zn",
        "xyz": [-1.5394807642859276, -8.954150682196092, -10.984714041064535]
      },
      {
        "species": [{ "element": "Zn", "occu": 1 }],
        "abc": [0.85919772, 0.08610118, 0.45435035],
        "properties": { "magmom": -0.0 },
        "label": "Zn",
        "xyz": [-8.308045822844218, 2.164255412098152, -9.607116674989605]
      },
      {
        "species": [{ "element": "Zn", "occu": 1 }],
        "abc": [0.22051305000000002, 0.54741482, 0.9180033400000001],
        "properties": { "magmom": 0.0 },
        "label": "Zn",
        "xyz": [-4.000905431855516, -8.452783770893527, -11.572140549124292]
      },
      {
        "species": [{ "element": "Zn", "occu": 1 }],
        "abc": [0.5345808400000001, 0.45258518000000003, 0.32690177],
        "properties": { "magmom": 0.0 },
        "label": "Zn",
        "xyz": [-2.7676460895861945, -1.662888500795586, -9.01969016692985]
      },
      {
        "species": [{ "element": "Zn", "occu": 1 }],
        "abc": [0.46541916, 0.13851639, 0.08199666],
        "properties": { "magmom": 0.0 },
        "label": "Zn",
        "xyz": [-2.7676596267027747, 1.662888500795587, -4.70820155307015]
      },
      {
        "species": [{ "element": "Zn", "occu": 1 }],
        "abc": [0.77948695, 0.8614836100000001, 0.67309823],
        "properties": { "magmom": 0.0 },
        "label": "Zn",
        "xyz": [-4.000905431855514, -5.127020349106474, -15.883642890875711]
      },
      {
        "species": [{ "element": "Zn", "occu": 1 }],
        "abc": [0.31362195, 0.77571714, 0.14287606],
        "properties": { "magmom": -0.0 },
        "label": "Zn",
        "xyz": [2.1606532886880876, -4.1076955366157755, -8.45785807747178]
      },
      {
        "species": [{ "element": "Zn", "occu": 1 }],
        "abc": [0.91859321, 0.45649801, 0.85712394],
        "properties": { "magmom": -0.0 },
        "label": "Zn",
        "xyz": [-8.92921164637367, -2.6822064554852045, -15.32180400611124]
      },
      {
        "species": [{ "element": "Zn", "occu": 1 }],
        "abc": [0.68637805, 0.54350199, 0.53790481],
        "properties": { "magmom": -0.0 },
        "label": "Zn",
        "xyz": [-4.607905001311912, -2.6822065233842256, -12.13397950252822]
      },
      {
        "species": [{ "element": "Zn", "occu": 1 }],
        "abc": [0.08140679, 0.22428286, 0.46209519],
        "properties": { "magmom": -0.0 },
        "label": "Zn",
        "xyz": [-2.1606532210025042, -4.107695604514795, -5.270033573888762]
      },
      {
        "species": [{ "element": "Zn", "occu": 1 }],
        "abc": [0.45954647, 0.68645193, 0.45435035],
        "properties": { "magmom": -0.0 },
        "label": "Zn",
        "xyz": [-1.5394739957276373, -4.625660227705969, -10.984707177118676]
      },
      {
        "species": [{ "element": "Zn", "occu": 1 }],
        "abc": [0.54045353, 0.08610118, 0.77309554],
        "properties": { "magmom": -0.0 },
        "label": "Zn",
        "xyz": [-8.308052591402507, -2.1642350423919723, -9.607123538935465]
      },
      {
        "species": [{ "element": "Zn", "occu": 1 }],
        "abc": [0.85919772, 0.31354807, 0.22690446],
        "properties": { "magmom": -0.0 },
        "label": "Zn",
        "xyz": [-5.229077525714072, 2.1642486221960917, -9.607123538935467]
      },
      {
        "species": [{ "element": "Zn", "occu": 1 }],
        "abc": [0.14080228, 0.91389882, 0.54564965],
        "properties": { "magmom": -0.0 },
        "label": "Zn",
        "xyz": [1.5394875328442184, -8.954157472098153, -10.984720905010395]
      },
      {
        "species": [{ "element": "Zn", "occu": 1 }],
        "abc": [0.73999298, 0.64520332, 0.09478966],
        "properties": { "magmom": -0.0 },
        "label": "Zn",
        "xyz": [-1.283178677998563, 6.661338147750939e-16, -10.158543503000127]
      },
      {
        "species": [{ "element": "Zn", "occu": 1 }],
        "abc": [0.26000702000000003, 0.35479668000000003, 0.90521034],
        "properties": { "magmom": -0.0 },
        "label": "Zn",
        "xyz": [-5.485379612001436, -6.789902060000001, -10.433294076999875]
      },
      {
        "species": [{ "element": "Zn", "occu": 1 }],
        "abc": [0.73999298, 0.8347826500000001, 0.90521034],
        "properties": { "magmom": -0.0 },
        "label": "Zn",
        "xyz": [-5.485379544315854, -6.789902127899021, -17.022489431639585]
      },
      {
        "species": [{ "element": "Zn", "occu": 1 }],
        "abc": [0.26000702000000003, 0.16521735, 0.09478966],
        "properties": { "magmom": -0.0 },
        "label": "Zn",
        "xyz": [-1.283178745684146, 6.789902062820374e-8, -3.569348148360416]
      },
      {
        "species": [{ "element": "Zn", "occu": 1 }],
        "abc": [0.90716945, 0.23764556, 0.8551859900000001],
        "properties": { "magmom": 0.0 },
        "label": "Zn",
        "xyz": [-10.320087698118904, -1.2606274752539255, -13.727898583945862]
      },
      {
        "species": [{ "element": "Zn", "occu": 1 }],
        "abc": [0.09283055, 0.76235444, 0.14481401],
        "properties": { "magmom": 0.0 },
        "label": "Zn",
        "xyz": [3.5515294081189053, -5.529274584746074, -6.86393899605414]
      },
      {
        "species": [{ "element": "Zn", "occu": 1 }],
        "abc": [0.09283055, 0.23764556, 0.66952289],
        "properties": { "magmom": 0.0 },
        "label": "Zn",
        "xyz": [-3.5515158710023247, -5.529274584746074, -6.86393899605414]
      },
      {
        "species": [{ "element": "Zn", "occu": 1 }],
        "abc": [0.90716945, 0.76235444, 0.33047711],
        "properties": { "magmom": 0.0 },
        "label": "Zn",
        "xyz": [-3.2170424189976754, -1.260627475253925, -13.727898583945862]
      },
      {
        "species": [{ "element": "Zn", "occu": 1 }],
        "abc": [0.32214754, 0.09059735000000001, 0.76844981],
        "properties": { "magmom": -0.0 },
        "label": "Zn",
        "xyz": [-6.76855829, -3.645495835851217, -8.107656470918943]
      },
      {
        "species": [{ "element": "Zn", "occu": 1 }],
        "abc": [0.67785246, 0.90940265, 0.23155019000000002],
        "properties": { "magmom": -0.0 },
        "label": "Zn",
        "xyz": [-6.661338147750939e-16, -3.144406224148783, -12.484181109081058]
      },
      {
        "species": [{ "element": "Zn", "occu": 1 }],
        "abc": [0.14095284, 0.90940265, 0.76844981],
        "properties": { "magmom": -0.0 },
        "label": "Zn",
        "xyz": [
          -8.881784197001252e-16, -10.435397895851217, -12.484181109081058
        ]
      },
      {
        "species": [{ "element": "Zn", "occu": 1 }],
        "abc": [0.85904716, 0.09059735000000001, 0.23155019000000002],
        "properties": { "magmom": -0.0 },
        "label": "Zn",
        "xyz": [-6.76855829, 3.645495835851217, -8.107656470918943]
      },
      {
        "species": [{ "element": "Zn", "occu": 1 }],
        "abc": [0.99811606, 0.67644644, 0.9988493700000001],
        "properties": { "magmom": 0.0 },
        "label": "Zn",
        "xyz": [-8.938009756866927, -4.597984179515286, -18.350154337161356]
      },
      {
        "species": [{ "element": "Zn", "occu": 1 }],
        "abc": [0.32470519000000003, 0.32355356, 0.67833038],
        "properties": { "magmom": 0.0 },
        "label": "Zn",
        "xyz": [-4.599113591691363, -4.597977389613225, -9.105635966784503]
      },
      {
        "species": [{ "element": "Zn", "occu": 1 }],
        "abc": [0.67529481, 0.99696543, 0.00115063],
        "properties": { "magmom": 0.0 },
        "label": "Zn",
        "xyz": [2.169458235425217, -2.1919246703867747, -11.486201613215501]
      },
      {
        "species": [{ "element": "Zn", "occu": 1 }],
        "abc": [0.00188394, 0.00303457, 0.32166962],
        "properties": { "magmom": 0.0 },
        "label": "Zn",
        "xyz": [-2.169451466866927, -2.1919178804847146, -2.2416832428386417]
      },
      {
        "species": [{ "element": "Zn", "occu": 1 }],
        "abc": [0.00188394, 0.32355356, 0.00115063],
        "properties": { "magmom": 0.0 },
        "label": "Zn",
        "xyz": [2.1694514668669274, -2.191917880484715, -2.2416832428386417]
      },
      {
        "species": [{ "element": "Zn", "occu": 1 }],
        "abc": [0.67529481, 0.67644644, 0.32166962],
        "properties": { "magmom": 0.0 },
        "label": "Zn",
        "xyz": [-2.1694446983086366, -2.1919246703867747, -11.486201613215497]
      },
      {
        "species": [{ "element": "Zn", "occu": 1 }],
        "abc": [0.32470519000000003, 0.00303457, 0.9988493700000001],
        "properties": { "magmom": 0.0 },
        "label": "Zn",
        "xyz": [-8.938016525425217, -4.597977389613225, -9.105635966784503]
      },
      {
        "species": [{ "element": "Zn", "occu": 1 }],
        "abc": [0.99811606, 0.99696543, 0.67833038],
        "properties": { "magmom": 0.0 },
        "label": "Zn",
        "xyz": [-4.599106823133073, -4.597984179515286, -18.35015433716136]
      },
      {
        "species": [{ "element": "Zn", "occu": 1 }],
        "abc": [0.59499835, 0.24707076, 0.3479266],
        "properties": { "magmom": -0.0 },
        "label": "Zn",
        "xyz": [-4.709929646355734, 6.722003039527635e-6, -8.168066127072262]
      },
      {
        "species": [{ "element": "Zn", "occu": 1 }],
        "abc": [0.40500165, 0.75292924, 0.6520734],
        "properties": { "magmom": -0.0 },
        "label": "Zn",
        "xyz": [-2.0586286436442647, -6.78990878200304, -12.423771452927742]
      },
      {
        "species": [{ "element": "Zn", "occu": 1 }],
        "abc": [0.59499835, 0.9429239500000001, 0.6520734],
        "properties": { "magmom": -0.0 },
        "label": "Zn",
        "xyz": [-2.058642113075261, -6.789895270097941, -15.032011918432804]
      },
      {
        "species": [{ "element": "Zn", "occu": 1 }],
        "abc": [0.40500165, 0.05707605, 0.3479266],
        "properties": { "magmom": -0.0 },
        "label": "Zn",
        "xyz": [-4.709916176924738, -6.78990205971175e-6, -5.5598256615671975]
      },
      {
        "species": [{ "element": "Zn", "occu": 1 }],
        "abc": [0.65515173, 0.40277786, 0.94207041],
        "properties": { "magmom": -0.0 },
        "label": "Zn",
        "xyz": [-8.084665733337081, -4.682971957720872, -13.72789172]
      },
      {
        "species": [{ "element": "Zn", "occu": 1 }],
        "abc": [0.34484827, 0.5972221400000001, 0.05792959],
        "properties": { "magmom": -0.0 },
        "label": "Zn",
        "xyz": [1.3161074433370812, -2.106930102279128, -6.86394586]
      },
      {
        "species": [{ "element": "Zn", "occu": 1 }],
        "abc": [0.34484827, 0.40277786, 0.25237487000000003],
        "properties": { "magmom": -0.0 },
        "label": "Zn",
        "xyz": [-1.3161142118953717, -2.1069368921811877, -6.86395272394586]
      },
      {
        "species": [{ "element": "Zn", "occu": 1 }],
        "abc": [0.65515173, 0.5972221400000001, 0.74762513],
        "properties": { "magmom": -0.0 },
        "label": "Zn",
        "xyz": [-5.452444078104628, -4.6829651678188124, -13.727884856054143]
      },
      {
        "species": [{ "element": "Zn", "occu": 1 }],
        "abc": [0.7526434, 0.34752312, 0.59488073],
        "properties": { "magmom": 0.0 },
        "label": "Zn",
        "xyz": [-6.768565126243871, -1.288454870361527, -11.634712554141885]
      },
      {
        "species": [{ "element": "Zn", "occu": 1 }],
        "abc": [0.247356599999999, 0.65247688, 0.40512027],
        "properties": { "magmom": 0.0 },
        "label": "Zn",
        "xyz": [6.768558957759296e-8, -5.50145397954054, -8.95713188980397]
      },
      {
        "species": [{ "element": "Zn", "occu": 1 }],
        "abc": [0.05759615, 0.65247688, 0.59488073],
        "properties": { "magmom": 0.0 },
        "label": "Zn",
        "xyz": [8.881784197001252e-16, -8.078363788162608, -8.957131958443433]
      },
      {
        "species": [{ "element": "Zn", "occu": 1 }],
        "abc": [0.94240385, 0.34752312, 0.40512027],
        "properties": { "magmom": 0.0 },
        "label": "Zn",
        "xyz": [-6.7685650585582895, 1.2884549382605481, -11.63471248550243]
      },
      {
        "species": [{ "element": "Zn", "occu": 1 }],
        "abc": [0.405571199999999, 0.0, 0.5944288],
        "properties": { "magmom": 0.0 },
        "label": "Zn",
        "xyz": [-6.7685582899999925, -1.2823246072866628, -6.863945859999994]
      },
      {
        "species": [{ "element": "Zn", "occu": 1 }],
        "abc": [0.5944288, 0.0, 0.405571199999999],
        "properties": { "magmom": 0.0 },
        "label": "Zn",
        "xyz": [-6.7685582899999925, 1.2823246072866628, -6.863945859999994]
      },
      {
        "species": [{ "element": "Zn", "occu": 1 }],
        "abc": [0.5877508, 0.5877508, -0.0],
        "properties": { "magmom": -0.0 },
        "label": "Zn",
        "xyz": [0.0, 0.0, -8.068579340743376]
      },
      {
        "species": [{ "element": "Zn", "occu": 1 }],
        "abc": [0.4122492, 0.4122492, -0.0],
        "properties": { "magmom": -0.0 },
        "label": "Zn",
        "xyz": [0.0, 0.0, -5.659312379256624]
      },
      {
        "species": [{ "element": "Zn", "occu": 1 }],
        "abc": [0.0, 0.40517397, 0.59482603],
        "properties": { "magmom": -0.0 },
        "label": "Zn",
        "xyz": [-1.2836710229285777, -6.789902059999999, -6.86394586]
      },
      {
        "species": [{ "element": "Zn", "occu": 1 }],
        "abc": [0.0, 0.59482603, 0.40517397],
        "properties": { "magmom": -0.0 },
        "label": "Zn",
        "xyz": [1.2836710229285777, -6.789902059999999, -6.86394586]
      },
      {
        "species": [{ "element": "Zn", "occu": 1 }],
        "abc": [0.91404118, 0.82464397, 0.08939721],
        "properties": { "magmom": 0.0 },
        "label": "Zn",
        "xyz": [
          -1.2101804536967418, 1.1102230246251565e-16, -12.547858346661032
        ]
      },
      {
        "species": [{ "element": "Zn", "occu": 1 }],
        "abc": [0.08595882, 0.17535603, 0.91060279],
        "properties": { "magmom": 0.0 },
        "label": "Zn",
        "xyz": [-5.558377836303258, -6.78990206, -8.043979233338971]
      },
      {
        "species": [{ "element": "Zn", "occu": 1 }],
        "abc": [0.91404118, 0.0034384, 0.91060279],
        "properties": { "magmom": 0.0 },
        "label": "Zn",
        "xyz": [-12.326936058617676, -6.789902062820374e-8, -12.547858415300489]
      },
      {
        "species": [{ "element": "Zn", "occu": 1 }],
        "abc": [0.08595882, 0.996561599999999, 0.08939721],
        "properties": { "magmom": 0.0 },
        "label": "Zn",
        "xyz": [5.558377768617668, -6.789901992100973, -8.043979164699506]
      }
    ]
  },
  "task_ids": null,
  "uncorrected_energy_per_atom": null,
  "energy_per_atom": -2.218633175,
  "formation_energy_per_atom": -0.23421449428571403,
  "energy_above_hull": 0.0,
  "is_stable": true,
  "equilibrium_reaction_energy_per_atom": null,
  "decomposes_to": null,
  "xas": null,
  "grain_boundaries": null,
  "band_gap": 0.0,
  "cbm": null,
  "vbm": null,
  "efermi": 3.39073158,
  "is_gap_direct": null,
  "is_metal": null,
  "es_source_calc_id": null,
  "bandstructure": null,
  "dos": null,
  "dos_energy_up": null,
  "dos_energy_down": null,
  "is_magnetic": null,
  "ordering": null,
  "total_magnetization": 8e-7,
  "total_magnetization_normalized_vol": null,
  "total_magnetization_normalized_formula_units": null,
  "num_magnetic_sites": null,
  "num_unique_magnetic_sites": null,
  "types_of_magnetic_species": null,
  "bulk_modulus": null,
  "shear_modulus": null,
  "universal_anisotropy": null,
  "homogeneous_poisson": null,
  "e_total": null,
  "e_ionic": null,
  "e_electronic": null,
  "n": null,
  "e_ij_max": null,
  "weighted_surface_energy_EV_PER_ANG2": null,
  "weighted_surface_energy": null,
  "weighted_work_function": null,
  "surface_anisotropy": null,
  "shape_factor": null,
  "has_reconstructed": null,
  "possible_species": null,
  "has_props": null,
  "theoretical": null,
  "database_IDs": null,
  "fields_not_requested": [
    "builder_meta",
    "nsites",
    "elements",
    "nelements",
    "composition",
    "composition_reduced",
    "chemsys",
    "symmetry",
    "property_name",
    "deprecated",
    "deprecation_reasons",
    "last_updated",
    "origins",
    "warnings",
    "task_ids",
    "uncorrected_energy_per_atom",
    "equilibrium_reaction_energy_per_atom",
    "decomposes_to",
    "xas",
    "grain_boundaries",
    "cbm",
    "vbm",
    "is_gap_direct",
    "is_metal",
    "es_source_calc_id",
    "bandstructure",
    "dos",
    "dos_energy_up",
    "dos_energy_down",
    "is_magnetic",
    "ordering",
    "total_magnetization_normalized_vol",
    "total_magnetization_normalized_formula_units",
    "num_magnetic_sites",
    "num_unique_magnetic_sites",
    "types_of_magnetic_species",
    "bulk_modulus",
    "shear_modulus",
    "universal_anisotropy",
    "homogeneous_poisson",
    "e_total",
    "e_ionic",
    "e_electronic",
    "n",
    "e_ij_max",
    "weighted_surface_energy_EV_PER_ANG2",
    "weighted_surface_energy",
    "weighted_work_function",
    "surface_anisotropy",
    "shape_factor",
    "has_reconstructed",
    "possible_species",
    "has_props",
    "theoretical",
    "database_IDs"
  ]
}
