{"builder_meta": null, "nsites": null, "elements": null, "nelements": null, "composition": null, "composition_reduced": null, "formula_pretty": "ScZn3", "formula_anonymous": "AB3", "chemsys": null, "volume": 129.10417721407012, "density": 6.204193484898381, "density_atomic": 16.138022151758765, "symmetry": null, "property_name": null, "material_id": "mp-862260", "deprecated": null, "deprecation_reasons": null, "last_updated": null, "origins": null, "warnings": null, "structure": {"@module": "pymatgen.core.structure", "@class": "Structure", "charge": 0, "lattice": {"matrix": [[5.86550128, 1e-08, 0.0], [-2.93275013, 5.07967275, -0.0], [0.0, 0.0, 4.33310712]], "pbc": [true, true, true], "a": 5.86550128, "b": 5.865500709411566, "c": 4.33310712, "alpha": 90.0, "beta": 90.0, "gamma": 119.99999736776566, "volume": 129.10417721407012}, "properties": {}, "sites": [{"species": [{"element": "Sc", "occu": 1}], "abc": [0.333333, 0.666667, 0.750002], "properties": {"magmom": 0.0}, "label": "Sc", "xyz": [-2.592750470098437e-06, 3.3864501965575804, 3.24983900621424]}, {"species": [{"element": "Sc", "occu": 1}], "abc": [0.666667999999999, 0.333333999999999, 0.25], "properties": {"magmom": 0.0}, "label": "Sc", "xyz": [2.9327566755016172, 1.6932276431151752, 1.08327678]}, {"species": [{"element": "Zn", "occu": 1}], "abc": [0.84266905, 0.68533909, 0.750002], "properties": {"magmom": -0.0}, "label": "Zn", "xyz": [2.932748086099803, 3.4812983084094884, 3.24983900621424]}, {"species": [{"element": "Zn", "occu": 1}], "abc": [0.31466091, 0.15732995, 0.750002], "properties": {"magmom": -0.0}, "label": "Zn", "xyz": [1.3842345390555713, 0.7991846629204716, 3.24983900621424]}, {"species": [{"element": "Zn", "occu": 1}], "abc": [0.15733195, 0.31466291, 0.25], "properties": {"magmom": -0.0}, "label": "Zn", "xyz": [3.0639012176258973e-06, 1.5983846109360222, 1.08327678]}, {"species": [{"element": "Zn", "occu": 1}], "abc": [0.68533909, 0.84266905, 0.25], "properties": {"magmom": -0.0}, "label": "Zn", "xyz": [1.5485195436945585, 4.2804830174067785, 1.08327678]}, {"species": [{"element": "Zn", "occu": 1}], "abc": [0.15733195, 0.84266905, 0.25], "properties": {"magmom": -0.0}, "label": "Zn", "xyz": [-1.5485070118245807, 4.280483012126707, 1.08327678]}, {"species": [{"element": "Zn", "occu": 1}], "abc": [0.84266805, 0.15732995, 0.750002], "properties": {"magmom": -0.0}, "label": "Zn", "xyz": [4.481261094574711, 0.799184668200543, 3.24983900621424]}]}, "task_ids": null, "uncorrected_energy_per_atom": null, "energy_per_atom": -2.841058776249999, "formation_energy_per_atom": -0.313133792499999, "energy_above_hull": 0.0, "is_stable": true, "equilibrium_reaction_energy_per_atom": null, "decomposes_to": null, "xas": null, "grain_boundaries": null, "band_gap": 0.0, "cbm": null, "vbm": null, "efermi": 3.32867379, "is_gap_direct": null, "is_metal": null, "es_source_calc_id": null, "bandstructure": null, "dos": null, "dos_energy_up": null, "dos_energy_down": null, "is_magnetic": null, "ordering": null, "total_magnetization": 0.0, "total_magnetization_normalized_vol": null, "total_magnetization_normalized_formula_units": null, "num_magnetic_sites": null, "num_unique_magnetic_sites": null, "types_of_magnetic_species": null, "bulk_modulus": null, "shear_modulus": null, "universal_anisotropy": null, "homogeneous_poisson": null, "e_total": null, "e_ionic": null, "e_electronic": null, "n": null, "e_ij_max": null, "weighted_surface_energy_EV_PER_ANG2": null, "weighted_surface_energy": null, "weighted_work_function": null, "surface_anisotropy": null, "shape_factor": null, "has_reconstructed": null, "possible_species": null, "has_props": null, "theoretical": null, "database_IDs": null, "fields_not_requested": ["builder_meta", "nsites", "elements", "nelements", "composition", "composition_reduced", "chemsys", "symmetry", "property_name", "deprecated", "deprecation_reasons", "last_updated", "origins", "warnings", "task_ids", "uncorrected_energy_per_atom", "equilibrium_reaction_energy_per_atom", "decomposes_to", "xas", "grain_boundaries", "cbm", "vbm", "is_gap_direct", "is_metal", "es_source_calc_id", "bandstructure", "dos", "dos_energy_up", "dos_energy_down", "is_magnetic", "ordering", "total_magnetization_normalized_vol", "total_magnetization_normalized_formula_units", "num_magnetic_sites", "num_unique_magnetic_sites", "types_of_magnetic_species", "bulk_modulus", "shear_modulus", "universal_anisotropy", "homogeneous_poisson", "e_total", "e_ionic", "e_electronic", "n", "e_ij_max", "weighted_surface_energy_EV_PER_ANG2", "weighted_surface_energy", "weighted_work_function", "surface_anisotropy", "shape_factor", "has_reconstructed", "possible_species", "has_props", "theoretical", "database_IDs"]}