{"builder_meta": null, "nsites": null, "elements": null, "nelements": null, "composition": null, "composition_reduced": null, "formula_pretty": "Se2O5", "formula_anonymous": "A2B5", "chemsys": null, "volume": 438.1748259114776, "density": 3.606510002362265, "density_atomic": 15.649100925409915, "symmetry": null, "property_name": null, "material_id": "mp-27358", "deprecated": null, "deprecation_reasons": null, "last_updated": null, "origins": null, "warnings": null, "structure": {"@module": "pymatgen.core.structure", "@class": "Structure", "charge": 0, "lattice": {"matrix": [[4.57906483, 0.0, -0.17016957], [0.0, 6.9738313, 0.0], [-0.03729827, 0.0, 13.72281037]], "pbc": [true, true, true], "a": 4.5822257037270555, "b": 6.9738313, "c": 13.722861057808773, "alpha": 90.0, "beta": 92.28400410298568, "gamma": 90.0, "volume": 438.1748259114777}, "properties": {}, "sites": [{"species": [{"element": "Se", "occu": 1}], "abc": [0.35322888, 0.23939488, 0.64025944], "properties": {"magmom": -0.0}, "label": "Se", "xyz": [1.5935773718851218, 1.669499507203744, 8.726050076101211]}, {"species": [{"element": "Se", "occu": 1}], "abc": [0.64677112, 0.73939488, 0.85974056], "properties": {"magmom": -0.0}, "label": "Se", "xyz": [2.9295400531148785, 5.156415157203743, 11.687995908898788]}, {"species": [{"element": "Se", "occu": 1}], "abc": [0.64677112, 0.76060512, 0.35974056], "properties": {"magmom": -0.0}, "label": "Se", "xyz": [2.9481891881148785, 5.304331792796256, 4.826590723898788]}, {"species": [{"element": "Se", "occu": 1}], "abc": [0.35322888, 0.26060512, 0.14025944], "properties": {"magmom": -0.0}, "label": "Se", "xyz": [1.6122265068851218, 1.817416142796256, 1.8646448911012112]}, {"species": [{"element": "Se", "occu": 1}], "abc": [0.50039704, 0.28638347000000003, 0.87145598], "properties": {"magmom": 0.0}, "label": "Se", "xyz": [2.258846686464948, 1.997190006888611, 11.873672810216439]}, {"species": [{"element": "Se", "occu": 1}], "abc": [0.49960296, 0.78638347, 0.62854402], "properties": {"magmom": 0.0}, "label": "Se", "xyz": [2.2642707385350516, 5.484105656888611, 8.540373174783559]}, {"species": [{"element": "Se", "occu": 1}], "abc": [0.49960296, 0.71361653, 0.12854402], "properties": {"magmom": 0.0}, "label": "Se", "xyz": [2.2829198735350515, 4.976641293111389, 1.67896798978356]}, {"species": [{"element": "Se", "occu": 1}], "abc": [0.50039704, 0.21361653, 0.37145598], "properties": {"magmom": 0.0}, "label": "Se", "xyz": [2.277495821464948, 1.489725643111389, 5.01226762521644]}, {"species": [{"element": "O", "occu": 1}], "abc": [0.7023323300000001, 0.24697246, 0.6425215400000001], "properties": {"magmom": 0.0}, "label": "O", "xyz": [3.1920603293952183, 1.722344271785998, 8.697685661467172]}, {"species": [{"element": "O", "occu": 1}], "abc": [0.29766767, 0.74697146, 0.85747846], "properties": {"magmom": 0.0}, "label": "O", "xyz": [1.3310570956047818, 5.209252947954698, 11.716360323532829]}, {"species": [{"element": "O", "occu": 1}], "abc": [0.29766767, 0.75302854, 0.35747846], "properties": {"magmom": 0.0}, "label": "O", "xyz": [1.349706230604782, 5.251494002045302, 4.854955138532828]}, {"species": [{"element": "O", "occu": 1}], "abc": [0.7023323300000001, 0.25302754, 0.14252154], "properties": {"magmom": 0.0}, "label": "O", "xyz": [3.2107094643952183, 1.7645713782140018, 1.8362804764671716]}, {"species": [{"element": "O", "occu": 1}], "abc": [0.25775716, 0.27866855, 0.77177132], "properties": {"magmom": 0.0}, "label": "O", "xyz": [1.1515010109650665, 1.943387456315615, 10.547009048282968]}, {"species": [{"element": "O", "occu": 1}], "abc": [0.7422428400000001, 0.77866855, 0.72822868], "properties": {"magmom": 0.0}, "label": "O", "xyz": [3.3716164140349343, 5.430303106315614, 9.867036936717032]}, {"species": [{"element": "O", "occu": 1}], "abc": [0.7422428400000001, 0.72133145, 0.22822868000000002], "properties": {"magmom": 0.0}, "label": "O", "xyz": [3.3902655490349343, 5.030443843684385, 3.005631751717033]}, {"species": [{"element": "O", "occu": 1}], "abc": [0.25775716, 0.22133145, 0.27177132], "properties": {"magmom": 0.0}, "label": "O", "xyz": [1.1701501459650665, 1.543528193684385, 3.685603863282967]}, {"species": [{"element": "O", "occu": 1}], "abc": [0.29850408, 0.16415498, 0.46198439], "properties": {"magmom": -0.0}, "label": "O", "xyz": [1.3496383158255012, 1.144789137574874, 6.288927866933279]}, {"species": [{"element": "O", "occu": 1}], "abc": [0.70149592, 0.6641549800000001, 0.03801561], "properties": {"magmom": -0.0}, "label": "O", "xyz": [3.210777379174499, 4.631704787574874, 0.4023077480667212]}, {"species": [{"element": "O", "occu": 1}], "abc": [0.70149592, 0.83584502, 0.53801561], "properties": {"magmom": -0.0}, "label": "O", "xyz": [3.192128244174499, 5.829042162425126, 7.263712933066721]}, {"species": [{"element": "O", "occu": 1}], "abc": [0.29850408, 0.33584502, 0.96198439], "properties": {"magmom": -0.0}, "label": "O", "xyz": [1.3309891808255012, 2.342126512425126, 13.150333051933279]}, {"species": [{"element": "O", "occu": 1}], "abc": [0.70667547, 0.40125973, 0.37738141000000003], "properties": {"magmom": 0.0}, "label": "O", "xyz": [3.221837117177559, 2.7983176645035486, 5.058478865733774]}, {"species": [{"element": "O", "occu": 1}], "abc": [0.29332453, 0.90125973, 0.12261859], "properties": {"magmom": 0.0}, "label": "O", "xyz": [1.3385785778224408, 6.285233314503549, 1.632756749266226]}, {"species": [{"element": "O", "occu": 1}], "abc": [0.29332453, 0.59874027, 0.62261859], "properties": {"magmom": 0.0}, "label": "O", "xyz": [1.3199294428224408, 4.175513635496451, 8.494161934266225]}, {"species": [{"element": "O", "occu": 1}], "abc": [0.70667547, 0.09874027, 0.87738141], "properties": {"magmom": 0.0}, "label": "O", "xyz": [3.203187982177559, 0.688597985496451, 11.919884050733774]}, {"species": [{"element": "O", "occu": 1}], "abc": [0.73152845, 0.026423330000000002, 0.34588188000000003], "properties": {"magmom": 0.0}, "label": "O", "xyz": [3.336815401791066, 0.184271845804229, 4.621987567879829]}, {"species": [{"element": "O", "occu": 1}], "abc": [0.26847155, 0.52642333, 0.15411812], "properties": {"magmom": 0.0}, "label": "O", "xyz": [1.223600293208934, 3.6711874958042285, 2.069248047120171]}, {"species": [{"element": "O", "occu": 1}], "abc": [0.26847155, 0.97357667, 0.65411812], "properties": {"magmom": 0.0}, "label": "O", "xyz": [1.204951158208934, 6.7895594541957704, 8.93065323212017]}, {"species": [{"element": "O", "occu": 1}], "abc": [0.73152845, 0.47357667000000003, 0.84588188], "properties": {"magmom": 0.0}, "label": "O", "xyz": [3.318166266791066, 3.302643804195771, 11.483392752879828]}]}, "task_ids": null, "uncorrected_energy_per_atom": null, "energy_per_atom": -5.55515236142857, "formation_energy_per_atom": -1.022062649955356, "energy_above_hull": 0.0, "is_stable": true, "equilibrium_reaction_energy_per_atom": null, "decomposes_to": null, "xas": null, "grain_boundaries": null, "band_gap": 2.9034, "cbm": null, "vbm": null, "efermi": -1.1179218, "is_gap_direct": null, "is_metal": null, "es_source_calc_id": null, "bandstructure": null, "dos": null, "dos_energy_up": null, "dos_energy_down": null, "is_magnetic": null, "ordering": null, "total_magnetization": 0.0, "total_magnetization_normalized_vol": null, "total_magnetization_normalized_formula_units": null, "num_magnetic_sites": null, "num_unique_magnetic_sites": null, "types_of_magnetic_species": null, "bulk_modulus": null, "shear_modulus": null, "universal_anisotropy": null, "homogeneous_poisson": null, "e_total": null, "e_ionic": null, "e_electronic": null, "n": null, "e_ij_max": null, "weighted_surface_energy_EV_PER_ANG2": null, "weighted_surface_energy": null, "weighted_work_function": null, "surface_anisotropy": null, "shape_factor": null, "has_reconstructed": null, "possible_species": null, "has_props": null, "theoretical": null, "database_IDs": null, "fields_not_requested": ["builder_meta", "nsites", "elements", "nelements", "composition", "composition_reduced", "chemsys", "symmetry", "property_name", "deprecated", "deprecation_reasons", "last_updated", "origins", "warnings", "task_ids", "uncorrected_energy_per_atom", "equilibrium_reaction_energy_per_atom", "decomposes_to", "xas", "grain_boundaries", "cbm", "vbm", "is_gap_direct", "is_metal", "es_source_calc_id", "bandstructure", "dos", "dos_energy_up", "dos_energy_down", "is_magnetic", "ordering", "total_magnetization_normalized_vol", "total_magnetization_normalized_formula_units", "num_magnetic_sites", "num_unique_magnetic_sites", "types_of_magnetic_species", "bulk_modulus", "shear_modulus", "universal_anisotropy", "homogeneous_poisson", "e_total", "e_ionic", "e_electronic", "n", "e_ij_max", "weighted_surface_energy_EV_PER_ANG2", "weighted_surface_energy", "weighted_work_function", "surface_anisotropy", "shape_factor", "has_reconstructed", "possible_species", "has_props", "theoretical", "database_IDs"]}