{"builder_meta": null, "nsites": null, "elements": null, "nelements": null, "composition": null, "composition_reduced": null, "formula_pretty": "SeBr3", "formula_anonymous": "AB3", "chemsys": null, "volume": 136.54190672766998, "density": 3.875493744839585, "density_atomic": 34.135476681917496, "symmetry": null, "property_name": null, "material_id": "mp-972874", "deprecated": null, "deprecation_reasons": null, "last_updated": null, "origins": null, "warnings": null, "structure": {"@module": "pymatgen.core.structure", "@class": "Structure", "charge": 0, "lattice": {"matrix": [[-1.987703, 1.987703, 8.639786], [1.987703, -1.987703, 8.639786], [1.987703, 1.987703, -8.639786]], "pbc": [true, true, true], "a": 9.085583556283769, "b": 9.085583556283769, "c": 9.085583556283769, "alpha": 154.72575629652943, "beta": 154.72575629652943, "gamma": 36.045580393447, "volume": 136.54190672766998}, "properties": {}, "sites": [{"species": [{"element": "Se", "occu": 1}], "abc": [0.0, 0.0, 0.0], "properties": {"magmom": -0.036000000000000004}, "label": "Se", "xyz": [0.0, 0.0, 0.0]}, {"species": [{"element": "Br", "occu": 1}], "abc": [0.75, 0.25, 0.5], "properties": {"magmom": 0.003}, "label": "Br", "xyz": [-1.1102230246251565e-16, 1.9877030000000002, 4.319893]}, {"species": [{"element": "Br", "occu": 1}], "abc": [0.25, 0.75, 0.5], "properties": {"magmom": 0.003}, "label": "Br", "xyz": [1.9877030000000002, -1.1102230246251565e-16, 4.319893]}, {"species": [{"element": "Br", "occu": 1}], "abc": [0.5, 0.5, 0.0], "properties": {"magmom": -0.009000000000000001}, "label": "Br", "xyz": [0.0, 0.0, 8.639786]}]}, "task_ids": null, "uncorrected_energy_per_atom": null, "energy_per_atom": -2.2152053575, "formation_energy_per_atom": -0.113517586835937, "energy_above_hull": 0.5147558332128901, "is_stable": false, "equilibrium_reaction_energy_per_atom": null, "decomposes_to": null, "xas": null, "grain_boundaries": null, "band_gap": 0.0, "cbm": null, "vbm": null, "efermi": 0.94737043, "is_gap_direct": null, "is_metal": null, "es_source_calc_id": null, "bandstructure": null, "dos": null, "dos_energy_up": null, "dos_energy_down": null, "is_magnetic": null, "ordering": null, "total_magnetization": 0.0679036, "total_magnetization_normalized_vol": null, "total_magnetization_normalized_formula_units": null, "num_magnetic_sites": null, "num_unique_magnetic_sites": null, "types_of_magnetic_species": null, "bulk_modulus": null, "shear_modulus": null, "universal_anisotropy": null, "homogeneous_poisson": null, "e_total": null, "e_ionic": null, "e_electronic": null, "n": null, "e_ij_max": null, "weighted_surface_energy_EV_PER_ANG2": null, "weighted_surface_energy": null, "weighted_work_function": null, "surface_anisotropy": null, "shape_factor": null, "has_reconstructed": null, "possible_species": null, "has_props": null, "theoretical": null, "database_IDs": null, "fields_not_requested": ["builder_meta", "nsites", "elements", "nelements", "composition", "composition_reduced", "chemsys", "symmetry", "property_name", "deprecated", "deprecation_reasons", "last_updated", "origins", "warnings", "task_ids", "uncorrected_energy_per_atom", "equilibrium_reaction_energy_per_atom", "decomposes_to", "xas", "grain_boundaries", "cbm", "vbm", "is_gap_direct", "is_metal", "es_source_calc_id", "bandstructure", "dos", "dos_energy_up", "dos_energy_down", "is_magnetic", "ordering", "total_magnetization_normalized_vol", "total_magnetization_normalized_formula_units", "num_magnetic_sites", "num_unique_magnetic_sites", "types_of_magnetic_species", "bulk_modulus", "shear_modulus", "universal_anisotropy", "homogeneous_poisson", "e_total", "e_ionic", "e_electronic", "n", "e_ij_max", "weighted_surface_energy_EV_PER_ANG2", "weighted_surface_energy", "weighted_work_function", "surface_anisotropy", "shape_factor", "has_reconstructed", "possible_species", "has_props", "theoretical", "database_IDs"]}