{
  "builder_meta": null,
  "nsites": null,
  "elements": null,
  "nelements": null,
  "composition": null,
  "composition_reduced": null,
  "formula_pretty": "SeBr",
  "formula_anonymous": "AB",
  "chemsys": null,
  "volume": 556.8060544585198,
  "density": 3.790186922918878,
  "density_atomic": 34.80037840365749,
  "symmetry": null,
  "property_name": null,
  "material_id": "mp-540943",
  "deprecated": null,
  "deprecation_reasons": null,
  "last_updated": null,
  "origins": null,
  "warnings": null,
  "structure": {
    "@module": "pymatgen.core.structure",
    "@class": "Structure",
    "charge": 0,
    "lattice": {
      "matrix": [
        [5.05174599, 0.06248299, 0.0],
        [-0.83759368, 7.44265856, 0.0],
        [0.0, 0.0, 14.78870852]
      ],
      "pbc": [true, true, true],
      "a": 5.052132388558362,
      "b": 7.489641487649273,
      "c": 14.78870852,
      "alpha": 90.0,
      "beta": 90.0,
      "gamma": 95.71239419075032,
      "volume": 556.8060544585198
    },
    "properties": {},
    "sites": [
      {
        "species": [{ "element": "Se", "occu": 1 }],
        "abc": [0.08277127000000001, 0.38813094000000004, 0.13485855],
        "properties": { "magmom": 0.0 },
        "label": "Se",
        "xyz": [0.09304340895324809, 2.8938978594275437, 1.994383787379846]
      },
      {
        "species": [{ "element": "Se", "occu": 1 }],
        "abc": [0.41722873, 0.61186906, 0.63485855],
        "properties": { "magmom": 0.0 },
        "label": "Se",
        "xyz": [1.595235906046752, 4.580002195572456, 9.388738047379846]
      },
      {
        "species": [{ "element": "Se", "occu": 1 }],
        "abc": [0.91722873, 0.61186906, 0.86514145],
        "properties": { "magmom": 0.0 },
        "label": "Se",
        "xyz": [4.121108901046751, 4.611243690572456, 12.794324732620154]
      },
      {
        "species": [{ "element": "Se", "occu": 1 }],
        "abc": [0.5827712700000001, 0.38813094000000004, 0.36514145000000003],
        "properties": { "magmom": 0.0 },
        "label": "Se",
        "xyz": [2.618916403953248, 2.925139354427544, 5.399970472620154]
      },
      {
        "species": [{ "element": "Se", "occu": 1 }],
        "abc": [0.82215752, 0.20777533, 0.04557056],
        "properties": { "magmom": 0.0 },
        "label": "Se",
        "xyz": [3.97929965154043, 1.5977716984819097, 0.6739297289331713]
      },
      {
        "species": [{ "element": "Se", "occu": 1 }],
        "abc": [0.67784248, 0.79222467, 0.54557056],
        "properties": { "magmom": 0.0 },
        "label": "Se",
        "xyz": [2.7607256534595694, 5.93861134651809, 8.068283988933171]
      },
      {
        "species": [{ "element": "Se", "occu": 1 }],
        "abc": [0.17784248, 0.79222467, 0.9544294400000001],
        "properties": { "magmom": 0.0 },
        "label": "Se",
        "xyz": [0.23485265845956949, 5.90736985151809, 14.11477879106683]
      },
      {
        "species": [{ "element": "Se", "occu": 1 }],
        "abc": [0.32215752000000003, 0.20777533, 0.45442944],
        "properties": { "magmom": 0.0 },
        "label": "Se",
        "xyz": [1.4534266565404306, 1.5665302034819095, 6.720424531066829]
      },
      {
        "species": [{ "element": "Br", "occu": 1 }],
        "abc": [0.86768299, 0.66018649, 0.1453339],
        "properties": { "magmom": -0.0 },
        "label": "Br",
        "xyz": [3.8303460336783273, 4.967758058582194, 2.1493006851748278]
      },
      {
        "species": [{ "element": "Br", "occu": 1 }],
        "abc": [0.6323170100000001, 0.33981351, 0.6453339],
        "properties": { "magmom": -0.0 },
        "label": "Br",
        "xyz": [2.9096792713216733, 2.568624986417805, 9.54365494517483]
      },
      {
        "species": [{ "element": "Br", "occu": 1 }],
        "abc": [0.13231701, 0.33981351, 0.8546661],
        "properties": { "magmom": -0.0 },
        "label": "Br",
        "xyz": [0.3838062763216731, 2.5373834914178053, 12.639407834825171]
      },
      {
        "species": [{ "element": "Br", "occu": 1 }],
        "abc": [0.36768299, 0.66018649, 0.3546661],
        "properties": { "magmom": -0.0 },
        "label": "Br",
        "xyz": [1.3044730386783265, 4.936516563582194, 5.245053574825172]
      },
      {
        "species": [{ "element": "Br", "occu": 1 }],
        "abc": [0.49971213000000003, 0.04566518, 0.14396238],
        "properties": { "magmom": -0.0 },
        "label": "Br",
        "xyz": [2.486169882717796, 0.3710938508426095, 2.1290176756654775]
      },
      {
        "species": [{ "element": "Br", "occu": 1 }],
        "abc": [0.00028787, 0.95433482, 0.6439623800000001],
        "properties": { "magmom": -0.0 },
        "label": "Br",
        "xyz": [-0.7978905677177963, 7.102806204157391, 9.523371935665478]
      },
      {
        "species": [{ "element": "Br", "occu": 1 }],
        "abc": [0.50028787, 0.95433482, 0.85603762],
        "properties": { "magmom": -0.0 },
        "label": "Br",
        "xyz": [1.7279824272822035, 7.1340476991573905, 12.659690844334524]
      },
      {
        "species": [{ "element": "Br", "occu": 1 }],
        "abc": [-0.00028787, 0.04566518, 0.35603762],
        "properties": { "magmom": -0.0 },
        "label": "Br",
        "xyz": [-0.039703112282203704, 0.33985235584260953, 5.265336584334523]
      }
    ]
  },
  "task_ids": null,
  "uncorrected_energy_per_atom": null,
  "energy_per_atom": -2.923750799375,
  "formation_energy_per_atom": -0.357321793046875,
  "energy_above_hull": 0.061527153652344006,
  "is_stable": false,
  "equilibrium_reaction_energy_per_atom": null,
  "decomposes_to": null,
  "xas": null,
  "grain_boundaries": null,
  "band_gap": 1.7553,
  "cbm": null,
  "vbm": null,
  "efermi": -0.5938334200000001,
  "is_gap_direct": null,
  "is_metal": null,
  "es_source_calc_id": null,
  "bandstructure": null,
  "dos": null,
  "dos_energy_up": null,
  "dos_energy_down": null,
  "is_magnetic": null,
  "ordering": null,
  "total_magnetization": 0.0,
  "total_magnetization_normalized_vol": null,
  "total_magnetization_normalized_formula_units": null,
  "num_magnetic_sites": null,
  "num_unique_magnetic_sites": null,
  "types_of_magnetic_species": null,
  "bulk_modulus": null,
  "shear_modulus": null,
  "universal_anisotropy": null,
  "homogeneous_poisson": null,
  "e_total": null,
  "e_ionic": null,
  "e_electronic": null,
  "n": null,
  "e_ij_max": null,
  "weighted_surface_energy_EV_PER_ANG2": null,
  "weighted_surface_energy": null,
  "weighted_work_function": null,
  "surface_anisotropy": null,
  "shape_factor": null,
  "has_reconstructed": null,
  "possible_species": null,
  "has_props": null,
  "theoretical": null,
  "database_IDs": null,
  "fields_not_requested": [
    "builder_meta",
    "nsites",
    "elements",
    "nelements",
    "composition",
    "composition_reduced",
    "chemsys",
    "symmetry",
    "property_name",
    "deprecated",
    "deprecation_reasons",
    "last_updated",
    "origins",
    "warnings",
    "task_ids",
    "uncorrected_energy_per_atom",
    "equilibrium_reaction_energy_per_atom",
    "decomposes_to",
    "xas",
    "grain_boundaries",
    "cbm",
    "vbm",
    "is_gap_direct",
    "is_metal",
    "es_source_calc_id",
    "bandstructure",
    "dos",
    "dos_energy_up",
    "dos_energy_down",
    "is_magnetic",
    "ordering",
    "total_magnetization_normalized_vol",
    "total_magnetization_normalized_formula_units",
    "num_magnetic_sites",
    "num_unique_magnetic_sites",
    "types_of_magnetic_species",
    "bulk_modulus",
    "shear_modulus",
    "universal_anisotropy",
    "homogeneous_poisson",
    "e_total",
    "e_ionic",
    "e_electronic",
    "n",
    "e_ij_max",
    "weighted_surface_energy_EV_PER_ANG2",
    "weighted_surface_energy",
    "weighted_work_function",
    "surface_anisotropy",
    "shape_factor",
    "has_reconstructed",
    "possible_species",
    "has_props",
    "theoretical",
    "database_IDs"
  ]
}
