{"builder_meta": null, "nsites": null, "elements": null, "nelements": null, "composition": null, "composition_reduced": null, "formula_pretty": "SeCl4", "formula_anonymous": "AB4", "chemsys": null, "volume": 1148.0700200639963, "density": 2.554551721791184, "density_atomic": 28.701750501599907, "symmetry": null, "property_name": null, "material_id": "mp-540675", "deprecated": null, "deprecation_reasons": null, "last_updated": null, "origins": null, "warnings": null, "structure": {"@module": "pymatgen.core.structure", "@class": "Structure", "charge": 0, "lattice": {"matrix": [[9.44051939, 0.01334186, -2.58696097], [-5.07883073, 8.32578463, -0.8383017700000001], [-0.03028771, -2.7330000000000004e-05, 14.60225278]], "pbc": [true, true, true], "a": 9.788562275354721, "b": 9.788562772272632, "c": 14.602284191082632, "alpha": 94.85107781086576, "beta": 105.44325747558392, "gamma": 118.46437959112937, "volume": 1148.0700200639963}, "properties": {}, "sites": [{"species": [{"element": "Se", "occu": 1}], "abc": [0.65200111, 0.1116456, 0.8162616500000001], "properties": {"magmom": -0.0}, "label": "Se", "xyz": [5.563477320967913, 0.938213819585698, 10.1389648198605]}, {"species": [{"element": "Se", "occu": 1}], "abc": [0.7953859600000001, 0.83574147, 0.68373835], "properties": {"magmom": -0.0}, "label": "Se", "xyz": [3.2435582488817136, 6.9687967271347855, 7.22588423391073]}, {"species": [{"element": "Se", "occu": 1}], "abc": [0.34799889, 0.8883544, 0.18373835], "properties": {"magmom": -0.0}, "label": "Se", "xyz": [-1.2320763709679132, 7.400885340414302, 1.0380252201395017]}, {"species": [{"element": "Se", "occu": 1}], "abc": [0.20461404, 0.16425853, 0.31626165], "properties": {"magmom": -0.0}, "label": "Se", "xyz": [1.0878427011182872, 1.3703024328652136, 3.95110580608927]}, {"species": [{"element": "Se", "occu": 1}], "abc": [0.15151071, 0.26807114, 0.88792994], "properties": {"magmom": -0.0}, "label": "Se", "xyz": [0.04195848736649729, 2.2338997447146385, 12.349100630355329]}, {"species": [{"element": "Se", "occu": 1}], "abc": [0.8801422, 0.26358077, 0.61207006], "properties": {"magmom": -0.0}, "label": "Se", "xyz": [6.951779190067233, 2.2062427297673177, 6.4397479897108685]}, {"species": [{"element": "Se", "occu": 1}], "abc": [0.8484892900000001, 0.73192886, 0.11207006], "properties": {"magmom": -0.0}, "label": "Se", "xyz": [4.289442462633502, 6.1051994152853615, -1.1721105903553268]}, {"species": [{"element": "Se", "occu": 1}], "abc": [0.1198578, 0.73641923, 0.38792994000000003], "properties": {"magmom": -0.0}, "label": "Se", "xyz": [-2.6203782400672333, 6.132856430232682, 4.737242050289131]}, {"species": [{"element": "Cl", "occu": 1}], "abc": [0.71525823, 0.21547949, 0.97185719], "properties": {"magmom": -0.0}, "label": "Cl", "xyz": [5.628590004943217, 1.8035521402337436, 12.160322392093509]}, {"species": [{"element": "Cl", "occu": 1}], "abc": [0.7436203100000001, 0.74340004, 0.52814281], "properties": {"magmom": -0.0}, "label": "Cl", "xyz": [3.2285627512497173, 6.199295470899565, 5.16516452774014]}, {"species": [{"element": "Cl", "occu": 1}], "abc": [0.28474177, 0.78452051, 0.02814281], "properties": {"magmom": -0.0}, "label": "Cl", "xyz": [-1.2971890549432168, 6.535547019766256, -0.9833323520935077]}, {"species": [{"element": "Cl", "occu": 1}], "abc": [0.25637969, 0.25659996, 0.47185719000000004], "properties": {"magmom": -0.0}, "label": "Cl", "xyz": [1.1028381987502833, 2.1398036891004355, 6.01182551225986]}, {"species": [{"element": "Cl", "occu": 1}], "abc": [0.50976649, 0.22149079, 0.7554591900000001], "properties": {"magmom": 0.0}, "label": "Cl", "xyz": [3.66466507368971, 1.8508652015111662, 9.526983922614455]}, {"species": [{"element": "Cl", "occu": 1}], "abc": [0.9660306, 0.7543073, 0.74454081], "properties": {"magmom": 0.0}, "label": "Cl", "xyz": [5.26628107939356, 6.293068421357377, 7.740552509906351]}, {"species": [{"element": "Cl", "occu": 1}], "abc": [0.49023351, 0.7785092100000001, 0.24454081], "properties": {"magmom": 0.0}, "label": "Cl", "xyz": [0.6667358763102903, 6.488233958488833, 1.6500061173855456]}, {"species": [{"element": "Cl", "occu": 1}], "abc": [0.0339694, 0.24569269999999901, 0.25545919], "properties": {"magmom": 0.0}, "label": "Cl", "xyz": [-0.934880129393555, 2.0460307386426138, 3.4364375300936523]}, {"species": [{"element": "Cl", "occu": 1}], "abc": [0.43509622000000003, 0.87932614, 0.80730662], "properties": {"magmom": -0.0}, "label": "Cl", "xyz": [-0.3828657888862161, 7.326862990333072, 9.925777737303603]}, {"species": [{"element": "Cl", "occu": 1}], "abc": [0.5720175200000001, 0.6277866, 0.69269338], "properties": {"magmom": -0.0}, "label": "Cl", "xyz": [2.190740516805136, 5.2344288715592695, 8.10882221743412]}, {"species": [{"element": "Cl", "occu": 1}], "abc": [0.56490378, 0.12067386000000001, 0.19269338], "properties": {"magmom": -0.0}, "label": "Cl", "xyz": [4.7142667388862165, 1.0122361696669273, 1.2512123026963977]}, {"species": [{"element": "Cl", "occu": 1}], "abc": [0.42798248, 0.37221339999999903, 0.30730662000000003], "properties": {"magmom": -0.0}, "label": "Cl", "xyz": [2.1406604331948698, 3.104670288440722, 3.068167822565881]}, {"species": [{"element": "Cl", "occu": 1}], "abc": [0.93500639, 0.37401391, 0.81142577], "properties": {"magmom": 0.0}, "label": "Cl", "xyz": [6.902816386605162, 3.1264118113723947, 9.116282645357924]}, {"species": [{"element": "Cl", "occu": 1}], "abc": [0.06258814, 0.12357862, 0.6885742300000001], "properties": {"magmom": 0.0}, "label": "Cl", "xyz": [-0.05762568016467125, 1.029705198460445, 9.789225713008808]}, {"species": [{"element": "Cl", "occu": 1}], "abc": [0.06499361000000001, 0.62598609, 0.18857423], "properties": {"magmom": 0.0}, "label": "Cl", "xyz": [-2.5714154366051614, 5.212687348627606, 2.060707394642079]}, {"species": [{"element": "Cl", "occu": 1}], "abc": [0.93741186, 0.87642138, 0.31142577], "properties": {"magmom": 0.0}, "label": "Cl", "xyz": [4.389026630164672, 7.309393961539554, 1.3877643269911943]}, {"species": [{"element": "Cl", "occu": 1}], "abc": [0.85987302, 0.99098213, 0.87070539], "properties": {"magmom": 0.0}, "label": "Cl", "xyz": [3.0582457511752463, 8.26215229563097, 9.659060186175086]}, {"species": [{"element": "Cl", "occu": 1}], "abc": [0.62027775, 0.9891676300000001, 0.62929461], "properties": {"magmom": 0.0}, "label": "Cl", "xyz": [0.8128692770430589, 8.24385511062745, 6.755263663446392]}, {"species": [{"element": "Cl", "occu": 1}], "abc": [0.14012698, 0.00901787, 0.12929461], "properties": {"magmom": 0.0}, "label": "Cl", "xyz": [1.273155198824754, 0.0769468643690296, 1.5179298538249153]}, {"species": [{"element": "Cl", "occu": 1}], "abc": [0.37972225, 0.010832370000000001, 0.37070539], "properties": {"magmom": 0.0}, "label": "Cl", "xyz": [3.5185316729569407, 0.0952440493725494, 4.4217263765536075]}, {"species": [{"element": "Cl", "occu": 1}], "abc": [0.35833388, 0.48667394, 0.87504211], "properties": {"magmom": 0.0}, "label": "Cl", "xyz": [0.8846203586062885, 4.056699335032892, 11.44261069626103]}, {"species": [{"element": "Cl", "occu": 1}], "abc": [0.11163082, 0.48329077000000004, 0.62495789], "properties": {"magmom": 0.0}, "label": "Cl", "xyz": [-1.4196276368042944, 4.025247147359857, 8.431865004330676]}, {"species": [{"element": "Cl", "occu": 1}], "abc": [0.64166612, 0.51332606, 0.12495789], "properties": {"magmom": 0.0}, "label": "Cl", "xyz": [3.4467805913937113, 4.282399824967108, -0.2656206562610284]}, {"species": [{"element": "Cl", "occu": 1}], "abc": [0.88836918, 0.51670923, 0.37504211], "properties": {"magmom": 0.0}, "label": "Cl", "xyz": [5.751028586804294, 4.313852012640143, 2.7451250356693246]}, {"species": [{"element": "Cl", "occu": 1}], "abc": [0.2897723, 0.14843597, 0.93142882], "properties": {"magmom": 0.0}, "label": "Cl", "xyz": [1.9535090049757369, 1.2396865630739684, 12.726895309547324]}, {"species": [{"element": "Cl", "occu": 1}], "abc": [0.71700714, 0.35834448, 0.5685711800000001], "properties": {"magmom": 0.0}, "label": "Cl", "xyz": [4.931728131974376, 2.9930496336598735, 6.1471497955378265]}, {"species": [{"element": "Cl", "occu": 1}], "abc": [0.7102277, 0.85156403, 0.06857118], "properties": {"magmom": 0.0}, "label": "Cl", "xyz": [2.3778919450242633, 7.099412596926031, -1.5499052695473217]}, {"species": [{"element": "Cl", "occu": 1}], "abc": [0.28299286, 0.64165552, 0.43142882], "properties": {"magmom": 0.0}, "label": "Cl", "xyz": [-0.6003271819743766, 5.346049526340127, 5.029840244462175]}, {"species": [{"element": "Cl", "occu": 1}], "abc": [0.17641287, 0.3654108, 0.03555371], "properties": {"magmom": -0.0}, "label": "Cl", "xyz": [-0.19150732069123863, 3.0446843264068475, -0.24353346902598605]}, {"species": [{"element": "Cl", "occu": 1}], "abc": [0.82985808, 0.14086015, 0.46444629], "properties": {"magmom": -0.0}, "label": "Cl", "xyz": [7.104819422193667, 1.1838304288556174, 4.517068352646582]}, {"species": [{"element": "Cl", "occu": 1}], "abc": [0.8235871300000001, 0.6345892, 0.96444629], "properties": {"magmom": -0.0}, "label": "Cl", "xyz": [4.522908270691239, 5.294414833593152, 11.420523509025987]}, {"species": [{"element": "Cl", "occu": 1}], "abc": [0.17014192, 0.85913985, 0.53555371], "properties": {"magmom": -0.0}, "label": "Cl", "xyz": [-2.7734184721936663, 7.155268731144383, 6.659921687353417]}]}, "task_ids": null, "uncorrected_energy_per_atom": null, "energy_per_atom": -8.13408867175, "formation_energy_per_atom": -0.349825507562499, "energy_above_hull": 0.0, "is_stable": true, "equilibrium_reaction_energy_per_atom": null, "decomposes_to": null, "xas": null, "grain_boundaries": null, "band_gap": 3.0664, "cbm": null, "vbm": null, "efermi": -1.36076942, "is_gap_direct": null, "is_metal": null, "es_source_calc_id": null, "bandstructure": null, "dos": null, "dos_energy_up": null, "dos_energy_down": null, "is_magnetic": null, "ordering": null, "total_magnetization": 0.0, "total_magnetization_normalized_vol": null, "total_magnetization_normalized_formula_units": null, "num_magnetic_sites": null, "num_unique_magnetic_sites": null, "types_of_magnetic_species": null, "bulk_modulus": null, "shear_modulus": null, "universal_anisotropy": null, "homogeneous_poisson": null, "e_total": null, "e_ionic": null, "e_electronic": null, "n": null, "e_ij_max": null, "weighted_surface_energy_EV_PER_ANG2": null, "weighted_surface_energy": null, "weighted_work_function": null, "surface_anisotropy": null, "shape_factor": null, "has_reconstructed": null, "possible_species": null, "has_props": null, "theoretical": null, "database_IDs": null, "fields_not_requested": ["builder_meta", "nsites", "elements", "nelements", "composition", "composition_reduced", "chemsys", "symmetry", "property_name", "deprecated", "deprecation_reasons", "last_updated", "origins", "warnings", "task_ids", "uncorrected_energy_per_atom", "equilibrium_reaction_energy_per_atom", "decomposes_to", "xas", "grain_boundaries", "cbm", "vbm", "is_gap_direct", "is_metal", "es_source_calc_id", "bandstructure", "dos", "dos_energy_up", "dos_energy_down", "is_magnetic", "ordering", "total_magnetization_normalized_vol", "total_magnetization_normalized_formula_units", "num_magnetic_sites", "num_unique_magnetic_sites", "types_of_magnetic_species", "bulk_modulus", "shear_modulus", "universal_anisotropy", "homogeneous_poisson", "e_total", "e_ionic", "e_electronic", "n", "e_ij_max", "weighted_surface_energy_EV_PER_ANG2", "weighted_surface_energy", "weighted_work_function", "surface_anisotropy", "shape_factor", "has_reconstructed", "possible_species", "has_props", "theoretical", "database_IDs"]}