{
  "builder_meta": null,
  "nsites": null,
  "elements": null,
  "nelements": null,
  "composition": null,
  "composition_reduced": null,
  "formula_pretty": "SeCl",
  "formula_anonymous": "AB",
  "chemsys": null,
  "volume": 509.51593756627807,
  "density": 2.983023567574934,
  "density_atomic": 31.84474609789238,
  "symmetry": null,
  "property_name": null,
  "material_id": "mp-504825",
  "deprecated": null,
  "deprecation_reasons": null,
  "last_updated": null,
  "origins": null,
  "warnings": null,
  "structure": {
    "@module": "pymatgen.core.structure",
    "@class": "Structure",
    "charge": 0,
    "lattice": {
      "matrix": [
        [4.95487121, 0.07785096, 0.0],
        [-0.78784347, 7.23978926, 0.0],
        [0.0, 0.0, 14.17939023]
      ],
      "pbc": [true, true, true],
      "a": 4.955482769585602,
      "b": 7.282530182734089,
      "c": 14.17939023,
      "alpha": 90.0,
      "beta": 90.0,
      "gamma": 95.31040683561022,
      "volume": 509.51593756627807
    },
    "properties": {},
    "sites": [
      {
        "species": [{ "element": "Se", "occu": 1 }],
        "abc": [0.07298612, 0.39254184000000003, 0.13865875],
        "properties": { "magmom": -0.0 },
        "label": "Se",
        "xyz": [0.052375299371820394, 2.847602236841314, 1.9660965250540123]
      },
      {
        "species": [{ "element": "Se", "occu": 1 }],
        "abc": [0.42701388, 0.60745816, 0.63865875],
        "properties": { "magmom": -0.0 },
        "label": "Se",
        "xyz": [1.6372168356281798, 4.431112503158686, 9.055791640054013]
      },
      {
        "species": [{ "element": "Se", "occu": 1 }],
        "abc": [0.30853044, 0.20707951, 0.4535685],
        "properties": { "magmom": -0.0 },
        "label": "Se",
        "xyz": [1.3655823548403327, 1.5232314034072851, 6.431324757535754]
      },
      {
        "species": [{ "element": "Se", "occu": 1 }],
        "abc": [0.19146956, 0.79292049, 0.953568499999999],
        "properties": { "magmom": -0.0 },
        "label": "Se",
        "xyz": [0.3240097801596675, 5.755483336592715, 13.52101987253574]
      },
      {
        "species": [{ "element": "Se", "occu": 1 }],
        "abc": [0.57298612, 0.39254184000000003, 0.36134125],
        "properties": { "magmom": -0.0 },
        "label": "Se",
        "xyz": [2.529810904371821, 2.886527716841314, 5.1235985899459875]
      },
      {
        "species": [{ "element": "Se", "occu": 1 }],
        "abc": [0.69146956, 0.79292049, 0.5464315],
        "properties": { "magmom": -0.0 },
        "label": "Se",
        "xyz": [2.801445385159668, 5.794408816592715, 7.748065472464244]
      },
      {
        "species": [{ "element": "Se", "occu": 1 }],
        "abc": [0.9270138800000001, 0.60745816, 0.8613412500000001],
        "properties": { "magmom": -0.0 },
        "label": "Se",
        "xyz": [4.11465244062818, 4.470037983158686, 12.213293704945988]
      },
      {
        "species": [{ "element": "Se", "occu": 1 }],
        "abc": [0.8085304400000001, 0.20707951, 0.0464315],
        "properties": { "magmom": -0.0 },
        "label": "Se",
        "xyz": [3.8430179598403336, 1.562156883407285, 0.658370357464245]
      },
      {
        "species": [{ "element": "Cl", "occu": 1 }],
        "abc": [0.37032229, 0.65486705, 0.35274958],
        "properties": { "magmom": 0.0 },
        "label": "Cl",
        "xyz": [1.3189665240816075, 4.769929381103782, 5.001773948288603]
      },
      {
        "species": [{ "element": "Cl", "occu": 1 }],
        "abc": [0.87032229, 0.65486705, 0.14725042],
        "properties": { "magmom": 0.0 },
        "label": "Cl",
        "xyz": [3.796402129081608, 4.808854861103781, 2.0879211667113964]
      },
      {
        "species": [{ "element": "Cl", "occu": 1 }],
        "abc": [0.49970434, 0.94261771, 0.85798471],
        "properties": { "magmom": 0.0 },
        "label": "Cl",
        "xyz": [1.7333354402481982, 6.863256035728962, 12.165700014463383]
      },
      {
        "species": [{ "element": "Cl", "occu": 1 }],
        "abc": [-0.00029566, 0.94261771, 0.64201529],
        "properties": { "magmom": 0.0 },
        "label": "Cl",
        "xyz": [-0.7441001647518023, 6.824330555728961, 9.103385330536616]
      },
      {
        "species": [{ "element": "Cl", "occu": 1 }],
        "abc": [0.00029566, 0.05738229, 0.35798471],
        "properties": { "magmom": 0.0 },
        "label": "Cl",
        "xyz": [-0.0437433052481977, 0.41545870427103904, 5.076004899463383]
      },
      {
        "species": [{ "element": "Cl", "occu": 1 }],
        "abc": [0.12967771, 0.34513295, 0.85274958],
        "properties": { "magmom": 0.0 },
        "label": "Cl",
        "xyz": [0.3706256109183927, 2.5087853588962186, 12.091469063288603]
      },
      {
        "species": [{ "element": "Cl", "occu": 1 }],
        "abc": [0.6296777100000001, 0.34513295, 0.64725042],
        "properties": { "magmom": 0.0 },
        "label": "Cl",
        "xyz": [2.848061215918393, 2.5477108388962186, 9.177616281711396]
      },
      {
        "species": [{ "element": "Cl", "occu": 1 }],
        "abc": [0.50029566, 0.05738229, 0.14201529000000002],
        "properties": { "magmom": 0.0 },
        "label": "Cl",
        "xyz": [2.4336922997518027, 0.454384184271039, 2.013690215536617]
      }
    ]
  },
  "task_ids": null,
  "uncorrected_energy_per_atom": null,
  "energy_per_atom": -10.431459456875,
  "formation_energy_per_atom": -0.19945989265625003,
  "energy_above_hull": 0.019181049570311002,
  "is_stable": false,
  "equilibrium_reaction_energy_per_atom": null,
  "decomposes_to": null,
  "xas": null,
  "grain_boundaries": null,
  "band_gap": 2.1951,
  "cbm": null,
  "vbm": null,
  "efermi": -0.9147006,
  "is_gap_direct": null,
  "is_metal": null,
  "es_source_calc_id": null,
  "bandstructure": null,
  "dos": null,
  "dos_energy_up": null,
  "dos_energy_down": null,
  "is_magnetic": null,
  "ordering": null,
  "total_magnetization": 0.0,
  "total_magnetization_normalized_vol": null,
  "total_magnetization_normalized_formula_units": null,
  "num_magnetic_sites": null,
  "num_unique_magnetic_sites": null,
  "types_of_magnetic_species": null,
  "bulk_modulus": null,
  "shear_modulus": null,
  "universal_anisotropy": null,
  "homogeneous_poisson": null,
  "e_total": null,
  "e_ionic": null,
  "e_electronic": null,
  "n": null,
  "e_ij_max": null,
  "weighted_surface_energy_EV_PER_ANG2": null,
  "weighted_surface_energy": null,
  "weighted_work_function": null,
  "surface_anisotropy": null,
  "shape_factor": null,
  "has_reconstructed": null,
  "possible_species": null,
  "has_props": null,
  "theoretical": null,
  "database_IDs": null,
  "fields_not_requested": [
    "builder_meta",
    "nsites",
    "elements",
    "nelements",
    "composition",
    "composition_reduced",
    "chemsys",
    "symmetry",
    "property_name",
    "deprecated",
    "deprecation_reasons",
    "last_updated",
    "origins",
    "warnings",
    "task_ids",
    "uncorrected_energy_per_atom",
    "equilibrium_reaction_energy_per_atom",
    "decomposes_to",
    "xas",
    "grain_boundaries",
    "cbm",
    "vbm",
    "is_gap_direct",
    "is_metal",
    "es_source_calc_id",
    "bandstructure",
    "dos",
    "dos_energy_up",
    "dos_energy_down",
    "is_magnetic",
    "ordering",
    "total_magnetization_normalized_vol",
    "total_magnetization_normalized_formula_units",
    "num_magnetic_sites",
    "num_unique_magnetic_sites",
    "types_of_magnetic_species",
    "bulk_modulus",
    "shear_modulus",
    "universal_anisotropy",
    "homogeneous_poisson",
    "e_total",
    "e_ionic",
    "e_electronic",
    "n",
    "e_ij_max",
    "weighted_surface_energy_EV_PER_ANG2",
    "weighted_surface_energy",
    "weighted_work_function",
    "surface_anisotropy",
    "shape_factor",
    "has_reconstructed",
    "possible_species",
    "has_props",
    "theoretical",
    "database_IDs"
  ]
}
