{
  "builder_meta": null,
  "nsites": null,
  "elements": null,
  "nelements": null,
  "composition": null,
  "composition_reduced": null,
  "formula_pretty": "SeF4",
  "formula_anonymous": "AB4",
  "chemsys": null,
  "volume": 307.50379083817097,
  "density": 3.347035519319781,
  "density_atomic": 15.375189541908549,
  "symmetry": null,
  "property_name": null,
  "material_id": "mp-29172",
  "deprecated": null,
  "deprecation_reasons": null,
  "last_updated": null,
  "origins": null,
  "warnings": null,
  "structure": {
    "@module": "pymatgen.core.structure",
    "@class": "Structure",
    "charge": 0,
    "lattice": {
      "matrix": [
        [4.99152358, 0.0, 0.0],
        [0.0, 5.55930352, 0.0],
        [0.0, 0.0, 11.08145944]
      ],
      "pbc": [true, true, true],
      "a": 4.99152358,
      "b": 5.55930352,
      "c": 11.08145944,
      "alpha": 90.0,
      "beta": 90.0,
      "gamma": 90.0,
      "volume": 307.50379083817097
    },
    "properties": {},
    "sites": [
      {
        "species": [{ "element": "Se", "occu": 1 }],
        "abc": [0.34855618, 0.89718643, 0.12281869000000001],
        "properties": { "magmom": 0.0 },
        "label": "Se",
        "xyz": [1.7398263914247243, 4.9877316783952335, 1.3610103317089337]
      },
      {
        "species": [{ "element": "Se", "occu": 1 }],
        "abc": [0.84855618, 0.60281357, 0.87718131],
        "properties": { "magmom": 0.0 },
        "label": "Se",
        "xyz": [4.235588181424724, 3.3512236016047665, 9.720449108291065]
      },
      {
        "species": [{ "element": "Se", "occu": 1 }],
        "abc": [0.65144382, 0.39718643000000003, 0.37718131],
        "properties": { "magmom": 0.0 },
        "label": "Se",
        "xyz": [3.2516971885752755, 2.2080799183952338, 4.179719388291066]
      },
      {
        "species": [{ "element": "Se", "occu": 1 }],
        "abc": [0.15144382, 0.10281357, 0.62281869],
        "properties": { "magmom": 0.0 },
        "label": "Se",
        "xyz": [0.7559353985752756, 0.5715718416047665, 6.901740051708933]
      },
      {
        "species": [{ "element": "F", "occu": 1 }],
        "abc": [0.17091604, 0.64092282, 0.05311692],
        "properties": { "magmom": -0.0 },
        "label": "F",
        "xyz": [0.8531314438602231, 3.5630844892743267, 0.5886129945577248]
      },
      {
        "species": [{ "element": "F", "occu": 1 }],
        "abc": [0.67091604, 0.85907718, 0.94688308],
        "properties": { "magmom": -0.0 },
        "label": "F",
        "xyz": [3.3488932338602235, 4.775870790725674, 10.492846445442275]
      },
      {
        "species": [{ "element": "F", "occu": 1 }],
        "abc": [0.8290839600000001, 0.14092282, 0.44688308],
        "properties": { "magmom": -0.0 },
        "label": "F",
        "xyz": [4.138392136139777, 0.7834327292743265, 4.952116725442275]
      },
      {
        "species": [{ "element": "F", "occu": 1 }],
        "abc": [0.32908396, 0.35907718, 0.55311692],
        "properties": { "magmom": -0.0 },
        "label": "F",
        "xyz": [1.6426303461397769, 1.9962190307256737, 6.129342714557724]
      },
      {
        "species": [{ "element": "F", "occu": 1 }],
        "abc": [0.29382105000000003, 0.92644979, 0.51394637],
        "properties": { "magmom": -0.0 },
        "label": "F",
        "xyz": [1.466614699375359, 5.150415578650262, 5.695275853490233]
      },
      {
        "species": [{ "element": "F", "occu": 1 }],
        "abc": [0.79382105, 0.5735502100000001, 0.48605363],
        "properties": { "magmom": -0.0 },
        "label": "F",
        "xyz": [3.9623764893753592, 3.1885397013497396, 5.386183586509767]
      },
      {
        "species": [{ "element": "F", "occu": 1 }],
        "abc": [0.70617895, 0.42644979, 0.98605363],
        "properties": { "magmom": -0.0 },
        "label": "F",
        "xyz": [3.5249088806246407, 2.370763818650261, 10.926913306509768]
      },
      {
        "species": [{ "element": "F", "occu": 1 }],
        "abc": [0.20617895, 0.07355021, 0.01394637],
        "properties": { "magmom": -0.0 },
        "label": "F",
        "xyz": [1.029147090624641, 0.40888794134973927, 0.1545461334902328]
      },
      {
        "species": [{ "element": "F", "occu": 1 }],
        "abc": [0.4185712, 0.08058089, 0.71891067],
        "properties": { "magmom": 0.0 },
        "label": "F",
        "xyz": [2.089308014708896, 0.44797362542173286, 7.966579430588224]
      },
      {
        "species": [{ "element": "F", "occu": 1 }],
        "abc": [0.9185702, 0.41941911, 0.28108933],
        "properties": { "magmom": 0.0 },
        "label": "F",
        "xyz": [4.585064813185316, 2.3316781345782673, 3.1148800094117752]
      },
      {
        "species": [{ "element": "F", "occu": 1 }],
        "abc": [0.5814298, 0.58058089, 0.78108933],
        "properties": { "magmom": 0.0 },
        "label": "F",
        "xyz": [2.902220556814684, 3.227625385421733, 8.655609729411776]
      },
      {
        "species": [{ "element": "F", "occu": 1 }],
        "abc": [0.0814298, 0.91941911, 0.21891067],
        "properties": { "magmom": 0.0 },
        "label": "F",
        "xyz": [0.40645876681468396, 5.111329894578267, 2.4258497105882246]
      },
      {
        "species": [{ "element": "F", "occu": 1 }],
        "abc": [0.02527632, 0.8220967, 0.69046372],
        "properties": { "magmom": 0.0 },
        "label": "F",
        "xyz": [0.1261673472956256, 4.570285078090384, 7.651345707971517]
      },
      {
        "species": [{ "element": "F", "occu": 1 }],
        "abc": [0.52527632, 0.6779033, 0.30953728],
        "properties": { "magmom": 0.0 },
        "label": "F",
        "xyz": [2.6219291372956257, 3.7686702019096163, 3.4301248134879234]
      },
      {
        "species": [{ "element": "F", "occu": 1 }],
        "abc": [0.97472368, 0.322096699999999, 0.80953628],
        "properties": { "magmom": 0.0 },
        "label": "F",
        "xyz": [4.865356232704374, 1.7906333180903786, 8.970843452028483]
      },
      {
        "species": [{ "element": "F", "occu": 1 }],
        "abc": [0.47472368000000004, 0.1779033, 0.19046272],
        "properties": { "magmom": 0.0 },
        "label": "F",
        "xyz": [2.3695944427043747, 0.989018441909616, 2.110604906512077]
      }
    ]
  },
  "task_ids": null,
  "uncorrected_energy_per_atom": null,
  "energy_per_atom": -7.123867013500001,
  "formation_energy_per_atom": -1.7607326073125011,
  "energy_above_hull": 0.0,
  "is_stable": true,
  "equilibrium_reaction_energy_per_atom": null,
  "decomposes_to": null,
  "xas": null,
  "grain_boundaries": null,
  "band_gap": 4.1424,
  "cbm": null,
  "vbm": null,
  "efermi": -2.53050656,
  "is_gap_direct": null,
  "is_metal": null,
  "es_source_calc_id": null,
  "bandstructure": null,
  "dos": null,
  "dos_energy_up": null,
  "dos_energy_down": null,
  "is_magnetic": null,
  "ordering": null,
  "total_magnetization": 0.0,
  "total_magnetization_normalized_vol": null,
  "total_magnetization_normalized_formula_units": null,
  "num_magnetic_sites": null,
  "num_unique_magnetic_sites": null,
  "types_of_magnetic_species": null,
  "bulk_modulus": null,
  "shear_modulus": null,
  "universal_anisotropy": null,
  "homogeneous_poisson": null,
  "e_total": null,
  "e_ionic": null,
  "e_electronic": null,
  "n": null,
  "e_ij_max": null,
  "weighted_surface_energy_EV_PER_ANG2": null,
  "weighted_surface_energy": null,
  "weighted_work_function": null,
  "surface_anisotropy": null,
  "shape_factor": null,
  "has_reconstructed": null,
  "possible_species": null,
  "has_props": null,
  "theoretical": null,
  "database_IDs": null,
  "fields_not_requested": [
    "builder_meta",
    "nsites",
    "elements",
    "nelements",
    "composition",
    "composition_reduced",
    "chemsys",
    "symmetry",
    "property_name",
    "deprecated",
    "deprecation_reasons",
    "last_updated",
    "origins",
    "warnings",
    "task_ids",
    "uncorrected_energy_per_atom",
    "equilibrium_reaction_energy_per_atom",
    "decomposes_to",
    "xas",
    "grain_boundaries",
    "cbm",
    "vbm",
    "is_gap_direct",
    "is_metal",
    "es_source_calc_id",
    "bandstructure",
    "dos",
    "dos_energy_up",
    "dos_energy_down",
    "is_magnetic",
    "ordering",
    "total_magnetization_normalized_vol",
    "total_magnetization_normalized_formula_units",
    "num_magnetic_sites",
    "num_unique_magnetic_sites",
    "types_of_magnetic_species",
    "bulk_modulus",
    "shear_modulus",
    "universal_anisotropy",
    "homogeneous_poisson",
    "e_total",
    "e_ionic",
    "e_electronic",
    "n",
    "e_ij_max",
    "weighted_surface_energy_EV_PER_ANG2",
    "weighted_surface_energy",
    "weighted_work_function",
    "surface_anisotropy",
    "shape_factor",
    "has_reconstructed",
    "possible_species",
    "has_props",
    "theoretical",
    "database_IDs"
  ]
}
