{"builder_meta": null, "nsites": null, "elements": null, "nelements": null, "composition": null, "composition_reduced": null, "formula_pretty": "SeN", "formula_anonymous": "AB", "chemsys": null, "volume": 704.6033258496166, "density": 3.505514812760458, "density_atomic": 22.018853932800518, "symmetry": null, "property_name": null, "material_id": "mp-542635", "deprecated": null, "deprecation_reasons": null, "last_updated": null, "origins": null, "warnings": null, "structure": {"@module": "pymatgen.core.structure", "@class": "Structure", "charge": 0, "lattice": {"matrix": [[7.903606, 0.0, 0.0], [0.0, 9.247483, 0.0], [0.0, 8.647959, 9.640418]], "pbc": [true, true, true], "a": 7.903606, "b": 9.247483, "c": 12.95086306314776, "alpha": 48.10623466481918, "beta": 90.0, "gamma": 90.0, "volume": 704.6033258496166}, "properties": {}, "sites": [{"species": [{"element": "Se", "occu": 1}], "abc": [0.710293, 0.437139, 0.153354], "properties": {"magmom": 0.0}, "label": "Se", "xyz": [5.613876016558, 5.368634575623001, 1.478396661972]}, {"species": [{"element": "Se", "occu": 1}], "abc": [0.210292999999999, 0.562861, 0.346646], "properties": {"magmom": 0.0}, "label": "Se", "xyz": [1.6620730165579922, 8.202827924377, 3.3418123380280003]}, {"species": [{"element": "Se", "occu": 1}], "abc": [0.289707, 0.562861, 0.846646], "properties": {"magmom": 0.0}, "label": "Se", "xyz": [2.2897299834419997, 12.526807424377001, 8.162021338028]}, {"species": [{"element": "Se", "occu": 1}], "abc": [0.789706999999999, 0.437139, 0.653354], "properties": {"magmom": 0.0}, "label": "Se", "xyz": [6.241532983441992, 9.692614075623002, 6.298605661972]}, {"species": [{"element": "Se", "occu": 1}], "abc": [0.791891, 0.693503, 0.849615], "properties": {"magmom": 0.0}, "label": "Se", "xyz": [6.258794458946, 13.760592888734001, 8.19064373907]}, {"species": [{"element": "Se", "occu": 1}], "abc": [0.291891, 0.306496999999999, 0.650385], "properties": {"magmom": 0.0}, "label": "Se", "xyz": [2.306991458946, 8.458828611265991, 6.26998326093]}, {"species": [{"element": "Se", "occu": 1}], "abc": [0.208109, 0.306496999999999, 0.150385], "properties": {"magmom": 0.0}, "label": "Se", "xyz": [1.6448115410539998, 4.134849111265991, 1.44977426093]}, {"species": [{"element": "Se", "occu": 1}], "abc": [0.708109, 0.693503, 0.349615], "properties": {"magmom": 0.0}, "label": "Se", "xyz": [5.596614541054, 9.436613388734001, 3.3704347390700002]}, {"species": [{"element": "Se", "occu": 1}], "abc": [0.545128, 0.800534, 0.965847], "properties": {"magmom": 0.0}, "label": "Se", "xyz": [4.308476931567999, 15.755529812195, 9.311168804046]}, {"species": [{"element": "Se", "occu": 1}], "abc": [0.045127999999999, 0.199466, 0.534153], "properties": {"magmom": 0.0}, "label": "Se", "xyz": [0.3566739315679921, 6.463891687805, 5.149458195954]}, {"species": [{"element": "Se", "occu": 1}], "abc": [0.454872, 0.199466, 0.034152999999999004], "properties": {"magmom": 0.0}, "label": "Se", "xyz": [3.595129068432, 2.139912187804992, 0.3292491959539904]}, {"species": [{"element": "Se", "occu": 1}], "abc": [0.954871999999999, 0.800534, 0.465846999999999], "properties": {"magmom": 0.0}, "label": "Se", "xyz": [7.5469320684319925, 11.431550312194993, 4.490959804045991]}, {"species": [{"element": "Se", "occu": 1}], "abc": [0.922321, 0.799385999999999, 0.994579], "properties": {"magmom": 0.0}, "label": "Se", "xyz": [7.289661789526, 15.993386859698992, 9.588157294022]}, {"species": [{"element": "Se", "occu": 1}], "abc": [0.422321, 0.200614, 0.505421], "properties": {"magmom": 0.0}, "label": "Se", "xyz": [3.337858789526, 6.226034640301, 4.872469705978]}, {"species": [{"element": "Se", "occu": 1}], "abc": [0.077679, 0.200614, 0.005421], "properties": {"magmom": 0.0}, "label": "Se", "xyz": [0.6139442104739999, 1.902055140301, 0.052260705978]}, {"species": [{"element": "Se", "occu": 1}], "abc": [0.577678999999999, 0.799385999999999, 0.494579], "properties": {"magmom": 0.0}, "label": "Se", "xyz": [4.565747210473993, 11.669407359698992, 4.767948294022]}, {"species": [{"element": "N", "occu": 1}], "abc": [0.760914, 0.448017, 0.011984], "properties": {"magmom": -0.0}, "label": "N", "xyz": [6.0139644558839995, 4.246666731867, 0.115530769312]}, {"species": [{"element": "N", "occu": 1}], "abc": [0.260914, 0.551983, 0.488016], "properties": {"magmom": -0.0}, "label": "N", "xyz": [2.062161455884, 9.324795768133, 4.704678230688001]}, {"species": [{"element": "N", "occu": 1}], "abc": [0.239086, 0.551983, 0.988016], "properties": {"magmom": -0.0}, "label": "N", "xyz": [1.889641544116, 13.648775268133, 9.524887230688]}, {"species": [{"element": "N", "occu": 1}], "abc": [0.739086, 0.448017, 0.511984], "properties": {"magmom": -0.0}, "label": "N", "xyz": [5.841444544116, 8.570646231867, 4.935739769312]}, {"species": [{"element": "N", "occu": 1}], "abc": [0.594888, 0.812141999999999, 0.823898999999999], "properties": {"magmom": -0.0}, "label": "N", "xyz": [4.701760366128, 14.635314110726984, 7.942730749781991]}, {"species": [{"element": "N", "occu": 1}], "abc": [0.094888, 0.187858, 0.676101], "properties": {"magmom": -0.0}, "label": "N", "xyz": [0.749957366128, 7.584107389272999, 6.517896250218]}, {"species": [{"element": "N", "occu": 1}], "abc": [0.40511199999999903, 0.187858, 0.176100999999999], "properties": {"magmom": -0.0}, "label": "N", "xyz": [3.2018456338719923, 3.260127889272992, 1.6976872502179905]}, {"species": [{"element": "N", "occu": 1}], "abc": [0.905111999999999, 0.812141999999999, 0.323899], "properties": {"magmom": -0.0}, "label": "N", "xyz": [7.153648633871993, 10.311334610726991, 3.122521749782]}, {"species": [{"element": "N", "occu": 1}], "abc": [0.724645, 0.916956999999999, 0.970012], "properties": {"magmom": -0.0}, "label": "N", "xyz": [5.72730856987, 16.86816827473899, 9.351321145016]}, {"species": [{"element": "N", "occu": 1}], "abc": [0.224644999999999, 0.083042999999999, 0.529988], "properties": {"magmom": -0.0}, "label": "N", "xyz": [1.7755055698699922, 5.351253225260991, 5.109305854984]}, {"species": [{"element": "N", "occu": 1}], "abc": [0.275354999999999, 0.083042999999999, 0.029987999999999], "properties": {"magmom": -0.0}, "label": "N", "xyz": [2.176297430129992, 1.0272737252609823, 0.2890968549839904]}, {"species": [{"element": "N", "occu": 1}], "abc": [0.775355, 0.916956999999999, 0.470012], "properties": {"magmom": -0.0}, "label": "N", "xyz": [6.12810043013, 12.544188774738991, 4.531112145016]}, {"species": [{"element": "N", "occu": 1}], "abc": [0.890145, 0.553381999999999, 0.157269], "properties": {"magmom": -0.0}, "label": "N", "xyz": [7.03535536287, 6.477446501476991, 1.516138898442]}, {"species": [{"element": "N", "occu": 1}], "abc": [0.390144999999999, 0.446617999999999, 0.342731], "properties": {"magmom": -0.0}, "label": "N", "xyz": [3.0835523628699923, 7.094015998522991, 3.304070101558]}, {"species": [{"element": "N", "occu": 1}], "abc": [0.109855, 0.446617999999999, 0.842731], "properties": {"magmom": -0.0}, "label": "N", "xyz": [0.86825063713, 11.417995498522991, 8.124279101558]}, {"species": [{"element": "N", "occu": 1}], "abc": [0.609854999999999, 0.553381999999999, 0.657269], "properties": {"magmom": -0.0}, "label": "N", "xyz": [4.820053637129992, 10.80142600147699, 6.336347898442]}]}, "task_ids": null, "uncorrected_energy_per_atom": null, "energy_per_atom": -11.086166250078124, "formation_energy_per_atom": 0.6339892010156251, "energy_above_hull": 0.6339892010156251, "is_stable": false, "equilibrium_reaction_energy_per_atom": null, "decomposes_to": null, "xas": null, "grain_boundaries": null, "band_gap": 1.8778000000000001, "cbm": null, "vbm": null, "efermi": 0.79661405, "is_gap_direct": null, "is_metal": null, "es_source_calc_id": null, "bandstructure": null, "dos": null, "dos_energy_up": null, "dos_energy_down": null, "is_magnetic": null, "ordering": null, "total_magnetization": 0.0012684, "total_magnetization_normalized_vol": null, "total_magnetization_normalized_formula_units": null, "num_magnetic_sites": null, "num_unique_magnetic_sites": null, "types_of_magnetic_species": null, "bulk_modulus": null, "shear_modulus": null, "universal_anisotropy": null, "homogeneous_poisson": null, "e_total": null, "e_ionic": null, "e_electronic": null, "n": null, "e_ij_max": null, "weighted_surface_energy_EV_PER_ANG2": null, "weighted_surface_energy": null, "weighted_work_function": null, "surface_anisotropy": null, "shape_factor": null, "has_reconstructed": null, "possible_species": null, "has_props": null, "theoretical": null, "database_IDs": null, "fields_not_requested": ["builder_meta", "nsites", "elements", "nelements", "composition", "composition_reduced", "chemsys", "symmetry", "property_name", "deprecated", "deprecation_reasons", "last_updated", "origins", "warnings", "task_ids", "uncorrected_energy_per_atom", "equilibrium_reaction_energy_per_atom", "decomposes_to", "xas", "grain_boundaries", "cbm", "vbm", "is_gap_direct", "is_metal", "es_source_calc_id", "bandstructure", "dos", "dos_energy_up", "dos_energy_down", "is_magnetic", "ordering", "total_magnetization_normalized_vol", "total_magnetization_normalized_formula_units", "num_magnetic_sites", "num_unique_magnetic_sites", "types_of_magnetic_species", "bulk_modulus", "shear_modulus", "universal_anisotropy", "homogeneous_poisson", "e_total", "e_ionic", "e_electronic", "n", "e_ij_max", "weighted_surface_energy_EV_PER_ANG2", "weighted_surface_energy", "weighted_work_function", "surface_anisotropy", "shape_factor", "has_reconstructed", "possible_species", "has_props", "theoretical", "database_IDs"]}