{"builder_meta": null, "nsites": null, "elements": null, "nelements": null, "composition": null, "composition_reduced": null, "formula_pretty": "SeO2", "formula_anonymous": "AB2", "chemsys": null, "volume": 356.22925606998524, "density": 4.137816735565543, "density_atomic": 14.842885669582719, "symmetry": null, "property_name": null, "material_id": "mp-726", "deprecated": null, "deprecation_reasons": null, "last_updated": null, "origins": null, "warnings": null, "structure": {"@module": "pymatgen.core.structure", "@class": "Structure", "charge": 0, "lattice": {"matrix": [[5.08259694, -0.0, 0.0], [-0.0, 8.37185999, -0.0], [0.0, -0.0, 8.37185999]], "pbc": [true, true, true], "a": 5.08259694, "b": 8.37185999, "c": 8.37185999, "alpha": 90.0, "beta": 90.0, "gamma": 90.0, "volume": 356.22925606998524}, "properties": {}, "sites": [{"species": [{"element": "Se", "occu": 1}], "abc": [0.5, 0.2925944, 0.364645], "properties": {"magmom": 0.0}, "label": "Se", "xyz": [2.54129847, 2.449559350658056, 3.05275688605355]}, {"species": [{"element": "Se", "occu": 1}], "abc": [0.5, 0.7074056, 0.635355], "properties": {"magmom": 0.0}, "label": "Se", "xyz": [2.54129847, 5.922300639341945, 5.319103103946451]}, {"species": [{"element": "Se", "occu": 1}], "abc": [-0.0, 0.364645, 0.7074056], "properties": {"magmom": 0.0}, "label": "Se", "xyz": [0.0, 3.05275688605355, 5.922300639341945]}, {"species": [{"element": "Se", "occu": 1}], "abc": [0.0, 0.635355, 0.2925944], "properties": {"magmom": 0.0}, "label": "Se", "xyz": [0.0, 5.319103103946451, 2.449559350658056]}, {"species": [{"element": "Se", "occu": 1}], "abc": [-0.0, 0.864645, 0.792594399999999], "properties": {"magmom": 0.0}, "label": "Se", "xyz": [0.0, 7.2386868810535505, 6.635489345658049]}, {"species": [{"element": "Se", "occu": 1}], "abc": [0.5, 0.2074056, 0.864645], "properties": {"magmom": 0.0}, "label": "Se", "xyz": [2.54129847, 1.7363706443419442, 7.2386868810535505]}, {"species": [{"element": "Se", "occu": 1}], "abc": [0.5, 0.792594399999999, 0.135355], "properties": {"magmom": 0.0}, "label": "Se", "xyz": [2.54129847, 6.635489345658049, 1.13317310894645]}, {"species": [{"element": "Se", "occu": 1}], "abc": [0.0, 0.135355, 0.2074056], "properties": {"magmom": 0.0}, "label": "Se", "xyz": [0.0, 1.13317310894645, 1.7363706443419442]}, {"species": [{"element": "O", "occu": 1}], "abc": [0.5, 0.32623154, 0.557235599999999], "properties": {"magmom": 0.0}, "label": "O", "xyz": [2.54129847, 2.7311647772020846, 4.665098424643636]}, {"species": [{"element": "O", "occu": 1}], "abc": [0.5, 0.67376846, 0.4427644], "properties": {"magmom": 0.0}, "label": "O", "xyz": [2.54129847, 5.640695212797916, 3.7067615653563566]}, {"species": [{"element": "O", "occu": 1}], "abc": [0.0, 0.557235599999999, 0.67376846], "properties": {"magmom": 0.0}, "label": "O", "xyz": [0.0, 4.665098424643636, 5.640695212797916]}, {"species": [{"element": "O", "occu": 1}], "abc": [-0.0, 0.4427644, 0.32623154], "properties": {"magmom": 0.0}, "label": "O", "xyz": [0.0, 3.7067615653563566, 2.7311647772020846]}, {"species": [{"element": "O", "occu": 1}], "abc": [0.0, 0.0572356, 0.82623154], "properties": {"magmom": 0.0}, "label": "O", "xyz": [0.0, 0.47916842964364403, 6.917094772202085]}, {"species": [{"element": "O", "occu": 1}], "abc": [0.5, 0.17376846, 0.0572356], "properties": {"magmom": 0.0}, "label": "O", "xyz": [2.54129847, 1.4547652177979156, 0.47916842964364403]}, {"species": [{"element": "O", "occu": 1}], "abc": [0.5, 0.82623154, 0.9427644], "properties": {"magmom": 0.0}, "label": "O", "xyz": [2.54129847, 6.917094772202085, 7.892691560356356]}, {"species": [{"element": "O", "occu": 1}], "abc": [-0.0, 0.9427644, 0.17376846], "properties": {"magmom": 0.0}, "label": "O", "xyz": [0.0, 7.892691560356356, 1.4547652177979156]}, {"species": [{"element": "O", "occu": 1}], "abc": [0.25, 0.13908926, 0.36091074], "properties": {"magmom": 0.0}, "label": "O", "xyz": [1.270649235, 1.1644358108327075, 3.021494184167293]}, {"species": [{"element": "O", "occu": 1}], "abc": [0.75, 0.63908926, 0.13908926], "properties": {"magmom": 0.0}, "label": "O", "xyz": [3.811947705, 5.350365805832708, 1.1644358108327075]}, {"species": [{"element": "O", "occu": 1}], "abc": [0.75, 0.36091074, 0.86091074], "properties": {"magmom": 0.0}, "label": "O", "xyz": [3.811947705, 3.021494184167293, 7.207424179167293]}, {"species": [{"element": "O", "occu": 1}], "abc": [0.25, 0.86091074, 0.63908926], "properties": {"magmom": 0.0}, "label": "O", "xyz": [1.270649235, 7.207424179167293, 5.350365805832708]}, {"species": [{"element": "O", "occu": 1}], "abc": [0.75, 0.86091074, 0.63908926], "properties": {"magmom": 0.0}, "label": "O", "xyz": [3.811947705, 7.207424179167293, 5.350365805832708]}, {"species": [{"element": "O", "occu": 1}], "abc": [0.25, 0.36091074, 0.86091074], "properties": {"magmom": 0.0}, "label": "O", "xyz": [1.270649235, 3.021494184167293, 7.207424179167293]}, {"species": [{"element": "O", "occu": 1}], "abc": [0.25, 0.63908926, 0.13908926], "properties": {"magmom": 0.0}, "label": "O", "xyz": [1.270649235, 5.350365805832708, 1.1644358108327075]}, {"species": [{"element": "O", "occu": 1}], "abc": [0.75, 0.13908926, 0.36091074], "properties": {"magmom": 0.0}, "label": "O", "xyz": [3.811947705, 1.1644358108327075, 3.021494184167293]}]}, "task_ids": null, "uncorrected_energy_per_atom": null, "energy_per_atom": -5.61808807, "formation_energy_per_atom": -1.154143574114583, "energy_above_hull": 0.0, "is_stable": true, "equilibrium_reaction_energy_per_atom": null, "decomposes_to": null, "xas": null, "grain_boundaries": null, "band_gap": 3.2874, "cbm": null, "vbm": null, "efermi": 0.27237926, "is_gap_direct": null, "is_metal": null, "es_source_calc_id": null, "bandstructure": null, "dos": null, "dos_energy_up": null, "dos_energy_down": null, "is_magnetic": null, "ordering": null, "total_magnetization": 0.0, "total_magnetization_normalized_vol": null, "total_magnetization_normalized_formula_units": null, "num_magnetic_sites": null, "num_unique_magnetic_sites": null, "types_of_magnetic_species": null, "bulk_modulus": null, "shear_modulus": null, "universal_anisotropy": null, "homogeneous_poisson": null, "e_total": null, "e_ionic": null, "e_electronic": null, "n": null, "e_ij_max": null, "weighted_surface_energy_EV_PER_ANG2": null, "weighted_surface_energy": null, "weighted_work_function": null, "surface_anisotropy": null, "shape_factor": null, "has_reconstructed": null, "possible_species": null, "has_props": null, "theoretical": null, "database_IDs": null, "fields_not_requested": ["builder_meta", "nsites", "elements", "nelements", "composition", "composition_reduced", "chemsys", "symmetry", "property_name", "deprecated", "deprecation_reasons", "last_updated", "origins", "warnings", "task_ids", "uncorrected_energy_per_atom", "equilibrium_reaction_energy_per_atom", "decomposes_to", "xas", "grain_boundaries", "cbm", "vbm", "is_gap_direct", "is_metal", "es_source_calc_id", "bandstructure", "dos", "dos_energy_up", "dos_energy_down", "is_magnetic", "ordering", "total_magnetization_normalized_vol", "total_magnetization_normalized_formula_units", "num_magnetic_sites", "num_unique_magnetic_sites", "types_of_magnetic_species", "bulk_modulus", "shear_modulus", "universal_anisotropy", "homogeneous_poisson", "e_total", "e_ionic", "e_electronic", "n", "e_ij_max", "weighted_surface_energy_EV_PER_ANG2", "weighted_surface_energy", "weighted_work_function", "surface_anisotropy", "shape_factor", "has_reconstructed", "possible_species", "has_props", "theoretical", "database_IDs"]}