{"builder_meta": null, "nsites": null, "elements": null, "nelements": null, "composition": null, "composition_reduced": null, "formula_pretty": "SeO4", "formula_anonymous": "AB4", "chemsys": null, "volume": 351.515855693179, "density": 2.701291288260742, "density_atomic": 17.57579278465895, "symmetry": null, "property_name": null, "material_id": "mp-1179144", "deprecated": null, "deprecation_reasons": null, "last_updated": null, "origins": null, "warnings": null, "structure": {"@module": "pymatgen.core.structure", "@class": "Structure", "charge": 0, "lattice": {"matrix": [[4.807414, 0.0, 0.0], [0.0, 8.311977, 0.0], [0.0, 0.0, 8.796888]], "pbc": [true, true, true], "a": 4.807414, "b": 8.311977, "c": 8.796888, "alpha": 90.0, "beta": 90.0, "gamma": 90.0, "volume": 351.515855693179}, "properties": {}, "sites": [{"species": [{"element": "Se", "occu": 1}], "abc": [0.8161700000000001, 0.034225, 0.11473000000000001], "properties": {"magmom": -0.077}, "label": "Se", "xyz": [3.92366708438, 0.284477412825, 1.00926696024]}, {"species": [{"element": "Se", "occu": 1}], "abc": [0.31617, 0.465775, 0.8852700000000001], "properties": {"magmom": -0.077}, "label": "Se", "xyz": [1.5199600843799999, 3.871511087175, 7.78762103976]}, {"species": [{"element": "Se", "occu": 1}], "abc": [0.68383, 0.965774999999999, 0.61473], "properties": {"magmom": -0.077}, "label": "Se", "xyz": [3.28745391562, 8.027499587174992, 5.407710960239999]}, {"species": [{"element": "Se", "occu": 1}], "abc": [0.18383000000000002, 0.534225, 0.38527000000000006], "properties": {"magmom": -0.077}, "label": "Se", "xyz": [0.8837469156200001, 4.440465912825, 3.3891770397600003]}, {"species": [{"element": "O", "occu": 1}], "abc": [0.956892, 0.123061999999999, 0.266810999999999], "properties": {"magmom": 0.356}, "label": "O", "xyz": [4.600175997288, 1.0228885135739918, 2.347106484167991]}, {"species": [{"element": "O", "occu": 1}], "abc": [0.456891999999999, 0.376938, 0.733189], "properties": {"magmom": 0.356}, "label": "O", "xyz": [2.196468997287995, 3.133099986426, 6.449781515831999]}, {"species": [{"element": "O", "occu": 1}], "abc": [0.543107999999999, 0.876938, 0.766811], "properties": {"magmom": 0.356}, "label": "O", "xyz": [2.610945002711995, 7.289088486426, 6.745550484168]}, {"species": [{"element": "O", "occu": 1}], "abc": [0.043108, 0.623062, 0.233188999999999], "properties": {"magmom": 0.356}, "label": "O", "xyz": [0.207238002712, 5.1788770135740005, 2.051337515831991]}, {"species": [{"element": "O", "occu": 1}], "abc": [0.557493, 0.144657999999999, 0.037808], "properties": {"magmom": 0.445}, "label": "O", "xyz": [2.680099653102, 1.202393968865992, 0.332592741504]}, {"species": [{"element": "O", "occu": 1}], "abc": [0.057492999999999, 0.355342, 0.962191999999999], "properties": {"magmom": 0.445}, "label": "O", "xyz": [0.2763926531019952, 2.953594531134, 8.46429525849599]}, {"species": [{"element": "O", "occu": 1}], "abc": [0.942507, 0.855341999999999, 0.537808], "properties": {"magmom": 0.445}, "label": "O", "xyz": [4.531021346897999, 7.109583031133993, 4.731036741503999]}, {"species": [{"element": "O", "occu": 1}], "abc": [0.442507, 0.644658, 0.462192], "properties": {"magmom": 0.445}, "label": "O", "xyz": [2.127314346898, 5.358382468866, 4.065851258495999]}, {"species": [{"element": "O", "occu": 1}], "abc": [0.063601999999999, 0.996042, 0.983776], "properties": {"magmom": 0.439}, "label": "O", "xyz": [0.3057611452279952, 8.279078195034, 8.654167289087999]}, {"species": [{"element": "O", "occu": 1}], "abc": [0.563601999999999, 0.503958, 0.016224], "properties": {"magmom": 0.439}, "label": "O", "xyz": [2.709468145227995, 4.188887304966, 0.14272071091199998]}, {"species": [{"element": "O", "occu": 1}], "abc": [0.436397999999999, 0.003958, 0.483776], "properties": {"magmom": 0.439}, "label": "O", "xyz": [2.097945854771995, 0.032898804966, 4.2557232890879995]}, {"species": [{"element": "O", "occu": 1}], "abc": [0.936398, 0.496042, 0.516224], "properties": {"magmom": 0.439}, "label": "O", "xyz": [4.501652854772, 4.123089695034, 4.541164710912]}, {"species": [{"element": "O", "occu": 1}], "abc": [0.659636999999999, 0.861086999999999, 0.166806999999999], "properties": {"magmom": 0.47800000000000004}, "label": "O", "xyz": [3.171148148717995, 7.157335338998992, 1.4673824966159912]}, {"species": [{"element": "O", "occu": 1}], "abc": [0.159637, 0.638913, 0.833193], "properties": {"magmom": 0.47800000000000004}, "label": "O", "xyz": [0.767441148718, 5.310630161001, 7.329505503383999]}, {"species": [{"element": "O", "occu": 1}], "abc": [0.840363, 0.138912999999999, 0.666806999999999], "properties": {"magmom": 0.47800000000000004}, "label": "O", "xyz": [4.039972851281999, 1.1546416610009917, 5.865826496615991]}, {"species": [{"element": "O", "occu": 1}], "abc": [0.340362999999999, 0.361087, 0.333192999999999], "properties": {"magmom": 0.47800000000000004}, "label": "O", "xyz": [1.6362658512819952, 3.0013468389990003, 2.931061503383991]}]}, "task_ids": null, "uncorrected_energy_per_atom": null, "energy_per_atom": -5.034849446000001, "formation_energy_per_atom": -0.37729834646875005, "energy_above_hull": 0.338145508499998, "is_stable": false, "equilibrium_reaction_energy_per_atom": null, "decomposes_to": null, "xas": null, "grain_boundaries": null, "band_gap": 0.0, "cbm": null, "vbm": null, "efermi": -2.65995115, "is_gap_direct": null, "is_metal": null, "es_source_calc_id": null, "bandstructure": null, "dos": null, "dos_energy_up": null, "dos_energy_down": null, "is_magnetic": null, "ordering": null, "total_magnetization": 7.9990836, "total_magnetization_normalized_vol": null, "total_magnetization_normalized_formula_units": null, "num_magnetic_sites": null, "num_unique_magnetic_sites": null, "types_of_magnetic_species": null, "bulk_modulus": null, "shear_modulus": null, "universal_anisotropy": null, "homogeneous_poisson": null, "e_total": null, "e_ionic": null, "e_electronic": null, "n": null, "e_ij_max": null, "weighted_surface_energy_EV_PER_ANG2": null, "weighted_surface_energy": null, "weighted_work_function": null, "surface_anisotropy": null, "shape_factor": null, "has_reconstructed": null, "possible_species": null, "has_props": null, "theoretical": null, "database_IDs": null, "fields_not_requested": ["builder_meta", "nsites", "elements", "nelements", "composition", "composition_reduced", "chemsys", "symmetry", "property_name", "deprecated", "deprecation_reasons", "last_updated", "origins", "warnings", "task_ids", "uncorrected_energy_per_atom", "equilibrium_reaction_energy_per_atom", "decomposes_to", "xas", "grain_boundaries", "cbm", "vbm", "is_gap_direct", "is_metal", "es_source_calc_id", "bandstructure", "dos", "dos_energy_up", "dos_energy_down", "is_magnetic", "ordering", "total_magnetization_normalized_vol", "total_magnetization_normalized_formula_units", "num_magnetic_sites", "num_unique_magnetic_sites", "types_of_magnetic_species", "bulk_modulus", "shear_modulus", "universal_anisotropy", "homogeneous_poisson", "e_total", "e_ionic", "e_electronic", "n", "e_ij_max", "weighted_surface_energy_EV_PER_ANG2", "weighted_surface_energy", "weighted_work_function", "surface_anisotropy", "shape_factor", "has_reconstructed", "possible_species", "has_props", "theoretical", "database_IDs"]}