{"builder_meta": null, "nsites": null, "elements": null, "nelements": null, "composition": null, "composition_reduced": null, "formula_pretty": "SeO5", "formula_anonymous": "AB5", "chemsys": null, "volume": 774.500787312957, "density": 2.726445862763247, "density_atomic": 16.135433069019935, "symmetry": null, "property_name": null, "material_id": "mp-1209326", "deprecated": null, "deprecation_reasons": null, "last_updated": null, "origins": null, "warnings": null, "structure": {"@module": "pymatgen.core.structure", "@class": "Structure", "charge": 0, "lattice": {"matrix": [[-9.487524, 0.0, 0.0], [0.0, 0.0, -8.093617], [0.0, -10.086171, 0.0]], "pbc": [true, true, true], "a": 9.487524, "b": 8.093617, "c": 10.086171, "alpha": 90.0, "beta": 90.0, "gamma": 90.0, "volume": 774.500787312957}, "properties": {}, "sites": [{"species": [{"element": "Se", "occu": 1}], "abc": [0.896647, 0.964202, 0.73345], "properties": {"magmom": -0.009000000000000001}, "label": "Se", "xyz": [-8.506959932028, -7.397702119950001, -7.803881698634]}, {"species": [{"element": "Se", "occu": 1}], "abc": [0.103353, 0.035797999999999004, 0.26655], "properties": {"magmom": -0.009000000000000001}, "label": "Se", "xyz": [-0.980564067972, -2.6884688800500003, -0.28973530136599196]}, {"species": [{"element": "Se", "occu": 1}], "abc": [0.603353, 0.464202, 0.26655], "properties": {"magmom": -0.009000000000000001}, "label": "Se", "xyz": [-5.724326067972001, -2.6884688800500003, -3.757073198634]}, {"species": [{"element": "Se", "occu": 1}], "abc": [0.103353, 0.535798, 0.23345000000000002], "properties": {"magmom": -0.009000000000000001}, "label": "Se", "xyz": [-0.980564067972, -2.3546166199500003, -4.336543801366]}, {"species": [{"element": "Se", "occu": 1}], "abc": [0.39664699999999903, 0.535798, 0.73345], "properties": {"magmom": -0.009000000000000001}, "label": "Se", "xyz": [-3.763197932027991, -7.397702119950001, -4.336543801366]}, {"species": [{"element": "Se", "occu": 1}], "abc": [0.896647, 0.464202, 0.7665500000000001], "properties": {"magmom": -0.009000000000000001}, "label": "Se", "xyz": [-8.506959932028, -7.73155438005, -3.757073198634]}, {"species": [{"element": "Se", "occu": 1}], "abc": [0.39664699999999903, 0.035797999999999004, 0.7665500000000001], "properties": {"magmom": -0.009000000000000001}, "label": "Se", "xyz": [-3.763197932027991, -7.73155438005, -0.28973530136599196]}, {"species": [{"element": "Se", "occu": 1}], "abc": [0.603353, 0.964202, 0.23345000000000002], "properties": {"magmom": -0.009000000000000001}, "label": "Se", "xyz": [-5.724326067972001, -2.3546166199500003, -7.803881698634]}, {"species": [{"element": "O", "occu": 1}], "abc": [0.935009, 0.645266999999999, 0.843664], "properties": {"magmom": 0.40800000000000003}, "label": "O", "xyz": [-8.870920327716, -8.509339370544, -5.222543960738992]}, {"species": [{"element": "O", "occu": 1}], "abc": [0.064991, 0.354732999999999, 0.156336], "properties": {"magmom": 0.40800000000000003}, "label": "O", "xyz": [-0.6166036722839999, -1.576831629456, -2.871073039260992]}, {"species": [{"element": "O", "occu": 1}], "abc": [0.564991, 0.145267, 0.156336], "properties": {"magmom": 0.40800000000000003}, "label": "O", "xyz": [-5.360365672284001, -1.576831629456, -1.175735460739]}, {"species": [{"element": "O", "occu": 1}], "abc": [0.064991, 0.854733, 0.343663999999999], "properties": {"magmom": 0.40800000000000003}, "label": "O", "xyz": [-0.6166036722839999, -3.4662538705439903, -6.917881539261]}, {"species": [{"element": "O", "occu": 1}], "abc": [0.435009, 0.854733, 0.843664], "properties": {"magmom": 0.40800000000000003}, "label": "O", "xyz": [-4.127158327716, -8.509339370544, -6.917881539261]}, {"species": [{"element": "O", "occu": 1}], "abc": [0.935009, 0.145267, 0.656335999999999], "properties": {"magmom": 0.40800000000000003}, "label": "O", "xyz": [-8.870920327716, -6.61991712945599, -1.175735460739]}, {"species": [{"element": "O", "occu": 1}], "abc": [0.435009, 0.354732999999999, 0.656335999999999], "properties": {"magmom": 0.40800000000000003}, "label": "O", "xyz": [-4.127158327716, -6.61991712945599, -2.871073039260992]}, {"species": [{"element": "O", "occu": 1}], "abc": [0.564991, 0.645266999999999, 0.343663999999999], "properties": {"magmom": 0.40800000000000003}, "label": "O", "xyz": [-5.360365672284001, -3.4662538705439903, -5.222543960738992]}, {"species": [{"element": "O", "occu": 1}], "abc": [0.699371, 0.698368, 0.017341], "properties": {"magmom": 1.745}, "label": "O", "xyz": [-6.635299147404, -0.174904291311, -5.6523231170559995]}, {"species": [{"element": "O", "occu": 1}], "abc": [0.300629, 0.301632, 0.982659], "properties": {"magmom": 1.745}, "label": "O", "xyz": [-2.852224852596, -9.911266708689, -2.441293882944]}, {"species": [{"element": "O", "occu": 1}], "abc": [0.800628999999999, 0.198368, 0.982659], "properties": {"magmom": 1.745}, "label": "O", "xyz": [-7.595986852595991, -9.911266708689, -1.605514617056]}, {"species": [{"element": "O", "occu": 1}], "abc": [0.300629, 0.801632, 0.517340999999999], "properties": {"magmom": 1.745}, "label": "O", "xyz": [-2.852224852596, -5.21798979131099, -6.4881023829440005]}, {"species": [{"element": "O", "occu": 1}], "abc": [0.199371, 0.801632, 0.017341], "properties": {"magmom": 1.745}, "label": "O", "xyz": [-1.8915371474040001, -0.174904291311, -6.4881023829440005]}, {"species": [{"element": "O", "occu": 1}], "abc": [0.699371, 0.198368, 0.482659], "properties": {"magmom": 1.745}, "label": "O", "xyz": [-6.635299147404, -4.868181208689, -1.605514617056]}, {"species": [{"element": "O", "occu": 1}], "abc": [0.199371, 0.301632, 0.482659], "properties": {"magmom": 1.745}, "label": "O", "xyz": [-1.8915371474040001, -4.868181208689, -2.441293882944]}, {"species": [{"element": "O", "occu": 1}], "abc": [0.800628999999999, 0.698368, 0.517340999999999], "properties": {"magmom": 1.745}, "label": "O", "xyz": [-7.595986852595991, -5.21798979131099, -5.6523231170559995]}, {"species": [{"element": "O", "occu": 1}], "abc": [0.542727, 0.6552, 0.717279], "properties": {"magmom": 0.45}, "label": "O", "xyz": [-5.149135437948, -7.234598648709, -5.3029378584]}, {"species": [{"element": "O", "occu": 1}], "abc": [0.457273, 0.3448, 0.282721], "properties": {"magmom": 0.45}, "label": "O", "xyz": [-4.338388562052, -2.8515723512910003, -2.7906791416]}, {"species": [{"element": "O", "occu": 1}], "abc": [0.957272999999999, 0.1552, 0.282721], "properties": {"magmom": 0.45}, "label": "O", "xyz": [-9.082150562051991, -2.8515723512910003, -1.2561293584]}, {"species": [{"element": "O", "occu": 1}], "abc": [0.457273, 0.8448, 0.217279], "properties": {"magmom": 0.45}, "label": "O", "xyz": [-4.338388562052, -2.191513148709, -6.8374876416]}, {"species": [{"element": "O", "occu": 1}], "abc": [0.042727, 0.8448, 0.717279], "properties": {"magmom": 0.45}, "label": "O", "xyz": [-0.405373437948, -7.234598648709, -6.8374876416]}, {"species": [{"element": "O", "occu": 1}], "abc": [0.542727, 0.1552, 0.782721], "properties": {"magmom": 0.45}, "label": "O", "xyz": [-5.149135437948, -7.894657851291, -1.2561293584]}, {"species": [{"element": "O", "occu": 1}], "abc": [0.042727, 0.3448, 0.782721], "properties": {"magmom": 0.45}, "label": "O", "xyz": [-0.405373437948, -7.894657851291, -2.7906791416]}, {"species": [{"element": "O", "occu": 1}], "abc": [0.957272999999999, 0.6552, 0.217279], "properties": {"magmom": 0.45}, "label": "O", "xyz": [-9.082150562051991, -2.191513148709, -5.3029378584]}, {"species": [{"element": "O", "occu": 1}], "abc": [0.756587999999999, 0.882823999999999, 0.653824], "properties": {"magmom": 0.387}, "label": "O", "xyz": [-7.1781468081119915, -6.594580667903999, -7.145239334407992]}, {"species": [{"element": "O", "occu": 1}], "abc": [0.243412, 0.117175999999999, 0.346176], "properties": {"magmom": 0.387}, "label": "O", "xyz": [-2.309377191888, -3.491590332096, -0.948377665591992]}, {"species": [{"element": "O", "occu": 1}], "abc": [0.743412, 0.382824, 0.346176], "properties": {"magmom": 0.387}, "label": "O", "xyz": [-7.053139191888, -3.491590332096, -3.098430834408]}, {"species": [{"element": "O", "occu": 1}], "abc": [0.243412, 0.617176, 0.153824], "properties": {"magmom": 0.387}, "label": "O", "xyz": [-2.309377191888, -1.5514951679039999, -4.995186165592]}, {"species": [{"element": "O", "occu": 1}], "abc": [0.256588, 0.617176, 0.653824], "properties": {"magmom": 0.387}, "label": "O", "xyz": [-2.434384808112, -6.594580667903999, -4.995186165592]}, {"species": [{"element": "O", "occu": 1}], "abc": [0.756587999999999, 0.382824, 0.846175999999999], "properties": {"magmom": 0.387}, "label": "O", "xyz": [-7.1781468081119915, -8.53467583209599, -3.098430834408]}, {"species": [{"element": "O", "occu": 1}], "abc": [0.256588, 0.117175999999999, 0.846175999999999], "properties": {"magmom": 0.387}, "label": "O", "xyz": [-2.434384808112, -8.53467583209599, -0.948377665591992]}, {"species": [{"element": "O", "occu": 1}], "abc": [0.743412, 0.882823999999999, 0.153824], "properties": {"magmom": 0.387}, "label": "O", "xyz": [-7.053139191888, -1.5514951679039999, -7.145239334407992]}, {"species": [{"element": "O", "occu": 1}], "abc": [0.858879, 0.9891089999999991, 0.897447], "properties": {"magmom": 0.385}, "label": "O", "xyz": [-8.148635125596, -9.051803905437, -8.005469417252993]}, {"species": [{"element": "O", "occu": 1}], "abc": [0.141121, 0.010891, 0.102552999999999], "properties": {"magmom": 0.385}, "label": "O", "xyz": [-1.338888874404, -1.03436709456299, -0.08814758274699999]}, {"species": [{"element": "O", "occu": 1}], "abc": [0.641120999999999, 0.489108999999999, 0.102552999999999], "properties": {"magmom": 0.385}, "label": "O", "xyz": [-6.082650874403991, -1.03436709456299, -3.958660917252992]}, {"species": [{"element": "O", "occu": 1}], "abc": [0.141121, 0.510891, 0.397447], "properties": {"magmom": 0.385}, "label": "O", "xyz": [-1.338888874404, -4.008718405437, -4.134956082747]}, {"species": [{"element": "O", "occu": 1}], "abc": [0.358879, 0.510891, 0.897447], "properties": {"magmom": 0.385}, "label": "O", "xyz": [-3.404873125596, -9.051803905437, -4.134956082747]}, {"species": [{"element": "O", "occu": 1}], "abc": [0.858879, 0.489108999999999, 0.602553], "properties": {"magmom": 0.385}, "label": "O", "xyz": [-8.148635125596, -6.077452594563, -3.958660917252992]}, {"species": [{"element": "O", "occu": 1}], "abc": [0.358879, 0.010891, 0.602553], "properties": {"magmom": 0.385}, "label": "O", "xyz": [-3.404873125596, -6.077452594563, -0.08814758274699999]}, {"species": [{"element": "O", "occu": 1}], "abc": [0.641120999999999, 0.9891089999999991, 0.397447], "properties": {"magmom": 0.385}, "label": "O", "xyz": [-6.082650874403991, -4.008718405437, -8.005469417252993]}]}, "task_ids": null, "uncorrected_energy_per_atom": null, "energy_per_atom": -4.799998853125, "formation_energy_per_atom": -0.09404610268229201, "energy_above_hull": 0.5021571097916661, "is_stable": false, "equilibrium_reaction_energy_per_atom": null, "decomposes_to": null, "xas": null, "grain_boundaries": null, "band_gap": 0.34180000000000005, "cbm": null, "vbm": null, "efermi": -1.50100002, "is_gap_direct": null, "is_metal": null, "es_source_calc_id": null, "bandstructure": null, "dos": null, "dos_energy_up": null, "dos_energy_down": null, "is_magnetic": null, "ordering": null, "total_magnetization": 32.0000012, "total_magnetization_normalized_vol": null, "total_magnetization_normalized_formula_units": null, "num_magnetic_sites": null, "num_unique_magnetic_sites": null, "types_of_magnetic_species": null, "bulk_modulus": null, "shear_modulus": null, "universal_anisotropy": null, "homogeneous_poisson": null, "e_total": null, "e_ionic": null, "e_electronic": null, "n": null, "e_ij_max": null, "weighted_surface_energy_EV_PER_ANG2": null, "weighted_surface_energy": null, "weighted_work_function": null, "surface_anisotropy": null, "shape_factor": null, "has_reconstructed": null, "possible_species": null, "has_props": null, "theoretical": null, "database_IDs": null, "fields_not_requested": ["builder_meta", "nsites", "elements", "nelements", "composition", "composition_reduced", "chemsys", "symmetry", "property_name", "deprecated", "deprecation_reasons", "last_updated", "origins", "warnings", "task_ids", "uncorrected_energy_per_atom", "equilibrium_reaction_energy_per_atom", "decomposes_to", "xas", "grain_boundaries", "cbm", "vbm", "is_gap_direct", "is_metal", "es_source_calc_id", "bandstructure", "dos", "dos_energy_up", "dos_energy_down", "is_magnetic", "ordering", "total_magnetization_normalized_vol", "total_magnetization_normalized_formula_units", "num_magnetic_sites", "num_unique_magnetic_sites", "types_of_magnetic_species", "bulk_modulus", "shear_modulus", "universal_anisotropy", "homogeneous_poisson", "e_total", "e_ionic", "e_electronic", "n", "e_ij_max", "weighted_surface_energy_EV_PER_ANG2", "weighted_surface_energy", "weighted_work_function", "surface_anisotropy", "shape_factor", "has_reconstructed", "possible_species", "has_props", "theoretical", "database_IDs"]}