{
  "builder_meta": null,
  "nsites": null,
  "elements": null,
  "nelements": null,
  "composition": null,
  "composition_reduced": null,
  "formula_pretty": "SeS7",
  "formula_anonymous": "AB7",
  "chemsys": null,
  "volume": 688.5560044423105,
  "density": 2.195169852453091,
  "density_atomic": 28.689833518429605,
  "symmetry": null,
  "property_name": null,
  "material_id": "mp-1219328",
  "deprecated": null,
  "deprecation_reasons": null,
  "last_updated": null,
  "origins": null,
  "warnings": null,
  "structure": {
    "@module": "pymatgen.core.structure",
    "@class": "Structure",
    "charge": 0,
    "lattice": {
      "matrix": [
        [4.84763462, 0.00163224, 0.00965178],
        [0.00407107, 9.3990726, 0.00211679],
        [0.02605644, 0.00103637, 15.1121393]
      ],
      "pbc": [true, true, true],
      "a": 4.847644503270339,
      "b": 9.399073720025905,
      "c": 15.11216179885369,
      "alpha": 89.98312423674453,
      "beta": 89.78713167065534,
      "gamma": 89.95586559675637,
      "volume": 688.5560044423105
    },
    "properties": {},
    "sites": [
      {
        "species": [{ "element": "Se", "occu": 1 }],
        "abc": [0.5001174700000001, 0.17884241, 0.61257335],
        "properties": { "magmom": 0.0 },
        "label": "Se",
        "xyz": [2.4410763223487644, 1.6824039599309384, 9.262499392287316]
      },
      {
        "species": [{ "element": "Se", "occu": 1 }],
        "abc": [0.4917507, 0.81992096, 0.61369241],
        "properties": { "magmom": 0.0 },
        "label": "Se",
        "xyz": [2.4031563128114817, 7.707935296867216, 9.280687057332878]
      },
      {
        "species": [{ "element": "Se", "occu": 1 }],
        "abc": [0.01266015, 0.32161757, 0.88703746],
        "properties": { "magmom": 0.0 },
        "label": "Se",
        "xyz": [0.0857941474293353, 3.023846853281239, 13.405836649676747]
      },
      {
        "species": [{ "element": "S", "occu": 1 }],
        "abc": [0.26115368, 0.22945179000000002, 0.49230333],
        "properties": { "magmom": -0.0 },
        "label": "S",
        "xyz": [1.2797394067870622, 2.1575705062947095, 7.442762799933974]
      },
      {
        "species": [{ "element": "S", "occu": 1 }],
        "abc": [0.73316757, 0.76847688, 0.49337601000000003],
        "properties": { "magmom": 0.0 },
        "label": "S",
        "xyz": [3.5701126401671393, 7.224678012071429, 7.464670066661784]
      },
      {
        "species": [{ "element": "S", "occu": 1 }],
        "abc": [0.76620812, 0.27438821, 0.00676018],
        "properties": { "magmom": 0.0 },
        "label": "S",
        "xyz": [3.7155902084717587, 2.5802523479635813, 0.1101368762805735]
      },
      {
        "species": [{ "element": "S", "occu": 1 }],
        "abc": [0.22924376000000002, 0.73319422, 0.00139226],
        "properties": { "magmom": -0.0 },
        "label": "S",
        "xyz": [1.1143111497273412, 6.891721327411691, 0.0248046555926646]
      },
      {
        "species": [{ "element": "S", "occu": 1 }],
        "abc": [0.7340093, 0.37434483, 0.64323732],
        "properties": { "magmom": -0.0 },
        "label": "S",
        "xyz": [3.5764933527233747, 3.520358945805819, 9.728568888472926]
      },
      {
        "species": [{ "element": "S", "occu": 1 }],
        "abc": [0.25829979000000003, 0.62436644, 0.64572887],
        "properties": { "magmom": -0.0 },
        "label": "S",
        "xyz": [1.2715102393830437, 5.8695563198417755, 9.762159338855245]
      },
      {
        "species": [{ "element": "S", "occu": 1 }],
        "abc": [0.24095985, 0.12320363000000001, 0.8588368200000001],
        "properties": { "magmom": -0.0 },
        "label": "S",
        "xyz": [1.190965111562112, 1.1592832399742454, 12.981448147482007]
      },
      {
        "species": [{ "element": "S", "occu": 1 }],
        "abc": [0.77316059, 0.8679631, 0.86097614],
        "properties": { "magmom": -0.0 },
        "label": "S",
        "xyz": [3.773967554574484, 8.160202464504692, 13.020491033186103]
      },
      {
        "species": [{ "element": "S", "occu": 1 }],
        "abc": [0.27129446, 0.6311567, 0.35688054],
        "properties": { "magmom": 0.0 },
        "label": "S",
        "xyz": [1.327004935994552, 5.93310032323105, 5.397182934573355]
      },
      {
        "species": [{ "element": "S", "occu": 1 }],
        "abc": [0.72811668, 0.36933963000000003, 0.35775106],
        "properties": { "magmom": 0.0 },
        "label": "S",
        "xyz": [3.5404689518847916, 3.473009220062954, 5.414193289887737]
      },
      {
        "species": [{ "element": "S", "occu": 1 }],
        "abc": [0.76916993, 0.86954956, 0.140325099999999],
        "properties": { "magmom": -0.0 },
        "label": "S",
        "xyz": [3.7358511510068495, 8.174360342388486, 2.1298769712465027]
      },
      {
        "species": [{ "element": "S", "occu": 1 }],
        "abc": [0.22771495, 0.12986348, 0.14080969000000002],
        "properties": { "magmom": -0.0 },
        "label": "S",
        "xyz": [1.108076557667996, 1.2211138929970613, 2.130408398385758]
      },
      {
        "species": [{ "element": "S", "occu": 1 }],
        "abc": [0.9994598100000001, 0.68980281, 0.89078987],
        "properties": { "magmom": 0.0 },
        "label": "S",
        "xyz": [4.871035024580591, 6.486061237051852, 13.472847336364033]
      },
      {
        "species": [{ "element": "S", "occu": 1 }],
        "abc": [0.49825763, 0.80999972, 0.38434822],
        "properties": { "magmom": -0.0 },
        "label": "S",
        "xyz": [2.428683248760788, 7.6144577772584245, 5.814847512682427]
      },
      {
        "species": [{ "element": "S", "occu": 1 }],
        "abc": [0.50111352, 0.18967301, 0.38360034],
        "properties": { "magmom": 0.0 },
        "label": "S",
        "xyz": [2.4399826794460724, 1.7839658806667766, 5.802259908988265]
      },
      {
        "species": [{ "element": "S", "occu": 1 }],
        "abc": [0.99463988, 0.69046122, 0.11150622],
        "properties": { "magmom": -0.0 },
        "label": "S",
        "xyz": [4.827367087810607, 6.491434186963525, 1.6961591361633164]
      },
      {
        "species": [{ "element": "S", "occu": 1 }],
        "abc": [0.00394924, 0.31091269, 0.11587904],
        "properties": { "magmom": 0.0 },
        "label": "S",
        "xyz": [0.023429615124584698, 2.9224174852394764, 1.7518764484989844]
      },
      {
        "species": [{ "element": "S", "occu": 1 }],
        "abc": [0.49848553, 0.49898156, 0.72491739],
        "properties": { "magmom": -0.0 },
        "label": "S",
        "xyz": [2.4373958681340095, 4.6915288391582175, 10.960920090517563]
      },
      {
        "species": [{ "element": "S", "occu": 1 }],
        "abc": [0.00569694, 0.99568691, 0.77931023],
        "properties": { "magmom": 0.0 },
        "label": "S",
        "xyz": [0.051976244930137694, 9.359350506476076, 11.77920739938081]
      },
      {
        "species": [{ "element": "S", "occu": 1 }],
        "abc": [0.50215427, 0.50035321, 0.27676582],
        "properties": { "magmom": -0.0 },
        "label": "S",
        "xyz": [2.443508928758343, 4.7039626145115845, 4.188429450530223]
      },
      {
        "species": [{ "element": "S", "occu": 1 }],
        "abc": [0.99921919, 0.99845047, 0.22120332],
        "properties": { "magmom": -0.0 },
        "label": "S",
        "xyz": [4.8536780712026415, 9.386368669049556, 3.354613139226526]
      }
    ]
  },
  "task_ids": null,
  "uncorrected_energy_per_atom": null,
  "energy_per_atom": -8.799842245416666,
  "formation_energy_per_atom": 0.019726980364583,
  "energy_above_hull": 0.019726980364584,
  "is_stable": false,
  "equilibrium_reaction_energy_per_atom": null,
  "decomposes_to": null,
  "xas": null,
  "grain_boundaries": null,
  "band_gap": 1.8983,
  "cbm": null,
  "vbm": null,
  "efermi": 0.34062609,
  "is_gap_direct": null,
  "is_metal": null,
  "es_source_calc_id": null,
  "bandstructure": null,
  "dos": null,
  "dos_energy_up": null,
  "dos_energy_down": null,
  "is_magnetic": null,
  "ordering": null,
  "total_magnetization": 0.0,
  "total_magnetization_normalized_vol": null,
  "total_magnetization_normalized_formula_units": null,
  "num_magnetic_sites": null,
  "num_unique_magnetic_sites": null,
  "types_of_magnetic_species": null,
  "bulk_modulus": null,
  "shear_modulus": null,
  "universal_anisotropy": null,
  "homogeneous_poisson": null,
  "e_total": null,
  "e_ionic": null,
  "e_electronic": null,
  "n": null,
  "e_ij_max": null,
  "weighted_surface_energy_EV_PER_ANG2": null,
  "weighted_surface_energy": null,
  "weighted_work_function": null,
  "surface_anisotropy": null,
  "shape_factor": null,
  "has_reconstructed": null,
  "possible_species": null,
  "has_props": null,
  "theoretical": null,
  "database_IDs": null,
  "fields_not_requested": [
    "builder_meta",
    "nsites",
    "elements",
    "nelements",
    "composition",
    "composition_reduced",
    "chemsys",
    "symmetry",
    "property_name",
    "deprecated",
    "deprecation_reasons",
    "last_updated",
    "origins",
    "warnings",
    "task_ids",
    "uncorrected_energy_per_atom",
    "equilibrium_reaction_energy_per_atom",
    "decomposes_to",
    "xas",
    "grain_boundaries",
    "cbm",
    "vbm",
    "is_gap_direct",
    "is_metal",
    "es_source_calc_id",
    "bandstructure",
    "dos",
    "dos_energy_up",
    "dos_energy_down",
    "is_magnetic",
    "ordering",
    "total_magnetization_normalized_vol",
    "total_magnetization_normalized_formula_units",
    "num_magnetic_sites",
    "num_unique_magnetic_sites",
    "types_of_magnetic_species",
    "bulk_modulus",
    "shear_modulus",
    "universal_anisotropy",
    "homogeneous_poisson",
    "e_total",
    "e_ionic",
    "e_electronic",
    "n",
    "e_ij_max",
    "weighted_surface_energy_EV_PER_ANG2",
    "weighted_surface_energy",
    "weighted_work_function",
    "surface_anisotropy",
    "shape_factor",
    "has_reconstructed",
    "possible_species",
    "has_props",
    "theoretical",
    "database_IDs"
  ]
}
