{
  "builder_meta": null,
  "nsites": null,
  "elements": null,
  "nelements": null,
  "composition": null,
  "composition_reduced": null,
  "formula_pretty": "SF4",
  "formula_anonymous": "AB4",
  "chemsys": null,
  "volume": 573.9089443174198,
  "density": 2.5012406558732403,
  "density_atomic": 14.347723607935496,
  "symmetry": null,
  "property_name": null,
  "material_id": "mp-1203812",
  "deprecated": null,
  "deprecation_reasons": null,
  "last_updated": null,
  "origins": null,
  "warnings": null,
  "structure": {
    "@module": "pymatgen.core.structure",
    "@class": "Structure",
    "charge": 0,
    "lattice": {
      "matrix": [
        [6.64115605, 0.0, -0.00018312],
        [0.0, 6.75691192, 0.0],
        [-0.00034248, 0.0, 12.78942592]
      ],
      "pbc": [true, true, true],
      "a": 6.641156052524631,
      "b": 6.75691192,
      "c": 12.789425924585528,
      "alpha": 90.0,
      "beta": 90.003114133573,
      "gamma": 90.0,
      "volume": 573.9089443174198
    },
    "properties": {},
    "sites": [
      {
        "species": [{ "element": "S", "occu": 1 }],
        "abc": [0.77307697, 0.92235154, 0.26661389],
        "properties": { "magmom": 0.0 },
        "label": "S",
        "xyz": [5.134033486506122, 6.232248115056357, 3.4096970295432825]
      },
      {
        "species": [{ "element": "S", "occu": 1 }],
        "abc": [0.72693472, 0.07763622, 0.76663269],
        "properties": { "magmom": 0.0 },
        "label": "S",
        "xyz": [4.827424357319385, 0.5245811003417424, 9.804658880319398]
      },
      {
        "species": [{ "element": "S", "occu": 1 }],
        "abc": [0.27306528, 0.57763622, 0.73336731],
        "properties": { "magmom": 0.0 },
        "label": "S",
        "xyz": [1.8132179726806155, 3.9030370603417426, 9.3792968796806]
      },
      {
        "species": [{ "element": "S", "occu": 1 }],
        "abc": [0.22692303, 0.42235154, 0.23338611],
        "properties": { "magmom": 0.0 },
        "label": "S",
        "xyz": [1.5069513234938787, 2.853792155056357, 2.9848328104567177]
      },
      {
        "species": [{ "element": "S", "occu": 1 }],
        "abc": [0.7816088800000001, 0.55067861, 0.5293019],
        "properties": { "magmom": 0.0 },
        "label": "S",
        "xyz": [5.190605266831013, 3.720886863998031, 6.769324311147142]
      },
      {
        "species": [{ "element": "S", "occu": 1 }],
        "abc": [0.71843151, 0.44932045, 0.02939322],
        "properties": { "magmom": 0.0 },
        "label": "S",
        "xyz": [4.77120570255715, 3.036018704504764, 0.3757908505621512]
      },
      {
        "species": [{ "element": "S", "occu": 1 }],
        "abc": [0.28156849, 0.94932045, 0.47060678],
        "properties": { "magmom": 0.0 },
        "label": "S",
        "xyz": [1.8697791074428503, 6.414474664504764, 6.018738989437849]
      },
      {
        "species": [{ "element": "S", "occu": 1 }],
        "abc": [0.21839112, 0.05067861, 0.9706981],
        "properties": { "magmom": 0.0 },
        "label": "S",
        "xyz": [1.450037063168988, 0.3424309039980312, 12.414631448852857]
      },
      {
        "species": [{ "element": "F", "occu": 1 }],
        "abc": [0.72542097, 0.04563259, 0.16658355],
        "properties": { "magmom": -0.0 },
        "label": "F",
        "xyz": [4.817576812178165, 0.3083353913114728, 2.1303751331275893]
      },
      {
        "species": [{ "element": "F", "occu": 1 }],
        "abc": [0.7746011700000001, 0.9543857800000001, 0.66659598],
        "properties": { "magmom": -0.0 },
        "label": "F",
        "xyz": [5.144018950691349, 6.448700653160499, 8.52523805981355]
      },
      {
        "species": [{ "element": "F", "occu": 1 }],
        "abc": [0.22539883, 0.45438578, 0.83340402],
        "properties": { "magmom": -0.0 },
        "label": "F",
        "xyz": [1.496623379308652, 3.0702446931604976, 10.658717700186449]
      },
      {
        "species": [{ "element": "F", "occu": 1 }],
        "abc": [0.27457903, 0.54563259, 0.33341645000000003],
        "properties": { "magmom": -0.0 },
        "label": "F",
        "xyz": [1.8234079978218356, 3.6867913513114727, 4.264154706872411]
      },
      {
        "species": [{ "element": "F", "occu": 1 }],
        "abc": [0.78675039, 0.09401716, 0.3477905],
        "properties": { "magmom": -0.0 },
        "label": "F",
        "xyz": [5.22481300109792, 0.6352656690885472, 4.447896765698343]
      },
      {
        "species": [{ "element": "F", "occu": 1 }],
        "abc": [0.71325945, 0.9059695600000001, 0.84780289],
        "properties": { "magmom": -0.0 },
        "label": "F",
        "xyz": [4.736576956053406, 6.121556519121156, 10.842781644346424]
      },
      {
        "species": [{ "element": "F", "occu": 1 }],
        "abc": [0.28674055, 0.40596956, 0.65219711],
        "properties": { "magmom": -0.0 },
        "label": "F",
        "xyz": [1.9040653739465947, 2.7431005591211552, 8.341174115653576]
      },
      {
        "species": [{ "element": "F", "occu": 1 }],
        "abc": [0.21324961, 0.59401716, 0.1522095],
        "properties": { "magmom": -0.0 },
        "label": "F",
        "xyz": [1.4161718089020805, 4.013721629088548, 1.9466330743016567]
      },
      {
        "species": [{ "element": "F", "occu": 1 }],
        "abc": [0.01827751, 0.9565191, 0.24231106],
        "properties": { "magmom": -0.0 },
        "label": "F",
        "xyz": [0.12130080942360671, 6.463115308497672, 3.099016004489044]
      },
      {
        "species": [{ "element": "F", "occu": 1 }],
        "abc": [0.48173914, 0.04347149, 0.74230951],
        "properties": { "magmom": -0.0 },
        "label": "F",
        "xyz": [3.1990505779718124, 0.2937330289611608, 9.493624271785182]
      },
      {
        "species": [{ "element": "F", "occu": 1 }],
        "abc": [0.51826086, 0.5434714900000001, 0.75769049],
        "properties": { "magmom": -0.0 },
        "label": "F",
        "xyz": [3.441591752028188, 3.672188988961161, 9.690331488214817]
      },
      {
        "species": [{ "element": "F", "occu": 1 }],
        "abc": [0.98172249, 0.456519099999999, 0.25768894000000003],
        "properties": { "magmom": -0.0 },
        "label": "F",
        "xyz": [6.519684000576393, 3.0846593484976657, 3.295513835510956]
      },
      {
        "species": [{ "element": "F", "occu": 1 }],
        "abc": [0.51937195, 0.91797904, 0.29027555],
        "properties": { "magmom": 0.0 },
        "label": "F",
        "xyz": [3.449130754372434, 6.202703517686157, 3.7123625357207715]
      },
      {
        "species": [{ "element": "F", "occu": 1 }],
        "abc": [0.98063732, 0.08201074, 0.79031712],
        "properties": { "magmom": 0.0 },
        "label": "F",
        "xyz": [6.512294802766529, 0.5541393466740208, 10.107522685241712]
      },
      {
        "species": [{ "element": "F", "occu": 1 }],
        "abc": [0.01936268, 0.58201074, 0.70968288],
        "properties": { "magmom": 0.0 },
        "label": "F",
        "xyz": [0.1283475272334716, 3.932595306674021, 9.076433074758286]
      },
      {
        "species": [{ "element": "F", "occu": 1 }],
        "abc": [0.48062805000000003, 0.41797904, 0.20972445],
        "properties": { "magmom": 0.0 },
        "label": "F",
        "xyz": [3.1918540556275667, 2.824247557686157, 2.6821673042792282]
      },
      {
        "species": [{ "element": "F", "occu": 1 }],
        "abc": [0.65765392, 0.49447028, 0.43033844],
        "properties": { "magmom": -0.0 },
        "label": "F",
        "xyz": [4.367434927305285, 3.3410921290177376, 5.503661169322534]
      },
      {
        "species": [{ "element": "F", "occu": 1 }],
        "abc": [0.8424116700000001, 0.50554561, 0.93044294],
        "properties": { "magmom": -0.0 },
        "label": "F",
        "xyz": [5.5942687007130125, 3.4159271583126714, 11.899676791491995]
      },
      {
        "species": [{ "element": "F", "occu": 1 }],
        "abc": [0.15758833, 0.00554561, 0.5695570600000001],
        "properties": { "magmom": -0.0 },
        "label": "F",
        "xyz": [1.0463736292869876, 0.037471198312671206, 7.284278968508007]
      },
      {
        "species": [{ "element": "F", "occu": 1 }],
        "abc": [0.34234608, 0.99447028, 0.06966156],
        "properties": { "magmom": -0.0 },
        "label": "F",
        "xyz": [2.273549882694715, 6.719548089017739, 0.8908686706774654]
      },
      {
        "species": [{ "element": "F", "occu": 1 }],
        "abc": [0.98913545, 0.46179845, 0.49884687],
        "properties": { "magmom": -0.0 },
        "label": "F",
        "xyz": [6.568832032960936, 3.1203314514425244, 6.379783958805266]
      },
      {
        "species": [{ "element": "F", "occu": 1 }],
        "abc": [0.5109017, 0.53818805, 0.99891586],
        "properties": { "magmom": -0.0 },
        "label": "F",
        "xyz": [3.392635807206552, 3.6364892502465564, 12.775466835463787]
      },
      {
        "species": [{ "element": "F", "occu": 1 }],
        "abc": [0.4890983, 0.03818805, 0.50108414],
        "properties": { "magmom": -0.0 },
        "label": "F",
        "xyz": [3.248006522793448, 0.258033290246556, 6.408488924536213]
      },
      {
        "species": [{ "element": "F", "occu": 1 }],
        "abc": [0.01086455, 0.96179845, 0.00115313],
        "properties": { "magmom": -0.0 },
        "label": "F",
        "xyz": [0.07215277703906511, 6.498787411442524, 0.0147458811947336]
      },
      {
        "species": [{ "element": "F", "occu": 1 }],
        "abc": [0.856507799999999, 0.76087687, 0.463187099999999],
        "properties": { "magmom": -0.0 },
        "label": "F",
        "xyz": [5.688043325524176, 5.141177992555291, 5.923740258841283]
      },
      {
        "species": [{ "element": "F", "occu": 1 }],
        "abc": [0.64356096, 0.23912954, 0.96326456],
        "properties": { "magmom": -0.0 },
        "label": "F",
        "xyz": [4.273658864201299, 1.6157772392501168, 12.3194828825984]
      },
      {
        "species": [{ "element": "F", "occu": 1 }],
        "abc": [0.35643904, 0.73912954, 0.5367354400000001],
        "properties": { "magmom": -0.0 },
        "label": "F",
        "xyz": [2.366983465798701, 4.994233199250117, 6.8644728774016]
      },
      {
        "species": [{ "element": "F", "occu": 1 }],
        "abc": [0.1434922, 0.26087687, 0.036812899999999],
        "properties": { "magmom": -0.0 },
        "label": "F",
        "xyz": [0.952941484475818, 1.7627220325552904, 0.4707895811586912]
      },
      {
        "species": [{ "element": "F", "occu": 1 }],
        "abc": [0.7219509900000001, 0.33131997, 0.58014073],
        "properties": { "magmom": -0.0 },
        "label": "F",
        "xyz": [4.79439049844478, 2.2386998546270425, 7.419534685844432]
      },
      {
        "species": [{ "element": "F", "occu": 1 }],
        "abc": [0.77805208, 0.66869594, 0.08023557],
        "properties": { "magmom": 0.0 },
        "label": "F",
        "xyz": [5.167137799229071, 4.518319567841605, 1.0260244017670848]
      },
      {
        "species": [{ "element": "F", "occu": 1 }],
        "abc": [0.22194792, 0.16869594000000002, 0.41976443],
        "properties": { "magmom": 0.0 },
        "label": "F",
        "xyz": [1.4738470107709296, 1.139863607841605, 5.368505438232915]
      },
      {
        "species": [{ "element": "F", "occu": 1 }],
        "abc": [0.27804901, 0.83131997, 0.91985927],
        "properties": { "magmom": -0.0 },
        "label": "F",
        "xyz": [1.8462518315552208, 5.617155814627043, 11.764421074155567]
      }
    ]
  },
  "task_ids": null,
  "uncorrected_energy_per_atom": null,
  "energy_per_atom": -5.8108436625,
  "formation_energy_per_atom": -1.7030214860625001,
  "energy_above_hull": 0.026674298090277004,
  "is_stable": false,
  "equilibrium_reaction_energy_per_atom": null,
  "decomposes_to": null,
  "xas": null,
  "grain_boundaries": null,
  "band_gap": 4.9033999999999995,
  "cbm": null,
  "vbm": null,
  "efermi": -2.8981184300000002,
  "is_gap_direct": null,
  "is_metal": null,
  "es_source_calc_id": null,
  "bandstructure": null,
  "dos": null,
  "dos_energy_up": null,
  "dos_energy_down": null,
  "is_magnetic": null,
  "ordering": null,
  "total_magnetization": 0.0,
  "total_magnetization_normalized_vol": null,
  "total_magnetization_normalized_formula_units": null,
  "num_magnetic_sites": null,
  "num_unique_magnetic_sites": null,
  "types_of_magnetic_species": null,
  "bulk_modulus": null,
  "shear_modulus": null,
  "universal_anisotropy": null,
  "homogeneous_poisson": null,
  "e_total": null,
  "e_ionic": null,
  "e_electronic": null,
  "n": null,
  "e_ij_max": null,
  "weighted_surface_energy_EV_PER_ANG2": null,
  "weighted_surface_energy": null,
  "weighted_work_function": null,
  "surface_anisotropy": null,
  "shape_factor": null,
  "has_reconstructed": null,
  "possible_species": null,
  "has_props": null,
  "theoretical": null,
  "database_IDs": null,
  "fields_not_requested": [
    "builder_meta",
    "nsites",
    "elements",
    "nelements",
    "composition",
    "composition_reduced",
    "chemsys",
    "symmetry",
    "property_name",
    "deprecated",
    "deprecation_reasons",
    "last_updated",
    "origins",
    "warnings",
    "task_ids",
    "uncorrected_energy_per_atom",
    "equilibrium_reaction_energy_per_atom",
    "decomposes_to",
    "xas",
    "grain_boundaries",
    "cbm",
    "vbm",
    "is_gap_direct",
    "is_metal",
    "es_source_calc_id",
    "bandstructure",
    "dos",
    "dos_energy_up",
    "dos_energy_down",
    "is_magnetic",
    "ordering",
    "total_magnetization_normalized_vol",
    "total_magnetization_normalized_formula_units",
    "num_magnetic_sites",
    "num_unique_magnetic_sites",
    "types_of_magnetic_species",
    "bulk_modulus",
    "shear_modulus",
    "universal_anisotropy",
    "homogeneous_poisson",
    "e_total",
    "e_ionic",
    "e_electronic",
    "n",
    "e_ij_max",
    "weighted_surface_energy_EV_PER_ANG2",
    "weighted_surface_energy",
    "weighted_work_function",
    "surface_anisotropy",
    "shape_factor",
    "has_reconstructed",
    "possible_species",
    "has_props",
    "theoretical",
    "database_IDs"
  ]
}
