{
  "builder_meta": null,
  "nsites": null,
  "elements": null,
  "nelements": null,
  "composition": null,
  "composition_reduced": null,
  "formula_pretty": "SF6",
  "formula_anonymous": "AB6",
  "chemsys": null,
  "volume": 259.5865349336243,
  "density": 2.8028887884988443,
  "density_atomic": 12.361263568267825,
  "symmetry": null,
  "property_name": null,
  "material_id": "mp-975",
  "deprecated": null,
  "deprecation_reasons": null,
  "last_updated": null,
  "origins": null,
  "warnings": null,
  "structure": {
    "@module": "pymatgen.core.structure",
    "@class": "Structure",
    "charge": 0,
    "lattice": {
      "matrix": [
        [4.69672951, 0.0051816, 0.37491903],
        [0.33261643, 6.94571682, 3.84508324],
        [0.012955340000000001, -0.0234639, 7.94591611]
      ],
      "pbc": [true, true, true],
      "a": 4.711672656089294,
      "b": 7.945960039898625,
      "c": 7.945961315196246,
      "alpha": 61.22387646095528,
      "beta": 85.34280300114555,
      "gamma": 85.3428131543724,
      "volume": 259.5865349336243
    },
    "properties": {},
    "sites": [
      {
        "species": [{ "element": "S", "occu": 1 }],
        "abc": [0.58614952, 0.3315287, 0.3315287],
        "properties": { "magmom": 0.0 },
        "label": "S",
        "xyz": [2.867552707521134, 2.297962703991636, 4.128813295679711]
      },
      {
        "species": [{ "element": "S", "occu": 1 }],
        "abc": [0.41385048, 0.6684713, 0.6684713],
        "properties": { "magmom": 0.0 },
        "label": "S",
        "xyz": [2.1747485724788658, 4.6294718160083645, 8.037105084320288]
      },
      {
        "species": [{ "element": "S", "occu": 1 }],
        "abc": [0.0, 0.0, -0.0],
        "properties": { "magmom": -0.0 },
        "label": "S",
        "xyz": [0.0, 0.0, 0.0]
      },
      {
        "species": [{ "element": "F", "occu": 1 }],
        "abc": [0.59218773, 0.74660352, 0.47082239000000004],
        "properties": { "magmom": -0.0 },
        "label": "F",
        "xyz": [3.0357778485408082, 5.177717777200253, 6.83389034463621]
      },
      {
        "species": [{ "element": "F", "occu": 1 }],
        "abc": [0.71410333, 0.06999406, 0.06999406],
        "properties": { "magmom": -0.0 },
        "label": "F",
        "xyz": [3.378138154403955, 0.4882167840323832, 1.093030843767231]
      },
      {
        "species": [{ "element": "F", "occu": 1 }],
        "abc": [0.28589667, 0.93000594, 0.93000594],
        "properties": { "magmom": -0.0 },
        "label": "F",
        "xyz": [1.6641631255960456, 6.439217735967617, 11.07288753623277]
      },
      {
        "species": [{ "element": "F", "occu": 1 }],
        "abc": [0.12480136, 0.20323241, 0.9274893],
        "properties": { "magmom": 0.0 },
        "label": "F",
        "xyz": [0.665772608302492, 1.3904789230468424, 8.197988109072313]
      },
      {
        "species": [{ "element": "F", "occu": 1 }],
        "abc": [0.87519864, 0.0725107, 0.79676759],
        "properties": { "magmom": 0.0 },
        "label": "F",
        "xyz": [4.145011924800098, 0.489478442837997, 6.937986731763662]
      },
      {
        "species": [{ "element": "F", "occu": 1 }],
        "abc": [0.87519864, 0.79676759, 0.0725107],
        "properties": { "magmom": 0.0 },
        "label": "F",
        "xyz": [4.376528671697508, 5.536955596953159, 3.967930270927688]
      },
      {
        "species": [{ "element": "F", "occu": 1 }],
        "abc": [0.12480136, 0.9274893, 0.20323241],
        "properties": { "magmom": 0.0 },
        "label": "F",
        "xyz": [0.897289355199902, 6.437956077162003, 5.227931648236337]
      },
      {
        "species": [{ "element": "F", "occu": 1 }],
        "abc": [0.40781227000000003, 0.52917761, 0.25339648],
        "properties": { "magmom": -0.0 },
        "label": "F",
        "xyz": [2.0946799280764234, 3.67168527693556, 4.2010957125340465]
      },
      {
        "species": [{ "element": "F", "occu": 1 }],
        "abc": [0.40781227000000003, 0.25339648, 0.52917761],
        "properties": { "magmom": -0.0 },
        "label": "F",
        "xyz": [2.0065234314591915, 1.7497167427997466, 5.33202803536379]
      },
      {
        "species": [{ "element": "F", "occu": 1 }],
        "abc": [0.63644407, 0.74771764, 0.74771764],
        "properties": { "magmom": 0.0 },
        "label": "F",
        "xyz": [3.247595753348529, 5.179188415418621, 9.054953200597186]
      },
      {
        "species": [{ "element": "F", "occu": 1 }],
        "abc": [0.36355593, 0.25228236, 0.25228236],
        "properties": { "magmom": 0.0 },
        "label": "F",
        "xyz": [1.7947055266514715, 1.748246104581379, 3.1109651794028137]
      },
      {
        "species": [{ "element": "F", "occu": 1 }],
        "abc": [0.19117053, 0.58920753, 0.58920753],
        "properties": { "magmom": 0.0 },
        "label": "F",
        "xyz": [1.1014897587327686, 4.079634114246736, 7.019019072917292]
      },
      {
        "species": [{ "element": "F", "occu": 1 }],
        "abc": [0.80882947, 0.41079247, 0.41079247],
        "properties": { "magmom": 0.0 },
        "label": "F",
        "xyz": [3.9408115212672317, 2.8478004057532647, 5.146899307082709]
      },
      {
        "species": [{ "element": "F", "occu": 1 }],
        "abc": [0.23535068, 0.59029008, 0.86610452],
        "properties": { "magmom": -0.0 },
        "label": "F",
        "xyz": [1.312939341560718, 4.080885040571806, 9.239945800413517]
      },
      {
        "species": [{ "element": "F", "occu": 1 }],
        "abc": [0.76464932, 0.13389548, 0.40970992],
        "properties": { "magmom": -0.0 },
        "label": "F",
        "xyz": [3.641194793911142, 0.9243488018825977, 4.057041501159126]
      },
      {
        "species": [{ "element": "F", "occu": 1 }],
        "abc": [0.76464932, 0.40970992, 0.13389548],
        "properties": { "magmom": -0.0 },
        "label": "F",
        "xyz": [3.7293619384392813, 2.8465494794281945, 2.9259725795864835]
      },
      {
        "species": [{ "element": "F", "occu": 1 }],
        "abc": [0.23535068, 0.86610452, 0.59029008],
        "properties": { "magmom": -0.0 },
        "label": "F",
        "xyz": [1.4011064860888576, 6.003085718117403, 8.108876878840874]
      },
      {
        "species": [{ "element": "F", "occu": 1 }],
        "abc": [0.59218773, 0.47082239000000004, 0.74660352],
        "properties": { "magmom": -0.0 },
        "label": "F",
        "xyz": [2.9476213519235768, 3.25574924306444, 7.964822667465953]
      }
    ]
  },
  "task_ids": null,
  "uncorrected_energy_per_atom": null,
  "energy_per_atom": -5.6805550233333335,
  "formation_energy_per_atom": -1.853245483020832,
  "energy_above_hull": 0.0,
  "is_stable": true,
  "equilibrium_reaction_energy_per_atom": null,
  "decomposes_to": null,
  "xas": null,
  "grain_boundaries": null,
  "band_gap": 5.9124,
  "cbm": null,
  "vbm": null,
  "efermi": -3.9829487500000003,
  "is_gap_direct": null,
  "is_metal": null,
  "es_source_calc_id": null,
  "bandstructure": null,
  "dos": null,
  "dos_energy_up": null,
  "dos_energy_down": null,
  "is_magnetic": null,
  "ordering": null,
  "total_magnetization": 0.0,
  "total_magnetization_normalized_vol": null,
  "total_magnetization_normalized_formula_units": null,
  "num_magnetic_sites": null,
  "num_unique_magnetic_sites": null,
  "types_of_magnetic_species": null,
  "bulk_modulus": null,
  "shear_modulus": null,
  "universal_anisotropy": null,
  "homogeneous_poisson": null,
  "e_total": null,
  "e_ionic": null,
  "e_electronic": null,
  "n": null,
  "e_ij_max": null,
  "weighted_surface_energy_EV_PER_ANG2": null,
  "weighted_surface_energy": null,
  "weighted_work_function": null,
  "surface_anisotropy": null,
  "shape_factor": null,
  "has_reconstructed": null,
  "possible_species": null,
  "has_props": null,
  "theoretical": null,
  "database_IDs": null,
  "fields_not_requested": [
    "builder_meta",
    "nsites",
    "elements",
    "nelements",
    "composition",
    "composition_reduced",
    "chemsys",
    "symmetry",
    "property_name",
    "deprecated",
    "deprecation_reasons",
    "last_updated",
    "origins",
    "warnings",
    "task_ids",
    "uncorrected_energy_per_atom",
    "equilibrium_reaction_energy_per_atom",
    "decomposes_to",
    "xas",
    "grain_boundaries",
    "cbm",
    "vbm",
    "is_gap_direct",
    "is_metal",
    "es_source_calc_id",
    "bandstructure",
    "dos",
    "dos_energy_up",
    "dos_energy_down",
    "is_magnetic",
    "ordering",
    "total_magnetization_normalized_vol",
    "total_magnetization_normalized_formula_units",
    "num_magnetic_sites",
    "num_unique_magnetic_sites",
    "types_of_magnetic_species",
    "bulk_modulus",
    "shear_modulus",
    "universal_anisotropy",
    "homogeneous_poisson",
    "e_total",
    "e_ionic",
    "e_electronic",
    "n",
    "e_ij_max",
    "weighted_surface_energy_EV_PER_ANG2",
    "weighted_surface_energy",
    "weighted_work_function",
    "surface_anisotropy",
    "shape_factor",
    "has_reconstructed",
    "possible_species",
    "has_props",
    "theoretical",
    "database_IDs"
  ]
}
