{"builder_meta": null, "nsites": null, "elements": null, "nelements": null, "composition": null, "composition_reduced": null, "formula_pretty": "Si2Mo", "formula_anonymous": "AB2", "chemsys": null, "volume": 40.12563830578126, "density": 6.294884483450079, "density_atomic": 13.375212768593753, "symmetry": null, "property_name": null, "material_id": "mp-2592", "deprecated": null, "deprecation_reasons": null, "last_updated": null, "origins": null, "warnings": null, "structure": {"@module": "pymatgen.core.structure", "@class": "Structure", "charge": 0, "lattice": {"matrix": [[2.99823962, -0.0, -1.13042946], [-0.42620734, 2.96779172, -1.13042946], [-0.009031850000000001, -0.01042174, 4.51737489]], "pbc": [true, true, true], "a": 3.2042645931591913, "b": 3.204264526222254, "c": 4.517395940559291, "alpha": 110.77250023543864, "beta": 110.77249782385974, "gamma": 90.00000540789972, "volume": 40.12563830578126}, "properties": {}, "sites": [{"species": [{"element": "Si", "occu": 1}], "abc": [0.66456963, 0.66456963, 0.32914126], "properties": {"magmom": 0.0}, "label": "Si", "xyz": [1.7063217861785256, 1.9688740206424713, -0.015643712759638273]}, {"species": [{"element": "Si", "occu": 1}], "abc": [0.33543037000000003, 0.33543037000000003, 0.67085874], "properties": {"magmom": 0.0}, "label": "Si", "xyz": [0.8566786438214747, 0.9884959593575289, 2.2721596827596384]}, {"species": [{"element": "Mo", "occu": 1}], "abc": [-0.0, -0.0, -0.0], "properties": {"magmom": -0.0}, "label": "Mo", "xyz": [0.0, 0.0, 0.0]}]}, "task_ids": null, "uncorrected_energy_per_atom": null, "energy_per_atom": -15.00598113, "formation_energy_per_atom": -0.46614492, "energy_above_hull": 0.0, "is_stable": true, "equilibrium_reaction_energy_per_atom": null, "decomposes_to": null, "xas": null, "grain_boundaries": null, "band_gap": 0.0, "cbm": null, "vbm": null, "efermi": 10.80167203, "is_gap_direct": null, "is_metal": null, "es_source_calc_id": null, "bandstructure": null, "dos": null, "dos_energy_up": null, "dos_energy_down": null, "is_magnetic": null, "ordering": null, "total_magnetization": 0.0, "total_magnetization_normalized_vol": null, "total_magnetization_normalized_formula_units": null, "num_magnetic_sites": null, "num_unique_magnetic_sites": null, "types_of_magnetic_species": null, "bulk_modulus": null, "shear_modulus": null, "universal_anisotropy": null, "homogeneous_poisson": null, "e_total": null, "e_ionic": null, "e_electronic": null, "n": null, "e_ij_max": null, "weighted_surface_energy_EV_PER_ANG2": null, "weighted_surface_energy": null, "weighted_work_function": null, "surface_anisotropy": null, "shape_factor": null, "has_reconstructed": null, "possible_species": null, "has_props": null, "theoretical": null, "database_IDs": null, "fields_not_requested": ["builder_meta", "nsites", "elements", "nelements", "composition", "composition_reduced", "chemsys", "symmetry", "property_name", "deprecated", "deprecation_reasons", "last_updated", "origins", "warnings", "task_ids", "uncorrected_energy_per_atom", "equilibrium_reaction_energy_per_atom", "decomposes_to", "xas", "grain_boundaries", "cbm", "vbm", "is_gap_direct", "is_metal", "es_source_calc_id", "bandstructure", "dos", "dos_energy_up", "dos_energy_down", "is_magnetic", "ordering", "total_magnetization_normalized_vol", "total_magnetization_normalized_formula_units", "num_magnetic_sites", "num_unique_magnetic_sites", "types_of_magnetic_species", "bulk_modulus", "shear_modulus", "universal_anisotropy", "homogeneous_poisson", "e_total", "e_ionic", "e_electronic", "n", "e_ij_max", "weighted_surface_energy_EV_PER_ANG2", "weighted_surface_energy", "weighted_work_function", "surface_anisotropy", "shape_factor", "has_reconstructed", "possible_species", "has_props", "theoretical", "database_IDs"]}