{
  "builder_meta": null,
  "nsites": null,
  "elements": null,
  "nelements": null,
  "composition": null,
  "composition_reduced": null,
  "formula_pretty": "Si2Mo3",
  "formula_anonymous": "A2B3",
  "chemsys": null,
  "volume": 145.0552715231424,
  "density": 7.875763328844874,
  "density_atomic": 14.50552715231424,
  "symmetry": null,
  "property_name": null,
  "material_id": "mp-1087230",
  "deprecated": null,
  "deprecation_reasons": null,
  "last_updated": null,
  "origins": null,
  "warnings": null,
  "structure": {
    "@module": "pymatgen.core.structure",
    "@class": "Structure",
    "charge": 0,
    "lattice": {
      "matrix": [
        [6.6332, 0.0, 0.0],
        [0.0, 6.6332, 0.0],
        [0.0, 0.0, 3.29676]
      ],
      "pbc": [true, true, true],
      "a": 6.6332,
      "b": 6.6332,
      "c": 3.29676,
      "alpha": 90.0,
      "beta": 90.0,
      "gamma": 90.0,
      "volume": 145.0552715231424
    },
    "properties": {},
    "sites": [
      {
        "species": [{ "element": "Si", "occu": 1 }],
        "abc": [0.134245, 0.634245, 0.0],
        "properties": { "magmom": -0.0 },
        "label": "Si",
        "xyz": [0.8904739340000001, 4.207073934, 0.0]
      },
      {
        "species": [{ "element": "Si", "occu": 1 }],
        "abc": [0.865754999999999, 0.365755, 0.0],
        "properties": { "magmom": -0.0 },
        "label": "Si",
        "xyz": [5.742726065999994, 2.426126066, 0.0]
      },
      {
        "species": [{ "element": "Si", "occu": 1 }],
        "abc": [0.634245, 0.865754999999999, 0.0],
        "properties": { "magmom": 0.0 },
        "label": "Si",
        "xyz": [4.207073934, 5.742726065999994, 0.0]
      },
      {
        "species": [{ "element": "Si", "occu": 1 }],
        "abc": [0.365755, 0.134245, 0.0],
        "properties": { "magmom": 0.0 },
        "label": "Si",
        "xyz": [2.426126066, 0.8904739340000001, 0.0]
      },
      {
        "species": [{ "element": "Mo", "occu": 1 }],
        "abc": [0.5, 0.5, 0.0],
        "properties": { "magmom": -0.001 },
        "label": "Mo",
        "xyz": [3.3166, 3.3166, 0.0]
      },
      {
        "species": [{ "element": "Mo", "occu": 1 }],
        "abc": [0.0, 0.0, 0.0],
        "properties": { "magmom": 0.001 },
        "label": "Mo",
        "xyz": [0.0, 0.0, 0.0]
      },
      {
        "species": [{ "element": "Mo", "occu": 1 }],
        "abc": [0.661257, 0.161256999999999, 0.5],
        "properties": { "magmom": -0.001 },
        "label": "Mo",
        "xyz": [4.3862499324, 1.0696499323999935, 1.64838]
      },
      {
        "species": [{ "element": "Mo", "occu": 1 }],
        "abc": [0.338742999999999, 0.838743, 0.5],
        "properties": { "magmom": -0.0 },
        "label": "Mo",
        "xyz": [2.2469500675999936, 5.5635500676000005, 1.64838]
      },
      {
        "species": [{ "element": "Mo", "occu": 1 }],
        "abc": [0.161256999999999, 0.338742999999999, 0.5],
        "properties": { "magmom": 0.001 },
        "label": "Mo",
        "xyz": [1.0696499323999935, 2.2469500675999936, 1.64838]
      },
      {
        "species": [{ "element": "Mo", "occu": 1 }],
        "abc": [0.838743, 0.661257, 0.5],
        "properties": { "magmom": 0.0 },
        "label": "Mo",
        "xyz": [5.5635500676000005, 4.3862499324, 1.64838]
      }
    ]
  },
  "task_ids": null,
  "uncorrected_energy_per_atom": null,
  "energy_per_atom": -19.412671639428574,
  "formation_energy_per_atom": -0.259978137428572,
  "energy_above_hull": 0.144741100857142,
  "is_stable": false,
  "equilibrium_reaction_energy_per_atom": null,
  "decomposes_to": null,
  "xas": null,
  "grain_boundaries": null,
  "band_gap": 0.0,
  "cbm": null,
  "vbm": null,
  "efermi": 9.65184396,
  "is_gap_direct": null,
  "is_metal": null,
  "es_source_calc_id": null,
  "bandstructure": null,
  "dos": null,
  "dos_energy_up": null,
  "dos_energy_down": null,
  "is_magnetic": null,
  "ordering": null,
  "total_magnetization": 1.67e-5,
  "total_magnetization_normalized_vol": null,
  "total_magnetization_normalized_formula_units": null,
  "num_magnetic_sites": null,
  "num_unique_magnetic_sites": null,
  "types_of_magnetic_species": null,
  "bulk_modulus": null,
  "shear_modulus": null,
  "universal_anisotropy": null,
  "homogeneous_poisson": null,
  "e_total": null,
  "e_ionic": null,
  "e_electronic": null,
  "n": null,
  "e_ij_max": null,
  "weighted_surface_energy_EV_PER_ANG2": null,
  "weighted_surface_energy": null,
  "weighted_work_function": null,
  "surface_anisotropy": null,
  "shape_factor": null,
  "has_reconstructed": null,
  "possible_species": null,
  "has_props": null,
  "theoretical": null,
  "database_IDs": null,
  "fields_not_requested": [
    "builder_meta",
    "nsites",
    "elements",
    "nelements",
    "composition",
    "composition_reduced",
    "chemsys",
    "symmetry",
    "property_name",
    "deprecated",
    "deprecation_reasons",
    "last_updated",
    "origins",
    "warnings",
    "task_ids",
    "uncorrected_energy_per_atom",
    "equilibrium_reaction_energy_per_atom",
    "decomposes_to",
    "xas",
    "grain_boundaries",
    "cbm",
    "vbm",
    "is_gap_direct",
    "is_metal",
    "es_source_calc_id",
    "bandstructure",
    "dos",
    "dos_energy_up",
    "dos_energy_down",
    "is_magnetic",
    "ordering",
    "total_magnetization_normalized_vol",
    "total_magnetization_normalized_formula_units",
    "num_magnetic_sites",
    "num_unique_magnetic_sites",
    "types_of_magnetic_species",
    "bulk_modulus",
    "shear_modulus",
    "universal_anisotropy",
    "homogeneous_poisson",
    "e_total",
    "e_ionic",
    "e_electronic",
    "n",
    "e_ij_max",
    "weighted_surface_energy_EV_PER_ANG2",
    "weighted_surface_energy",
    "weighted_work_function",
    "surface_anisotropy",
    "shape_factor",
    "has_reconstructed",
    "possible_species",
    "has_props",
    "theoretical",
    "database_IDs"
  ]
}
