{"builder_meta": null, "nsites": null, "elements": null, "nelements": null, "composition": null, "composition_reduced": null, "formula_pretty": "Si2Ni3", "formula_anonymous": "A2B3", "chemsys": null, "volume": 444.78371559932475, "density": 6.936624293361434, "density_atomic": 11.11959288998312, "symmetry": null, "property_name": null, "material_id": "mp-29667", "deprecated": null, "deprecation_reasons": null, "last_updated": null, "origins": null, "warnings": null, "structure": {"@module": "pymatgen.core.structure", "@class": "Structure", "charge": 0, "lattice": {"matrix": [[5.34964613, -6.05065973, 0.0], [5.34964613, 6.05065973, 0.0], [-0.0, 0.0, 6.87054356]], "pbc": [true, true, true], "a": 8.07645942752563, "b": 8.07645942752563, "c": 6.87054356, "alpha": 90.0, "beta": 90.0, "gamma": 97.0374624526739, "volume": 444.78371559932475}, "properties": {}, "sites": [{"species": [{"element": "Si", "occu": 1}], "abc": [0.59257659, 0.59257659, 0.25], "properties": {"magmom": -0.0}, "label": "Si", "xyz": [6.340150122844193, 0.0, 1.71763589]}, {"species": [{"element": "Si", "occu": 1}], "abc": [0.40742341, 0.40742341, 0.75], "properties": {"magmom": -0.0}, "label": "Si", "xyz": [4.359142137155806, 0.0, 5.152907669999999]}, {"species": [{"element": "Si", "occu": 1}], "abc": [0.8445039400000001, 0.8445039400000001, 0.75], "properties": {"magmom": -0.0}, "label": "Si", "xyz": [9.035594468781506, 0.0, 5.152907669999999]}, {"species": [{"element": "Si", "occu": 1}], "abc": [0.15549606, 0.15549606, 0.25], "properties": {"magmom": -0.0}, "label": "Si", "xyz": [1.6636977912184956, 0.0, 1.71763589]}, {"species": [{"element": "Si", "occu": 1}], "abc": [0.49300822, 0.18922518, 0.45780596], "properties": {"magmom": -0.0}, "label": "Si", "xyz": [3.6497072680667415, -1.838087806784979, 3.1453757902076176]}, {"species": [{"element": "Si", "occu": 1}], "abc": [0.50699178, 0.81077482, 0.9578059600000001], "properties": {"magmom": -0.0}, "label": "Si", "xyz": [7.0495849919332585, 1.8380878067849786, 6.580647570207618]}, {"species": [{"element": "Si", "occu": 1}], "abc": [0.81077482, 0.50699178, 0.9578059600000001], "properties": {"magmom": -0.0}, "label": "Si", "xyz": [7.0495849919332585, -1.8380878067849786, 6.580647570207618]}, {"species": [{"element": "Si", "occu": 1}], "abc": [0.18922518, 0.49300822, 0.45780596], "properties": {"magmom": -0.0}, "label": "Si", "xyz": [3.6497072680667415, 1.838087806784979, 3.1453757902076176]}, {"species": [{"element": "Si", "occu": 1}], "abc": [0.49300822, 0.18922518, 0.04219404], "properties": {"magmom": -0.0}, "label": "Si", "xyz": [3.6497072680667415, -1.838087806784979, 0.2898959897923824]}, {"species": [{"element": "Si", "occu": 1}], "abc": [0.50699178, 0.81077482, 0.54219404], "properties": {"magmom": -0.0}, "label": "Si", "xyz": [7.0495849919332585, 1.8380878067849786, 3.7251677697923826]}, {"species": [{"element": "Si", "occu": 1}], "abc": [0.81077482, 0.50699178, 0.54219404], "properties": {"magmom": -0.0}, "label": "Si", "xyz": [7.0495849919332585, -1.8380878067849786, 3.7251677697923826]}, {"species": [{"element": "Si", "occu": 1}], "abc": [0.18922518, 0.49300822, 0.04219404], "properties": {"magmom": -0.0}, "label": "Si", "xyz": [3.6497072680667415, 1.838087806784979, 0.2898959897923824]}, {"species": [{"element": "Si", "occu": 1}], "abc": [0.17527621000000002, 0.93838853, 0.75], "properties": {"magmom": -0.0}, "label": "Si", "xyz": [5.957712266458456, 4.617332984090873, 5.152907669999999]}, {"species": [{"element": "Si", "occu": 1}], "abc": [0.8247237900000001, 0.06161147, 0.25], "properties": {"magmom": -0.0}, "label": "Si", "xyz": [4.741579993541544, -4.617332984090873, 1.71763589]}, {"species": [{"element": "Si", "occu": 1}], "abc": [0.06161147, 0.8247237900000001, 0.25], "properties": {"magmom": -0.0}, "label": "Si", "xyz": [4.741579993541544, 4.617332984090873, 1.71763589]}, {"species": [{"element": "Si", "occu": 1}], "abc": [0.93838853, 0.17527621000000002, 0.75], "properties": {"magmom": -0.0}, "label": "Si", "xyz": [5.957712266458456, -4.617332984090873, 5.152907669999999]}, {"species": [{"element": "Ni", "occu": 1}], "abc": [0.0, 0.0, 0.5], "properties": {"magmom": -0.0}, "label": "Ni", "xyz": [0.0, 0.0, 3.43527178]}, {"species": [{"element": "Ni", "occu": 1}], "abc": [0.0, 0.0, -0.0], "properties": {"magmom": -0.0}, "label": "Ni", "xyz": [0.0, 0.0, 0.0]}, {"species": [{"element": "Ni", "occu": 1}], "abc": [0.23467731, 0.23467731, 0.561513399999999], "properties": {"magmom": 0.0}, "label": "Ni", "xyz": [2.5108811264806206, 0.0, 3.8579022742236972]}, {"species": [{"element": "Ni", "occu": 1}], "abc": [0.76532269, 0.76532269, 0.061513399999999004], "properties": {"magmom": 0.0}, "label": "Ni", "xyz": [8.188411133519379, 0.0, 0.42263049422369714]}, {"species": [{"element": "Ni", "occu": 1}], "abc": [0.23467731, 0.23467731, 0.9384866], "properties": {"magmom": 0.0}, "label": "Ni", "xyz": [2.5108811264806206, 0.0, 6.447913065776295]}, {"species": [{"element": "Ni", "occu": 1}], "abc": [0.76532269, 0.76532269, 0.4384866], "properties": {"magmom": 0.0}, "label": "Ni", "xyz": [8.188411133519379, 0.0, 3.012641285776296]}, {"species": [{"element": "Ni", "occu": 1}], "abc": [0.38280381, 0.38280381, 0.25], "properties": {"magmom": 0.0}, "label": "Ni", "xyz": [4.095729841431511, 0.0, 1.71763589]}, {"species": [{"element": "Ni", "occu": 1}], "abc": [0.61719619, 0.61719619, 0.75], "properties": {"magmom": 0.0}, "label": "Ni", "xyz": [6.603562418568489, 0.0, 5.152907669999999]}, {"species": [{"element": "Ni", "occu": 1}], "abc": [0.67796841, 0.31495527, 0.75], "properties": {"magmom": -0.0}, "label": "Ni", "xyz": [5.311790322097359, -2.196468987658852, 5.152907669999999]}, {"species": [{"element": "Ni", "occu": 1}], "abc": [0.32203159000000003, 0.68504473, 0.25], "properties": {"magmom": -0.0}, "label": "Ni", "xyz": [5.387501937902641, 2.196468987658852, 1.71763589]}, {"species": [{"element": "Ni", "occu": 1}], "abc": [0.68504473, 0.32203159000000003, 0.25], "properties": {"magmom": -0.0}, "label": "Ni", "xyz": [5.387501937902641, -2.196468987658852, 1.71763589]}, {"species": [{"element": "Ni", "occu": 1}], "abc": [0.31495527, 0.67796841, 0.75], "properties": {"magmom": -0.0}, "label": "Ni", "xyz": [5.311790322097359, 2.196468987658852, 5.152907669999999]}, {"species": [{"element": "Ni", "occu": 1}], "abc": [0.44334484, 0.049805180000000004, 0.75], "properties": {"magmom": -0.0}, "label": "Ni", "xyz": [2.638178096002423, -2.3811745729198917, 5.152907669999999]}, {"species": [{"element": "Ni", "occu": 1}], "abc": [0.55665516, 0.95019482, 0.25], "properties": {"magmom": -0.0}, "label": "Ni", "xyz": [8.061114163997578, 2.381174572919891, 1.71763589]}, {"species": [{"element": "Ni", "occu": 1}], "abc": [0.95019482, 0.55665516, 0.25], "properties": {"magmom": -0.0}, "label": "Ni", "xyz": [8.061114163997578, -2.381174572919891, 1.71763589]}, {"species": [{"element": "Ni", "occu": 1}], "abc": [0.049805180000000004, 0.44334484, 0.75], "properties": {"magmom": -0.0}, "label": "Ni", "xyz": [2.638178096002423, 2.3811745729198917, 5.152907669999999]}, {"species": [{"element": "Ni", "occu": 1}], "abc": [0.29099087, 0.94607872, 0.43994073], "properties": {"magmom": -0.0}, "label": "Ni", "xyz": [6.617884544684187, 3.9637136736072804, 3.022631949283199]}, {"species": [{"element": "Ni", "occu": 1}], "abc": [0.70900913, 0.05392128, 0.93994073], "properties": {"magmom": -0.0}, "label": "Ni", "xyz": [4.081407715315813, -3.9637136736072796, 6.457903729283198]}, {"species": [{"element": "Ni", "occu": 1}], "abc": [0.05392128, 0.70900913, 0.93994073], "properties": {"magmom": -0.0}, "label": "Ni", "xyz": [4.081407715315813, 3.9637136736072796, 6.457903729283198]}, {"species": [{"element": "Ni", "occu": 1}], "abc": [0.94607872, 0.29099087, 0.43994073], "properties": {"magmom": -0.0}, "label": "Ni", "xyz": [6.617884544684187, -3.9637136736072804, 3.022631949283199]}, {"species": [{"element": "Ni", "occu": 1}], "abc": [0.29099087, 0.94607872, 0.06005927], "properties": {"magmom": -0.0}, "label": "Ni", "xyz": [6.617884544684187, 3.9637136736072804, 0.41263983071680116]}, {"species": [{"element": "Ni", "occu": 1}], "abc": [0.70900913, 0.05392128, 0.56005927], "properties": {"magmom": -0.0}, "label": "Ni", "xyz": [4.081407715315813, -3.9637136736072796, 3.847911610716801]}, {"species": [{"element": "Ni", "occu": 1}], "abc": [0.05392128, 0.70900913, 0.56005927], "properties": {"magmom": -0.0}, "label": "Ni", "xyz": [4.081407715315813, 3.9637136736072796, 3.847911610716801]}, {"species": [{"element": "Ni", "occu": 1}], "abc": [0.94607872, 0.29099087, 0.06005927], "properties": {"magmom": -0.0}, "label": "Ni", "xyz": [6.617884544684187, -3.9637136736072804, 0.41263983071680116]}]}, "task_ids": null, "uncorrected_energy_per_atom": null, "energy_per_atom": -11.197774746499999, "formation_energy_per_atom": -0.499238612499999, "energy_above_hull": 0.0034002255000010004, "is_stable": false, "equilibrium_reaction_energy_per_atom": null, "decomposes_to": null, "xas": null, "grain_boundaries": null, "band_gap": 0.0, "cbm": null, "vbm": null, "efermi": 9.86050604, "is_gap_direct": null, "is_metal": null, "es_source_calc_id": null, "bandstructure": null, "dos": null, "dos_energy_up": null, "dos_energy_down": null, "is_magnetic": null, "ordering": null, "total_magnetization": 2e-06, "total_magnetization_normalized_vol": null, "total_magnetization_normalized_formula_units": null, "num_magnetic_sites": null, "num_unique_magnetic_sites": null, "types_of_magnetic_species": null, "bulk_modulus": null, "shear_modulus": null, "universal_anisotropy": null, "homogeneous_poisson": null, "e_total": null, "e_ionic": null, "e_electronic": null, "n": null, "e_ij_max": null, "weighted_surface_energy_EV_PER_ANG2": null, "weighted_surface_energy": null, "weighted_work_function": null, "surface_anisotropy": null, "shape_factor": null, "has_reconstructed": null, "possible_species": null, "has_props": null, "theoretical": null, "database_IDs": null, "fields_not_requested": ["builder_meta", "nsites", "elements", "nelements", "composition", "composition_reduced", "chemsys", "symmetry", "property_name", "deprecated", "deprecation_reasons", "last_updated", "origins", "warnings", "task_ids", "uncorrected_energy_per_atom", "equilibrium_reaction_energy_per_atom", "decomposes_to", "xas", "grain_boundaries", "cbm", "vbm", "is_gap_direct", "is_metal", "es_source_calc_id", "bandstructure", "dos", "dos_energy_up", "dos_energy_down", "is_magnetic", "ordering", "total_magnetization_normalized_vol", "total_magnetization_normalized_formula_units", "num_magnetic_sites", "num_unique_magnetic_sites", "types_of_magnetic_species", "bulk_modulus", "shear_modulus", "universal_anisotropy", "homogeneous_poisson", "e_total", "e_ionic", "e_electronic", "n", "e_ij_max", "weighted_surface_energy_EV_PER_ANG2", "weighted_surface_energy", "weighted_work_function", "surface_anisotropy", "shape_factor", "has_reconstructed", "possible_species", "has_props", "theoretical", "database_IDs"]}