{
  "builder_meta": null,
  "nsites": null,
  "elements": null,
  "nelements": null,
  "composition": null,
  "composition_reduced": null,
  "formula_pretty": "Si2O",
  "formula_anonymous": "AB2",
  "chemsys": null,
  "volume": 44.23543796551016,
  "density": 2.709180109069742,
  "density_atomic": 14.745145988503387,
  "symmetry": null,
  "property_name": null,
  "material_id": "mp-1063118",
  "deprecated": null,
  "deprecation_reasons": null,
  "last_updated": null,
  "origins": null,
  "warnings": null,
  "structure": {
    "@module": "pymatgen.core.structure",
    "@class": "Structure",
    "charge": 0,
    "lattice": {
      "matrix": [
        [1.546764, 3.516228, 0.0],
        [-1.546764, 3.516228, 0.0],
        [0.0, 1.823669, 4.066673]
      ],
      "pbc": [true, true, true],
      "a": 3.8413979512255687,
      "b": 3.8413979512255687,
      "c": 4.4568596467120205,
      "alpha": 68.0037644846937,
      "beta": 68.0037644846937,
      "gamma": 47.488713763508905,
      "volume": 44.23543796551016
    },
    "properties": {},
    "sites": [
      {
        "species": [{ "element": "Si", "occu": 1 }],
        "abc": [0.652357, 0.652357, 0.9377489999999991],
        "properties": { "magmom": 0.0 },
        "label": "Si",
        "xyz": [0.0, 6.297815679872998, 3.813518539076996]
      },
      {
        "species": [{ "element": "Si", "occu": 1 }],
        "abc": [0.288871, 0.288871, 0.206240999999999],
        "properties": { "magmom": 0.0 },
        "label": "Si",
        "xyz": [0.0, 2.407587915404998, 0.8387147061929959]
      },
      {
        "species": [{ "element": "O", "occu": 1 }],
        "abc": [0.725472, 0.725472, 0.5160100000000001],
        "properties": { "magmom": 0.0 },
        "label": "O",
        "xyz": [0.0, 6.042881359921999, 2.09844393473]
      }
    ]
  },
  "task_ids": null,
  "uncorrected_energy_per_atom": null,
  "energy_per_atom": -6.10415095,
  "formation_energy_per_atom": -0.8379519283333331,
  "energy_above_hull": 0.798463743611111,
  "is_stable": false,
  "equilibrium_reaction_energy_per_atom": null,
  "decomposes_to": null,
  "xas": null,
  "grain_boundaries": null,
  "band_gap": 0.0,
  "cbm": null,
  "vbm": null,
  "efermi": 7.6063817799999995,
  "is_gap_direct": null,
  "is_metal": null,
  "es_source_calc_id": null,
  "bandstructure": null,
  "dos": null,
  "dos_energy_up": null,
  "dos_energy_down": null,
  "is_magnetic": null,
  "ordering": null,
  "total_magnetization": 0.0008014,
  "total_magnetization_normalized_vol": null,
  "total_magnetization_normalized_formula_units": null,
  "num_magnetic_sites": null,
  "num_unique_magnetic_sites": null,
  "types_of_magnetic_species": null,
  "bulk_modulus": null,
  "shear_modulus": null,
  "universal_anisotropy": null,
  "homogeneous_poisson": null,
  "e_total": null,
  "e_ionic": null,
  "e_electronic": null,
  "n": null,
  "e_ij_max": null,
  "weighted_surface_energy_EV_PER_ANG2": null,
  "weighted_surface_energy": null,
  "weighted_work_function": null,
  "surface_anisotropy": null,
  "shape_factor": null,
  "has_reconstructed": null,
  "possible_species": null,
  "has_props": null,
  "theoretical": null,
  "database_IDs": null,
  "fields_not_requested": [
    "builder_meta",
    "nsites",
    "elements",
    "nelements",
    "composition",
    "composition_reduced",
    "chemsys",
    "symmetry",
    "property_name",
    "deprecated",
    "deprecation_reasons",
    "last_updated",
    "origins",
    "warnings",
    "task_ids",
    "uncorrected_energy_per_atom",
    "equilibrium_reaction_energy_per_atom",
    "decomposes_to",
    "xas",
    "grain_boundaries",
    "cbm",
    "vbm",
    "is_gap_direct",
    "is_metal",
    "es_source_calc_id",
    "bandstructure",
    "dos",
    "dos_energy_up",
    "dos_energy_down",
    "is_magnetic",
    "ordering",
    "total_magnetization_normalized_vol",
    "total_magnetization_normalized_formula_units",
    "num_magnetic_sites",
    "num_unique_magnetic_sites",
    "types_of_magnetic_species",
    "bulk_modulus",
    "shear_modulus",
    "universal_anisotropy",
    "homogeneous_poisson",
    "e_total",
    "e_ionic",
    "e_electronic",
    "n",
    "e_ij_max",
    "weighted_surface_energy_EV_PER_ANG2",
    "weighted_surface_energy",
    "weighted_work_function",
    "surface_anisotropy",
    "shape_factor",
    "has_reconstructed",
    "possible_species",
    "has_props",
    "theoretical",
    "database_IDs"
  ]
}
