{
  "builder_meta": null,
  "nsites": null,
  "elements": null,
  "nelements": null,
  "composition": null,
  "composition_reduced": null,
  "formula_pretty": "Si2O5",
  "formula_anonymous": "A2B5",
  "chemsys": null,
  "volume": 193.8522878150404,
  "density": 2.332830694642392,
  "density_atomic": 13.8465919867886,
  "symmetry": null,
  "property_name": null,
  "material_id": "mp-862998",
  "deprecated": null,
  "deprecation_reasons": null,
  "last_updated": null,
  "origins": null,
  "warnings": null,
  "structure": {
    "@module": "pymatgen.core.structure",
    "@class": "Structure",
    "charge": 0.0,
    "lattice": {
      "matrix": [
        [-2.51461974, 3.06809607, 6.28159113],
        [2.51461974, -3.06809607, 6.28159113],
        [2.51461974, 3.06809607, -6.28159113]
      ],
      "pbc": [true, true, true],
      "a": 7.429327900694772,
      "b": 7.429327900694772,
      "c": 7.429327900694772,
      "alpha": 140.43238088399343,
      "beta": 131.2168042354824,
      "gamma": 64.5461806849302,
      "volume": 193.8522878150404
    },
    "properties": {},
    "sites": [
      {
        "species": [{ "element": "Si", "occu": 1 }],
        "abc": [0.51029149, 0.568070899999999, 0.84729538],
        "properties": { "magmom": 0.0 },
        "label": "Si",
        "xyz": [2.2759189331103524, 2.4223108447592407, 1.4514684804516138]
      },
      {
        "species": [{ "element": "Si", "occu": 1 }],
        "abc": [0.48970851, 0.33700389000000003, 0.057778420000000004],
        "properties": { "magmom": 0.0 },
        "label": "Si",
        "xyz": [-0.2387032963631879, 0.6457821878256527, 4.830128868323597]
      },
      {
        "species": [{ "element": "Si", "occu": 1 }],
        "abc": [0.77922548, 0.83700389, 0.84729538],
        "properties": { "magmom": 0.0 },
        "label": "Si",
        "xyz": [2.2759164184906147, 2.422313912855308, 4.830128931139508]
      },
      {
        "species": [{ "element": "Si", "occu": 1 }],
        "abc": [0.22077452, 0.0680709, 0.057778420000000004],
        "properties": { "magmom": 0.0 },
        "label": "Si",
        "xyz": [-0.23870078174344797, 0.6457791197295828, 1.45146841763571]
      },
      {
        "species": [{ "element": "O", "occu": 1 }],
        "abc": [0.5, 0.49387329, 0.99387329],
        "properties": { "magmom": -0.0 },
        "label": "O",
        "xyz": [2.4838070481854895, 3.06809607, -8.881784197001252e-16]
      },
      {
        "species": [{ "element": "O", "occu": 1 }],
        "abc": [-0.0, 0.99387329, 0.99387329],
        "properties": { "magmom": -0.0 },
        "label": "O",
        "xyz": [4.99842678818549, 0.0, 0.0]
      },
      {
        "species": [{ "element": "O", "occu": 1 }],
        "abc": [0.43908374, 0.2860511, 0.46093582],
        "properties": { "magmom": -0.0 },
        "label": "O",
        "xyz": [0.7742594144367734, 1.8837142192299523, 1.6595902205866926]
      },
      {
        "species": [{ "element": "O", "occu": 1 }],
        "abc": [0.56091626, 0.021851080000000002, 0.8469673600000001],
        "properties": { "magmom": -0.0 },
        "label": "O",
        "xyz": [0.7742568998170332, 4.252480988866118, -1.659596502177823]
      },
      {
        "species": [{ "element": "O", "occu": 1 }],
        "abc": [0.67488472, 0.52185108, 0.46093582],
        "properties": { "magmom": -0.0 },
        "label": "O",
        "xyz": [0.7742568998170334, 1.8837172873260222, 4.621994627822176]
      },
      {
        "species": [{ "element": "O", "occu": 1 }],
        "abc": [0.32511528, 0.7860511, 0.8469673600000001],
        "properties": { "magmom": -0.0 },
        "label": "O",
        "xyz": [3.2888791544367733, 1.184381850770048, 1.6595902205866917]
      },
      {
        "species": [{ "element": "O", "occu": 1 }],
        "abc": [0.7965906500000001, 0.71347572, 0.12516267],
        "properties": { "magmom": 0.0 },
        "label": "O",
        "xyz": [0.10573407702638743, 0.6390156860290321, 8.699398797824182]
      },
      {
        "species": [{ "element": "O", "occu": 1 }],
        "abc": [0.20340935000000002, 0.32857302, 0.91688507],
        "properties": { "magmom": 0.0 },
        "label": "O",
        "xyz": [2.6203563316461276, 2.429077315874898, -2.417801386233051]
      },
      {
        "species": [{ "element": "O", "occu": 1 }],
        "abc": [0.91168695, 0.82857302, 0.12516267],
        "properties": { "magmom": 0.0 },
        "label": "O",
        "xyz": [0.10573659164612786, 0.639012617932962, 10.145380873766948]
      },
      {
        "species": [{ "element": "O", "occu": 1 }],
        "abc": [0.08831305, 0.21347572, 0.91688507],
        "properties": { "magmom": 0.0 },
        "label": "O",
        "xyz": [2.6203538170263876, 2.429080383970968, -3.863783462175819]
      }
    ]
  },
  "task_ids": null,
  "uncorrected_energy_per_atom": null,
  "energy_per_atom": -7.31173409,
  "formation_energy_per_atom": -2.227385363571429,
  "energy_above_hull": 0.5778986454761901,
  "is_stable": false,
  "equilibrium_reaction_energy_per_atom": null,
  "decomposes_to": null,
  "xas": null,
  "grain_boundaries": null,
  "band_gap": 3.0491,
  "cbm": null,
  "vbm": null,
  "efermi": 0.68356242,
  "is_gap_direct": null,
  "is_metal": null,
  "es_source_calc_id": null,
  "bandstructure": null,
  "dos": null,
  "dos_energy_up": null,
  "dos_energy_down": null,
  "is_magnetic": null,
  "ordering": null,
  "total_magnetization": 0.0,
  "total_magnetization_normalized_vol": null,
  "total_magnetization_normalized_formula_units": null,
  "num_magnetic_sites": null,
  "num_unique_magnetic_sites": null,
  "types_of_magnetic_species": null,
  "bulk_modulus": null,
  "shear_modulus": null,
  "universal_anisotropy": null,
  "homogeneous_poisson": null,
  "e_total": null,
  "e_ionic": null,
  "e_electronic": null,
  "n": null,
  "e_ij_max": null,
  "weighted_surface_energy_EV_PER_ANG2": null,
  "weighted_surface_energy": null,
  "weighted_work_function": null,
  "surface_anisotropy": null,
  "shape_factor": null,
  "has_reconstructed": null,
  "possible_species": null,
  "has_props": null,
  "theoretical": null,
  "database_IDs": null,
  "fields_not_requested": [
    "builder_meta",
    "nsites",
    "elements",
    "nelements",
    "composition",
    "composition_reduced",
    "chemsys",
    "symmetry",
    "property_name",
    "deprecated",
    "deprecation_reasons",
    "last_updated",
    "origins",
    "warnings",
    "task_ids",
    "uncorrected_energy_per_atom",
    "equilibrium_reaction_energy_per_atom",
    "decomposes_to",
    "xas",
    "grain_boundaries",
    "cbm",
    "vbm",
    "is_gap_direct",
    "is_metal",
    "es_source_calc_id",
    "bandstructure",
    "dos",
    "dos_energy_up",
    "dos_energy_down",
    "is_magnetic",
    "ordering",
    "total_magnetization_normalized_vol",
    "total_magnetization_normalized_formula_units",
    "num_magnetic_sites",
    "num_unique_magnetic_sites",
    "types_of_magnetic_species",
    "bulk_modulus",
    "shear_modulus",
    "universal_anisotropy",
    "homogeneous_poisson",
    "e_total",
    "e_ionic",
    "e_electronic",
    "n",
    "e_ij_max",
    "weighted_surface_energy_EV_PER_ANG2",
    "weighted_surface_energy",
    "weighted_work_function",
    "surface_anisotropy",
    "shape_factor",
    "has_reconstructed",
    "possible_species",
    "has_props",
    "theoretical",
    "database_IDs"
  ]
}
