{
  "builder_meta": null,
  "nsites": null,
  "elements": null,
  "nelements": null,
  "composition": null,
  "composition_reduced": null,
  "formula_pretty": "Si2Os",
  "formula_anonymous": "AB2",
  "chemsys": null,
  "volume": 339.3463363824886,
  "density": 9.645802949541919,
  "density_atomic": 14.13943068260369,
  "symmetry": null,
  "property_name": null,
  "material_id": "mp-17123",
  "deprecated": null,
  "deprecation_reasons": null,
  "last_updated": null,
  "origins": null,
  "warnings": null,
  "structure": {
    "@module": "pymatgen.core.structure",
    "@class": "Structure",
    "charge": 0,
    "lattice": {
      "matrix": [
        [6.50687331, -0.012175799999999001, -0.0],
        [-1.4424130800000001, 6.34499866, 0.0],
        [-0.0, 0.0, 8.22288206]
      ],
      "pbc": [true, true, true],
      "a": 6.506884701798241,
      "b": 6.50688585183088,
      "c": 8.22288206,
      "alpha": 90.0,
      "beta": 90.0,
      "gamma": 102.91463823331576,
      "volume": 339.3463363824886
    },
    "properties": {},
    "sites": [
      {
        "species": [{ "element": "Si", "occu": 1 }],
        "abc": [0.9247761600000001, 0.178751, 0.7248103100000001],
        "properties": { "magmom": -0.0 },
        "label": "Si",
        "xyz": [5.7595685327652095, 1.1229149659047328, 5.9600296950020395]
      },
      {
        "species": [{ "element": "Si", "occu": 1 }],
        "abc": [0.57522384, 0.321249, 0.22481031],
        "properties": { "magmom": -0.0 },
        "label": "Si",
        "xyz": [3.27953489223479, 2.0313206640952686, 1.8485886650020387]
      },
      {
        "species": [{ "element": "Si", "occu": 1 }],
        "abc": [0.678751, 0.42477616, 0.77518969],
        "properties": { "magmom": -0.0 },
        "label": "Si",
        "xyz": [3.8038440767796367, 2.6869398295741465, 6.374293394997961]
      },
      {
        "species": [{ "element": "Si", "occu": 1 }],
        "abc": [0.821249, 0.07522384, 0.27518969],
        "properties": { "magmom": -0.0 },
        "label": "Si",
        "xyz": [5.235259348220363, 0.4672958004258552, 2.2628523649979613]
      },
      {
        "species": [{ "element": "Si", "occu": 1 }],
        "abc": [0.07522384, 0.821249, 0.27518969],
        "properties": { "magmom": -0.0 },
        "label": "Si",
        "xyz": [-0.6951083027652097, 5.209907894095268, 2.2628523649979613]
      },
      {
        "species": [{ "element": "Si", "occu": 1 }],
        "abc": [0.42477616, 0.678751, 0.77518969],
        "properties": { "magmom": -0.0 },
        "label": "Si",
        "xyz": [1.7849253377652092, 4.301502195904732, 6.374293394997961]
      },
      {
        "species": [{ "element": "Si", "occu": 1 }],
        "abc": [0.321249, 0.57522384, 0.22481031],
        "properties": { "magmom": -0.0 },
        "label": "Si",
        "xyz": [1.2606161532203624, 3.645883030425855, 1.8485886650020387]
      },
      {
        "species": [{ "element": "Si", "occu": 1 }],
        "abc": [0.178751, 0.9247761600000001, 0.7248103100000001],
        "properties": { "magmom": -0.0 },
        "label": "Si",
        "xyz": [-0.17079911822036298, 5.865527059574146, 5.9600296950020395]
      },
      {
        "species": [{ "element": "Si", "occu": 1 }],
        "abc": [0.59481757, 0.85059294, 0.05769116],
        "properties": { "magmom": 0.0 },
        "label": "Si",
        "xyz": [2.6434961881404013, 5.389768684736655, 0.47438760458458956]
      },
      {
        "species": [{ "element": "Si", "occu": 1 }],
        "abc": [0.90518243, 0.64940706, 0.55769116],
        "properties": { "magmom": 0.0 },
        "label": "Si",
        "xyz": [4.953194156859598, 4.109465605263346, 4.58582863458459]
      },
      {
        "species": [{ "element": "Si", "occu": 1 }],
        "abc": [0.35059294, 0.09481757, 0.44230884000000004],
        "properties": { "magmom": 0.0 },
        "label": "Si",
        "xyz": [2.1444977407786157, 0.5973486050756045, 3.6370534254154108]
      },
      {
        "species": [{ "element": "Si", "occu": 1 }],
        "abc": [0.14940706, 0.40518243, 0.94230884],
        "properties": { "magmom": 0.0 },
        "label": "Si",
        "xyz": [0.38773237422138407, 2.569062824924396, 7.74849445541541]
      },
      {
        "species": [{ "element": "Si", "occu": 1 }],
        "abc": [0.40518243, 0.14940706, 0.94230884],
        "properties": { "magmom": 0.0 },
        "label": "Si",
        "xyz": [2.420964041859598, 0.943054175263346, 7.74849445541541]
      },
      {
        "species": [{ "element": "Si", "occu": 1 }],
        "abc": [0.09481757, 0.35059294, 0.44230884000000004],
        "properties": { "magmom": 0.0 },
        "label": "Si",
        "xyz": [0.11126607314040149, 2.2233572547366545, 3.6370534254154108]
      },
      {
        "species": [{ "element": "Si", "occu": 1 }],
        "abc": [0.64940706, 0.90518243, 0.55769116],
        "properties": { "magmom": 0.0 },
        "label": "Si",
        "xyz": [2.919962489221384, 5.735474254924396, 4.58582863458459]
      },
      {
        "species": [{ "element": "Si", "occu": 1 }],
        "abc": [0.85059294, 0.59481757, 0.05769116],
        "properties": { "magmom": 0.0 },
        "label": "Si",
        "xyz": [4.676727855778616, 3.763760035075605, 0.47438760458458956]
      },
      {
        "species": [{ "element": "Os", "occu": 1 }],
        "abc": [0.81077405, 0.81077405, 0.8170556600000001],
        "properties": { "magmom": -0.0 },
        "label": "Os",
        "xyz": [4.1061329317410316, 5.134488438134784, 6.71855232863546]
      },
      {
        "species": [{ "element": "Os", "occu": 1 }],
        "abc": [0.68922595, 0.68922595, 0.31705566],
        "properties": { "magmom": -0.0 },
        "label": "Os",
        "xyz": [3.4905574132589683, 4.364745851865218, 2.6071112986354597]
      },
      {
        "species": [{ "element": "Os", "occu": 1 }],
        "abc": [0.31077405, 0.31077405, 0.68294434],
        "properties": { "magmom": -0.0 },
        "label": "Os",
        "xyz": [1.5739028167410314, 1.9680770081347834, 5.615770761364541]
      },
      {
        "species": [{ "element": "Os", "occu": 1 }],
        "abc": [0.18922595, 0.18922595, 0.18294434],
        "properties": { "magmom": -0.0 },
        "label": "Os",
        "xyz": [0.9583272982589683, 1.1983344218652172, 1.5043297313645405]
      },
      {
        "species": [{ "element": "Os", "occu": 1 }],
        "abc": [0.71589063, 0.28410937, 0.5],
        "properties": { "magmom": 0.0 },
        "label": "Os",
        "xyz": [4.248406561787526, 1.7939570308106911, 4.11144103]
      },
      {
        "species": [{ "element": "Os", "occu": 1 }],
        "abc": [0.78410937, 0.21589063, 0.0],
        "properties": { "magmom": 0.0 },
        "label": "Os",
        "xyz": [4.790696863212474, 1.3602785991893107, 0.0]
      },
      {
        "species": [{ "element": "Os", "occu": 1 }],
        "abc": [0.28410937, 0.71589063, 0.5],
        "properties": { "magmom": 0.0 },
        "label": "Os",
        "xyz": [0.8160536682124744, 4.5388658291893105, 4.11144103]
      },
      {
        "species": [{ "element": "Os", "occu": 1 }],
        "abc": [0.21589063, 0.78410937, 0.0],
        "properties": { "magmom": 0.0 },
        "label": "Os",
        "xyz": [0.27376336678752544, 4.9725442608106905, 0.0]
      }
    ]
  },
  "task_ids": null,
  "uncorrected_energy_per_atom": null,
  "energy_per_atom": -24.009273029166668,
  "formation_energy_per_atom": -0.49835368250000006,
  "energy_above_hull": 0.0,
  "is_stable": true,
  "equilibrium_reaction_energy_per_atom": null,
  "decomposes_to": null,
  "xas": null,
  "grain_boundaries": null,
  "band_gap": 0.6496999999999991,
  "cbm": null,
  "vbm": null,
  "efermi": 9.39199799,
  "is_gap_direct": null,
  "is_metal": null,
  "es_source_calc_id": null,
  "bandstructure": null,
  "dos": null,
  "dos_energy_up": null,
  "dos_energy_down": null,
  "is_magnetic": null,
  "ordering": null,
  "total_magnetization": 0.0,
  "total_magnetization_normalized_vol": null,
  "total_magnetization_normalized_formula_units": null,
  "num_magnetic_sites": null,
  "num_unique_magnetic_sites": null,
  "types_of_magnetic_species": null,
  "bulk_modulus": null,
  "shear_modulus": null,
  "universal_anisotropy": null,
  "homogeneous_poisson": null,
  "e_total": null,
  "e_ionic": null,
  "e_electronic": null,
  "n": null,
  "e_ij_max": null,
  "weighted_surface_energy_EV_PER_ANG2": null,
  "weighted_surface_energy": null,
  "weighted_work_function": null,
  "surface_anisotropy": null,
  "shape_factor": null,
  "has_reconstructed": null,
  "possible_species": null,
  "has_props": null,
  "theoretical": null,
  "database_IDs": null,
  "fields_not_requested": [
    "builder_meta",
    "nsites",
    "elements",
    "nelements",
    "composition",
    "composition_reduced",
    "chemsys",
    "symmetry",
    "property_name",
    "deprecated",
    "deprecation_reasons",
    "last_updated",
    "origins",
    "warnings",
    "task_ids",
    "uncorrected_energy_per_atom",
    "equilibrium_reaction_energy_per_atom",
    "decomposes_to",
    "xas",
    "grain_boundaries",
    "cbm",
    "vbm",
    "is_gap_direct",
    "is_metal",
    "es_source_calc_id",
    "bandstructure",
    "dos",
    "dos_energy_up",
    "dos_energy_down",
    "is_magnetic",
    "ordering",
    "total_magnetization_normalized_vol",
    "total_magnetization_normalized_formula_units",
    "num_magnetic_sites",
    "num_unique_magnetic_sites",
    "types_of_magnetic_species",
    "bulk_modulus",
    "shear_modulus",
    "universal_anisotropy",
    "homogeneous_poisson",
    "e_total",
    "e_ionic",
    "e_electronic",
    "n",
    "e_ij_max",
    "weighted_surface_energy_EV_PER_ANG2",
    "weighted_surface_energy",
    "weighted_work_function",
    "surface_anisotropy",
    "shape_factor",
    "has_reconstructed",
    "possible_species",
    "has_props",
    "theoretical",
    "database_IDs"
  ]
}
