{"builder_meta": null, "nsites": null, "elements": null, "nelements": null, "composition": null, "composition_reduced": null, "formula_pretty": "Si2Ru", "formula_anonymous": "AB2", "chemsys": null, "volume": 334.7715977756878, "density": 6.239593205782115, "density_atomic": 13.94881657398699, "symmetry": null, "property_name": null, "material_id": "mp-569815", "deprecated": null, "deprecation_reasons": null, "last_updated": null, "origins": null, "warnings": null, "structure": {"@module": "pymatgen.core.structure", "@class": "Structure", "charge": 0, "lattice": {"matrix": [[6.48151599, 0.00170523, 0.0], [-1.45540991, 6.31599769, 0.0], [0.0, 0.0, 8.17718301]], "pbc": [true, true, true], "a": 6.481516214315524, "b": 6.481515627244259, "c": 8.17718301, "alpha": 90.0, "beta": 90.0, "gamma": 102.96121309837498, "volume": 334.7715977756878}, "properties": {}, "sites": [{"species": [{"element": "Si", "occu": 1}], "abc": [0.09517623, 0.35038373, 0.55611986], "properties": {"magmom": -0.0}, "label": "Si", "xyz": [0.10693430366815349, 2.2131851266562665, 4.547493870715579]}, {"species": [{"element": "Si", "occu": 1}], "abc": [0.59517623, 0.85038373, 0.94388014], "properties": {"magmom": -0.0}, "label": "Si", "xyz": [2.6199873436681536, 5.372036586656266, 7.718280644284421]}, {"species": [{"element": "Si", "occu": 1}], "abc": [0.64961627, 0.90482377, 0.44388014000000003], "properties": {"magmom": -0.0}, "label": "Si", "xyz": [2.8936087597075963, 5.715972586329183, 3.6296891392844217]}, {"species": [{"element": "Si", "occu": 1}], "abc": [0.17767989, 0.9239124, 0.27516175], "properties": {"magmom": 0.0}, "label": "Si", "xyz": [-0.19303621479544275, 5.8357315692411795, 2.2500479871018673]}, {"species": [{"element": "Si", "occu": 1}], "abc": [0.423912399999999, 0.6776798900000001, 0.22483825000000002], "properties": {"magmom": 0.0}, "label": "Si", "xyz": [1.7612929712455598, 4.280947487941306, 1.8385435178981326]}, {"species": [{"element": "Si", "occu": 1}], "abc": [0.6776798900000001, 0.423912399999999, 0.22483825000000002], "properties": {"magmom": 0.0}, "label": "Si", "xyz": [3.775426735204559, 2.6785853392411743, 1.8385435178981326]}, {"species": [{"element": "Si", "occu": 1}], "abc": [0.35038373, 0.09517623, 0.55611986], "properties": {"magmom": -0.0}, "label": "Si", "xyz": [2.1324973202924036, 0.6017303336708165, 4.547493870715579]}, {"species": [{"element": "Si", "occu": 1}], "abc": [0.82232011, 0.076087599999999, 0.72483725], "properties": {"magmom": 0.0}, "label": "Si", "xyz": [5.219142294795445, 0.481971350758813, 5.927126845715122]}, {"species": [{"element": "Si", "occu": 1}], "abc": [0.9239124, 0.17767989, 0.27516175], "properties": {"magmom": 0.0}, "label": "Si", "xyz": [5.729755921245566, 1.1238012579413061, 2.2500479871018673]}, {"species": [{"element": "Si", "occu": 1}], "abc": [0.076087599999999, 0.82232011, 0.72483725], "properties": {"magmom": 0.0}, "label": "Si", "xyz": [-0.7036498412455725, 5.193901662058694, 5.927126845715122]}, {"species": [{"element": "Si", "occu": 1}], "abc": [0.40482377, 0.14961627, 0.05611986], "properties": {"magmom": -0.0}, "label": "Si", "xyz": [2.406118736331847, 0.9456663333437333, 0.45890236571557863]}, {"species": [{"element": "Si", "occu": 1}], "abc": [0.576087599999999, 0.32232011, 0.77516275], "properties": {"magmom": 0.0}, "label": "Si", "xyz": [3.264813108754428, 2.0367554320586936, 6.338647669284878]}, {"species": [{"element": "Si", "occu": 1}], "abc": [0.32232011, 0.576087599999999, 0.77516275], "properties": {"magmom": 0.0}, "label": "Si", "xyz": [1.2506793447954443, 3.6391175807588128, 6.338647669284878]}, {"species": [{"element": "Si", "occu": 1}], "abc": [0.14961627, 0.40482377, 0.05611986], "properties": {"magmom": -0.0}, "label": "Si", "xyz": [0.3805557197075966, 2.557121126329183, 0.45890236571557863]}, {"species": [{"element": "Si", "occu": 1}], "abc": [0.85038373, 0.59517623, 0.94388014], "properties": {"magmom": -0.0}, "label": "Si", "xyz": [4.645550360292404, 3.7605817936708164, 7.718280644284421]}, {"species": [{"element": "Si", "occu": 1}], "abc": [0.90482377, 0.64961627, 0.44388014000000003], "properties": {"magmom": -0.0}, "label": "Si", "xyz": [4.919171776331847, 4.104517793343733, 3.6296891392844217]}, {"species": [{"element": "Ru", "occu": 1}], "abc": [0.28499913, 0.71500087, 0.5], "properties": {"magmom": 0.0}, "label": "Ru", "xyz": [0.8066070663744669, 4.516429832334439, 4.088591505]}, {"species": [{"element": "Ru", "occu": 1}], "abc": [0.21500087, 0.78499913, 0.0], "properties": {"magmom": 0.0}, "label": "Ru", "xyz": [0.2510360636255331, 4.95841931766556, 0.0]}, {"species": [{"element": "Ru", "occu": 1}], "abc": [0.3113319, 0.3113319, 0.31729282000000003], "properties": {"magmom": 0.0}, "label": "Ru", "xyz": [1.564787155487952, 1.9669024537191477, 2.5945614568989885]}, {"species": [{"element": "Ru", "occu": 1}], "abc": [0.71500087, 0.28499913, 0.5], "properties": {"magmom": 0.0}, "label": "Ru", "xyz": [4.219499013625533, 1.8012730876655596, 4.088591505]}, {"species": [{"element": "Ru", "occu": 1}], "abc": [0.8113319, 0.8113319, 0.18270718], "properties": {"magmom": 0.0}, "label": "Ru", "xyz": [4.077840195487952, 5.125753913719148, 1.4940300481010118]}, {"species": [{"element": "Ru", "occu": 1}], "abc": [0.6886681, 0.6886681, 0.68270718], "properties": {"magmom": 0.0}, "label": "Ru", "xyz": [3.461318924512048, 4.350800466280852, 5.582621553101012]}, {"species": [{"element": "Ru", "occu": 1}], "abc": [0.78499913, 0.21500087, 0.0], "properties": {"magmom": 0.0}, "label": "Ru", "xyz": [4.7750700163744675, 1.3592836023344401, 0.0]}, {"species": [{"element": "Ru", "occu": 1}], "abc": [0.1886681, 0.1886681, 0.81729282], "properties": {"magmom": 0.0}, "label": "Ru", "xyz": [0.9482658845120482, 1.191949006280852, 6.683152961898989]}]}, "task_ids": null, "uncorrected_energy_per_atom": null, "energy_per_atom": -14.885761833333333, "formation_energy_per_atom": -0.561740338333334, "energy_above_hull": 0.0, "is_stable": true, "equilibrium_reaction_energy_per_atom": null, "decomposes_to": null, "xas": null, "grain_boundaries": null, "band_gap": 0.40700000000000003, "cbm": null, "vbm": null, "efermi": 9.87716065, "is_gap_direct": null, "is_metal": null, "es_source_calc_id": null, "bandstructure": null, "dos": null, "dos_energy_up": null, "dos_energy_down": null, "is_magnetic": null, "ordering": null, "total_magnetization": 0.0, "total_magnetization_normalized_vol": null, "total_magnetization_normalized_formula_units": null, "num_magnetic_sites": null, "num_unique_magnetic_sites": null, "types_of_magnetic_species": null, "bulk_modulus": null, "shear_modulus": null, "universal_anisotropy": null, "homogeneous_poisson": null, "e_total": null, "e_ionic": null, "e_electronic": null, "n": null, "e_ij_max": null, "weighted_surface_energy_EV_PER_ANG2": null, "weighted_surface_energy": null, "weighted_work_function": null, "surface_anisotropy": null, "shape_factor": null, "has_reconstructed": null, "possible_species": null, "has_props": null, "theoretical": null, "database_IDs": null, "fields_not_requested": ["builder_meta", "nsites", "elements", "nelements", "composition", "composition_reduced", "chemsys", "symmetry", "property_name", "deprecated", "deprecation_reasons", "last_updated", "origins", "warnings", "task_ids", "uncorrected_energy_per_atom", "equilibrium_reaction_energy_per_atom", "decomposes_to", "xas", "grain_boundaries", "cbm", "vbm", "is_gap_direct", "is_metal", "es_source_calc_id", "bandstructure", "dos", "dos_energy_up", "dos_energy_down", "is_magnetic", "ordering", "total_magnetization_normalized_vol", "total_magnetization_normalized_formula_units", "num_magnetic_sites", "num_unique_magnetic_sites", "types_of_magnetic_species", "bulk_modulus", "shear_modulus", "universal_anisotropy", "homogeneous_poisson", "e_total", "e_ionic", "e_electronic", "n", "e_ij_max", "weighted_surface_energy_EV_PER_ANG2", "weighted_surface_energy", "weighted_work_function", "surface_anisotropy", "shape_factor", "has_reconstructed", "possible_species", "has_props", "theoretical", "database_IDs"]}