{"builder_meta": null, "nsites": null, "elements": null, "nelements": null, "composition": null, "composition_reduced": null, "formula_pretty": "Si2Rh3", "formula_anonymous": "A2B3", "chemsys": null, "volume": 69.07600651914593, "density": 8.771641257171781, "density_atomic": 13.815201303829188, "symmetry": null, "property_name": null, "material_id": "mp-1207013", "deprecated": null, "deprecation_reasons": null, "last_updated": null, "origins": null, "warnings": null, "structure": {"@module": "pymatgen.core.structure", "@class": "Structure", "charge": 0, "lattice": {"matrix": [[-1.98473754, -3.43766823, 0.0], [-1.98473754, 3.43766823, -0.0], [0.0, 0.0, -5.06209372]], "pbc": [true, true, true], "a": 3.969476786962809, "b": 3.969476786962809, "c": 5.06209372, "alpha": 90.0, "beta": 90.0, "gamma": 120.00002845003218, "volume": 69.07600651914593}, "properties": {}, "sites": [{"species": [{"element": "Si", "occu": 1}], "abc": [0.666667, 0.333333, 0.80089014], "properties": {"magmom": 0.0}, "label": "Si", "xyz": [-1.9847375399999998, -1.14589170177882, -4.054180948103921]}, {"species": [{"element": "Si", "occu": 1}], "abc": [0.333333, 0.666667, 0.19910986], "properties": {"magmom": 0.0}, "label": "Si", "xyz": [-1.9847375399999998, 1.14589170177882, -1.0079127718960792]}, {"species": [{"element": "Rh", "occu": 1}], "abc": [0.666667, 0.333333, 0.32636032], "properties": {"magmom": -0.0}, "label": "Rh", "xyz": [-1.9847375399999998, -1.14589170177882, -1.6520665263291903]}, {"species": [{"element": "Rh", "occu": 1}], "abc": [0.333333, 0.666667, 0.67363968], "properties": {"magmom": -0.0}, "label": "Rh", "xyz": [-1.9847375399999998, 1.14589170177882, -3.4100271936708095]}, {"species": [{"element": "Rh", "occu": 1}], "abc": [-0.0, 0.0, 0.0], "properties": {"magmom": -0.0}, "label": "Rh", "xyz": [0.0, 0.0, 0.0]}]}, "task_ids": null, "uncorrected_energy_per_atom": null, "energy_per_atom": -18.84524752, "formation_energy_per_atom": -0.854004504000002, "energy_above_hull": 0.0, "is_stable": true, "equilibrium_reaction_energy_per_atom": null, "decomposes_to": null, "xas": null, "grain_boundaries": null, "band_gap": 0.0, "cbm": null, "vbm": null, "efermi": 7.98552817, "is_gap_direct": null, "is_metal": null, "es_source_calc_id": null, "bandstructure": null, "dos": null, "dos_energy_up": null, "dos_energy_down": null, "is_magnetic": null, "ordering": null, "total_magnetization": 4e-07, "total_magnetization_normalized_vol": null, "total_magnetization_normalized_formula_units": null, "num_magnetic_sites": null, "num_unique_magnetic_sites": null, "types_of_magnetic_species": null, "bulk_modulus": null, "shear_modulus": null, "universal_anisotropy": null, "homogeneous_poisson": null, "e_total": null, "e_ionic": null, "e_electronic": null, "n": null, "e_ij_max": null, "weighted_surface_energy_EV_PER_ANG2": null, "weighted_surface_energy": null, "weighted_work_function": null, "surface_anisotropy": null, "shape_factor": null, "has_reconstructed": null, "possible_species": null, "has_props": null, "theoretical": null, "database_IDs": null, "fields_not_requested": ["builder_meta", "nsites", "elements", "nelements", "composition", "composition_reduced", "chemsys", "symmetry", "property_name", "deprecated", "deprecation_reasons", "last_updated", "origins", "warnings", "task_ids", "uncorrected_energy_per_atom", "equilibrium_reaction_energy_per_atom", "decomposes_to", "xas", "grain_boundaries", "cbm", "vbm", "is_gap_direct", "is_metal", "es_source_calc_id", "bandstructure", "dos", "dos_energy_up", "dos_energy_down", "is_magnetic", "ordering", "total_magnetization_normalized_vol", "total_magnetization_normalized_formula_units", "num_magnetic_sites", "num_unique_magnetic_sites", "types_of_magnetic_species", "bulk_modulus", "shear_modulus", "universal_anisotropy", "homogeneous_poisson", "e_total", "e_ionic", "e_electronic", "n", "e_ij_max", "weighted_surface_energy_EV_PER_ANG2", "weighted_surface_energy", "weighted_work_function", "surface_anisotropy", "shape_factor", "has_reconstructed", "possible_species", "has_props", "theoretical", "database_IDs"]}