{
  "builder_meta": null,
  "nsites": null,
  "elements": null,
  "nelements": null,
  "composition": null,
  "composition_reduced": null,
  "formula_pretty": "Si2W3",
  "formula_anonymous": "A2B3",
  "chemsys": null,
  "volume": 146.34331315904961,
  "density": 13.790785846491135,
  "density_atomic": 14.634331315904962,
  "symmetry": null,
  "property_name": null,
  "material_id": "mp-1079377",
  "deprecated": null,
  "deprecation_reasons": null,
  "last_updated": null,
  "origins": null,
  "warnings": null,
  "structure": {
    "@module": "pymatgen.core.structure",
    "@class": "Structure",
    "charge": 0,
    "lattice": {
      "matrix": [
        [6.615847, 0.0, 0.0],
        [0.0, 6.615847, 0.0],
        [0.0, 0.0, 3.343505]
      ],
      "pbc": [true, true, true],
      "a": 6.615847,
      "b": 6.615847,
      "c": 3.343505,
      "alpha": 90.0,
      "beta": 90.0,
      "gamma": 90.0,
      "volume": 146.34331315904961
    },
    "properties": {},
    "sites": [
      {
        "species": [{ "element": "Si", "occu": 1 }],
        "abc": [0.133998, 0.633998, 0.0],
        "properties": { "magmom": -0.0 },
        "label": "Si",
        "xyz": [0.8865102663059999, 4.194433766305999, 0.0]
      },
      {
        "species": [{ "element": "Si", "occu": 1 }],
        "abc": [0.866001999999999, 0.366002, 0.0],
        "properties": { "magmom": 0.0 },
        "label": "Si",
        "xyz": [5.7293367336939935, 2.421413233694, 0.0]
      },
      {
        "species": [{ "element": "Si", "occu": 1 }],
        "abc": [0.633998, 0.866001999999999, 0.0],
        "properties": { "magmom": 0.0 },
        "label": "Si",
        "xyz": [4.194433766305999, 5.7293367336939935, 0.0]
      },
      {
        "species": [{ "element": "Si", "occu": 1 }],
        "abc": [0.366002, 0.133998, 0.0],
        "properties": { "magmom": -0.0 },
        "label": "Si",
        "xyz": [2.421413233694, 0.8865102663059999, 0.0]
      },
      {
        "species": [{ "element": "W", "occu": 1 }],
        "abc": [0.5, 0.5, 0.0],
        "properties": { "magmom": -0.0 },
        "label": "W",
        "xyz": [3.3079235, 3.3079235, 0.0]
      },
      {
        "species": [{ "element": "W", "occu": 1 }],
        "abc": [0.0, 0.0, 0.0],
        "properties": { "magmom": 0.0 },
        "label": "W",
        "xyz": [0.0, 0.0, 0.0]
      },
      {
        "species": [{ "element": "W", "occu": 1 }],
        "abc": [0.659841, 0.159840999999999, 0.5],
        "properties": { "magmom": 0.001 },
        "label": "W",
        "xyz": [4.365407100326999, 1.0574836003269934, 1.6717525]
      },
      {
        "species": [{ "element": "W", "occu": 1 }],
        "abc": [0.340159, 0.840159, 0.5],
        "properties": { "magmom": -0.0 },
        "label": "W",
        "xyz": [2.2504398996729997, 5.5583633996729995, 1.6717525]
      },
      {
        "species": [{ "element": "W", "occu": 1 }],
        "abc": [0.159840999999999, 0.340159, 0.5],
        "properties": { "magmom": -0.001 },
        "label": "W",
        "xyz": [1.0574836003269934, 2.2504398996729997, 1.6717525]
      },
      {
        "species": [{ "element": "W", "occu": 1 }],
        "abc": [0.840159, 0.659841, 0.5],
        "properties": { "magmom": 0.0 },
        "label": "W",
        "xyz": [5.5583633996729995, 4.365407100326999, 1.6717525]
      }
    ]
  },
  "task_ids": null,
  "uncorrected_energy_per_atom": null,
  "energy_per_atom": -34.272061077000004,
  "formation_energy_per_atom": 0.058121388999995006,
  "energy_above_hull": 0.23805510900000101,
  "is_stable": false,
  "equilibrium_reaction_energy_per_atom": null,
  "decomposes_to": null,
  "xas": null,
  "grain_boundaries": null,
  "band_gap": 0.0,
  "cbm": null,
  "vbm": null,
  "efermi": 9.01315848,
  "is_gap_direct": null,
  "is_metal": null,
  "es_source_calc_id": null,
  "bandstructure": null,
  "dos": null,
  "dos_energy_up": null,
  "dos_energy_down": null,
  "is_magnetic": null,
  "ordering": null,
  "total_magnetization": 1.9600000000000002e-5,
  "total_magnetization_normalized_vol": null,
  "total_magnetization_normalized_formula_units": null,
  "num_magnetic_sites": null,
  "num_unique_magnetic_sites": null,
  "types_of_magnetic_species": null,
  "bulk_modulus": null,
  "shear_modulus": null,
  "universal_anisotropy": null,
  "homogeneous_poisson": null,
  "e_total": null,
  "e_ionic": null,
  "e_electronic": null,
  "n": null,
  "e_ij_max": null,
  "weighted_surface_energy_EV_PER_ANG2": null,
  "weighted_surface_energy": null,
  "weighted_work_function": null,
  "surface_anisotropy": null,
  "shape_factor": null,
  "has_reconstructed": null,
  "possible_species": null,
  "has_props": null,
  "theoretical": null,
  "database_IDs": null,
  "fields_not_requested": [
    "builder_meta",
    "nsites",
    "elements",
    "nelements",
    "composition",
    "composition_reduced",
    "chemsys",
    "symmetry",
    "property_name",
    "deprecated",
    "deprecation_reasons",
    "last_updated",
    "origins",
    "warnings",
    "task_ids",
    "uncorrected_energy_per_atom",
    "equilibrium_reaction_energy_per_atom",
    "decomposes_to",
    "xas",
    "grain_boundaries",
    "cbm",
    "vbm",
    "is_gap_direct",
    "is_metal",
    "es_source_calc_id",
    "bandstructure",
    "dos",
    "dos_energy_up",
    "dos_energy_down",
    "is_magnetic",
    "ordering",
    "total_magnetization_normalized_vol",
    "total_magnetization_normalized_formula_units",
    "num_magnetic_sites",
    "num_unique_magnetic_sites",
    "types_of_magnetic_species",
    "bulk_modulus",
    "shear_modulus",
    "universal_anisotropy",
    "homogeneous_poisson",
    "e_total",
    "e_ionic",
    "e_electronic",
    "n",
    "e_ij_max",
    "weighted_surface_energy_EV_PER_ANG2",
    "weighted_surface_energy",
    "weighted_work_function",
    "surface_anisotropy",
    "shape_factor",
    "has_reconstructed",
    "possible_species",
    "has_props",
    "theoretical",
    "database_IDs"
  ]
}
