{
  "builder_meta": null,
  "nsites": null,
  "elements": null,
  "nelements": null,
  "composition": null,
  "composition_reduced": null,
  "formula_pretty": "Si3Ag",
  "formula_anonymous": "AB3",
  "chemsys": null,
  "volume": 133.89696762610626,
  "density": 4.765314340794717,
  "density_atomic": 16.737120953263283,
  "symmetry": null,
  "property_name": null,
  "material_id": "mp-1248087",
  "deprecated": null,
  "deprecation_reasons": null,
  "last_updated": null,
  "origins": null,
  "warnings": null,
  "structure": {
    "@module": "pymatgen.core.structure",
    "@class": "Structure",
    "charge": 0,
    "lattice": {
      "matrix": [
        [5.349173, 0.138156, -1.137932],
        [-2.5636010000000002, 4.810195, 1.123802],
        [-0.853603999999999, 0.490733, 5.375567]
      ],
      "pbc": [true, true, true],
      "a": 5.47061496551247,
      "b": 5.565335296316835,
      "c": 5.4649958131359995,
      "alpha": 69.6236384144694,
      "beta": 110.79736452547421,
      "gamma": 118.07240125605077,
      "volume": 133.89696762610626
    },
    "properties": {},
    "sites": [
      {
        "species": [{ "element": "Si", "occu": 1 }],
        "abc": [0.142785, 0.292524, 0.248911],
        "properties": { "magmom": 0.0 },
        "label": "Si",
        "xyz": [-0.19860457736299986, 1.548972928403, 1.504297193165]
      },
      {
        "species": [{ "element": "Si", "occu": 1 }],
        "abc": [0.714141999999999, 0.855467, 0.24986499999999903],
        "properties": { "magmom": 0.0 },
        "label": "Si",
        "xyz": [1.4137072844389962, 4.336243089261999, 1.491896539644996]
      },
      {
        "species": [{ "element": "Si", "occu": 1 }],
        "abc": [0.214257, 0.784216999999999, 0.233947],
        "properties": { "magmom": 0.0 },
        "label": "Si",
        "xyz": [-1.0640198209439977, 3.9166430955579954, 1.895092509458999]
      },
      {
        "species": [{ "element": "Si", "occu": 1 }],
        "abc": [0.857121999999999, 0.707303999999999, 0.751437999999999],
        "properties": { "magmom": 0.0 },
        "label": "Si",
        "xyz": [2.1302181358499994, 3.889442135365995, 3.858928413449995]
      },
      {
        "species": [{ "element": "Si", "occu": 1 }],
        "abc": [0.28616, 0.144539, 0.750427],
        "properties": { "magmom": 0.0 },
        "label": "Si",
        "xyz": [0.5196115318330011, 1.103054789056, 3.8707732132669994]
      },
      {
        "species": [{ "element": "Si", "occu": 1 }],
        "abc": [0.785910999999999, 0.215680999999999, 0.765880999999999],
        "properties": { "magmom": 0.0 },
        "label": "Si",
        "xyz": [2.9972947891979995, 1.5218890686839945, 3.4651140926369948]
      },
      {
        "species": [{ "element": "Ag", "occu": 1 }],
        "abc": [0.351665, 0.654222, 0.769878],
        "properties": { "magmom": 0.0 },
        "label": "Ag",
        "xyz": [-0.45321819068899893, 3.5733245636040003, 4.47357590609]
      },
      {
        "species": [{ "element": "Ag", "occu": 1 }],
        "abc": [0.647956, 0.346047, 0.229657],
        "properties": { "magmom": 0.0 },
        "label": "Ag",
        "xyz": [2.3828661713130006, 1.866772826882, 0.886095034221]
      }
    ]
  },
  "task_ids": null,
  "uncorrected_energy_per_atom": null,
  "energy_per_atom": -11.473048431666667,
  "formation_energy_per_atom": 0.44624430083333305,
  "energy_above_hull": 0.44624430083333305,
  "is_stable": false,
  "equilibrium_reaction_energy_per_atom": null,
  "decomposes_to": null,
  "xas": null,
  "grain_boundaries": null,
  "band_gap": 0.0,
  "cbm": null,
  "vbm": null,
  "efermi": 7.22961738,
  "is_gap_direct": null,
  "is_metal": null,
  "es_source_calc_id": null,
  "bandstructure": null,
  "dos": null,
  "dos_energy_up": null,
  "dos_energy_down": null,
  "is_magnetic": null,
  "ordering": null,
  "total_magnetization": 0.0006343,
  "total_magnetization_normalized_vol": null,
  "total_magnetization_normalized_formula_units": null,
  "num_magnetic_sites": null,
  "num_unique_magnetic_sites": null,
  "types_of_magnetic_species": null,
  "bulk_modulus": null,
  "shear_modulus": null,
  "universal_anisotropy": null,
  "homogeneous_poisson": null,
  "e_total": null,
  "e_ionic": null,
  "e_electronic": null,
  "n": null,
  "e_ij_max": null,
  "weighted_surface_energy_EV_PER_ANG2": null,
  "weighted_surface_energy": null,
  "weighted_work_function": null,
  "surface_anisotropy": null,
  "shape_factor": null,
  "has_reconstructed": null,
  "possible_species": null,
  "has_props": null,
  "theoretical": null,
  "database_IDs": null,
  "fields_not_requested": [
    "builder_meta",
    "nsites",
    "elements",
    "nelements",
    "composition",
    "composition_reduced",
    "chemsys",
    "symmetry",
    "property_name",
    "deprecated",
    "deprecation_reasons",
    "last_updated",
    "origins",
    "warnings",
    "task_ids",
    "uncorrected_energy_per_atom",
    "equilibrium_reaction_energy_per_atom",
    "decomposes_to",
    "xas",
    "grain_boundaries",
    "cbm",
    "vbm",
    "is_gap_direct",
    "is_metal",
    "es_source_calc_id",
    "bandstructure",
    "dos",
    "dos_energy_up",
    "dos_energy_down",
    "is_magnetic",
    "ordering",
    "total_magnetization_normalized_vol",
    "total_magnetization_normalized_formula_units",
    "num_magnetic_sites",
    "num_unique_magnetic_sites",
    "types_of_magnetic_species",
    "bulk_modulus",
    "shear_modulus",
    "universal_anisotropy",
    "homogeneous_poisson",
    "e_total",
    "e_ionic",
    "e_electronic",
    "n",
    "e_ij_max",
    "weighted_surface_energy_EV_PER_ANG2",
    "weighted_surface_energy",
    "weighted_work_function",
    "surface_anisotropy",
    "shape_factor",
    "has_reconstructed",
    "possible_species",
    "has_props",
    "theoretical",
    "database_IDs"
  ]
}
