{"builder_meta": null, "nsites": null, "elements": null, "nelements": null, "composition": null, "composition_reduced": null, "formula_pretty": "Si3H", "formula_anonymous": "AB3", "chemsys": null, "volume": 148.73803343220064, "density": 1.903816130207348, "density_atomic": 18.59225417902508, "symmetry": null, "property_name": null, "material_id": "mp-995193", "deprecated": null, "deprecation_reasons": null, "last_updated": null, "origins": null, "warnings": null, "structure": {"@module": "pymatgen.core.structure", "@class": "Structure", "charge": 0, "lattice": {"matrix": [[-1.92087325, -3.32704947, 1e-08], [-1.92085211, 3.32703785, -6.65e-06], [-1.2990000000000001e-05, 8.34e-06, -11.63689781]], "pbc": [true, true, true], "a": 3.841745985667564, "b": 3.84172535247749, "c": 11.63689781001024, "alpha": 89.99983328087019, "beta": 90.00000373182267, "gamma": 120.0001775352885, "volume": 148.73803343220064}, "properties": {}, "sites": [{"species": [{"element": "Si", "occu": 1}], "abc": [0.66666699, 0.33333498, 0.46582325], "properties": {"magmom": -0.0}, "label": "Si", "xyz": [-1.9208760384628427, -1.1090120755910973, -5.420739767783029]}, {"species": [{"element": "Si", "occu": 1}], "abc": [0.33333301, 0.66666502, 0.53417675], "properties": {"magmom": -0.0}, "label": "Si", "xyz": [-1.9208623115371573, 1.1090087955910972, -6.216164682216971]}, {"species": [{"element": "Si", "occu": 1}], "abc": [0.66665053, 0.33330206, 0.26225996], "properties": {"magmom": 0.0}, "label": "Si", "xyz": [-1.9207785421505494, -1.1090685361606816, -3.0518945639668815]}, {"species": [{"element": "Si", "occu": 1}], "abc": [0.33334947, 0.66669794, 0.73774004], "properties": {"magmom": 0.0}, "label": "Si", "xyz": [-1.9209598078494503, 1.1090652561606817, -8.58500988603312]}, {"species": [{"element": "Si", "occu": 1}], "abc": [0.33331907, 0.66664015, 0.19657367], "properties": {"magmom": 0.0}, "label": "Si", "xyz": [-1.920783377508067, 1.1089696156196922, -2.28751213975047]}, {"species": [{"element": "Si", "occu": 1}], "abc": [0.6666809300000001, 0.33335985, 0.80342633], "properties": {"magmom": 0.0}, "label": "Si", "xyz": [-1.9209549724919328, -1.1089728956196925, -9.34939231024953]}, {"species": [{"element": "H", "occu": 1}], "abc": [0.33333158, 0.66666515, 0.06828975], "properties": {"magmom": -0.0}, "label": "H", "xyz": [-1.9208537625270543, 1.1090101002891801, -0.7946852722103792]}, {"species": [{"element": "H", "occu": 1}], "abc": [0.66666842, 0.33333485, 0.9317102500000001], "properties": {"magmom": -0.0}, "label": "H", "xyz": [-1.920884587472946, -1.1090133802891797, -10.842219177789623]}]}, "task_ids": null, "uncorrected_energy_per_atom": null, "energy_per_atom": -7.415197005, "formation_energy_per_atom": 0.028904541562500004, "energy_above_hull": 0.031472485468749, "is_stable": false, "equilibrium_reaction_energy_per_atom": null, "decomposes_to": null, "xas": null, "grain_boundaries": null, "band_gap": 0.8982000000000001, "cbm": null, "vbm": null, "efermi": 4.24439184, "is_gap_direct": null, "is_metal": null, "es_source_calc_id": null, "bandstructure": null, "dos": null, "dos_energy_up": null, "dos_energy_down": null, "is_magnetic": null, "ordering": null, "total_magnetization": 0.0, "total_magnetization_normalized_vol": null, "total_magnetization_normalized_formula_units": null, "num_magnetic_sites": null, "num_unique_magnetic_sites": null, "types_of_magnetic_species": null, "bulk_modulus": null, "shear_modulus": null, "universal_anisotropy": null, "homogeneous_poisson": null, "e_total": null, "e_ionic": null, "e_electronic": null, "n": null, "e_ij_max": null, "weighted_surface_energy_EV_PER_ANG2": null, "weighted_surface_energy": null, "weighted_work_function": null, "surface_anisotropy": null, "shape_factor": null, "has_reconstructed": null, "possible_species": null, "has_props": null, "theoretical": null, "database_IDs": null, "fields_not_requested": ["builder_meta", "nsites", "elements", "nelements", "composition", "composition_reduced", "chemsys", "symmetry", "property_name", "deprecated", "deprecation_reasons", "last_updated", "origins", "warnings", "task_ids", "uncorrected_energy_per_atom", "equilibrium_reaction_energy_per_atom", "decomposes_to", "xas", "grain_boundaries", "cbm", "vbm", "is_gap_direct", "is_metal", "es_source_calc_id", "bandstructure", "dos", "dos_energy_up", "dos_energy_down", "is_magnetic", "ordering", "total_magnetization_normalized_vol", "total_magnetization_normalized_formula_units", "num_magnetic_sites", "num_unique_magnetic_sites", "types_of_magnetic_species", "bulk_modulus", "shear_modulus", "universal_anisotropy", "homogeneous_poisson", "e_total", "e_ionic", "e_electronic", "n", "e_ij_max", "weighted_surface_energy_EV_PER_ANG2", "weighted_surface_energy", "weighted_work_function", "surface_anisotropy", "shape_factor", "has_reconstructed", "possible_species", "has_props", "theoretical", "database_IDs"]}