{
  "builder_meta": null,
  "nsites": null,
  "elements": null,
  "nelements": null,
  "composition": null,
  "composition_reduced": null,
  "formula_pretty": "Si3Ir",
  "formula_anonymous": "AB3",
  "chemsys": null,
  "volume": 126.96467056618752,
  "density": 7.231855059873617,
  "density_atomic": 15.87058382077344,
  "symmetry": null,
  "property_name": null,
  "material_id": "mp-569802",
  "deprecated": null,
  "deprecation_reasons": null,
  "last_updated": null,
  "origins": null,
  "warnings": null,
  "structure": {
    "@module": "pymatgen.core.structure",
    "@class": "Structure",
    "charge": 0,
    "lattice": {
      "matrix": [
        [2.388818, -4.137554, 0.0],
        [2.388818, 4.137554, 0.0],
        [0.0, 0.0, 6.422826]
      ],
      "pbc": [true, true, true],
      "a": 4.77763587352992,
      "b": 4.77763587352992,
      "c": 6.422826,
      "alpha": 90.0,
      "beta": 90.0,
      "gamma": 119.99999824867498,
      "volume": 126.96467056618752
    },
    "properties": {},
    "sites": [
      {
        "species": [{ "element": "Si", "occu": 1 }],
        "abc": [0.665435, 0.832716999999999, 0.581459],
        "properties": { "magmom": 0.001 },
        "label": "Si",
        "xyz": [3.5788124643359978, 0.6921383082279959, 3.7346099831339994]
      },
      {
        "species": [{ "element": "Si", "occu": 1 }],
        "abc": [0.334565, 0.167283, 0.081458999999999],
        "properties": { "magmom": 0.001 },
        "label": "Si",
        "xyz": [1.198823535664, -0.692138308228, 0.5231969831339935]
      },
      {
        "species": [{ "element": "Si", "occu": 1 }],
        "abc": [0.832716999999999, 0.665435, 0.081458999999999],
        "properties": { "magmom": 0.001 },
        "label": "Si",
        "xyz": [3.5788124643359978, -0.6921383082279959, 0.5231969831339935]
      },
      {
        "species": [{ "element": "Si", "occu": 1 }],
        "abc": [0.167283, 0.832716999999999, 0.581459],
        "properties": { "magmom": 0.002 },
        "label": "Si",
        "xyz": [2.388817999999998, 2.753269108435996, 3.7346099831339994]
      },
      {
        "species": [{ "element": "Si", "occu": 1 }],
        "abc": [0.832716999999999, 0.167283, 0.081458999999999],
        "properties": { "magmom": 0.001 },
        "label": "Si",
        "xyz": [2.388817999999998, -2.753269108435996, 0.5231969831339935]
      },
      {
        "species": [{ "element": "Si", "occu": 1 }],
        "abc": [0.167283, 0.334565, 0.581459],
        "properties": { "magmom": 0.001 },
        "label": "Si",
        "xyz": [1.198823535664, 0.692138308228, 3.7346099831339994]
      },
      {
        "species": [{ "element": "Ir", "occu": 1 }],
        "abc": [0.666667, 0.333333, 0.754622],
        "properties": { "magmom": 0.004 },
        "label": "Ir",
        "xyz": [2.388818, -1.3791874250360001, 4.846805801772]
      },
      {
        "species": [{ "element": "Ir", "occu": 1 }],
        "abc": [0.333333, 0.666667, 0.254622],
        "properties": { "magmom": 0.004 },
        "label": "Ir",
        "xyz": [2.388818, 1.3791874250360001, 1.635392801772]
      }
    ]
  },
  "task_ids": null,
  "uncorrected_energy_per_atom": null,
  "energy_per_atom": -19.60877127614583,
  "formation_energy_per_atom": 0.061390532604168005,
  "energy_above_hull": 0.5103636208333311,
  "is_stable": false,
  "equilibrium_reaction_energy_per_atom": null,
  "decomposes_to": null,
  "xas": null,
  "grain_boundaries": null,
  "band_gap": 0.0,
  "cbm": null,
  "vbm": null,
  "efermi": 9.07763754,
  "is_gap_direct": null,
  "is_metal": null,
  "es_source_calc_id": null,
  "bandstructure": null,
  "dos": null,
  "dos_energy_up": null,
  "dos_energy_down": null,
  "is_magnetic": null,
  "ordering": null,
  "total_magnetization": 0.033190199999999004,
  "total_magnetization_normalized_vol": null,
  "total_magnetization_normalized_formula_units": null,
  "num_magnetic_sites": null,
  "num_unique_magnetic_sites": null,
  "types_of_magnetic_species": null,
  "bulk_modulus": null,
  "shear_modulus": null,
  "universal_anisotropy": null,
  "homogeneous_poisson": null,
  "e_total": null,
  "e_ionic": null,
  "e_electronic": null,
  "n": null,
  "e_ij_max": null,
  "weighted_surface_energy_EV_PER_ANG2": null,
  "weighted_surface_energy": null,
  "weighted_work_function": null,
  "surface_anisotropy": null,
  "shape_factor": null,
  "has_reconstructed": null,
  "possible_species": null,
  "has_props": null,
  "theoretical": null,
  "database_IDs": null,
  "fields_not_requested": [
    "builder_meta",
    "nsites",
    "elements",
    "nelements",
    "composition",
    "composition_reduced",
    "chemsys",
    "symmetry",
    "property_name",
    "deprecated",
    "deprecation_reasons",
    "last_updated",
    "origins",
    "warnings",
    "task_ids",
    "uncorrected_energy_per_atom",
    "equilibrium_reaction_energy_per_atom",
    "decomposes_to",
    "xas",
    "grain_boundaries",
    "cbm",
    "vbm",
    "is_gap_direct",
    "is_metal",
    "es_source_calc_id",
    "bandstructure",
    "dos",
    "dos_energy_up",
    "dos_energy_down",
    "is_magnetic",
    "ordering",
    "total_magnetization_normalized_vol",
    "total_magnetization_normalized_formula_units",
    "num_magnetic_sites",
    "num_unique_magnetic_sites",
    "types_of_magnetic_species",
    "bulk_modulus",
    "shear_modulus",
    "universal_anisotropy",
    "homogeneous_poisson",
    "e_total",
    "e_ionic",
    "e_electronic",
    "n",
    "e_ij_max",
    "weighted_surface_energy_EV_PER_ANG2",
    "weighted_surface_energy",
    "weighted_work_function",
    "surface_anisotropy",
    "shape_factor",
    "has_reconstructed",
    "possible_species",
    "has_props",
    "theoretical",
    "database_IDs"
  ]
}
