{"builder_meta": null, "nsites": null, "elements": null, "nelements": null, "composition": null, "composition_reduced": null, "formula_pretty": "Si3Mo", "formula_anonymous": "AB3", "chemsys": null, "volume": 113.78907255372648, "density": 5.259262971377256, "density_atomic": 14.22363406921581, "symmetry": null, "property_name": null, "material_id": "mp-978525", "deprecated": null, "deprecation_reasons": null, "last_updated": null, "origins": null, "warnings": null, "structure": {"@module": "pymatgen.core.structure", "@class": "Structure", "charge": 0, "lattice": {"matrix": [[2.605142, -4.512239, 0.0], [2.605142, 4.512239, 0.0], [0.0, 0.0, 4.840019]], "pbc": [true, true, true], "a": 5.210284601946904, "b": 5.210284601946904, "c": 4.840019, "alpha": 90.0, "beta": 90.0, "gamma": 120.00000764343771, "volume": 113.78907255372648}, "properties": {}, "sites": [{"species": [{"element": "Si", "occu": 1}], "abc": [0.825421, 0.174578999999999, 0.75], "properties": {"magmom": -0.0}, "label": "Si", "xyz": [2.605141999999997, -2.9367546552380044, 3.63001425]}, {"species": [{"element": "Si", "occu": 1}], "abc": [0.349157999999999, 0.174578999999999, 0.75], "properties": {"magmom": -0.0}, "label": "Si", "xyz": [1.3644092556539948, -0.7877421723810002, 3.63001425]}, {"species": [{"element": "Si", "occu": 1}], "abc": [0.825421, 0.650841999999999, 0.75], "properties": {"magmom": -0.0}, "label": "Si", "xyz": [3.8458747443459966, -0.7877421723810043, 3.63001425]}, {"species": [{"element": "Si", "occu": 1}], "abc": [0.174578999999999, 0.825421, 0.25], "properties": {"magmom": -0.0}, "label": "Si", "xyz": [2.605141999999997, 2.9367546552380044, 1.21000475]}, {"species": [{"element": "Si", "occu": 1}], "abc": [0.650841999999999, 0.825421, 0.25], "properties": {"magmom": -0.0}, "label": "Si", "xyz": [3.8458747443459966, 0.7877421723810043, 1.21000475]}, {"species": [{"element": "Si", "occu": 1}], "abc": [0.174578999999999, 0.349157999999999, 0.25], "properties": {"magmom": -0.0}, "label": "Si", "xyz": [1.3644092556539948, 0.7877421723810002, 1.21000475]}, {"species": [{"element": "Mo", "occu": 1}], "abc": [0.666667, 0.333333, 0.25], "properties": {"magmom": 0.0}, "label": "Mo", "xyz": [2.605142, -1.504082674826, 1.21000475]}, {"species": [{"element": "Mo", "occu": 1}], "abc": [0.333333, 0.666667, 0.75], "properties": {"magmom": 0.0}, "label": "Mo", "xyz": [2.605142, 1.504082674826, 3.63001425]}]}, "task_ids": null, "uncorrected_energy_per_atom": null, "energy_per_atom": -12.77462212875, "formation_energy_per_atom": 0.3236961775, "energy_above_hull": 0.6733048675000001, "is_stable": false, "equilibrium_reaction_energy_per_atom": null, "decomposes_to": null, "xas": null, "grain_boundaries": null, "band_gap": 0.0, "cbm": null, "vbm": null, "efermi": 10.42570738, "is_gap_direct": null, "is_metal": null, "es_source_calc_id": null, "bandstructure": null, "dos": null, "dos_energy_up": null, "dos_energy_down": null, "is_magnetic": null, "ordering": null, "total_magnetization": 7.55e-05, "total_magnetization_normalized_vol": null, "total_magnetization_normalized_formula_units": null, "num_magnetic_sites": null, "num_unique_magnetic_sites": null, "types_of_magnetic_species": null, "bulk_modulus": null, "shear_modulus": null, "universal_anisotropy": null, "homogeneous_poisson": null, "e_total": null, "e_ionic": null, "e_electronic": null, "n": null, "e_ij_max": null, "weighted_surface_energy_EV_PER_ANG2": null, "weighted_surface_energy": null, "weighted_work_function": null, "surface_anisotropy": null, "shape_factor": null, "has_reconstructed": null, "possible_species": null, "has_props": null, "theoretical": null, "database_IDs": null, "fields_not_requested": ["builder_meta", "nsites", "elements", "nelements", "composition", "composition_reduced", "chemsys", "symmetry", "property_name", "deprecated", "deprecation_reasons", "last_updated", "origins", "warnings", "task_ids", "uncorrected_energy_per_atom", "equilibrium_reaction_energy_per_atom", "decomposes_to", "xas", "grain_boundaries", "cbm", "vbm", "is_gap_direct", "is_metal", "es_source_calc_id", "bandstructure", "dos", "dos_energy_up", "dos_energy_down", "is_magnetic", "ordering", "total_magnetization_normalized_vol", "total_magnetization_normalized_formula_units", "num_magnetic_sites", "num_unique_magnetic_sites", "types_of_magnetic_species", "bulk_modulus", "shear_modulus", "universal_anisotropy", "homogeneous_poisson", "e_total", "e_ionic", "e_electronic", "n", "e_ij_max", "weighted_surface_energy_EV_PER_ANG2", "weighted_surface_energy", "weighted_work_function", "surface_anisotropy", "shape_factor", "has_reconstructed", "possible_species", "has_props", "theoretical", "database_IDs"]}