{"builder_meta": null, "nsites": null, "elements": null, "nelements": null, "composition": null, "composition_reduced": null, "formula_pretty": "Si3Mo5", "formula_anonymous": "A3B5", "chemsys": null, "volume": 227.8292216633434, "density": 8.220822537828795, "density_atomic": 14.239326353958962, "symmetry": null, "property_name": null, "material_id": "mp-1332", "deprecated": null, "deprecation_reasons": null, "last_updated": null, "origins": null, "warnings": null, "structure": {"@module": "pymatgen.core.structure", "@class": "Structure", "charge": 0, "lattice": {"matrix": [[4.60738764, 0.0, 1.65943695], [2.30369382, 6.82078683, 0.82971898], [-0.00759723, 0.0, 7.24696641]], "pbc": [true, true, true], "a": 4.8971166880369585, "b": 7.246969834515657, "c": 7.246970392210248, "alpha": 83.44490674226398, "beta": 70.25263080817116, "gamma": 70.25263554875542, "volume": 227.8292216633434}, "properties": {}, "sites": [{"species": [{"element": "Si", "occu": 1}], "abc": [0.83278363, 0.5, 0.83443375], "properties": {"magmom": 0.0}, "label": "Si", "xyz": [4.98246452853782, 3.410393415, 7.843924774597466]}, {"species": [{"element": "Si", "occu": 1}], "abc": [0.66721637, 0.16556625, 0.5], "properties": {"magmom": 0.0}, "label": "Si", "xyz": [3.4517397882692418, 1.1292920974924876, 4.868060163095296]}, {"species": [{"element": "Si", "occu": 1}], "abc": [0.33278363, 0.83443375, 0.5], "properties": {"magmom": 0.0}, "label": "Si", "xyz": [3.451744441730758, 5.691494732507513, 4.868062176904703]}, {"species": [{"element": "Si", "occu": 1}], "abc": [0.16721637, 0.5, 0.16556625], "properties": {"magmom": 0.0}, "label": "Si", "xyz": [1.9210197014621793, 3.410393415, 1.892197565402534]}, {"species": [{"element": "Si", "occu": 1}], "abc": [0.75, 0.0, -0.0], "properties": {"magmom": 0.0}, "label": "Si", "xyz": [3.45554073, 0.0, 1.2445777125]}, {"species": [{"element": "Si", "occu": 1}], "abc": [0.25, 0.0, -0.0], "properties": {"magmom": 0.0}, "label": "Si", "xyz": [1.15184691, 0.0, 0.4148592375]}, {"species": [{"element": "Mo", "occu": 1}], "abc": [0.27611901, 0.14694172, 0.30081926000000003], "properties": {"magmom": -0.0}, "label": "Mo", "xyz": [1.608410653000557, 1.0022581485535476, 2.7601494945303218]}, {"species": [{"element": "Mo", "occu": 1}], "abc": [0.7238809900000001, 0.8530582800000001, 0.69918074], "properties": {"magmom": -0.0}, "label": "Mo", "xyz": [5.295073576999443, 5.818528681446453, 6.975972845469678]}, {"species": [{"element": "Mo", "occu": 1}], "abc": [0.42305973, 0.30081926000000003, 0.8530582800000001], "properties": {"magmom": -0.0}, "label": "Mo", "xyz": [2.6357147612261462, 2.051824046818346, 7.133721098522953]}, {"species": [{"element": "Mo", "occu": 1}], "abc": [0.57694027, 0.69918074, 0.14694172], "properties": {"magmom": -0.0}, "label": "Mo", "xyz": [4.267769468773854, 4.768962783181654, 2.6024012414770468]}, {"species": [{"element": "Mo", "occu": 1}], "abc": [0.92305973, 0.8530582800000001, 0.30081926000000003], "properties": {"magmom": -0.0}, "label": "Mo", "xyz": [6.215793685612917, 5.818528681446453, 4.4195851416822345]}, {"species": [{"element": "Mo", "occu": 1}], "abc": [0.22388099, 0.69918074, 0.8530582800000001], "properties": {"magmom": -0.0}, "label": "Mo", "xyz": [2.635723976001426, 4.768962783181654, 7.133724618569401]}, {"species": [{"element": "Mo", "occu": 1}], "abc": [0.77611901, 0.30081926000000003, 0.14694172], "properties": {"magmom": -0.0}, "label": "Mo", "xyz": [4.267760253998574, 2.051824046818346, 2.6023977214305996]}, {"species": [{"element": "Mo", "occu": 1}], "abc": [0.07694027, 0.14694172, 0.69918074], "properties": {"magmom": -0.0}, "label": "Mo", "xyz": [0.6876905443870829, 1.0022581485535476, 5.316537198317765]}, {"species": [{"element": "Mo", "occu": 1}], "abc": [0.75, 0.5, 0.5], "properties": {"magmom": -0.0}, "label": "Mo", "xyz": [4.603589025, 3.410393415, 5.2829204075]}, {"species": [{"element": "Mo", "occu": 1}], "abc": [0.25, 0.5, 0.5], "properties": {"magmom": -0.0}, "label": "Mo", "xyz": [2.299895205, 3.410393415, 4.4532019325]}]}, "task_ids": null, "uncorrected_energy_per_atom": null, "energy_per_atom": -19.98410945375, "formation_energy_per_atom": -0.398960580625001, "energy_above_hull": 0.0, "is_stable": true, "equilibrium_reaction_energy_per_atom": null, "decomposes_to": null, "xas": null, "grain_boundaries": null, "band_gap": 0.0, "cbm": null, "vbm": null, "efermi": 9.71255204, "is_gap_direct": null, "is_metal": null, "es_source_calc_id": null, "bandstructure": null, "dos": null, "dos_energy_up": null, "dos_energy_down": null, "is_magnetic": null, "ordering": null, "total_magnetization": 1e-07, "total_magnetization_normalized_vol": null, "total_magnetization_normalized_formula_units": null, "num_magnetic_sites": null, "num_unique_magnetic_sites": null, "types_of_magnetic_species": null, "bulk_modulus": null, "shear_modulus": null, "universal_anisotropy": null, "homogeneous_poisson": null, "e_total": null, "e_ionic": null, "e_electronic": null, "n": null, "e_ij_max": null, "weighted_surface_energy_EV_PER_ANG2": null, "weighted_surface_energy": null, "weighted_work_function": null, "surface_anisotropy": null, "shape_factor": null, "has_reconstructed": null, "possible_species": null, "has_props": null, "theoretical": null, "database_IDs": null, "fields_not_requested": ["builder_meta", "nsites", "elements", "nelements", "composition", "composition_reduced", "chemsys", "symmetry", "property_name", "deprecated", "deprecation_reasons", "last_updated", "origins", "warnings", "task_ids", "uncorrected_energy_per_atom", "equilibrium_reaction_energy_per_atom", "decomposes_to", "xas", "grain_boundaries", "cbm", "vbm", "is_gap_direct", "is_metal", "es_source_calc_id", "bandstructure", "dos", "dos_energy_up", "dos_energy_down", "is_magnetic", "ordering", "total_magnetization_normalized_vol", "total_magnetization_normalized_formula_units", "num_magnetic_sites", "num_unique_magnetic_sites", "types_of_magnetic_species", "bulk_modulus", "shear_modulus", "universal_anisotropy", "homogeneous_poisson", "e_total", "e_ionic", "e_electronic", "n", "e_ij_max", "weighted_surface_energy_EV_PER_ANG2", "weighted_surface_energy", "weighted_work_function", "surface_anisotropy", "shape_factor", "has_reconstructed", "possible_species", "has_props", "theoretical", "database_IDs"]}