{"builder_meta": null, "nsites": null, "elements": null, "nelements": null, "composition": null, "composition_reduced": null, "formula_pretty": "Si3N4", "formula_anonymous": "A3B4", "chemsys": null, "volume": 145.49663109055865, "density": 3.202079639858874, "density_atomic": 10.392616506468475, "symmetry": null, "property_name": null, "material_id": "mp-988", "deprecated": null, "deprecation_reasons": null, "last_updated": null, "origins": null, "warnings": null, "structure": {"@module": "pymatgen.core.structure", "@class": "Structure", "charge": 0, "lattice": {"matrix": [[7.6045442, 9.8e-07, 0.0], [-3.80227308, 6.5857284400000005, -0.0], [-0.0, -0.0, 2.90519908]], "pbc": [true, true, true], "a": 7.604544200000063, "b": 7.60454467146571, "c": 2.90519908, "alpha": 90.0, "beta": 90.0, "gamma": 119.99999909139231, "volume": 145.49663109055868}, "properties": {}, "sites": [{"species": [{"element": "Si", "occu": 1}], "abc": [0.23108242, 0.82494614, 0.75], "properties": {"magmom": -0.0}, "label": "Si", "xyz": [-1.379394023838947, 5.432871482126994, 2.1788993100000003]}, {"species": [{"element": "Si", "occu": 1}], "abc": [0.40613627, 0.23108242, 0.25], "properties": {"magmom": -0.0}, "label": "Si", "xyz": [2.2098427516108807, 1.5218464633915696, 0.72629977]}, {"species": [{"element": "Si", "occu": 1}], "abc": [0.82494614, 0.59386373, 0.25], "properties": {"magmom": -0.0}, "label": "Si", "xyz": [4.015307310481999, 3.911026064592699, 0.72629977]}, {"species": [{"element": "Si", "occu": 1}], "abc": [0.17505386, 0.40613627, 0.75], "properties": {"magmom": -0.0}, "label": "Si", "xyz": [-0.21303619048199973, 2.674703355407302, 2.1788993100000003]}, {"species": [{"element": "Si", "occu": 1}], "abc": [0.59386373, 0.76891758, 0.75], "properties": {"magmom": -0.0}, "label": "Si", "xyz": [1.59242836838912, 5.063882956608431, 2.1788993100000003]}, {"species": [{"element": "Si", "occu": 1}], "abc": [0.76891758, 0.17505386, 0.25], "properties": {"magmom": -0.0}, "label": "Si", "xyz": [5.181665143838947, 1.1528579378730068, 0.72629977]}, {"species": [{"element": "N", "occu": 1}], "abc": [0.333333, 0.666667, 0.75], "properties": {"magmom": 0.0}, "label": "N", "xyz": [-4.455605759901005e-06, 4.3904881485758205, 2.1788993100000003]}, {"species": [{"element": "N", "occu": 1}], "abc": [0.666667, 0.333333, 0.25], "properties": {"magmom": 0.0}, "label": "N", "xyz": [3.8022755756057607, 2.1952412714241802, 0.72629977]}, {"species": [{"element": "N", "occu": 1}], "abc": [0.96919448, 0.66985339, 0.75], "properties": {"magmom": -0.0}, "label": "N", "xyz": [4.823316749212275, 4.411473470964002, 2.1788993100000003]}, {"species": [{"element": "N", "occu": 1}], "abc": [0.29934008, 0.96919448, 0.25], "properties": {"magmom": -0.0}, "label": "N", "xyz": [-1.4087972113970624, 6.38285194418029, 0.72629977]}, {"species": [{"element": "N", "occu": 1}], "abc": [0.66985339, 0.70065992, 0.25], "properties": {"magmom": -0.0}, "label": "N", "xyz": [2.4298293597238847, 4.614356618368447, 0.72629977]}, {"species": [{"element": "N", "occu": 1}], "abc": [0.33014661, 0.29934008, 0.75], "properties": {"magmom": -0.0}, "label": "N", "xyz": [1.3724417602761156, 1.9713728016315533, 2.1788993100000003]}, {"species": [{"element": "N", "occu": 1}], "abc": [0.03080552, 0.33014661, 0.25], "properties": {"magmom": -0.0}, "label": "N", "xyz": [-1.021045629212275, 2.1742559490359983, 0.72629977]}, {"species": [{"element": "N", "occu": 1}], "abc": [0.70065992, 0.03080552, 0.75], "properties": {"magmom": -0.0}, "label": "N", "xyz": [5.211068331397062, 0.2028774758197104, 2.1788993100000003]}]}, "task_ids": null, "uncorrected_energy_per_atom": null, "energy_per_atom": -10.297557244285715, "formation_energy_per_atom": -1.320943462857144, "energy_above_hull": 0.0, "is_stable": true, "equilibrium_reaction_energy_per_atom": null, "decomposes_to": null, "xas": null, "grain_boundaries": null, "band_gap": 4.2503, "cbm": null, "vbm": null, "efermi": 6.65520584, "is_gap_direct": null, "is_metal": null, "es_source_calc_id": null, "bandstructure": null, "dos": null, "dos_energy_up": null, "dos_energy_down": null, "is_magnetic": null, "ordering": null, "total_magnetization": 0.0, "total_magnetization_normalized_vol": null, "total_magnetization_normalized_formula_units": null, "num_magnetic_sites": null, "num_unique_magnetic_sites": null, "types_of_magnetic_species": null, "bulk_modulus": null, "shear_modulus": null, "universal_anisotropy": null, "homogeneous_poisson": null, "e_total": null, "e_ionic": null, "e_electronic": null, "n": null, "e_ij_max": null, "weighted_surface_energy_EV_PER_ANG2": null, "weighted_surface_energy": null, "weighted_work_function": null, "surface_anisotropy": null, "shape_factor": null, "has_reconstructed": null, "possible_species": null, "has_props": null, "theoretical": null, "database_IDs": null, "fields_not_requested": ["builder_meta", "nsites", "elements", "nelements", "composition", "composition_reduced", "chemsys", "symmetry", "property_name", "deprecated", "deprecation_reasons", "last_updated", "origins", "warnings", "task_ids", "uncorrected_energy_per_atom", "equilibrium_reaction_energy_per_atom", "decomposes_to", "xas", "grain_boundaries", "cbm", "vbm", "is_gap_direct", "is_metal", "es_source_calc_id", "bandstructure", "dos", "dos_energy_up", "dos_energy_down", "is_magnetic", "ordering", "total_magnetization_normalized_vol", "total_magnetization_normalized_formula_units", "num_magnetic_sites", "num_unique_magnetic_sites", "types_of_magnetic_species", "bulk_modulus", "shear_modulus", "universal_anisotropy", "homogeneous_poisson", "e_total", "e_ionic", "e_electronic", "n", "e_ij_max", "weighted_surface_energy_EV_PER_ANG2", "weighted_surface_energy", "weighted_work_function", "surface_anisotropy", "shape_factor", "has_reconstructed", "possible_species", "has_props", "theoretical", "database_IDs"]}