{
  "builder_meta": null,
  "nsites": null,
  "elements": null,
  "nelements": null,
  "composition": null,
  "composition_reduced": null,
  "formula_pretty": "Si3N2",
  "formula_anonymous": "A2B3",
  "chemsys": null,
  "volume": 300.80932885859437,
  "density": 2.47902624111651,
  "density_atomic": 15.040466442929718,
  "symmetry": null,
  "property_name": null,
  "material_id": "mp-971682",
  "deprecated": null,
  "deprecation_reasons": null,
  "last_updated": null,
  "origins": null,
  "warnings": null,
  "structure": {
    "@module": "pymatgen.core.structure",
    "@class": "Structure",
    "charge": 0,
    "lattice": {
      "matrix": [
        [6.700344, 0.0, 0.0],
        [0.0, 6.700344, 0.0],
        [0.0, 0.0, 6.700344]
      ],
      "pbc": [true, true, true],
      "a": 6.700344,
      "b": 6.700344,
      "c": 6.700344,
      "alpha": 90.0,
      "beta": 90.0,
      "gamma": 90.0,
      "volume": 300.80932885859437
    },
    "properties": {},
    "sites": [
      {
        "species": [{ "element": "Si", "occu": 1 }],
        "abc": [0.321722, 0.321722, 0.0],
        "properties": { "magmom": -0.0 },
        "label": "Si",
        "xyz": [2.1556480723680003, 2.1556480723680003, 0.0]
      },
      {
        "species": [{ "element": "Si", "occu": 1 }],
        "abc": [0.678277999999999, 0.678277999999999, 0.0],
        "properties": { "magmom": -0.0 },
        "label": "Si",
        "xyz": [4.544695927631994, 4.544695927631994, 0.0]
      },
      {
        "species": [{ "element": "Si", "occu": 1 }],
        "abc": [0.678277999999999, 0.321722, 0.0],
        "properties": { "magmom": -0.0 },
        "label": "Si",
        "xyz": [4.544695927631994, 2.1556480723680003, 0.0]
      },
      {
        "species": [{ "element": "Si", "occu": 1 }],
        "abc": [0.321722, 0.678277999999999, 0.0],
        "properties": { "magmom": -0.0 },
        "label": "Si",
        "xyz": [2.1556480723680003, 4.544695927631994, 0.0]
      },
      {
        "species": [{ "element": "Si", "occu": 1 }],
        "abc": [0.0, 0.321722, 0.678277999999999],
        "properties": { "magmom": -0.0 },
        "label": "Si",
        "xyz": [0.0, 2.1556480723680003, 4.544695927631994]
      },
      {
        "species": [{ "element": "Si", "occu": 1 }],
        "abc": [0.0, 0.678277999999999, 0.321722],
        "properties": { "magmom": -0.0 },
        "label": "Si",
        "xyz": [0.0, 4.544695927631994, 2.1556480723680003]
      },
      {
        "species": [{ "element": "Si", "occu": 1 }],
        "abc": [0.0, 0.678277999999999, 0.678277999999999],
        "properties": { "magmom": -0.0 },
        "label": "Si",
        "xyz": [0.0, 4.544695927631994, 4.544695927631994]
      },
      {
        "species": [{ "element": "Si", "occu": 1 }],
        "abc": [0.0, 0.321722, 0.321722],
        "properties": { "magmom": -0.0 },
        "label": "Si",
        "xyz": [0.0, 2.1556480723680003, 2.1556480723680003]
      },
      {
        "species": [{ "element": "Si", "occu": 1 }],
        "abc": [0.321722, 0.0, 0.678277999999999],
        "properties": { "magmom": -0.0 },
        "label": "Si",
        "xyz": [2.1556480723680003, 0.0, 4.544695927631994]
      },
      {
        "species": [{ "element": "Si", "occu": 1 }],
        "abc": [0.678277999999999, 0.0, 0.321722],
        "properties": { "magmom": -0.0 },
        "label": "Si",
        "xyz": [4.544695927631994, 0.0, 2.1556480723680003]
      },
      {
        "species": [{ "element": "Si", "occu": 1 }],
        "abc": [0.321722, 0.0, 0.321722],
        "properties": { "magmom": -0.0 },
        "label": "Si",
        "xyz": [2.1556480723680003, 0.0, 2.1556480723680003]
      },
      {
        "species": [{ "element": "Si", "occu": 1 }],
        "abc": [0.678277999999999, 0.0, 0.678277999999999],
        "properties": { "magmom": -0.0 },
        "label": "Si",
        "xyz": [4.544695927631994, 0.0, 4.544695927631994]
      },
      {
        "species": [{ "element": "N", "occu": 1 }],
        "abc": [0.221417, 0.221417, 0.778582999999999],
        "properties": { "magmom": 0.0 },
        "label": "N",
        "xyz": [1.4835700674480001, 1.4835700674480001, 5.216773932551994]
      },
      {
        "species": [{ "element": "N", "occu": 1 }],
        "abc": [0.778582999999999, 0.778582999999999, 0.778582999999999],
        "properties": { "magmom": 0.0 },
        "label": "N",
        "xyz": [5.216773932551994, 5.216773932551994, 5.216773932551994]
      },
      {
        "species": [{ "element": "N", "occu": 1 }],
        "abc": [0.778582999999999, 0.221417, 0.221417],
        "properties": { "magmom": 0.0 },
        "label": "N",
        "xyz": [5.216773932551994, 1.4835700674480001, 1.4835700674480001]
      },
      {
        "species": [{ "element": "N", "occu": 1 }],
        "abc": [0.221417, 0.778582999999999, 0.221417],
        "properties": { "magmom": 0.0 },
        "label": "N",
        "xyz": [1.4835700674480001, 5.216773932551994, 1.4835700674480001]
      },
      {
        "species": [{ "element": "N", "occu": 1 }],
        "abc": [0.778582999999999, 0.778582999999999, 0.221417],
        "properties": { "magmom": 0.0 },
        "label": "N",
        "xyz": [5.216773932551994, 5.216773932551994, 1.4835700674480001]
      },
      {
        "species": [{ "element": "N", "occu": 1 }],
        "abc": [0.221417, 0.221417, 0.221417],
        "properties": { "magmom": 0.0 },
        "label": "N",
        "xyz": [1.4835700674480001, 1.4835700674480001, 1.4835700674480001]
      },
      {
        "species": [{ "element": "N", "occu": 1 }],
        "abc": [0.221417, 0.778582999999999, 0.778582999999999],
        "properties": { "magmom": 0.0 },
        "label": "N",
        "xyz": [1.4835700674480001, 5.216773932551994, 5.216773932551994]
      },
      {
        "species": [{ "element": "N", "occu": 1 }],
        "abc": [0.778582999999999, 0.221417, 0.778582999999999],
        "properties": { "magmom": 0.0 },
        "label": "N",
        "xyz": [5.216773932551994, 1.4835700674480001, 5.216773932551994]
      }
    ]
  },
  "task_ids": null,
  "uncorrected_energy_per_atom": null,
  "energy_per_atom": -9.589454993499999,
  "formation_energy_per_atom": -0.6736959679999981,
  "energy_above_hull": 0.250964456000001,
  "is_stable": false,
  "equilibrium_reaction_energy_per_atom": null,
  "decomposes_to": null,
  "xas": null,
  "grain_boundaries": null,
  "band_gap": 0.1222,
  "cbm": null,
  "vbm": null,
  "efermi": 5.91537328,
  "is_gap_direct": null,
  "is_metal": null,
  "es_source_calc_id": null,
  "bandstructure": null,
  "dos": null,
  "dos_energy_up": null,
  "dos_energy_down": null,
  "is_magnetic": null,
  "ordering": null,
  "total_magnetization": 0.000364199999999,
  "total_magnetization_normalized_vol": null,
  "total_magnetization_normalized_formula_units": null,
  "num_magnetic_sites": null,
  "num_unique_magnetic_sites": null,
  "types_of_magnetic_species": null,
  "bulk_modulus": null,
  "shear_modulus": null,
  "universal_anisotropy": null,
  "homogeneous_poisson": null,
  "e_total": null,
  "e_ionic": null,
  "e_electronic": null,
  "n": null,
  "e_ij_max": null,
  "weighted_surface_energy_EV_PER_ANG2": null,
  "weighted_surface_energy": null,
  "weighted_work_function": null,
  "surface_anisotropy": null,
  "shape_factor": null,
  "has_reconstructed": null,
  "possible_species": null,
  "has_props": null,
  "theoretical": null,
  "database_IDs": null,
  "fields_not_requested": [
    "builder_meta",
    "nsites",
    "elements",
    "nelements",
    "composition",
    "composition_reduced",
    "chemsys",
    "symmetry",
    "property_name",
    "deprecated",
    "deprecation_reasons",
    "last_updated",
    "origins",
    "warnings",
    "task_ids",
    "uncorrected_energy_per_atom",
    "equilibrium_reaction_energy_per_atom",
    "decomposes_to",
    "xas",
    "grain_boundaries",
    "cbm",
    "vbm",
    "is_gap_direct",
    "is_metal",
    "es_source_calc_id",
    "bandstructure",
    "dos",
    "dos_energy_up",
    "dos_energy_down",
    "is_magnetic",
    "ordering",
    "total_magnetization_normalized_vol",
    "total_magnetization_normalized_formula_units",
    "num_magnetic_sites",
    "num_unique_magnetic_sites",
    "types_of_magnetic_species",
    "bulk_modulus",
    "shear_modulus",
    "universal_anisotropy",
    "homogeneous_poisson",
    "e_total",
    "e_ionic",
    "e_electronic",
    "n",
    "e_ij_max",
    "weighted_surface_energy_EV_PER_ANG2",
    "weighted_surface_energy",
    "weighted_work_function",
    "surface_anisotropy",
    "shape_factor",
    "has_reconstructed",
    "possible_species",
    "has_props",
    "theoretical",
    "database_IDs"
  ]
}
