{"builder_meta": null, "nsites": null, "elements": null, "nelements": null, "composition": null, "composition_reduced": null, "formula_pretty": "Si3O8", "formula_anonymous": "A3B8", "chemsys": null, "volume": 654.3232729544848, "density": 2.154606167137081, "density_atomic": 14.87098347623829, "symmetry": null, "property_name": null, "material_id": "mp-1219421", "deprecated": null, "deprecation_reasons": null, "last_updated": null, "origins": null, "warnings": null, "structure": {"@module": "pymatgen.core.structure", "@class": "Structure", "charge": 0, "lattice": {"matrix": [[5.143016, 0.0, 0.0], [0.0, 10.406954, 0.0], [0.0, 0.0, 12.225056]], "pbc": [true, true, true], "a": 5.143016, "b": 10.406954, "c": 12.225056, "alpha": 90.0, "beta": 90.0, "gamma": 90.0, "volume": 654.3232729544848}, "properties": {}, "sites": [{"species": [{"element": "Si", "occu": 1}], "abc": [0.864543, 0.422211, 0.485016], "properties": {"magmom": 0.002}, "label": "Si", "xyz": [4.446358481688, 4.393930455294, 5.929347760896]}, {"species": [{"element": "Si", "occu": 1}], "abc": [0.635456999999999, 0.577789, 0.985016], "properties": {"magmom": 0.002}, "label": "Si", "xyz": [3.2681655183119953, 6.013023544706001, 12.041875760896]}, {"species": [{"element": "Si", "occu": 1}], "abc": [0.364543, 0.077789, 0.514984], "properties": {"magmom": 0.002}, "label": "Si", "xyz": [1.874850481688, 0.8095465447060001, 6.295708239104]}, {"species": [{"element": "Si", "occu": 1}], "abc": [0.135457, 0.922211, 0.014983999999999002], "properties": {"magmom": 0.002}, "label": "Si", "xyz": [0.696657518312, 9.597407455294, 0.1831802391039878]}, {"species": [{"element": "Si", "occu": 1}], "abc": [0.280995, 0.790126, 0.56888], "properties": {"magmom": -0.005}, "label": "Si", "xyz": [1.4451617809200001, 8.222804936204, 6.954589857280001]}, {"species": [{"element": "Si", "occu": 1}], "abc": [0.219004999999999, 0.209873999999999, 0.06888000000000001], "properties": {"magmom": -0.005}, "label": "Si", "xyz": [1.1263462190799949, 2.18414906379599, 0.8420618572800002]}, {"species": [{"element": "Si", "occu": 1}], "abc": [0.780995, 0.709874, 0.43112000000000006], "properties": {"magmom": -0.005}, "label": "Si", "xyz": [4.01666978092, 7.3876260637960005, 5.270466142720001]}, {"species": [{"element": "Si", "occu": 1}], "abc": [0.719005, 0.290126, 0.9311200000000001], "properties": {"magmom": -0.005}, "label": "Si", "xyz": [3.6978542190800003, 3.019327936204, 11.382994142720001]}, {"species": [{"element": "Si", "occu": 1}], "abc": [0.368637999999999, 0.351383, 0.609591], "properties": {"magmom": 0.008}, "label": "Si", "xyz": [1.8959111322079951, 3.656826717382, 7.452284112096]}, {"species": [{"element": "Si", "occu": 1}], "abc": [0.131362, 0.648617, 0.109591], "properties": {"magmom": 0.008}, "label": "Si", "xyz": [0.6755968677920001, 6.750127282618, 1.339756112096]}, {"species": [{"element": "Si", "occu": 1}], "abc": [0.868637999999999, 0.148617, 0.390409], "properties": {"magmom": 0.008}, "label": "Si", "xyz": [4.467419132207995, 1.5466502826180002, 4.772771887904001]}, {"species": [{"element": "Si", "occu": 1}], "abc": [0.631362, 0.851383, 0.890409], "properties": {"magmom": 0.008}, "label": "Si", "xyz": [3.2471048677920002, 8.860303717382001, 10.885299887904]}, {"species": [{"element": "O", "occu": 1}], "abc": [0.991638999999999, 0.759127, 0.5217200000000001], "properties": {"magmom": 0.027}, "label": "O", "xyz": [5.100015243223996, 7.900199769158, 6.378056216320001]}, {"species": [{"element": "O", "occu": 1}], "abc": [0.508361, 0.24087299999999903, 0.021720000000000003], "properties": {"magmom": 0.027}, "label": "O", "xyz": [2.614508756776, 2.50675423084199, 0.26552821632000007]}, {"species": [{"element": "O", "occu": 1}], "abc": [0.491639, 0.740873, 0.47828000000000004], "properties": {"magmom": 0.027}, "label": "O", "xyz": [2.528507243224, 7.710231230842001, 5.84699978368]}, {"species": [{"element": "O", "occu": 1}], "abc": [0.008361, 0.259127, 0.97828], "properties": {"magmom": 0.027}, "label": "O", "xyz": [0.043000756776, 2.6967227691580002, 11.95952778368]}, {"species": [{"element": "O", "occu": 1}], "abc": [0.158744, 0.425938, 0.534644999999999], "properties": {"magmom": 0.004}, "label": "O", "xyz": [0.8164229319040001, 4.4327171728520005, 6.536065065119988]}, {"species": [{"element": "O", "occu": 1}], "abc": [0.341256, 0.574062, 0.034644999999999], "properties": {"magmom": 0.004}, "label": "O", "xyz": [1.7550850680960002, 5.974236827148, 0.42353706511998784]}, {"species": [{"element": "O", "occu": 1}], "abc": [0.658744, 0.074062, 0.465354999999999], "properties": {"magmom": 0.004}, "label": "O", "xyz": [3.387930931904, 0.7707598271480001, 5.688990934879988]}, {"species": [{"element": "O", "occu": 1}], "abc": [0.841256, 0.925937999999999, 0.965355], "properties": {"magmom": 0.004}, "label": "O", "xyz": [4.326593068096, 9.63619417285199, 11.80151893488]}, {"species": [{"element": "O", "occu": 1}], "abc": [0.803087999999999, 0.552669, 0.420873999999999], "properties": {"magmom": 0.021}, "label": "O", "xyz": [4.130294433407995, 5.751600860226, 5.1452082189439885]}, {"species": [{"element": "O", "occu": 1}], "abc": [0.696912, 0.447331, 0.920874], "properties": {"magmom": 0.021}, "label": "O", "xyz": [3.584229566592, 4.655353139774, 11.257736218944]}, {"species": [{"element": "O", "occu": 1}], "abc": [0.303087999999999, 0.947330999999999, 0.579125999999999], "properties": {"magmom": 0.021}, "label": "O", "xyz": [1.558786433407995, 9.85883013977399, 7.079847781055989]}, {"species": [{"element": "O", "occu": 1}], "abc": [0.196912, 0.052669, 0.079126], "properties": {"magmom": 0.021}, "label": "O", "xyz": [1.012721566592, 0.548123860226, 0.967319781056]}, {"species": [{"element": "O", "occu": 1}], "abc": [0.660891, 0.40084000000000003, 0.587166], "properties": {"magmom": 0.007}, "label": "O", "xyz": [3.398972987256, 4.171523441360001, 7.178137231296]}, {"species": [{"element": "O", "occu": 1}], "abc": [0.839109, 0.59916, 0.087166], "properties": {"magmom": 0.007}, "label": "O", "xyz": [4.315551012744, 6.235430558640001, 1.065609231296]}, {"species": [{"element": "O", "occu": 1}], "abc": [0.160891, 0.09916000000000001, 0.412834], "properties": {"magmom": 0.007}, "label": "O", "xyz": [0.827464987256, 1.0319535586400002, 5.046918768704]}, {"species": [{"element": "O", "occu": 1}], "abc": [0.339109, 0.9008400000000001, 0.912833999999999], "properties": {"magmom": 0.007}, "label": "O", "xyz": [1.744043012744, 9.375000441360001, 11.159446768703988]}, {"species": [{"element": "O", "occu": 1}], "abc": [0.715069, 0.894363999999999, 0.756745999999999], "properties": {"magmom": 0.34400000000000003}, "label": "O", "xyz": [3.677611308104, 9.30760500725599, 9.251262227775989]}, {"species": [{"element": "O", "occu": 1}], "abc": [0.784930999999999, 0.105636, 0.256746], "properties": {"magmom": 0.34400000000000003}, "label": "O", "xyz": [4.036912691895996, 1.099348992744, 3.1387342277759998]}, {"species": [{"element": "O", "occu": 1}], "abc": [0.215068999999999, 0.605636, 0.243254], "properties": {"magmom": 0.34400000000000003}, "label": "O", "xyz": [1.106103308103995, 6.302825992744, 2.973793772224]}, {"species": [{"element": "O", "occu": 1}], "abc": [0.284931, 0.394364, 0.743254], "properties": {"magmom": 0.34400000000000003}, "label": "O", "xyz": [1.465404691896, 4.1041280072560005, 9.086321772224]}, {"species": [{"element": "O", "occu": 1}], "abc": [0.832876, 0.301425, 0.400248], "properties": {"magmom": 0.003}, "label": "O", "xyz": [4.283494594016, 3.13691610945, 4.893054213888]}, {"species": [{"element": "O", "occu": 1}], "abc": [0.667123999999999, 0.698575, 0.900247999999999], "properties": {"magmom": 0.003}, "label": "O", "xyz": [3.4310294059839954, 7.27003789055, 11.005582213887989]}, {"species": [{"element": "O", "occu": 1}], "abc": [0.332876, 0.198575, 0.599752], "properties": {"magmom": 0.003}, "label": "O", "xyz": [1.7119865940160002, 2.0665608905500004, 7.3320017861119995]}, {"species": [{"element": "O", "occu": 1}], "abc": [0.167124, 0.801424999999999, 0.099752], "properties": {"magmom": 0.003}, "label": "O", "xyz": [0.8595214059840001, 8.340393109449991, 1.219473786112]}, {"species": [{"element": "O", "occu": 1}], "abc": [0.324090999999999, 0.734606, 0.692041999999999], "properties": {"magmom": 0.484}, "label": "O", "xyz": [1.666805198455995, 7.645010850124001, 8.460252204351988]}, {"species": [{"element": "O", "occu": 1}], "abc": [0.175908999999999, 0.265393999999999, 0.192042], "properties": {"magmom": 0.484}, "label": "O", "xyz": [0.904702801543995, 2.76194314987599, 2.347724204352]}, {"species": [{"element": "O", "occu": 1}], "abc": [0.824091, 0.765394, 0.307958], "properties": {"magmom": 0.484}, "label": "O", "xyz": [4.238313198456001, 7.965420149876, 3.764803795648]}, {"species": [{"element": "O", "occu": 1}], "abc": [0.675909, 0.234605999999999, 0.807958], "properties": {"magmom": 0.484}, "label": "O", "xyz": [3.476210801544, 2.44153385012399, 9.877331795647999]}, {"species": [{"element": "O", "occu": 1}], "abc": [0.215645, 0.515823, 0.75558], "properties": {"magmom": 0.75}, "label": "O", "xyz": [1.10906568532, 5.368146233142001, 9.23700781248]}, {"species": [{"element": "O", "occu": 1}], "abc": [0.284354999999999, 0.484176999999999, 0.25558000000000003], "properties": {"magmom": 0.75}, "label": "O", "xyz": [1.462442314679995, 5.03880776685799, 3.1244798124800006]}, {"species": [{"element": "O", "occu": 1}], "abc": [0.715645, 0.984177, 0.24442000000000003], "properties": {"magmom": 0.75}, "label": "O", "xyz": [3.68057368532, 10.242284766858, 2.9880481875200005]}, {"species": [{"element": "O", "occu": 1}], "abc": [0.784354999999999, 0.015823, 0.7444200000000001], "properties": {"magmom": 0.75}, "label": "O", "xyz": [4.033950314679995, 0.16466923314200002, 9.100576187520002]}]}, "task_ids": null, "uncorrected_energy_per_atom": null, "energy_per_atom": -7.183111781363636, "formation_energy_per_atom": -2.104962496818182, "energy_above_hull": 0.5728086027272721, "is_stable": false, "equilibrium_reaction_energy_per_atom": null, "decomposes_to": null, "xas": null, "grain_boundaries": null, "band_gap": 0.07060000000000001, "cbm": null, "vbm": null, "efermi": 0.41384269, "is_gap_direct": null, "is_metal": null, "es_source_calc_id": null, "bandstructure": null, "dos": null, "dos_energy_up": null, "dos_energy_down": null, "is_magnetic": null, "ordering": null, "total_magnetization": 8.0017246, "total_magnetization_normalized_vol": null, "total_magnetization_normalized_formula_units": null, "num_magnetic_sites": null, "num_unique_magnetic_sites": null, "types_of_magnetic_species": null, "bulk_modulus": null, "shear_modulus": null, "universal_anisotropy": null, "homogeneous_poisson": null, "e_total": null, "e_ionic": null, "e_electronic": null, "n": null, "e_ij_max": null, "weighted_surface_energy_EV_PER_ANG2": null, "weighted_surface_energy": null, "weighted_work_function": null, "surface_anisotropy": null, "shape_factor": null, "has_reconstructed": null, "possible_species": null, "has_props": null, "theoretical": null, "database_IDs": null, "fields_not_requested": ["builder_meta", "nsites", "elements", "nelements", "composition", "composition_reduced", "chemsys", "symmetry", "property_name", "deprecated", "deprecation_reasons", "last_updated", "origins", "warnings", "task_ids", "uncorrected_energy_per_atom", "equilibrium_reaction_energy_per_atom", "decomposes_to", "xas", "grain_boundaries", "cbm", "vbm", "is_gap_direct", "is_metal", "es_source_calc_id", "bandstructure", "dos", "dos_energy_up", "dos_energy_down", "is_magnetic", "ordering", "total_magnetization_normalized_vol", "total_magnetization_normalized_formula_units", "num_magnetic_sites", "num_unique_magnetic_sites", "types_of_magnetic_species", "bulk_modulus", "shear_modulus", "universal_anisotropy", "homogeneous_poisson", "e_total", "e_ionic", "e_electronic", "n", "e_ij_max", "weighted_surface_energy_EV_PER_ANG2", "weighted_surface_energy", "weighted_work_function", "surface_anisotropy", "shape_factor", "has_reconstructed", "possible_species", "has_props", "theoretical", "database_IDs"]}