{"builder_meta": null, "nsites": null, "elements": null, "nelements": null, "composition": null, "composition_reduced": null, "formula_pretty": "Si3O", "formula_anonymous": "AB3", "chemsys": null, "volume": 310.48217325699835, "density": 2.1447780638837752, "density_atomic": 19.405135828562397, "symmetry": null, "property_name": null, "material_id": "mp-32881", "deprecated": null, "deprecation_reasons": null, "last_updated": null, "origins": null, "warnings": null, "structure": {"@module": "pymatgen.core.structure", "@class": "Structure", "charge": 0, "lattice": {"matrix": [[2.107117, 9.262449, 0.0], [-2.107117, 9.262449, 0.0], [0.0, 2.564524, 7.954121]], "pbc": [true, true, true], "a": 9.499100143134084, "b": 9.499100143134084, "c": 8.357321594220064, "alpha": 72.5895539385899, "beta": 72.5895539385899, "gamma": 25.632234906346984, "volume": 310.48217325699835}, "properties": {}, "sites": [{"species": [{"element": "Si", "occu": 1}], "abc": [0.26303000000000004, 0.132829, 0.536488], "properties": {"magmom": 0.0}, "label": "Si", "xyz": [0.27434874051700003, 5.042460150403, 4.267290467047999]}, {"species": [{"element": "Si", "occu": 1}], "abc": [0.890586999999999, 0.862128, 0.162697999999999], "properties": {"magmom": 0.0}, "label": "Si", "xyz": [0.059966442702998, 16.651676224786986, 1.2941195784579922]}, {"species": [{"element": "Si", "occu": 1}], "abc": [0.73697, 0.867170999999999, 0.463512], "properties": {"magmom": 0.0}, "label": "Si", "xyz": [-0.274348740516998, 16.04696184959699, 3.686830532952]}, {"species": [{"element": "Si", "occu": 1}], "abc": [0.570794, 0.529818999999999, 0.378082], "properties": {"magmom": 0.0}, "label": "Si", "xyz": [0.08633911907500225, 11.163972144204992, 3.007309975922]}, {"species": [{"element": "Si", "occu": 1}], "abc": [0.529818999999999, 0.570794, 0.878081999999999], "properties": {"magmom": 0.0}, "label": "Si", "xyz": [-0.08633911907500225, 12.44623414420499, 6.984370475921992]}, {"species": [{"element": "Si", "occu": 1}], "abc": [0.470180999999999, 0.429206, 0.121918], "properties": {"magmom": 0.0}, "label": "Si", "xyz": [0.08633911907499792, 8.643187855794991, 0.969750524078]}, {"species": [{"element": "Si", "occu": 1}], "abc": [0.132829, 0.26303000000000004, 0.036488], "properties": {"magmom": 0.0}, "label": "Si", "xyz": [-0.27434874051700003, 3.7601981504029998, 0.29022996704799997]}, {"species": [{"element": "Si", "occu": 1}], "abc": [0.137872, 0.109413, 0.337302], "properties": {"magmom": 0.0}, "label": "Si", "xyz": [0.05996644270299997, 3.155483775213, 2.682940921542]}, {"species": [{"element": "Si", "occu": 1}], "abc": [0.109413, 0.137872, 0.837302], "properties": {"magmom": 0.0}, "label": "Si", "xyz": [-0.05996644270299997, 4.437745775213, 6.660001421542]}, {"species": [{"element": "Si", "occu": 1}], "abc": [0.867170999999999, 0.73697, 0.963511999999999], "properties": {"magmom": 0.0}, "label": "Si", "xyz": [0.274348740516998, 17.32922384959699, 7.663891032951992]}, {"species": [{"element": "Si", "occu": 1}], "abc": [0.862128, 0.890586999999999, 0.662698], "properties": {"magmom": 0.0}, "label": "Si", "xyz": [-0.059966442702998, 17.93393822478699, 5.271180078458]}, {"species": [{"element": "Si", "occu": 1}], "abc": [0.429206, 0.470180999999999, 0.621918], "properties": {"magmom": 0.0}, "label": "Si", "xyz": [-0.08633911907499792, 9.92544985579499, 4.946811024077999]}, {"species": [{"element": "O", "occu": 1}], "abc": [0.0, 0.5, 0.5], "properties": {"magmom": 0.0}, "label": "O", "xyz": [-1.0535585, 5.9134865, 3.9770605]}, {"species": [{"element": "O", "occu": 1}], "abc": [0.588735, 0.411265, 0.25], "properties": {"magmom": 0.0}, "label": "O", "xyz": [0.37395005399000014, 9.90358, 1.98853025]}, {"species": [{"element": "O", "occu": 1}], "abc": [0.5, 0.0, 0.0], "properties": {"magmom": 0.0}, "label": "O", "xyz": [1.0535585, 4.6312245, 0.0]}, {"species": [{"element": "O", "occu": 1}], "abc": [0.411265, 0.588735, 0.75], "properties": {"magmom": 0.0}, "label": "O", "xyz": [-0.37395005399000014, 11.185842000000001, 5.96559075]}]}, "task_ids": null, "uncorrected_energy_per_atom": null, "energy_per_atom": -6.088392576875, "formation_energy_per_atom": -0.7824138031250001, "energy_above_hull": 0.44489795083333306, "is_stable": false, "equilibrium_reaction_energy_per_atom": null, "decomposes_to": null, "xas": null, "grain_boundaries": null, "band_gap": 0.1885, "cbm": null, "vbm": null, "efermi": 4.45225032, "is_gap_direct": null, "is_metal": null, "es_source_calc_id": null, "bandstructure": null, "dos": null, "dos_energy_up": null, "dos_energy_down": null, "is_magnetic": null, "ordering": null, "total_magnetization": 0.000395799999999, "total_magnetization_normalized_vol": null, "total_magnetization_normalized_formula_units": null, "num_magnetic_sites": null, "num_unique_magnetic_sites": null, "types_of_magnetic_species": null, "bulk_modulus": null, "shear_modulus": null, "universal_anisotropy": null, "homogeneous_poisson": null, "e_total": null, "e_ionic": null, "e_electronic": null, "n": null, "e_ij_max": null, "weighted_surface_energy_EV_PER_ANG2": null, "weighted_surface_energy": null, "weighted_work_function": null, "surface_anisotropy": null, "shape_factor": null, "has_reconstructed": null, "possible_species": null, "has_props": null, "theoretical": null, "database_IDs": null, "fields_not_requested": ["builder_meta", "nsites", "elements", "nelements", "composition", "composition_reduced", "chemsys", "symmetry", "property_name", "deprecated", "deprecation_reasons", "last_updated", "origins", "warnings", "task_ids", "uncorrected_energy_per_atom", "equilibrium_reaction_energy_per_atom", "decomposes_to", "xas", "grain_boundaries", "cbm", "vbm", "is_gap_direct", "is_metal", "es_source_calc_id", "bandstructure", "dos", "dos_energy_up", "dos_energy_down", "is_magnetic", "ordering", "total_magnetization_normalized_vol", "total_magnetization_normalized_formula_units", "num_magnetic_sites", "num_unique_magnetic_sites", "types_of_magnetic_species", "bulk_modulus", "shear_modulus", "universal_anisotropy", "homogeneous_poisson", "e_total", "e_ionic", "e_electronic", "n", "e_ij_max", "weighted_surface_energy_EV_PER_ANG2", "weighted_surface_energy", "weighted_work_function", "surface_anisotropy", "shape_factor", "has_reconstructed", "possible_species", "has_props", "theoretical", "database_IDs"]}