{"builder_meta": null, "nsites": null, "elements": null, "nelements": null, "composition": null, "composition_reduced": null, "formula_pretty": "Si3O7", "formula_anonymous": "A3B7", "chemsys": null, "volume": 352.79786438736227, "density": 1.8474296131355872, "density_atomic": 17.639893219368112, "symmetry": null, "property_name": null, "material_id": "mp-1250755", "deprecated": null, "deprecation_reasons": null, "last_updated": null, "origins": null, "warnings": null, "structure": {"@module": "pymatgen.core.structure", "@class": "Structure", "charge": 0, "lattice": {"matrix": [[7.463229, -0.362257999999999, -0.9529709999999991], [-1.760382, 6.708977, -1.479131], [-0.085299, 1.141075, 6.855315]], "pbc": [true, true, true], "a": 7.5325408523184265, "b": 7.092048060159632, "c": 6.950156244592707, "alpha": 92.71441540565613, "beta": 98.32820605663149, "gamma": 105.36955900720214, "volume": 352.7978643873623}, "properties": {}, "sites": [{"species": [{"element": "Si", "occu": 1}], "abc": [0.049092, 0.48223000000000005, 0.886355999999999], "properties": {"magmom": -0.0}, "label": "Si", "xyz": [-0.5581294542359999, 4.228884681674, 5.316184987677993]}, {"species": [{"element": "Si", "occu": 1}], "abc": [0.312857, 0.238988999999999, 0.051637999999999004], "properties": {"magmom": -0.007}, "label": "Si", "xyz": [1.909806831693002, 1.5489595839969925, -0.29764493073600506]}, {"species": [{"element": "Si", "occu": 1}], "abc": [0.904162999999999, 0.170615, 0.510741], "properties": {"magmom": 0.003}, "label": "Si", "xyz": [6.404062250837993, 1.399905617376001, 2.3872873845770015]}, {"species": [{"element": "Si", "occu": 1}], "abc": [0.223157, 0.886612, 0.729158], "properties": {"magmom": 0.001}, "label": "Si", "xyz": [0.04249953992700017, 6.699443072268, 3.4745303311510005]}, {"species": [{"element": "Si", "occu": 1}], "abc": [0.63534, 0.910983999999999, 0.756639], "properties": {"magmom": -0.012}, "label": "Si", "xyz": [3.0734675269110014, 6.744995552572994, 3.2340734162410016]}, {"species": [{"element": "Si", "occu": 1}], "abc": [0.730584999999999, 0.273111999999999, 0.09124], "properties": {"magmom": -0.0}, "label": "Si", "xyz": [4.9639590294209945, 1.6717535484939943, -0.474715803106997]}, {"species": [{"element": "O", "occu": 1}], "abc": [0.668516, 0.699294, 0.814272999999999], "properties": {"magmom": 0.654}, "label": "O", "xyz": [3.6888067552290007, 5.378518656584999, 3.910674116444994]}, {"species": [{"element": "O", "occu": 1}], "abc": [0.747937, 0.997825, 0.58281], "properties": {"magmom": 0.015}, "label": "O", "xyz": [3.775758829233, 7.088468734029001, 1.8066699742480012]}, {"species": [{"element": "O", "occu": 1}], "abc": [0.981888, 0.356375, 0.673128], "properties": {"magmom": 0.008}, "label": "O", "xyz": [6.64328171583, 2.803304427871001, 3.1516683759470006]}, {"species": [{"element": "O", "occu": 1}], "abc": [0.095723, 0.091649, 0.483145], "properties": {"magmom": 0.151}, "label": "O", "xyz": [0.5118536342940001, 1.131499291414, 3.085329045623]}, {"species": [{"element": "O", "occu": 1}], "abc": [0.411966, 0.845650999999999, 0.668764999999999], "properties": {"magmom": 0.076}, "label": "O", "xyz": [1.528882813797002, 6.287326152173994, 2.941174475707996]}, {"species": [{"element": "O", "occu": 1}], "abc": [0.877324, 0.450521, 0.009023999999999], "properties": {"magmom": 0.006}, "label": "O", "xyz": [5.753811121998, 2.715014450225, -1.4405815442950058]}, {"species": [{"element": "O", "occu": 1}], "abc": [0.207625999999999, 0.07802, 0.188008999999999], "properties": {"magmom": 0.551}, "label": "O", "xyz": [1.396178401022993, 0.6627525757069994, 0.9755975603689944]}, {"species": [{"element": "O", "occu": 1}], "abc": [0.22324000000000002, 0.422344, 0.011680000000000001], "properties": {"magmom": 0.008}, "label": "O", "xyz": [0.9216081742320004, 2.765953462168, -0.7573732699039999]}, {"species": [{"element": "O", "occu": 1}], "abc": [0.538907, 0.329754, 0.114524999999999], "properties": {"magmom": 0.004}, "label": "O", "xyz": [3.4317244767, 2.147770244026999, -0.21620715609600638]}, {"species": [{"element": "O", "occu": 1}], "abc": [0.828448, 0.237484, 0.305336], "properties": {"magmom": 0.002}, "label": "O", "xyz": [5.73878972424, 1.641574054484001, 0.9524175954280005]}, {"species": [{"element": "O", "occu": 1}], "abc": [0.116245, 0.711977, 0.845577999999999], "properties": {"magmom": 0.009000000000000001}, "label": "O", "xyz": [-0.45791539793099983, 5.699394552668999, 4.632818181187994]}, {"species": [{"element": "O", "occu": 1}], "abc": [0.276566, 0.100565999999999, 0.845895], "properties": {"magmom": 0.065}, "label": "O", "xyz": [1.8148868177970015, 1.5397363720789936, 5.386567016193002]}, {"species": [{"element": "O", "occu": 1}], "abc": [0.687743, 0.074889, 0.942735], "properties": {"magmom": 0.009000000000000001}, "label": "O", "xyz": [4.9205359017840005, 1.3290195149840005, 5.696575610613001]}, {"species": [{"element": "O", "occu": 1}], "abc": [0.067804999999999, 0.8888800000000001, 0.527443], "properties": {"magmom": 0.06}, "label": "O", "xyz": [-1.1037144702720076, 6.540764593295002, 2.236401747610001]}]}, "task_ids": null, "uncorrected_energy_per_atom": null, "energy_per_atom": -7.436456289499999, "formation_energy_per_atom": -2.345288176999999, "energy_above_hull": 0.600260032500001, "is_stable": false, "equilibrium_reaction_energy_per_atom": null, "decomposes_to": null, "xas": null, "grain_boundaries": null, "band_gap": 0.20499999999999902, "cbm": null, "vbm": null, "efermi": -0.77208874, "is_gap_direct": null, "is_metal": null, "es_source_calc_id": null, "bandstructure": null, "dos": null, "dos_energy_up": null, "dos_energy_down": null, "is_magnetic": null, "ordering": null, "total_magnetization": 2.0000001, "total_magnetization_normalized_vol": null, "total_magnetization_normalized_formula_units": null, "num_magnetic_sites": null, "num_unique_magnetic_sites": null, "types_of_magnetic_species": null, "bulk_modulus": null, "shear_modulus": null, "universal_anisotropy": null, "homogeneous_poisson": null, "e_total": null, "e_ionic": null, "e_electronic": null, "n": null, "e_ij_max": null, "weighted_surface_energy_EV_PER_ANG2": null, "weighted_surface_energy": null, "weighted_work_function": null, "surface_anisotropy": null, "shape_factor": null, "has_reconstructed": null, "possible_species": null, "has_props": null, "theoretical": null, "database_IDs": null, "fields_not_requested": ["builder_meta", "nsites", "elements", "nelements", "composition", "composition_reduced", "chemsys", "symmetry", "property_name", "deprecated", "deprecation_reasons", "last_updated", "origins", "warnings", "task_ids", "uncorrected_energy_per_atom", "equilibrium_reaction_energy_per_atom", "decomposes_to", "xas", "grain_boundaries", "cbm", "vbm", "is_gap_direct", "is_metal", "es_source_calc_id", "bandstructure", "dos", "dos_energy_up", "dos_energy_down", "is_magnetic", "ordering", "total_magnetization_normalized_vol", "total_magnetization_normalized_formula_units", "num_magnetic_sites", "num_unique_magnetic_sites", "types_of_magnetic_species", "bulk_modulus", "shear_modulus", "universal_anisotropy", "homogeneous_poisson", "e_total", "e_ionic", "e_electronic", "n", "e_ij_max", "weighted_surface_energy_EV_PER_ANG2", "weighted_surface_energy", "weighted_work_function", "surface_anisotropy", "shape_factor", "has_reconstructed", "possible_species", "has_props", "theoretical", "database_IDs"]}