{
  "builder_meta": null,
  "nsites": null,
  "elements": null,
  "nelements": null,
  "composition": null,
  "composition_reduced": null,
  "formula_pretty": "Si3Pt2",
  "formula_anonymous": "A2B3",
  "chemsys": null,
  "volume": 159.18038476556535,
  "density": 9.898209726812928,
  "density_atomic": 15.918038476556536,
  "symmetry": null,
  "property_name": null,
  "material_id": "mp-10744",
  "deprecated": null,
  "deprecation_reasons": null,
  "last_updated": null,
  "origins": null,
  "warnings": null,
  "structure": {
    "@module": "pymatgen.core.structure",
    "@class": "Structure",
    "charge": 0,
    "lattice": {
      "matrix": [
        [3.91138822, 0.0, -0.0],
        [-1.95569311, 3.38736063, -0.0],
        [-0.0, 0.0, 12.01426456]
      ],
      "pbc": [true, true, true],
      "a": 3.91138822,
      "b": 3.911386912359281,
      "c": 12.01426456,
      "alpha": 90.0,
      "beta": 90.0,
      "gamma": 119.9999941445169,
      "volume": 159.18038476556535
    },
    "properties": {},
    "sites": [
      {
        "species": [{ "element": "Si", "occu": 1 }],
        "abc": [0.333333, 0.666667, 0.56460365],
        "properties": { "magmom": -0.0 },
        "label": "Si",
        "xyz": [-1.2890271099408324e-6, 2.25824154912021, 6.783297622641645]
      },
      {
        "species": [{ "element": "Si", "occu": 1 }],
        "abc": [0.666667, 0.333333, 0.06460365],
        "properties": { "magmom": -0.0 },
        "label": "Si",
        "xyz": [1.9556963990271101, 1.12911908087979, 0.776165342641644]
      },
      {
        "species": [{ "element": "Si", "occu": 1 }],
        "abc": [0.666667, 0.333333, 0.43539635],
        "properties": { "magmom": -0.0 },
        "label": "Si",
        "xyz": [1.9556963990271101, 1.12911908087979, 5.230966937358356]
      },
      {
        "species": [{ "element": "Si", "occu": 1 }],
        "abc": [0.333333, 0.666667, 0.93539635],
        "properties": { "magmom": -0.0 },
        "label": "Si",
        "xyz": [-1.2890271099408324e-6, 2.25824154912021, 11.238099217358357]
      },
      {
        "species": [{ "element": "Si", "occu": 1 }],
        "abc": [-0.0, -0.0, 0.25],
        "properties": { "magmom": -0.0 },
        "label": "Si",
        "xyz": [0.0, 0.0, 3.00356614]
      },
      {
        "species": [{ "element": "Si", "occu": 1 }],
        "abc": [-0.0, 0.0, 0.75],
        "properties": { "magmom": -0.0 },
        "label": "Si",
        "xyz": [0.0, 0.0, 9.01069842]
      },
      {
        "species": [{ "element": "Pt", "occu": 1 }],
        "abc": [0.333333, 0.666667, 0.36306572],
        "properties": { "magmom": 0.0 },
        "label": "Pt",
        "xyz": [-1.2890271099408324e-6, 2.25824154912021, 4.361967612746883]
      },
      {
        "species": [{ "element": "Pt", "occu": 1 }],
        "abc": [0.666667, 0.333333, 0.86306572],
        "properties": { "magmom": 0.0 },
        "label": "Pt",
        "xyz": [1.9556963990271101, 1.12911908087979, 10.369099892746885]
      },
      {
        "species": [{ "element": "Pt", "occu": 1 }],
        "abc": [0.666667, 0.333333, 0.63693428],
        "properties": { "magmom": 0.0 },
        "label": "Pt",
        "xyz": [1.9556963990271101, 1.12911908087979, 7.652296947253117]
      },
      {
        "species": [{ "element": "Pt", "occu": 1 }],
        "abc": [0.333333, 0.666667, 0.13693428],
        "properties": { "magmom": 0.0 },
        "label": "Pt",
        "xyz": [-1.2890271099408324e-6, 2.25824154912021, 1.6451646672531168]
      }
    ]
  },
  "task_ids": null,
  "uncorrected_energy_per_atom": null,
  "energy_per_atom": -26.403662677,
  "formation_energy_per_atom": -0.5443171599999971,
  "energy_above_hull": 0.013293738999998,
  "is_stable": false,
  "equilibrium_reaction_energy_per_atom": null,
  "decomposes_to": null,
  "xas": null,
  "grain_boundaries": null,
  "band_gap": 0.0,
  "cbm": null,
  "vbm": null,
  "efermi": 8.66462143,
  "is_gap_direct": null,
  "is_metal": null,
  "es_source_calc_id": null,
  "bandstructure": null,
  "dos": null,
  "dos_energy_up": null,
  "dos_energy_down": null,
  "is_magnetic": null,
  "ordering": null,
  "total_magnetization": 0.0,
  "total_magnetization_normalized_vol": null,
  "total_magnetization_normalized_formula_units": null,
  "num_magnetic_sites": null,
  "num_unique_magnetic_sites": null,
  "types_of_magnetic_species": null,
  "bulk_modulus": null,
  "shear_modulus": null,
  "universal_anisotropy": null,
  "homogeneous_poisson": null,
  "e_total": null,
  "e_ionic": null,
  "e_electronic": null,
  "n": null,
  "e_ij_max": null,
  "weighted_surface_energy_EV_PER_ANG2": null,
  "weighted_surface_energy": null,
  "weighted_work_function": null,
  "surface_anisotropy": null,
  "shape_factor": null,
  "has_reconstructed": null,
  "possible_species": null,
  "has_props": null,
  "theoretical": null,
  "database_IDs": null,
  "fields_not_requested": [
    "builder_meta",
    "nsites",
    "elements",
    "nelements",
    "composition",
    "composition_reduced",
    "chemsys",
    "symmetry",
    "property_name",
    "deprecated",
    "deprecation_reasons",
    "last_updated",
    "origins",
    "warnings",
    "task_ids",
    "uncorrected_energy_per_atom",
    "equilibrium_reaction_energy_per_atom",
    "decomposes_to",
    "xas",
    "grain_boundaries",
    "cbm",
    "vbm",
    "is_gap_direct",
    "is_metal",
    "es_source_calc_id",
    "bandstructure",
    "dos",
    "dos_energy_up",
    "dos_energy_down",
    "is_magnetic",
    "ordering",
    "total_magnetization_normalized_vol",
    "total_magnetization_normalized_formula_units",
    "num_magnetic_sites",
    "num_unique_magnetic_sites",
    "types_of_magnetic_species",
    "bulk_modulus",
    "shear_modulus",
    "universal_anisotropy",
    "homogeneous_poisson",
    "e_total",
    "e_ionic",
    "e_electronic",
    "n",
    "e_ij_max",
    "weighted_surface_energy_EV_PER_ANG2",
    "weighted_surface_energy",
    "weighted_work_function",
    "surface_anisotropy",
    "shape_factor",
    "has_reconstructed",
    "possible_species",
    "has_props",
    "theoretical",
    "database_IDs"
  ]
}
