{"builder_meta": null, "nsites": null, "elements": null, "nelements": null, "composition": null, "composition_reduced": null, "formula_pretty": "Si3Rh5", "formula_anonymous": "A3B5", "chemsys": null, "volume": 211.89267141274732, "density": 9.384979837440454, "density_atomic": 13.243291963296707, "symmetry": null, "property_name": null, "material_id": "mp-21012", "deprecated": null, "deprecation_reasons": null, "last_updated": null, "origins": null, "warnings": null, "structure": {"@module": "pymatgen.core.structure", "@class": "Structure", "charge": 0, "lattice": {"matrix": [[3.86964966, 0.0, 0.0], [0.0, 5.35038801, -0.0], [0.0, -0.0, 10.23432043]], "pbc": [true, true, true], "a": 3.86964966, "b": 5.35038801, "c": 10.23432043, "alpha": 90.0, "beta": 90.0, "gamma": 90.0, "volume": 211.89267141274732}, "properties": {}, "sites": [{"species": [{"element": "Si", "occu": 1}], "abc": [0.5, 0.09382593, 0.65561607], "properties": {"magmom": 0.0}, "label": "Si", "xyz": [1.93482483, 0.5020051308990993, 6.70978493943731]}, {"species": [{"element": "Si", "occu": 1}], "abc": [0.5, 0.90617407, 0.34438393], "properties": {"magmom": 0.0}, "label": "Si", "xyz": [1.93482483, 4.8483828791009005, 3.52453549056269]}, {"species": [{"element": "Si", "occu": 1}], "abc": [0.5, 0.5938259300000001, 0.84438393], "properties": {"magmom": 0.0}, "label": "Si", "xyz": [1.93482483, 3.1771991358990994, 8.64169570556269]}, {"species": [{"element": "Si", "occu": 1}], "abc": [0.5, 0.40617407, 0.15561607], "properties": {"magmom": 0.0}, "label": "Si", "xyz": [1.93482483, 2.1731888741009007, 1.5926247244373102]}, {"species": [{"element": "Si", "occu": 1}], "abc": [0.0, 0.5, 0.5], "properties": {"magmom": 0.0}, "label": "Si", "xyz": [0.0, 2.675194005, 5.117160215]}, {"species": [{"element": "Si", "occu": 1}], "abc": [0.0, 0.0, 0.0], "properties": {"magmom": 0.0}, "label": "Si", "xyz": [0.0, 0.0, 0.0]}, {"species": [{"element": "Rh", "occu": 1}], "abc": [0.5, 0.33347879, 0.39259033], "properties": {"magmom": -0.0}, "label": "Rh", "xyz": [1.93482483, 1.784240919605308, 4.017895234939442]}, {"species": [{"element": "Rh", "occu": 1}], "abc": [0.5, 0.66652121, 0.60740967], "properties": {"magmom": -0.0}, "label": "Rh", "xyz": [1.93482483, 3.5661470903946917, 6.216425195060558]}, {"species": [{"element": "Rh", "occu": 1}], "abc": [0.5, 0.83347879, 0.10740967], "properties": {"magmom": -0.0}, "label": "Rh", "xyz": [1.93482483, 4.459434924605308, 1.099264980060558]}, {"species": [{"element": "Rh", "occu": 1}], "abc": [0.5, 0.16652121, 0.89259033], "properties": {"magmom": -0.0}, "label": "Rh", "xyz": [1.93482483, 0.8909530853946921, 9.135055449939442]}, {"species": [{"element": "Rh", "occu": 1}], "abc": [-0.0, 0.33966008000000003, 0.7123752], "properties": {"magmom": -0.0}, "label": "Rh", "xyz": [0.0, 1.817313219507641, 7.2906760631853365]}, {"species": [{"element": "Rh", "occu": 1}], "abc": [0.0, 0.66033992, 0.2876248], "properties": {"magmom": -0.0}, "label": "Rh", "xyz": [0.0, 3.5330747904923587, 2.9436443668146643]}, {"species": [{"element": "Rh", "occu": 1}], "abc": [0.0, 0.83966008, 0.7876248], "properties": {"magmom": -0.0}, "label": "Rh", "xyz": [0.0, 4.492507224507641, 8.060804581814665]}, {"species": [{"element": "Rh", "occu": 1}], "abc": [0.0, 0.16033992, 0.2123752], "properties": {"magmom": -0.0}, "label": "Rh", "xyz": [0.0, 0.8578807854923591, 2.173515848185336]}, {"species": [{"element": "Rh", "occu": 1}], "abc": [0.0, 0.5, 0.0], "properties": {"magmom": 0.0}, "label": "Rh", "xyz": [0.0, 2.675194005, 0.0]}, {"species": [{"element": "Rh", "occu": 1}], "abc": [0.0, 0.0, 0.5], "properties": {"magmom": 0.0}, "label": "Rh", "xyz": [0.0, 0.0, 5.117160215]}]}, "task_ids": null, "uncorrected_energy_per_atom": null, "energy_per_atom": -19.143652451875, "formation_energy_per_atom": -0.768347834999996, "energy_above_hull": 0.043721541249999, "is_stable": false, "equilibrium_reaction_energy_per_atom": null, "decomposes_to": null, "xas": null, "grain_boundaries": null, "band_gap": 0.0, "cbm": null, "vbm": null, "efermi": 8.54240672, "is_gap_direct": null, "is_metal": null, "es_source_calc_id": null, "bandstructure": null, "dos": null, "dos_energy_up": null, "dos_energy_down": null, "is_magnetic": null, "ordering": null, "total_magnetization": 4e-07, "total_magnetization_normalized_vol": null, "total_magnetization_normalized_formula_units": null, "num_magnetic_sites": null, "num_unique_magnetic_sites": null, "types_of_magnetic_species": null, "bulk_modulus": null, "shear_modulus": null, "universal_anisotropy": null, "homogeneous_poisson": null, "e_total": null, "e_ionic": null, "e_electronic": null, "n": null, "e_ij_max": null, "weighted_surface_energy_EV_PER_ANG2": null, "weighted_surface_energy": null, "weighted_work_function": null, "surface_anisotropy": null, "shape_factor": null, "has_reconstructed": null, "possible_species": null, "has_props": null, "theoretical": null, "database_IDs": null, "fields_not_requested": ["builder_meta", "nsites", "elements", "nelements", "composition", "composition_reduced", "chemsys", "symmetry", "property_name", "deprecated", "deprecation_reasons", "last_updated", "origins", "warnings", "task_ids", "uncorrected_energy_per_atom", "equilibrium_reaction_energy_per_atom", "decomposes_to", "xas", "grain_boundaries", "cbm", "vbm", "is_gap_direct", "is_metal", "es_source_calc_id", "bandstructure", "dos", "dos_energy_up", "dos_energy_down", "is_magnetic", "ordering", "total_magnetization_normalized_vol", "total_magnetization_normalized_formula_units", "num_magnetic_sites", "num_unique_magnetic_sites", "types_of_magnetic_species", "bulk_modulus", "shear_modulus", "universal_anisotropy", "homogeneous_poisson", "e_total", "e_ionic", "e_electronic", "n", "e_ij_max", "weighted_surface_energy_EV_PER_ANG2", "weighted_surface_energy", "weighted_work_function", "surface_anisotropy", "shape_factor", "has_reconstructed", "possible_species", "has_props", "theoretical", "database_IDs"]}