{
  "builder_meta": null,
  "nsites": null,
  "elements": null,
  "nelements": null,
  "composition": null,
  "composition_reduced": null,
  "formula_pretty": "Si3Ru4",
  "formula_anonymous": "A3B4",
  "chemsys": null,
  "volume": 356.44870125221195,
  "density": 9.103514091762976,
  "density_atomic": 12.730310759007569,
  "symmetry": null,
  "property_name": null,
  "material_id": "mp-510412",
  "deprecated": null,
  "deprecation_reasons": null,
  "last_updated": null,
  "origins": null,
  "warnings": null,
  "structure": {
    "@module": "pymatgen.core.structure",
    "@class": "Structure",
    "charge": 0,
    "lattice": {
      "matrix": [
        [4.01329825, 0.0, 0.0],
        [0.0, 5.1835339, 0.0],
        [0.0, 0.0, 17.13442985]
      ],
      "pbc": [true, true, true],
      "a": 4.01329825,
      "b": 5.1835339,
      "c": 17.13442985,
      "alpha": 90.0,
      "beta": 90.0,
      "gamma": 90.0,
      "volume": 356.44870125221195
    },
    "properties": {},
    "sites": [
      {
        "species": [{ "element": "Si", "occu": 1 }],
        "abc": [0.75, 0.99482646, 0.60345985],
        "properties": { "magmom": -0.0 },
        "label": "Si",
        "xyz": [3.0099736875, 5.156716680026993, 10.339940467116524]
      },
      {
        "species": [{ "element": "Si", "occu": 1 }],
        "abc": [0.25, 0.00517354, 0.39654015000000004],
        "properties": { "magmom": -0.0 },
        "label": "Si",
        "xyz": [1.0033245625, 0.026817219973006, 6.794489382883478]
      },
      {
        "species": [{ "element": "Si", "occu": 1 }],
        "abc": [0.75, 0.49482646, 0.89654015],
        "properties": { "magmom": -0.0 },
        "label": "Si",
        "xyz": [3.0099736875, 2.564949730026994, 15.361704307883477]
      },
      {
        "species": [{ "element": "Si", "occu": 1 }],
        "abc": [0.25, 0.50517354, 0.10345985],
        "properties": { "magmom": -0.0 },
        "label": "Si",
        "xyz": [1.0033245625, 2.618584169973006, 1.7727255421165227]
      },
      {
        "species": [{ "element": "Si", "occu": 1 }],
        "abc": [0.75, 0.84914763, 0.03368554],
        "properties": { "magmom": 0.0 },
        "label": "Si",
        "xyz": [3.0099736875, 4.401585526209657, 0.577182522089369]
      },
      {
        "species": [{ "element": "Si", "occu": 1 }],
        "abc": [0.25, 0.15085237, 0.96631446],
        "properties": { "magmom": 0.0 },
        "label": "Si",
        "xyz": [1.0033245625, 0.781948373790343, 16.55724732791063]
      },
      {
        "species": [{ "element": "Si", "occu": 1 }],
        "abc": [0.75, 0.34914763, 0.46631446],
        "properties": { "magmom": 0.0 },
        "label": "Si",
        "xyz": [3.0099736875, 1.8098185762096568, 7.99003240291063]
      },
      {
        "species": [{ "element": "Si", "occu": 1 }],
        "abc": [0.25, 0.6508523700000001, 0.53368554],
        "properties": { "magmom": 0.0 },
        "label": "Si",
        "xyz": [1.0033245625, 3.3737153237903432, 9.14439744708937]
      },
      {
        "species": [{ "element": "Si", "occu": 1 }],
        "abc": [0.75, 0.62378122, 0.31028272],
        "properties": { "magmom": -0.0 },
        "label": "Si",
        "xyz": [3.0099736875, 3.2333911000533577, 5.316517499507192]
      },
      {
        "species": [{ "element": "Si", "occu": 1 }],
        "abc": [0.25, 0.37621878000000003, 0.68971728],
        "properties": { "magmom": -0.0 },
        "label": "Si",
        "xyz": [1.0033245625, 1.950142799946642, 11.817912350492808]
      },
      {
        "species": [{ "element": "Si", "occu": 1 }],
        "abc": [0.75, 0.12378122, 0.18971728000000002],
        "properties": { "magmom": -0.0 },
        "label": "Si",
        "xyz": [3.0099736875, 0.6416241500533579, 3.2506974254928083]
      },
      {
        "species": [{ "element": "Si", "occu": 1 }],
        "abc": [0.25, 0.87621878, 0.81028272],
        "properties": { "magmom": -0.0 },
        "label": "Si",
        "xyz": [1.0033245625, 4.541909749946641, 13.883732424507192]
      },
      {
        "species": [{ "element": "Ru", "occu": 1 }],
        "abc": [0.75, 0.65398287, 0.764147599999999],
        "properties": { "magmom": -0.0 },
        "label": "Ru",
        "xyz": [3.0099736875, 3.3899423766642927, 13.093233447245844]
      },
      {
        "species": [{ "element": "Ru", "occu": 1 }],
        "abc": [0.25, 0.34601713, 0.2358524],
        "properties": { "magmom": -0.0 },
        "label": "Ru",
        "xyz": [1.0033245625, 1.793591523335707, 4.04119640275414]
      },
      {
        "species": [{ "element": "Ru", "occu": 1 }],
        "abc": [0.75, 0.15398287, 0.7358524],
        "properties": { "magmom": -0.0 },
        "label": "Ru",
        "xyz": [3.0099736875, 0.7981754266642929, 12.608411327754139]
      },
      {
        "species": [{ "element": "Ru", "occu": 1 }],
        "abc": [0.25, 0.84601713, 0.2641476],
        "properties": { "magmom": -0.0 },
        "label": "Ru",
        "xyz": [1.0033245625, 4.385358473335707, 4.5260185222458595]
      },
      {
        "species": [{ "element": "Ru", "occu": 1 }],
        "abc": [0.75, 0.99099126, 0.89325614],
        "properties": { "magmom": 0.0 },
        "label": "Ru",
        "xyz": [3.0099736875, 5.136836790813714, 15.30543466891178]
      },
      {
        "species": [{ "element": "Ru", "occu": 1 }],
        "abc": [0.25, 0.00900874, 0.10674386],
        "properties": { "magmom": 0.0 },
        "label": "Ru",
        "xyz": [1.0033245625, 0.046697109186285994, 1.828995181088221]
      },
      {
        "species": [{ "element": "Ru", "occu": 1 }],
        "abc": [0.75, 0.49099126, 0.60674386],
        "properties": { "magmom": 0.0 },
        "label": "Ru",
        "xyz": [3.0099736875, 2.5450698408137136, 10.39621010608822]
      },
      {
        "species": [{ "element": "Ru", "occu": 1 }],
        "abc": [0.25, 0.50900874, 0.39325614000000003],
        "properties": { "magmom": 0.0 },
        "label": "Ru",
        "xyz": [1.0033245625, 2.6384640591862856, 6.738219743911779]
      },
      {
        "species": [{ "element": "Ru", "occu": 1 }],
        "abc": [0.75, 0.82657501, 0.47037888],
        "properties": { "magmom": -0.0 },
        "label": "Ru",
        "xyz": [3.0099736875, 4.2845795852278385, 8.059673922281569]
      },
      {
        "species": [{ "element": "Ru", "occu": 1 }],
        "abc": [0.25, 0.17342499, 0.5296211200000001],
        "properties": { "magmom": -0.0 },
        "label": "Ru",
        "xyz": [1.0033245625, 0.8989543147721609, 9.074755927718433]
      },
      {
        "species": [{ "element": "Ru", "occu": 1 }],
        "abc": [0.75, 0.32657501, 0.02962112],
        "properties": { "magmom": -0.0 },
        "label": "Ru",
        "xyz": [3.0099736875, 1.6928126352278388, 0.507541002718432]
      },
      {
        "species": [{ "element": "Ru", "occu": 1 }],
        "abc": [0.25, 0.67342499, 0.97037888],
        "properties": { "magmom": -0.0 },
        "label": "Ru",
        "xyz": [1.0033245625, 3.490721264772161, 16.62688884728157]
      },
      {
        "species": [{ "element": "Ru", "occu": 1 }],
        "abc": [0.75, 0.6588461, 0.164068],
        "properties": { "magmom": -0.0 },
        "label": "Ru",
        "xyz": [3.0099736875, 3.41515109423279, 2.8112116366297997]
      },
      {
        "species": [{ "element": "Ru", "occu": 1 }],
        "abc": [0.25, 0.3411539, 0.835932],
        "properties": { "magmom": -0.0 },
        "label": "Ru",
        "xyz": [1.0033245625, 1.76838280576721, 14.3232182133702]
      },
      {
        "species": [{ "element": "Ru", "occu": 1 }],
        "abc": [0.75, 0.1588461, 0.335932],
        "properties": { "magmom": -0.0 },
        "label": "Ru",
        "xyz": [3.0099736875, 0.8233841442327898, 5.7560032883702]
      },
      {
        "species": [{ "element": "Ru", "occu": 1 }],
        "abc": [0.25, 0.8411539, 0.664068],
        "properties": { "magmom": -0.0 },
        "label": "Ru",
        "xyz": [1.0033245625, 4.3601497557672095, 11.3784265616298]
      }
    ]
  },
  "task_ids": null,
  "uncorrected_energy_per_atom": null,
  "energy_per_atom": -18.838746730714288,
  "formation_energy_per_atom": -0.550256021428574,
  "energy_above_hull": 0.010771962142854,
  "is_stable": false,
  "equilibrium_reaction_energy_per_atom": null,
  "decomposes_to": null,
  "xas": null,
  "grain_boundaries": null,
  "band_gap": 0.0,
  "cbm": null,
  "vbm": null,
  "efermi": 9.65860184,
  "is_gap_direct": null,
  "is_metal": null,
  "es_source_calc_id": null,
  "bandstructure": null,
  "dos": null,
  "dos_energy_up": null,
  "dos_energy_down": null,
  "is_magnetic": null,
  "ordering": null,
  "total_magnetization": 0.0,
  "total_magnetization_normalized_vol": null,
  "total_magnetization_normalized_formula_units": null,
  "num_magnetic_sites": null,
  "num_unique_magnetic_sites": null,
  "types_of_magnetic_species": null,
  "bulk_modulus": null,
  "shear_modulus": null,
  "universal_anisotropy": null,
  "homogeneous_poisson": null,
  "e_total": null,
  "e_ionic": null,
  "e_electronic": null,
  "n": null,
  "e_ij_max": null,
  "weighted_surface_energy_EV_PER_ANG2": null,
  "weighted_surface_energy": null,
  "weighted_work_function": null,
  "surface_anisotropy": null,
  "shape_factor": null,
  "has_reconstructed": null,
  "possible_species": null,
  "has_props": null,
  "theoretical": null,
  "database_IDs": null,
  "fields_not_requested": [
    "builder_meta",
    "nsites",
    "elements",
    "nelements",
    "composition",
    "composition_reduced",
    "chemsys",
    "symmetry",
    "property_name",
    "deprecated",
    "deprecation_reasons",
    "last_updated",
    "origins",
    "warnings",
    "task_ids",
    "uncorrected_energy_per_atom",
    "equilibrium_reaction_energy_per_atom",
    "decomposes_to",
    "xas",
    "grain_boundaries",
    "cbm",
    "vbm",
    "is_gap_direct",
    "is_metal",
    "es_source_calc_id",
    "bandstructure",
    "dos",
    "dos_energy_up",
    "dos_energy_down",
    "is_magnetic",
    "ordering",
    "total_magnetization_normalized_vol",
    "total_magnetization_normalized_formula_units",
    "num_magnetic_sites",
    "num_unique_magnetic_sites",
    "types_of_magnetic_species",
    "bulk_modulus",
    "shear_modulus",
    "universal_anisotropy",
    "homogeneous_poisson",
    "e_total",
    "e_ionic",
    "e_electronic",
    "n",
    "e_ij_max",
    "weighted_surface_energy_EV_PER_ANG2",
    "weighted_surface_energy",
    "weighted_work_function",
    "surface_anisotropy",
    "shape_factor",
    "has_reconstructed",
    "possible_species",
    "has_props",
    "theoretical",
    "database_IDs"
  ]
}
