{
  "builder_meta": null,
  "nsites": null,
  "elements": null,
  "nelements": null,
  "composition": null,
  "composition_reduced": null,
  "formula_pretty": "Si3Ru5",
  "formula_anonymous": "A3B5",
  "chemsys": null,
  "volume": 206.44693316064107,
  "density": 9.484903574803509,
  "density_atomic": 12.902933322540067,
  "symmetry": null,
  "property_name": null,
  "material_id": "mp-1105935",
  "deprecated": null,
  "deprecation_reasons": null,
  "last_updated": null,
  "origins": null,
  "warnings": null,
  "structure": {
    "@module": "pymatgen.core.structure",
    "@class": "Structure",
    "charge": 0,
    "lattice": {
      "matrix": [
        [4.02254334, 0.0, 0.0],
        [0.0, 5.24660169, 0.0],
        [0.0, 0.0, 9.78204393]
      ],
      "pbc": [true, true, true],
      "a": 4.02254334,
      "b": 5.24660169,
      "c": 9.78204393,
      "alpha": 90.0,
      "beta": 90.0,
      "gamma": 90.0,
      "volume": 206.44693316064107
    },
    "properties": {},
    "sites": [
      {
        "species": [{ "element": "Si", "occu": 1 }],
        "abc": [0.0, 0.49997268, 0.4999981],
        "properties": { "magmom": -0.0 },
        "label": "Si",
        "xyz": [0.0, 2.6231575078418294, 4.891003379116533]
      },
      {
        "species": [{ "element": "Si", "occu": 1 }],
        "abc": [0.0, 2.7320000000000003e-5, -1.899999999999999e-6],
        "properties": { "magmom": -0.0 },
        "label": "Si",
        "xyz": [0.0, 0.00014333715817080003, -1.8585883466999992e-5]
      },
      {
        "species": [{ "element": "Si", "occu": 1 }],
        "abc": [0.5, 0.87022367, 0.36361288],
        "properties": { "magmom": 0.0 },
        "label": "Si",
        "xyz": [2.01127167, 4.565716977700003, 3.5568771656738187]
      },
      {
        "species": [{ "element": "Si", "occu": 1 }],
        "abc": [0.5, 0.12980164, 0.63638865],
        "properties": { "magmom": -0.0 },
        "label": "Si",
        "xyz": [2.01127167, 0.6810175037887716, 6.225181730853395]
      },
      {
        "species": [{ "element": "Si", "occu": 1 }],
        "abc": [0.5, 0.37019836, 0.13638865],
        "properties": { "magmom": -0.0 },
        "label": "Si",
        "xyz": [2.01127167, 1.9422833412112286, 1.3341597658533946]
      },
      {
        "species": [{ "element": "Si", "occu": 1 }],
        "abc": [0.5, 0.62977633, 0.86361288],
        "properties": { "magmom": 0.0 },
        "label": "Si",
        "xyz": [2.01127167, 3.304185557299998, 8.44789913067382]
      },
      {
        "species": [{ "element": "Ru", "occu": 1 }],
        "abc": [-0.0, 0.49999424000000003, 4.119999999999999e-6],
        "properties": { "magmom": -0.0 },
        "label": "Ru",
        "xyz": [0.0, 2.623270624574266, 4.030202099159999e-5]
      },
      {
        "species": [{ "element": "Ru", "occu": 1 }],
        "abc": [-0.0, 5.76e-6, 0.50000412],
        "properties": { "magmom": -0.0 },
        "label": "Ru",
        "xyz": [0.0, 3.0220425734400003e-5, 4.891062267020993]
      },
      {
        "species": [{ "element": "Ru", "occu": 1 }],
        "abc": [-0.0, 0.65744515, 0.27305041],
        "properties": { "magmom": 0.0 },
        "label": "Ru",
        "xyz": [0.0, 3.449352835072304, 2.6709911057245117]
      },
      {
        "species": [{ "element": "Ru", "occu": 1 }],
        "abc": [0.0, 0.34256048, 0.726957],
        "properties": { "magmom": -0.0 },
        "label": "Ru",
        "xyz": [0.0, 1.7972783932952112, 7.11112530922101]
      },
      {
        "species": [{ "element": "Ru", "occu": 1 }],
        "abc": [0.0, 0.15743952, 0.226957],
        "properties": { "magmom": -0.0 },
        "label": "Ru",
        "xyz": [0.0, 0.8260224517047888, 2.22010334422101]
      },
      {
        "species": [{ "element": "Ru", "occu": 1 }],
        "abc": [0.0, 0.84255485, 0.77305041],
        "properties": { "magmom": 0.0 },
        "label": "Ru",
        "xyz": [0.0, 4.4205496999276965, 7.562013070724511]
      },
      {
        "species": [{ "element": "Ru", "occu": 1 }],
        "abc": [0.5, 0.83411729, 0.10941955],
        "properties": { "magmom": 0.0 },
        "label": "Ru",
        "xyz": [2.01127167, 4.37628118337222, 1.0703468449008315]
      },
      {
        "species": [{ "element": "Ru", "occu": 1 }],
        "abc": [0.5, 0.16586115, 0.890570299999999],
        "properties": { "magmom": -0.0 },
        "label": "Ru",
        "xyz": [2.01127167, 0.8702073898953436, 8.71159779735327]
      },
      {
        "species": [{ "element": "Ru", "occu": 1 }],
        "abc": [0.5, 0.33413885, 0.3905703],
        "properties": { "magmom": -0.0 },
        "label": "Ru",
        "xyz": [2.01127167, 1.7530934551046566, 3.820575832353279]
      },
      {
        "species": [{ "element": "Ru", "occu": 1 }],
        "abc": [0.5, 0.66588271, 0.60941955],
        "properties": { "magmom": 0.0 },
        "label": "Ru",
        "xyz": [2.01127167, 3.49362135162778, 5.961368809900832]
      }
    ]
  },
  "task_ids": null,
  "uncorrected_energy_per_atom": null,
  "energy_per_atom": -19.633869443125,
  "formation_energy_per_atom": -0.45337316062500205,
  "energy_above_hull": 0.037526324999998,
  "is_stable": false,
  "equilibrium_reaction_energy_per_atom": null,
  "decomposes_to": null,
  "xas": null,
  "grain_boundaries": null,
  "band_gap": 0.0,
  "cbm": null,
  "vbm": null,
  "efermi": 9.20841814,
  "is_gap_direct": null,
  "is_metal": null,
  "es_source_calc_id": null,
  "bandstructure": null,
  "dos": null,
  "dos_energy_up": null,
  "dos_energy_down": null,
  "is_magnetic": null,
  "ordering": null,
  "total_magnetization": 0.0,
  "total_magnetization_normalized_vol": null,
  "total_magnetization_normalized_formula_units": null,
  "num_magnetic_sites": null,
  "num_unique_magnetic_sites": null,
  "types_of_magnetic_species": null,
  "bulk_modulus": null,
  "shear_modulus": null,
  "universal_anisotropy": null,
  "homogeneous_poisson": null,
  "e_total": null,
  "e_ionic": null,
  "e_electronic": null,
  "n": null,
  "e_ij_max": null,
  "weighted_surface_energy_EV_PER_ANG2": null,
  "weighted_surface_energy": null,
  "weighted_work_function": null,
  "surface_anisotropy": null,
  "shape_factor": null,
  "has_reconstructed": null,
  "possible_species": null,
  "has_props": null,
  "theoretical": null,
  "database_IDs": null,
  "fields_not_requested": [
    "builder_meta",
    "nsites",
    "elements",
    "nelements",
    "composition",
    "composition_reduced",
    "chemsys",
    "symmetry",
    "property_name",
    "deprecated",
    "deprecation_reasons",
    "last_updated",
    "origins",
    "warnings",
    "task_ids",
    "uncorrected_energy_per_atom",
    "equilibrium_reaction_energy_per_atom",
    "decomposes_to",
    "xas",
    "grain_boundaries",
    "cbm",
    "vbm",
    "is_gap_direct",
    "is_metal",
    "es_source_calc_id",
    "bandstructure",
    "dos",
    "dos_energy_up",
    "dos_energy_down",
    "is_magnetic",
    "ordering",
    "total_magnetization_normalized_vol",
    "total_magnetization_normalized_formula_units",
    "num_magnetic_sites",
    "num_unique_magnetic_sites",
    "types_of_magnetic_species",
    "bulk_modulus",
    "shear_modulus",
    "universal_anisotropy",
    "homogeneous_poisson",
    "e_total",
    "e_ionic",
    "e_electronic",
    "n",
    "e_ij_max",
    "weighted_surface_energy_EV_PER_ANG2",
    "weighted_surface_energy",
    "weighted_work_function",
    "surface_anisotropy",
    "shape_factor",
    "has_reconstructed",
    "possible_species",
    "has_props",
    "theoretical",
    "database_IDs"
  ]
}
