{"builder_meta": null, "nsites": null, "elements": null, "nelements": null, "composition": null, "composition_reduced": null, "formula_pretty": "Si3W5", "formula_anonymous": "A3B5", "chemsys": null, "volume": 229.1449561901853, "density": 14.543446625119936, "density_atomic": 14.321559761886581, "symmetry": null, "property_name": null, "material_id": "mp-31219", "deprecated": null, "deprecation_reasons": null, "last_updated": null, "origins": null, "warnings": null, "structure": {"@module": "pymatgen.core.structure", "@class": "Structure", "charge": 0, "lattice": {"matrix": [[4.64210411, -0.00013844, 1.6921716500000001], [2.32080151, 6.80999324, 0.84621199], [-0.01160908, 0.00013494, 7.24420456]], "pbc": [true, true, true], "a": 4.940908365908869, "b": 7.24418403339422, "c": 7.244213863220222, "alpha": 83.32043171923712, "beta": 70.06366162896784, "gamma": 70.06383422426337, "volume": 229.1449561901853}, "properties": {}, "sites": [{"species": [{"element": "Si", "occu": 1}], "abc": [0.75000051, 8.919000000000003e-05, -9.201000000000001e-05], "properties": {"magmom": -0.0}, "label": "Si", "xyz": [3.481788510411224, 0.0005035408106418002, 1.268538534893364]}, {"species": [{"element": "Si", "occu": 1}], "abc": [0.25000141, -9.393000000000003e-05, 9.377000000000003e-05], "properties": {"magmom": -0.0}, "label": "Si", "xyz": [1.160313491397529, -0.0006742602069098003, 0.423645102831397]}, {"species": [{"element": "Si", "occu": 1}], "abc": [0.83232024, 0.49996137, 0.8354520200000001], "properties": {"magmom": -0.0}, "label": "Si", "xyz": [5.014329480041513, 3.404731059442692, 7.883687352625234]}, {"species": [{"element": "Si", "occu": 1}], "abc": [0.66767906, 0.16454933, 0.50004242], "properties": {"magmom": 0.0}, "label": "Si", "xyz": [3.475517009663251, 1.1205548671816175, 4.891480771780551]}, {"species": [{"element": "Si", "occu": 1}], "abc": [0.33232173, 0.83545126, 0.49995783], "properties": {"magmom": -0.0}, "label": "Si", "xyz": [3.4757845639696163, 5.689438890638762, 4.891111075351267]}, {"species": [{"element": "Si", "occu": 1}], "abc": [0.16767516, 0.5000448, 0.16455153], "properties": {"magmom": -0.0}, "label": "Si", "xyz": [1.9369599844126628, 3.4053006993314594, 1.898924001439343]}, {"species": [{"element": "W", "occu": 1}], "abc": [0.42368952, 0.29934414, 0.85246356], "properties": {"magmom": -0.0}, "label": "W", "xyz": [2.6516328766124535, 2.038587945689251, 7.14568440313618]}, {"species": [{"element": "W", "occu": 1}], "abc": [0.57630257, 0.70066353, 0.14754387], "properties": {"magmom": -0.0}, "label": "W", "xyz": [4.299644658636153, 4.771454029056565, 2.6369507266719125]}, {"species": [{"element": "W", "occu": 1}], "abc": [0.24999854000000002, 0.50007197, 0.49992091], "properties": {"magmom": 0.0}, "label": "W", "xyz": [2.3152834112748115, 3.405519584743201, 4.467736674667661]}, {"species": [{"element": "W", "occu": 1}], "abc": [0.75000126, 0.49991524, 0.50007028], "properties": {"magmom": 0.0}, "label": "W", "xyz": [4.635982619529049, 3.404383054282126, 5.314776542404483]}, {"species": [{"element": "W", "occu": 1}], "abc": [0.72372923, 0.85232555, 0.70062188], "properties": {"magmom": 0.0}, "label": "W", "xyz": [5.329571281107046, 5.804325582621168, 7.021370403007447]}, {"species": [{"element": "W", "occu": 1}], "abc": [0.27627221, 0.1476694, 0.2993752], "properties": {"magmom": 0.0}, "label": "W", "xyz": [1.621720257373761, 1.0056297663195917, 2.7611948072718646]}, {"species": [{"element": "W", "occu": 1}], "abc": [0.92369671, 0.8524568100000001, 0.29933748], "properties": {"magmom": 0.0}, "label": "W", "xyz": [6.2628043129899424, 5.805137629518983, 4.4528744970343315]}, {"species": [{"element": "W", "occu": 1}], "abc": [0.22372687, 0.70062575, 0.85233087], "properties": {"magmom": -0.0}, "label": "W", "xyz": [2.654681944033019, 4.771340662049645, 7.145921351992745]}, {"species": [{"element": "W", "occu": 1}], "abc": [0.77626996, 0.29938169000000003, 0.14767313], "properties": {"magmom": 0.0}, "label": "W", "xyz": [4.296617100823867, 2.0386997452786755, 2.63669675645857]}, {"species": [{"element": "W", "occu": 1}], "abc": [0.07631302, 0.14754189, 0.7006572600000001], "properties": {"magmom": -0.0}, "label": "W", "xyz": [0.6885344387048452, 1.0048432554329991, 5.32969096320425]}]}, "task_ids": null, "uncorrected_energy_per_atom": null, "energy_per_atom": -35.538655613125, "formation_energy_per_atom": -0.14362240250000002, "energy_above_hull": 0.02506546, "is_stable": false, "equilibrium_reaction_energy_per_atom": null, "decomposes_to": null, "xas": null, "grain_boundaries": null, "band_gap": 0.0, "cbm": null, "vbm": null, "efermi": 9.09600734, "is_gap_direct": null, "is_metal": null, "es_source_calc_id": null, "bandstructure": null, "dos": null, "dos_energy_up": null, "dos_energy_down": null, "is_magnetic": null, "ordering": null, "total_magnetization": 1e-07, "total_magnetization_normalized_vol": null, "total_magnetization_normalized_formula_units": null, "num_magnetic_sites": null, "num_unique_magnetic_sites": null, "types_of_magnetic_species": null, "bulk_modulus": null, "shear_modulus": null, "universal_anisotropy": null, "homogeneous_poisson": null, "e_total": null, "e_ionic": null, "e_electronic": null, "n": null, "e_ij_max": null, "weighted_surface_energy_EV_PER_ANG2": null, "weighted_surface_energy": null, "weighted_work_function": null, "surface_anisotropy": null, "shape_factor": null, "has_reconstructed": null, "possible_species": null, "has_props": null, "theoretical": null, "database_IDs": null, "fields_not_requested": ["builder_meta", "nsites", "elements", "nelements", "composition", "composition_reduced", "chemsys", "symmetry", "property_name", "deprecated", "deprecation_reasons", "last_updated", "origins", "warnings", "task_ids", "uncorrected_energy_per_atom", "equilibrium_reaction_energy_per_atom", "decomposes_to", "xas", "grain_boundaries", "cbm", "vbm", "is_gap_direct", "is_metal", "es_source_calc_id", "bandstructure", "dos", "dos_energy_up", "dos_energy_down", "is_magnetic", "ordering", "total_magnetization_normalized_vol", "total_magnetization_normalized_formula_units", "num_magnetic_sites", "num_unique_magnetic_sites", "types_of_magnetic_species", "bulk_modulus", "shear_modulus", "universal_anisotropy", "homogeneous_poisson", "e_total", "e_ionic", "e_electronic", "n", "e_ij_max", "weighted_surface_energy_EV_PER_ANG2", "weighted_surface_energy", "weighted_work_function", "surface_anisotropy", "shape_factor", "has_reconstructed", "possible_species", "has_props", "theoretical", "database_IDs"]}