{
  "builder_meta": null,
  "nsites": null,
  "elements": null,
  "nelements": null,
  "composition": null,
  "composition_reduced": null,
  "formula_pretty": "Si4Ir3",
  "formula_anonymous": "A3B4",
  "chemsys": null,
  "volume": 407.8881962173919,
  "density": 11.21973917091892,
  "density_atomic": 14.567435579192567,
  "symmetry": null,
  "property_name": null,
  "material_id": "mp-15656",
  "deprecated": null,
  "deprecation_reasons": null,
  "last_updated": null,
  "origins": null,
  "warnings": null,
  "structure": {
    "@module": "pymatgen.core.structure",
    "@class": "Structure",
    "charge": 0,
    "lattice": {
      "matrix": [
        [3.70380703, -0.0, 0.0],
        [-0.0, 5.81779004, 0.0],
        [0.0, 0.0, 18.92930819]
      ],
      "pbc": [true, true, true],
      "a": 3.70380703,
      "b": 5.81779004,
      "c": 18.92930819,
      "alpha": 90.0,
      "beta": 90.0,
      "gamma": 90.0,
      "volume": 407.8881962173919
    },
    "properties": {},
    "sites": [
      {
        "species": [{ "element": "Si", "occu": 1 }],
        "abc": [0.25, 0.97373575, 0.45033173],
        "properties": { "magmom": -0.0 },
        "label": "Si",
        "xyz": [0.9259517575, 5.66499014794193, 8.52446810490587]
      },
      {
        "species": [{ "element": "Si", "occu": 1 }],
        "abc": [0.75, 0.02626425, 0.54966827],
        "properties": { "magmom": -0.0 },
        "label": "Si",
        "xyz": [2.7778552725, 0.15279989205807, 10.404840085094131]
      },
      {
        "species": [{ "element": "Si", "occu": 1 }],
        "abc": [0.75, 0.47373575, 0.04966827],
        "properties": { "magmom": -0.0 },
        "label": "Si",
        "xyz": [2.7778552725, 2.75609512794193, 0.9401859900941313]
      },
      {
        "species": [{ "element": "Si", "occu": 1 }],
        "abc": [0.25, 0.52626425, 0.95033173],
        "properties": { "magmom": -0.0 },
        "label": "Si",
        "xyz": [0.9259517575, 3.06169491205807, 17.98912219990587]
      },
      {
        "species": [{ "element": "Si", "occu": 1 }],
        "abc": [0.25, 0.07741, 0.90912518],
        "properties": { "magmom": -0.0 },
        "label": "Si",
        "xyz": [0.9259517575, 0.45035512699640007, 17.209110715509222]
      },
      {
        "species": [{ "element": "Si", "occu": 1 }],
        "abc": [0.75, 0.92259, 0.09087482],
        "properties": { "magmom": -0.0 },
        "label": "Si",
        "xyz": [2.7778552725, 5.3674349130036, 1.7201974744907758]
      },
      {
        "species": [{ "element": "Si", "occu": 1 }],
        "abc": [0.75, 0.5774100000000001, 0.59087482],
        "properties": { "magmom": -0.0 },
        "label": "Si",
        "xyz": [2.7778552725, 3.3592501469964007, 11.184851569490776]
      },
      {
        "species": [{ "element": "Si", "occu": 1 }],
        "abc": [0.25, 0.42259, 0.40912518000000003],
        "properties": { "magmom": -0.0 },
        "label": "Si",
        "xyz": [0.9259517575, 2.4585398930036004, 7.744456620509225]
      },
      {
        "species": [{ "element": "Si", "occu": 1 }],
        "abc": [0.25, 0.71671576, 0.26982659000000003],
        "properties": { "magmom": -0.0 },
        "label": "Si",
        "xyz": [0.9259517575, 4.16970181003903, 5.107630679966773]
      },
      {
        "species": [{ "element": "Si", "occu": 1 }],
        "abc": [0.75, 0.28328424, 0.73017341],
        "properties": { "magmom": -0.0 },
        "label": "Si",
        "xyz": [2.7778552725, 1.6480882299609698, 13.82167751003323]
      },
      {
        "species": [{ "element": "Si", "occu": 1 }],
        "abc": [0.75, 0.21671576, 0.23017341],
        "properties": { "magmom": -0.0 },
        "label": "Si",
        "xyz": [2.7778552725, 1.2608067900390305, 4.357023415033228]
      },
      {
        "species": [{ "element": "Si", "occu": 1 }],
        "abc": [0.25, 0.78328424, 0.76982659],
        "properties": { "magmom": -0.0 },
        "label": "Si",
        "xyz": [0.9259517575, 4.55698324996097, 14.572284774966771]
      },
      {
        "species": [{ "element": "Si", "occu": 1 }],
        "abc": [0.25, 0.38780907000000003, 0.1436277],
        "properties": { "magmom": -0.0 },
        "label": "Si",
        "xyz": [0.9259517575, 2.256191744867663, 2.718772997920863]
      },
      {
        "species": [{ "element": "Si", "occu": 1 }],
        "abc": [0.75, 0.61219093, 0.8563723],
        "properties": { "magmom": -0.0 },
        "label": "Si",
        "xyz": [2.7778552725, 3.5615982951323373, 16.21053519207914]
      },
      {
        "species": [{ "element": "Si", "occu": 1 }],
        "abc": [0.75, 0.88780907, 0.3563723],
        "properties": { "magmom": -0.0 },
        "label": "Si",
        "xyz": [2.7778552725, 5.165086764867663, 6.7458810970791365]
      },
      {
        "species": [{ "element": "Si", "occu": 1 }],
        "abc": [0.25, 0.11219093000000001, 0.6436277],
        "properties": { "magmom": -0.0 },
        "label": "Si",
        "xyz": [0.9259517575, 0.6527032751323373, 12.183427092920864]
      },
      {
        "species": [{ "element": "Ir", "occu": 1 }],
        "abc": [0.25, 0.39353363, 0.8262436400000001],
        "properties": { "magmom": 0.0 },
        "label": "Ir",
        "xyz": [0.9259517575, 2.2894960330190455, 15.640220501587413]
      },
      {
        "species": [{ "element": "Ir", "occu": 1 }],
        "abc": [0.75, 0.60646637, 0.17375636],
        "properties": { "magmom": 0.0 },
        "label": "Ir",
        "xyz": [2.7778552725, 3.528294006980955, 3.2890876884125886]
      },
      {
        "species": [{ "element": "Ir", "occu": 1 }],
        "abc": [0.75, 0.89353363, 0.67375636],
        "properties": { "magmom": 0.0 },
        "label": "Ir",
        "xyz": [2.7778552725, 5.198391053019045, 12.75374178341259]
      },
      {
        "species": [{ "element": "Ir", "occu": 1 }],
        "abc": [0.25, 0.10646637, 0.32624364],
        "properties": { "magmom": 0.0 },
        "label": "Ir",
        "xyz": [0.9259517575, 0.6193989869809549, 6.175566406587412]
      },
      {
        "species": [{ "element": "Ir", "occu": 1 }],
        "abc": [0.25, 0.49948459, 0.67620713],
        "properties": { "magmom": 0.0 },
        "label": "Ir",
        "xyz": [0.9259517575, 2.905896472835484, 12.800133164045395]
      },
      {
        "species": [{ "element": "Ir", "occu": 1 }],
        "abc": [0.75, 0.50051541, 0.32379287],
        "properties": { "magmom": 0.0 },
        "label": "Ir",
        "xyz": [2.7778552725, 2.9118935671645163, 6.129175025954606]
      },
      {
        "species": [{ "element": "Ir", "occu": 1 }],
        "abc": [0.75, -0.00051541, 0.82379287],
        "properties": { "magmom": 0.0 },
        "label": "Ir",
        "xyz": [2.7778552725, -0.0029985471645164, 15.593829120954606]
      },
      {
        "species": [{ "element": "Ir", "occu": 1 }],
        "abc": [0.25, 0.00051541, 0.17620713000000002],
        "properties": { "magmom": 0.0 },
        "label": "Ir",
        "xyz": [0.9259517575, 0.0029985471645164, 3.335479069045395]
      },
      {
        "species": [{ "element": "Ir", "occu": 1 }],
        "abc": [0.25, 0.30355911, 0.53133448],
        "properties": { "magmom": -0.0 },
        "label": "Ir",
        "xyz": [0.9259517575, 1.7660431667092646, 10.057794123893393]
      },
      {
        "species": [{ "element": "Ir", "occu": 1 }],
        "abc": [0.75, 0.69644089, 0.46866552],
        "properties": { "magmom": -0.0 },
        "label": "Ir",
        "xyz": [2.7778552725, 4.051746873290735, 8.87151406610661]
      },
      {
        "species": [{ "element": "Ir", "occu": 1 }],
        "abc": [0.75, 0.80355911, 0.9686655200000001],
        "properties": { "magmom": -0.0 },
        "label": "Ir",
        "xyz": [2.7778552725, 4.674938186709265, 18.33616816110661]
      },
      {
        "species": [{ "element": "Ir", "occu": 1 }],
        "abc": [0.25, 0.19644089, 0.03133448],
        "properties": { "magmom": -0.0 },
        "label": "Ir",
        "xyz": [0.9259517575, 1.1428518532907357, 0.5931400288933911]
      }
    ]
  },
  "task_ids": null,
  "uncorrected_energy_per_atom": null,
  "energy_per_atom": -28.16805919214286,
  "formation_energy_per_atom": -0.7147565164285731,
  "energy_above_hull": 0.0,
  "is_stable": true,
  "equilibrium_reaction_energy_per_atom": null,
  "decomposes_to": null,
  "xas": null,
  "grain_boundaries": null,
  "band_gap": 0.0,
  "cbm": null,
  "vbm": null,
  "efermi": 9.81267845,
  "is_gap_direct": null,
  "is_metal": null,
  "es_source_calc_id": null,
  "bandstructure": null,
  "dos": null,
  "dos_energy_up": null,
  "dos_energy_down": null,
  "is_magnetic": null,
  "ordering": null,
  "total_magnetization": 0.0,
  "total_magnetization_normalized_vol": null,
  "total_magnetization_normalized_formula_units": null,
  "num_magnetic_sites": null,
  "num_unique_magnetic_sites": null,
  "types_of_magnetic_species": null,
  "bulk_modulus": null,
  "shear_modulus": null,
  "universal_anisotropy": null,
  "homogeneous_poisson": null,
  "e_total": null,
  "e_ionic": null,
  "e_electronic": null,
  "n": null,
  "e_ij_max": null,
  "weighted_surface_energy_EV_PER_ANG2": null,
  "weighted_surface_energy": null,
  "weighted_work_function": null,
  "surface_anisotropy": null,
  "shape_factor": null,
  "has_reconstructed": null,
  "possible_species": null,
  "has_props": null,
  "theoretical": null,
  "database_IDs": null,
  "fields_not_requested": [
    "builder_meta",
    "nsites",
    "elements",
    "nelements",
    "composition",
    "composition_reduced",
    "chemsys",
    "symmetry",
    "property_name",
    "deprecated",
    "deprecation_reasons",
    "last_updated",
    "origins",
    "warnings",
    "task_ids",
    "uncorrected_energy_per_atom",
    "equilibrium_reaction_energy_per_atom",
    "decomposes_to",
    "xas",
    "grain_boundaries",
    "cbm",
    "vbm",
    "is_gap_direct",
    "is_metal",
    "es_source_calc_id",
    "bandstructure",
    "dos",
    "dos_energy_up",
    "dos_energy_down",
    "is_magnetic",
    "ordering",
    "total_magnetization_normalized_vol",
    "total_magnetization_normalized_formula_units",
    "num_magnetic_sites",
    "num_unique_magnetic_sites",
    "types_of_magnetic_species",
    "bulk_modulus",
    "shear_modulus",
    "universal_anisotropy",
    "homogeneous_poisson",
    "e_total",
    "e_ionic",
    "e_electronic",
    "n",
    "e_ij_max",
    "weighted_surface_energy_EV_PER_ANG2",
    "weighted_surface_energy",
    "weighted_work_function",
    "surface_anisotropy",
    "shape_factor",
    "has_reconstructed",
    "possible_species",
    "has_props",
    "theoretical",
    "database_IDs"
  ]
}
