{
  "builder_meta": null,
  "nsites": null,
  "elements": null,
  "nelements": null,
  "composition": null,
  "composition_reduced": null,
  "formula_pretty": "Si4Rh3",
  "formula_anonymous": "A3B4",
  "chemsys": null,
  "volume": 397.5712833029233,
  "density": 7.03455322794291,
  "density_atomic": 14.198974403675832,
  "symmetry": null,
  "property_name": null,
  "material_id": "mp-540791",
  "deprecated": null,
  "deprecation_reasons": null,
  "last_updated": null,
  "origins": null,
  "warnings": null,
  "structure": {
    "@module": "pymatgen.core.structure",
    "@class": "Structure",
    "charge": 0,
    "lattice": {
      "matrix": [
        [3.62242017, 0.0, -1.009999999999998e-6],
        [-0.0, 5.82808737, -0.0],
        [-4.01e-6, -0.0, 18.83172617]
      ],
      "pbc": [true, true, true],
      "a": 3.6224201700001406,
      "b": 5.82808737,
      "c": 18.831726170000426,
      "alpha": 90.0,
      "beta": 90.00002817563757,
      "gamma": 90.0,
      "volume": 397.5712833029233
    },
    "properties": {},
    "sites": [
      {
        "species": [{ "element": "Si", "occu": 1 }],
        "abc": [0.250001, 0.38678894, 0.14320723],
        "properties": { "magmom": -0.0 },
        "label": "Si",
        "xyz": [0.9056080906591776, 2.254239736069688, 2.696839088423199]
      },
      {
        "species": [{ "element": "Si", "occu": 1 }],
        "abc": [0.749999, 0.61321106, 0.85679277],
        "properties": { "magmom": -0.0 },
        "label": "Si",
        "xyz": [2.7168080693408223, 3.5738476339303125, 16.134886071576798]
      },
      {
        "species": [{ "element": "Si", "occu": 1 }],
        "abc": [0.749999, 0.88678894, 0.35679277],
        "properties": { "magmom": -0.0 },
        "label": "Si",
        "xyz": [2.716810074340822, 5.168283421069688, 6.7190229865768005]
      },
      {
        "species": [{ "element": "Si", "occu": 1 }],
        "abc": [0.250001, 0.11321106, 0.64320723],
        "properties": { "magmom": -0.0 },
        "label": "Si",
        "xyz": [0.9056060856591776, 0.6598039489303122, 12.112702173423198]
      },
      {
        "species": [{ "element": "Si", "occu": 1 }],
        "abc": [0.749999, 0.22135548, 0.231731499999999],
        "properties": { "magmom": 0.0 },
        "label": "Si",
        "xyz": [2.7168105758365146, 1.2900790772682877, 4.363903395464346]
      },
      {
        "species": [{ "element": "Si", "occu": 1 }],
        "abc": [0.250001, 0.7786445200000001, 0.768268499999999],
        "properties": { "magmom": 0.0 },
        "label": "Si",
        "xyz": [0.9056055841634849, 4.538008292731713, 14.467821764535616]
      },
      {
        "species": [{ "element": "Si", "occu": 1 }],
        "abc": [0.250001, 0.72135548, 0.268268499999999],
        "properties": { "magmom": 0.0 },
        "label": "Si",
        "xyz": [0.9056075891634849, 4.204122762268288, 5.051958679535616]
      },
      {
        "species": [{ "element": "Si", "occu": 1 }],
        "abc": [0.749999, 0.27864452, 0.7317315],
        "properties": { "magmom": 0.0 },
        "label": "Si",
        "xyz": [2.716808570836515, 1.6239646077317125, 13.779766480464364]
      },
      {
        "species": [{ "element": "Si", "occu": 1 }],
        "abc": [0.25, 0.42858815, 0.40965707],
        "properties": { "magmom": 0.0 },
        "label": "Si",
        "xyz": [0.9056033997751493, 2.497849183946666, 7.714549513344522]
      },
      {
        "species": [{ "element": "Si", "occu": 1 }],
        "abc": [0.75, 0.57141185, 0.59034293],
        "properties": { "magmom": 0.0 },
        "label": "Si",
        "xyz": [2.7168127602248506, 3.330238186053335, 11.117175646655479]
      },
      {
        "species": [{ "element": "Si", "occu": 1 }],
        "abc": [0.75, 0.9285881500000001, 0.09034293],
        "properties": { "magmom": 0.0 },
        "label": "Si",
        "xyz": [2.7168147652248504, 5.4118928689466665, 1.701312561655478]
      },
      {
        "species": [{ "element": "Si", "occu": 1 }],
        "abc": [0.25, 0.07141185, 0.9096570700000001],
        "properties": { "magmom": 0.0 },
        "label": "Si",
        "xyz": [0.9056013947751492, 0.4161945010533345, 17.13041259834452]
      },
      {
        "species": [{ "element": "Si", "occu": 1 }],
        "abc": [0.75, 0.48017597, 0.04942356],
        "properties": { "magmom": 0.0 },
        "label": "Si",
        "xyz": [2.7168149293115245, 2.798507506134499, 0.9307301907665652]
      },
      {
        "species": [{ "element": "Si", "occu": 1 }],
        "abc": [0.25, 0.51982403, 0.95057644],
        "properties": { "magmom": 0.0 },
        "label": "Si",
        "xyz": [0.9056012306884755, 3.0295798638655014, 17.900994969233434]
      },
      {
        "species": [{ "element": "Si", "occu": 1 }],
        "abc": [0.25, 0.98017597, 0.45057644],
        "properties": { "magmom": 0.0 },
        "label": "Si",
        "xyz": [0.9056032356884756, 5.7125511911345, 8.485131884233436]
      },
      {
        "species": [{ "element": "Si", "occu": 1 }],
        "abc": [0.75, 0.01982403, 0.54942356],
        "properties": { "magmom": 0.0 },
        "label": "Si",
        "xyz": [2.716812924311524, 0.1155361788655011, 10.346593275766566]
      },
      {
        "species": [{ "element": "Rh", "occu": 1 }],
        "abc": [0.25, 0.18937461, 0.03203946],
        "properties": { "magmom": 0.0 },
        "label": "Rh",
        "xyz": [0.9056049140217654, 1.1036917727396758, 0.6033580848546681]
      },
      {
        "species": [{ "element": "Rh", "occu": 1 }],
        "abc": [0.75, 0.81062539, 0.96796054],
        "properties": { "magmom": 0.0 },
        "label": "Rh",
        "xyz": [2.7168112459782345, 4.724395597260325, 18.228367075145332]
      },
      {
        "species": [{ "element": "Rh", "occu": 1 }],
        "abc": [0.75, 0.68937461, 0.46796154],
        "properties": { "magmom": 0.0 },
        "label": "Rh",
        "xyz": [2.7168132509742247, 4.0177354577396756, 8.812522821871502]
      },
      {
        "species": [{ "element": "Rh", "occu": 1 }],
        "abc": [0.25, 0.31062639000000003, 0.53203946],
        "properties": { "magmom": 0.0 },
        "label": "Rh",
        "xyz": [0.9056029090217653, 1.8103577403476947, 10.019221169854669]
      },
      {
        "species": [{ "element": "Rh", "occu": 1 }],
        "abc": [0.249999, 0.00352057, 0.17625607000000001],
        "properties": { "magmom": -0.0 },
        "label": "Rh",
        "xyz": [0.9056007132929892, 0.020518189552200902, 3.319205793541362]
      },
      {
        "species": [{ "element": "Rh", "occu": 1 }],
        "abc": [0.750000999999999, 0.99647943, 0.82374393],
        "properties": { "magmom": -0.0 },
        "label": "Rh",
        "xyz": [2.716815446707007, 5.8075691804478, 15.512519366458639]
      },
      {
        "species": [{ "element": "Rh", "occu": 1 }],
        "abc": [0.750000999999999, 0.5035205700000001, 0.32374393],
        "properties": { "magmom": -0.0 },
        "label": "Rh",
        "xyz": [2.716817451707007, 2.9345618745522013, 6.096656281458638]
      },
      {
        "species": [{ "element": "Rh", "occu": 1 }],
        "abc": [0.249999, 0.49647943, 0.67625607],
        "properties": { "magmom": -0.0 },
        "label": "Rh",
        "xyz": [0.9055987082929892, 2.893525495447799, 12.73506887854136]
      },
      {
        "species": [{ "element": "Rh", "occu": 1 }],
        "abc": [0.249999, 0.11342015, 0.32567388],
        "properties": { "magmom": 0.0 },
        "label": "Rh",
        "xyz": [0.9056001141275711, 0.6610225437185056, 6.13300107638245]
      },
      {
        "species": [{ "element": "Rh", "occu": 1 }],
        "abc": [0.750000999999999, 0.8865798500000001, 0.67432612],
        "properties": { "magmom": 0.0 },
        "label": "Rh",
        "xyz": [2.716816045872425, 5.1670648262814955, 12.69872408361755]
      },
      {
        "species": [{ "element": "Rh", "occu": 1 }],
        "abc": [0.750000999999999, 0.61342015, 0.17432612],
        "properties": { "magmom": 0.0 },
        "label": "Rh",
        "xyz": [2.7168180508724253, 3.575066228718506, 3.2828609986175503]
      },
      {
        "species": [{ "element": "Rh", "occu": 1 }],
        "abc": [0.249999, 0.38657985, 0.82567388],
        "properties": { "magmom": 0.0 },
        "label": "Rh",
        "xyz": [0.9055981091275711, 2.253021141281495, 15.548864161382449]
      }
    ]
  },
  "task_ids": null,
  "uncorrected_energy_per_atom": null,
  "energy_per_atom": -16.09222493892857,
  "formation_energy_per_atom": -0.7345471860714281,
  "energy_above_hull": 0.0,
  "is_stable": true,
  "equilibrium_reaction_energy_per_atom": null,
  "decomposes_to": null,
  "xas": null,
  "grain_boundaries": null,
  "band_gap": 0.0,
  "cbm": null,
  "vbm": null,
  "efermi": 8.81545467,
  "is_gap_direct": null,
  "is_metal": null,
  "es_source_calc_id": null,
  "bandstructure": null,
  "dos": null,
  "dos_energy_up": null,
  "dos_energy_down": null,
  "is_magnetic": null,
  "ordering": null,
  "total_magnetization": 0.0,
  "total_magnetization_normalized_vol": null,
  "total_magnetization_normalized_formula_units": null,
  "num_magnetic_sites": null,
  "num_unique_magnetic_sites": null,
  "types_of_magnetic_species": null,
  "bulk_modulus": null,
  "shear_modulus": null,
  "universal_anisotropy": null,
  "homogeneous_poisson": null,
  "e_total": null,
  "e_ionic": null,
  "e_electronic": null,
  "n": null,
  "e_ij_max": null,
  "weighted_surface_energy_EV_PER_ANG2": null,
  "weighted_surface_energy": null,
  "weighted_work_function": null,
  "surface_anisotropy": null,
  "shape_factor": null,
  "has_reconstructed": null,
  "possible_species": null,
  "has_props": null,
  "theoretical": null,
  "database_IDs": null,
  "fields_not_requested": [
    "builder_meta",
    "nsites",
    "elements",
    "nelements",
    "composition",
    "composition_reduced",
    "chemsys",
    "symmetry",
    "property_name",
    "deprecated",
    "deprecation_reasons",
    "last_updated",
    "origins",
    "warnings",
    "task_ids",
    "uncorrected_energy_per_atom",
    "equilibrium_reaction_energy_per_atom",
    "decomposes_to",
    "xas",
    "grain_boundaries",
    "cbm",
    "vbm",
    "is_gap_direct",
    "is_metal",
    "es_source_calc_id",
    "bandstructure",
    "dos",
    "dos_energy_up",
    "dos_energy_down",
    "is_magnetic",
    "ordering",
    "total_magnetization_normalized_vol",
    "total_magnetization_normalized_formula_units",
    "num_magnetic_sites",
    "num_unique_magnetic_sites",
    "types_of_magnetic_species",
    "bulk_modulus",
    "shear_modulus",
    "universal_anisotropy",
    "homogeneous_poisson",
    "e_total",
    "e_ionic",
    "e_electronic",
    "n",
    "e_ij_max",
    "weighted_surface_energy_EV_PER_ANG2",
    "weighted_surface_energy",
    "weighted_work_function",
    "surface_anisotropy",
    "shape_factor",
    "has_reconstructed",
    "possible_species",
    "has_props",
    "theoretical",
    "database_IDs"
  ]
}
