{
  "builder_meta": null,
  "nsites": null,
  "elements": null,
  "nelements": null,
  "composition": null,
  "composition_reduced": null,
  "formula_pretty": "Si5C3",
  "formula_anonymous": "A3B5",
  "chemsys": null,
  "volume": 170.47338432302902,
  "density": 1.718849312696058,
  "density_atomic": 21.309173040378628,
  "symmetry": null,
  "property_name": null,
  "material_id": "mp-1219306",
  "deprecated": null,
  "deprecation_reasons": null,
  "last_updated": null,
  "origins": null,
  "warnings": null,
  "structure": {
    "@module": "pymatgen.core.structure",
    "@class": "Structure",
    "charge": 0,
    "lattice": {
      "matrix": [
        [3.696236, -4.200134, 0.0],
        [3.696236, 4.200134, 0.0],
        [-1.076492, 0.0, 5.490397]
      ],
      "pbc": [true, true, true],
      "a": 5.594933975093182,
      "b": 5.594933975093182,
      "c": 5.594934695210749,
      "alpha": 97.30263540198509,
      "beta": 97.30263540198509,
      "gamma": 97.30263001049359,
      "volume": 170.47338432302902
    },
    "properties": {},
    "sites": [
      {
        "species": [{ "element": "Si", "occu": 1 }],
        "abc": [0.38535, 0.38535, 0.38535],
        "properties": { "magmom": -0.0 },
        "label": "Si",
        "xyz": [2.433862893, 0.0, 2.1157244839500002]
      },
      {
        "species": [{ "element": "Si", "occu": 1 }],
        "abc": [0.563036, 0.844271, 0.357218],
        "properties": { "magmom": -0.0 },
        "label": "Si",
        "xyz": [4.817196477196, 1.1812246854900001, 1.9612686355459998]
      },
      {
        "species": [{ "element": "Si", "occu": 1 }],
        "abc": [0.844271, 0.357218, 0.563036],
        "properties": { "magmom": -0.0 },
        "label": "Si",
        "xyz": [3.8348831456919994, -2.045687865102, 3.0912911652919997]
      },
      {
        "species": [{ "element": "Si", "occu": 1 }],
        "abc": [0.357218, 0.563036, 0.844271],
        "properties": { "magmom": -0.0 },
        "label": "Si",
        "xyz": [2.492624986612, 0.8644631796119999, 4.635382965587]
      },
      {
        "species": [{ "element": "Si", "occu": 1 }],
        "abc": [0.721631999999999, 0.721631999999999, 0.721631999999999],
        "properties": { "magmom": 0.0 },
        "label": "Si",
        "xyz": [4.557813279359994, 0.0, 3.9620461679039947]
      },
      {
        "species": [{ "element": "C", "occu": 1 }],
        "abc": [0.164741, 0.359407, 0.604345],
        "properties": { "magmom": -0.0 },
        "label": "C",
        "xyz": [1.286802149188, 0.817623285244, 3.318093974965]
      },
      {
        "species": [{ "element": "C", "occu": 1 }],
        "abc": [0.359407, 0.604345, 0.164741],
        "properties": { "magmom": -0.0 },
        "label": "C",
        "xyz": [3.3849124689, 1.028772421692, 0.9044934921769999]
      },
      {
        "species": [{ "element": "C", "occu": 1 }],
        "abc": [0.604345, 0.164741, 0.359407],
        "properties": { "magmom": -0.0 },
        "label": "C",
        "xyz": [2.455824600052, -1.846395706936, 1.9732871145789999]
      }
    ]
  },
  "task_ids": null,
  "uncorrected_energy_per_atom": null,
  "energy_per_atom": -6.1311957675,
  "formation_energy_per_atom": 0.720377560937499,
  "energy_above_hull": 0.8732891859013161,
  "is_stable": false,
  "equilibrium_reaction_energy_per_atom": null,
  "decomposes_to": null,
  "xas": null,
  "grain_boundaries": null,
  "band_gap": 0.7307,
  "cbm": null,
  "vbm": null,
  "efermi": 2.5393566,
  "is_gap_direct": null,
  "is_metal": null,
  "es_source_calc_id": null,
  "bandstructure": null,
  "dos": null,
  "dos_energy_up": null,
  "dos_energy_down": null,
  "is_magnetic": null,
  "ordering": null,
  "total_magnetization": 0.0003164,
  "total_magnetization_normalized_vol": null,
  "total_magnetization_normalized_formula_units": null,
  "num_magnetic_sites": null,
  "num_unique_magnetic_sites": null,
  "types_of_magnetic_species": null,
  "bulk_modulus": null,
  "shear_modulus": null,
  "universal_anisotropy": null,
  "homogeneous_poisson": null,
  "e_total": null,
  "e_ionic": null,
  "e_electronic": null,
  "n": null,
  "e_ij_max": null,
  "weighted_surface_energy_EV_PER_ANG2": null,
  "weighted_surface_energy": null,
  "weighted_work_function": null,
  "surface_anisotropy": null,
  "shape_factor": null,
  "has_reconstructed": null,
  "possible_species": null,
  "has_props": null,
  "theoretical": null,
  "database_IDs": null,
  "fields_not_requested": [
    "builder_meta",
    "nsites",
    "elements",
    "nelements",
    "composition",
    "composition_reduced",
    "chemsys",
    "symmetry",
    "property_name",
    "deprecated",
    "deprecation_reasons",
    "last_updated",
    "origins",
    "warnings",
    "task_ids",
    "uncorrected_energy_per_atom",
    "equilibrium_reaction_energy_per_atom",
    "decomposes_to",
    "xas",
    "grain_boundaries",
    "cbm",
    "vbm",
    "is_gap_direct",
    "is_metal",
    "es_source_calc_id",
    "bandstructure",
    "dos",
    "dos_energy_up",
    "dos_energy_down",
    "is_magnetic",
    "ordering",
    "total_magnetization_normalized_vol",
    "total_magnetization_normalized_formula_units",
    "num_magnetic_sites",
    "num_unique_magnetic_sites",
    "types_of_magnetic_species",
    "bulk_modulus",
    "shear_modulus",
    "universal_anisotropy",
    "homogeneous_poisson",
    "e_total",
    "e_ionic",
    "e_electronic",
    "n",
    "e_ij_max",
    "weighted_surface_energy_EV_PER_ANG2",
    "weighted_surface_energy",
    "weighted_work_function",
    "surface_anisotropy",
    "shape_factor",
    "has_reconstructed",
    "possible_species",
    "has_props",
    "theoretical",
    "database_IDs"
  ]
}
