{"builder_meta": null, "nsites": null, "elements": null, "nelements": null, "composition": null, "composition_reduced": null, "formula_pretty": "Si5Ir4", "formula_anonymous": "A4B5", "chemsys": null, "volume": 266.1831868809136, "density": 11.344974252705875, "density_atomic": 14.78795482671742, "symmetry": null, "property_name": null, "material_id": "mp-1189696", "deprecated": null, "deprecation_reasons": null, "last_updated": null, "origins": null, "warnings": null, "structure": {"@module": "pymatgen.core.structure", "@class": "Structure", "charge": 0, "lattice": {"matrix": [[0.0, 3.652787, 0.0], [0.007194, 0.0, 5.943348], [12.258334, 0.0, -2.184314]], "pbc": [true, true, true], "a": 3.652787, "b": 5.943352353911049, "c": 12.451424822330655, "alpha": 100.03414556143784, "beta": 90.0, "gamma": 90.0, "volume": 266.1831868809136}, "properties": {}, "sites": [{"species": [{"element": "Si", "occu": 1}], "abc": [0.25, 0.642838, 0.6370800000000001], "properties": {"magmom": 0.0}, "label": "Si", "xyz": [7.814164001292, 0.91319675, 2.429027178504]}, {"species": [{"element": "Si", "occu": 1}], "abc": [0.75, 0.357162, 0.36292], "properties": {"magmom": 0.0}, "label": "Si", "xyz": [4.451363998708, 2.73959025, 1.3300068214960001]}, {"species": [{"element": "Si", "occu": 1}], "abc": [0.25, 0.890462, 0.424153], "properties": {"magmom": 0.0}, "label": "Si", "xyz": [5.20581512473, 0.91319675, 4.365842210734001]}, {"species": [{"element": "Si", "occu": 1}], "abc": [0.75, 0.109538, 0.575847], "properties": {"magmom": 0.0}, "label": "Si", "xyz": [7.05971287527, 2.73959025, -0.6068082107340002]}, {"species": [{"element": "Si", "occu": 1}], "abc": [0.25, 0.472201999999999, 0.224622], "properties": {"magmom": 0.0}, "label": "Si", "xyz": [2.7568885209359997, 0.91319675, 2.3158158329879943]}, {"species": [{"element": "Si", "occu": 1}], "abc": [0.75, 0.527798, 0.775378], "properties": {"magmom": 0.0}, "label": "Si", "xyz": [9.508639479064, 2.73959025, 1.443218167012]}, {"species": [{"element": "Si", "occu": 1}], "abc": [0.75, 0.978297, 0.14099], "properties": {"magmom": 0.0}, "label": "Si", "xyz": [1.735340379278, 2.73959025, 5.506393087496001]}, {"species": [{"element": "Si", "occu": 1}], "abc": [0.25, 0.021703, 0.85901], "properties": {"magmom": 0.0}, "label": "Si", "xyz": [10.530187620722002, 0.91319675, -1.747359087496]}, {"species": [{"element": "Si", "occu": 1}], "abc": [0.25, 0.491307, 0.921612999999999], "properties": {"magmom": -0.0}, "label": "Si", "xyz": [11.300974435299986, 0.91319675, 0.9069162973540021]}, {"species": [{"element": "Si", "occu": 1}], "abc": [0.75, 0.508693, 0.078387], "properties": {"magmom": -0.0}, "label": "Si", "xyz": [0.9645535647, 2.73959025, 2.852117702646]}, {"species": [{"element": "Ir", "occu": 1}], "abc": [0.25, 0.218766, 0.049268], "properties": {"magmom": -0.0}, "label": "Ir", "xyz": [0.6055174021159999, 0.91319675, 1.192585686416]}, {"species": [{"element": "Ir", "occu": 1}], "abc": [0.75, 0.781234, 0.950731999999999], "properties": {"magmom": -0.0}, "label": "Ir", "xyz": [11.660010597883987, 2.73959025, 2.566448313584002]}, {"species": [{"element": "Ir", "occu": 1}], "abc": [0.25, 0.10746000000000001, 0.273657], "properties": {"magmom": -0.0}, "label": "Ir", "xyz": [3.355351974678, 0.91319675, 0.04091935978200012]}, {"species": [{"element": "Ir", "occu": 1}], "abc": [0.75, 0.8925400000000001, 0.726343], "properties": {"magmom": -0.0}, "label": "Ir", "xyz": [8.910176025321999, 2.73959025, 3.718114640218001]}, {"species": [{"element": "Ir", "occu": 1}], "abc": [0.25, 0.300179, 0.501537999999999], "properties": {"magmom": -0.0}, "label": "Ir", "xyz": [6.150179805417988, 0.91319675, 0.688551784360002]}, {"species": [{"element": "Ir", "occu": 1}], "abc": [0.75, 0.699820999999999, 0.498461999999999], "properties": {"magmom": -0.0}, "label": "Ir", "xyz": [6.115348194581988, 2.73959025, 3.0704822156399962]}, {"species": [{"element": "Ir", "occu": 1}], "abc": [0.25, 0.289835, 0.731213], "properties": {"magmom": -0.0}, "label": "Ir", "xyz": [8.965538252132001, 0.91319675, 0.12539147469800005]}, {"species": [{"element": "Ir", "occu": 1}], "abc": [0.75, 0.710164999999999, 0.268787], "properties": {"magmom": -0.0}, "label": "Ir", "xyz": [3.299989747868, 2.73959025, 3.633642525301995]}]}, "task_ids": null, "uncorrected_energy_per_atom": null, "energy_per_atom": -28.837455778333336, "formation_energy_per_atom": -0.692318358888889, "energy_above_hull": 0.028297608611108003, "is_stable": false, "equilibrium_reaction_energy_per_atom": null, "decomposes_to": null, "xas": null, "grain_boundaries": null, "band_gap": 0.0, "cbm": null, "vbm": null, "efermi": 9.43143839, "is_gap_direct": null, "is_metal": null, "es_source_calc_id": null, "bandstructure": null, "dos": null, "dos_energy_up": null, "dos_energy_down": null, "is_magnetic": null, "ordering": null, "total_magnetization": 0.0024256, "total_magnetization_normalized_vol": null, "total_magnetization_normalized_formula_units": null, "num_magnetic_sites": null, "num_unique_magnetic_sites": null, "types_of_magnetic_species": null, "bulk_modulus": null, "shear_modulus": null, "universal_anisotropy": null, "homogeneous_poisson": null, "e_total": null, "e_ionic": null, "e_electronic": null, "n": null, "e_ij_max": null, "weighted_surface_energy_EV_PER_ANG2": null, "weighted_surface_energy": null, "weighted_work_function": null, "surface_anisotropy": null, "shape_factor": null, "has_reconstructed": null, "possible_species": null, "has_props": null, "theoretical": null, "database_IDs": null, "fields_not_requested": ["builder_meta", "nsites", "elements", "nelements", "composition", "composition_reduced", "chemsys", "symmetry", "property_name", "deprecated", "deprecation_reasons", "last_updated", "origins", "warnings", "task_ids", "uncorrected_energy_per_atom", "equilibrium_reaction_energy_per_atom", "decomposes_to", "xas", "grain_boundaries", "cbm", "vbm", "is_gap_direct", "is_metal", "es_source_calc_id", "bandstructure", "dos", "dos_energy_up", "dos_energy_down", "is_magnetic", "ordering", "total_magnetization_normalized_vol", "total_magnetization_normalized_formula_units", "num_magnetic_sites", "num_unique_magnetic_sites", "types_of_magnetic_species", "bulk_modulus", "shear_modulus", "universal_anisotropy", "homogeneous_poisson", "e_total", "e_ionic", "e_electronic", "n", "e_ij_max", "weighted_surface_energy_EV_PER_ANG2", "weighted_surface_energy", "weighted_work_function", "surface_anisotropy", "shape_factor", "has_reconstructed", "possible_species", "has_props", "theoretical", "database_IDs"]}