{"builder_meta": null, "nsites": null, "elements": null, "nelements": null, "composition": null, "composition_reduced": null, "formula_pretty": "Si5O8", "formula_anonymous": "A5B8", "chemsys": null, "volume": 502.089367918681, "density": 1.775486230907172, "density_atomic": 19.311129535333883, "symmetry": null, "property_name": null, "material_id": "mp-1179651", "deprecated": null, "deprecation_reasons": null, "last_updated": null, "origins": null, "warnings": null, "structure": {"@module": "pymatgen.core.structure", "@class": "Structure", "charge": 0, "lattice": {"matrix": [[7.74041, 0.014275, 0.057534999999999004], [-3.8883, 5.494447, -0.782049], [-0.184126999999999, -1.583416999999999, 12.005696]], "pbc": [true, true, true], "a": 7.740636990580944, "b": 6.776387338708584, "c": 12.111063066157074, "alpha": 102.22131028857001, "beta": 90.4627077092541, "gamma": 124.96996950064118, "volume": 502.089367918681}, "properties": {}, "sites": [{"species": [{"element": "Si", "occu": 1}], "abc": [0.70696, 0.439673, 0.610464999999999], "properties": {"magmom": -0.0}, "label": "Si", "xyz": [3.650176638645001, 1.459231190926002, 7.025886322262988]}, {"species": [{"element": "Si", "occu": 1}], "abc": [0.472472, 0.225004999999999, 0.941272], "properties": {"magmom": -0.0}, "label": "Si", "xyz": [2.6089264624760045, -0.24740350138900458, 11.151844226587]}, {"species": [{"element": "Si", "occu": 1}], "abc": [0.7889900000000001, 0.161761, 0.413601999999999], "properties": {"magmom": -0.0}, "label": "Si", "xyz": [5.401975494146002, 0.24514563538300194, 4.884469388352987]}, {"species": [{"element": "Si", "occu": 1}], "abc": [0.119076, 0.285475, 0.849951999999999], "properties": {"magmom": -0.0}, "label": "Si", "xyz": [-0.34481449324399904, 0.22439862124100252, 9.987860925976989]}, {"species": [{"element": "Si", "occu": 1}], "abc": [0.480678999999999, 0.841743999999999, 0.28241499999999903], "properties": {"magmom": 0.0}, "label": "Si", "xyz": [0.3956991164849965, 4.184598776237996, 2.7599594486489885]}, {"species": [{"element": "Si", "occu": 1}], "abc": [0.24742000000000003, 0.769714999999999, 0.054668999999999], "properties": {"magmom": -0.0}, "label": "Si", "xyz": [-1.0878166312629962, 4.146126369131997, 0.06861985828898853]}, {"species": [{"element": "Si", "occu": 1}], "abc": [0.631506, 0.841345999999999, 0.589314], "properties": {"magmom": -0.0}, "label": "Si", "xyz": [1.5082010867820046, 3.698615947873995, 6.4534846323]}, {"species": [{"element": "Si", "occu": 1}], "abc": [0.263801, 0.563967, 0.393461], "properties": {"magmom": -0.0}, "label": "Si", "xyz": [-0.2233917812369996, 2.4794397142870004, 4.297901116008]}, {"species": [{"element": "Si", "occu": 1}], "abc": [0.834901, 0.7125800000000001, 0.14351], "properties": {"magmom": -0.0}, "label": "Si", "xyz": [3.6653271696400003, 3.699915081365001, 1.2137009855749992]}, {"species": [{"element": "Si", "occu": 1}], "abc": [0.651513, 0.162995, 0.7222500000000001], "properties": {"magmom": 0.0}, "label": "Si", "xyz": [4.27621855608, -0.23875519140999946, 8.581128659700001]}, {"species": [{"element": "O", "occu": 1}], "abc": [0.863850999999999, 0.444725999999999, 0.710252], "properties": {"magmom": 0.0}, "label": "O", "xyz": [4.826556243105997, 1.3312298184629954, 8.228973739103]}, {"species": [{"element": "O", "occu": 1}], "abc": [0.640923999999999, 0.478807999999999, 0.040401], "properties": {"magmom": 0.0}, "label": "O", "xyz": [3.0918264775129964, 2.5759627390589945, 0.1474663688440001]}, {"species": [{"element": "O", "occu": 1}], "abc": [0.491102, 0.188977999999999, 0.638174], "properties": {"magmom": -0.0}, "label": "O", "xyz": [2.9490226103220043, 0.03484452565799523, 7.5421885367520005]}, {"species": [{"element": "O", "occu": 1}], "abc": [0.188844999999999, 0.531484, 0.953375], "properties": {"magmom": 0.0}, "label": "O", "xyz": [-0.7803735893750068, 1.413316249348001, 11.041149090359]}, {"species": [{"element": "O", "occu": 1}], "abc": [0.382038999999999, 0.629309, 0.522211], "properties": {"magmom": -0.0}, "label": "O", "xyz": [0.4140431664929926, 2.6362807788610008, 5.79933665358]}, {"species": [{"element": "O", "occu": 1}], "abc": [0.441565999999999, 0.851412, 0.151936], "properties": {"magmom": 0.0}, "label": "O", "xyz": [0.0793810825879925, 4.443763418502, 1.1836570240779996]}, {"species": [{"element": "O", "occu": 1}], "abc": [0.295707999999999, 0.813661, 0.365818], "properties": {"magmom": -0.0}, "label": "O", "xyz": [-0.942213876906007, 3.8955960320610004, 3.772590487718999]}, {"species": [{"element": "O", "occu": 1}], "abc": [0.414334, 0.561877, 0.294340999999999], "properties": {"magmom": 0.0}, "label": "O", "xyz": [0.9681725725330006, 2.6270534716720015, 3.1181919270529876]}, {"species": [{"element": "O", "occu": 1}], "abc": [0.599525, 0.152957999999999, 0.852236999999999], "properties": {"magmom": 0.0}, "label": "O", "xyz": [3.8889028717510046, -0.5004687102280029, 10.146571361884988]}, {"species": [{"element": "O", "occu": 1}], "abc": [0.7597100000000001, 0.377451, 0.482680999999999], "properties": {"magmom": 0.0}, "label": "O", "xyz": [4.323949553313001, 1.3204440738700018, 5.543446088726988]}, {"species": [{"element": "O", "occu": 1}], "abc": [0.709183, 0.686925, 0.634224999999999], "properties": {"magmom": 0.0}, "label": "O", "xyz": [2.7016187609550006, 2.7801539459750018, 7.117906380179988]}, {"species": [{"element": "O", "occu": 1}], "abc": [0.325887, 0.001392, 0.000428], "properties": {"magmom": -0.0}, "label": "O", "xyz": [2.5170076737139997, 0.011622604673, 0.022799734224999674]}, {"species": [{"element": "O", "occu": 1}], "abc": [0.018652, 0.313452, 0.367177], "properties": {"magmom": 0.0}, "label": "O", "xyz": [-1.1420284837589998, 1.1411173545350004, 4.164153759864]}, {"species": [{"element": "O", "occu": 1}], "abc": [0.314656999999999, 0.256451, 0.869213], "properties": {"magmom": 0.0}, "label": "O", "xyz": [1.2783701840189934, 0.03722151545100072, 10.253053579644]}, {"species": [{"element": "O", "occu": 1}], "abc": [0.783489, 0.00016199999999900002, 0.500869], "properties": {"magmom": 0.0}, "label": "O", "xyz": [5.971672679527004, -0.7810100834840049, 6.058232297501]}, {"species": [{"element": "O", "occu": 1}], "abc": [0.041531, 0.706704, 0.115753], "properties": {"magmom": 0.0}, "label": "O", "xyz": [-2.4477234481209997, 3.700255259712, 0.8394076586770001]}]}, "task_ids": null, "uncorrected_energy_per_atom": null, "energy_per_atom": -7.8492721923076925, "formation_energy_per_atom": -2.7177123315384613, "energy_above_hull": 0.30336275512820504, "is_stable": false, "equilibrium_reaction_energy_per_atom": null, "decomposes_to": null, "xas": null, "grain_boundaries": null, "band_gap": 3.4528, "cbm": null, "vbm": null, "efermi": -0.17865482, "is_gap_direct": null, "is_metal": null, "es_source_calc_id": null, "bandstructure": null, "dos": null, "dos_energy_up": null, "dos_energy_down": null, "is_magnetic": null, "ordering": null, "total_magnetization": 0.0008565, "total_magnetization_normalized_vol": null, "total_magnetization_normalized_formula_units": null, "num_magnetic_sites": null, "num_unique_magnetic_sites": null, "types_of_magnetic_species": null, "bulk_modulus": null, "shear_modulus": null, "universal_anisotropy": null, "homogeneous_poisson": null, "e_total": null, "e_ionic": null, "e_electronic": null, "n": null, "e_ij_max": null, "weighted_surface_energy_EV_PER_ANG2": null, "weighted_surface_energy": null, "weighted_work_function": null, "surface_anisotropy": null, "shape_factor": null, "has_reconstructed": null, "possible_species": null, "has_props": null, "theoretical": null, "database_IDs": null, "fields_not_requested": ["builder_meta", "nsites", "elements", "nelements", "composition", "composition_reduced", "chemsys", "symmetry", "property_name", "deprecated", "deprecation_reasons", "last_updated", "origins", "warnings", "task_ids", "uncorrected_energy_per_atom", "equilibrium_reaction_energy_per_atom", "decomposes_to", "xas", "grain_boundaries", "cbm", "vbm", "is_gap_direct", "is_metal", "es_source_calc_id", "bandstructure", "dos", "dos_energy_up", "dos_energy_down", "is_magnetic", "ordering", "total_magnetization_normalized_vol", "total_magnetization_normalized_formula_units", "num_magnetic_sites", "num_unique_magnetic_sites", "types_of_magnetic_species", "bulk_modulus", "shear_modulus", "universal_anisotropy", "homogeneous_poisson", "e_total", "e_ionic", "e_electronic", "n", "e_ij_max", "weighted_surface_energy_EV_PER_ANG2", "weighted_surface_energy", "weighted_work_function", "surface_anisotropy", "shape_factor", "has_reconstructed", "possible_species", "has_props", "theoretical", "database_IDs"]}