{
  "builder_meta": null,
  "nsites": null,
  "elements": null,
  "nelements": null,
  "composition": null,
  "composition_reduced": null,
  "formula_pretty": "Si5Pt6",
  "formula_anonymous": "A5B6",
  "chemsys": null,
  "volume": 337.0678660973641,
  "density": 12.916407574477837,
  "density_atomic": 15.321266640789277,
  "symmetry": null,
  "property_name": null,
  "material_id": "mp-29661",
  "deprecated": null,
  "deprecation_reasons": null,
  "last_updated": null,
  "origins": null,
  "warnings": null,
  "structure": {
    "@module": "pymatgen.core.structure",
    "@class": "Structure",
    "charge": 0,
    "lattice": {
      "matrix": [
        [3.52920036, 0.0, 0.0],
        [0.0, 6.17031628, -0.38327472],
        [0.0, 0.03522895, 15.47648064]
      ],
      "pbc": [true, true, true],
      "a": 3.52920036,
      "b": 6.182208545999084,
      "c": 15.476520735592123,
      "alpha": 93.42399035143754,
      "beta": 90.0,
      "gamma": 90.0,
      "volume": 337.0678660973641
    },
    "properties": {},
    "sites": [
      {
        "species": [{ "element": "Si", "occu": 1 }],
        "abc": [0.75, 0.22243266, 0.42603576],
        "properties": { "magmom": -0.0 },
        "label": "Si",
        "xyz": [2.6469002699999997, 1.3874886556889567, 6.508281376107331]
      },
      {
        "species": [{ "element": "Si", "occu": 1 }],
        "abc": [0.25, 0.77756734, 0.57396424],
        "properties": { "magmom": -0.0 },
        "label": "Si",
        "xyz": [0.88230009, 4.8180565743110435, 8.584924543892669]
      },
      {
        "species": [{ "element": "Si", "occu": 1 }],
        "abc": [0.25, 0.31720283, 0.27912442],
        "properties": { "magmom": 0.0 },
        "label": "Si",
        "xyz": [0.88230009, 1.9670750462470312, 4.198287856429771]
      },
      {
        "species": [{ "element": "Si", "occu": 1 }],
        "abc": [0.75, 0.6827971700000001, 0.72087558],
        "properties": { "magmom": 0.0 },
        "label": "Si",
        "xyz": [2.6469002699999997, 4.238470183752969, 10.894918063570229]
      },
      {
        "species": [{ "element": "Si", "occu": 1 }],
        "abc": [0.25, 0.76944787, 0.33514052],
        "properties": { "magmom": -0.0 },
        "label": "Si",
        "xyz": [0.88230009, 4.759543367494378, 4.891885852530686]
      },
      {
        "species": [{ "element": "Si", "occu": 1 }],
        "abc": [0.75, 0.23055213, 0.6648594800000001],
        "properties": { "magmom": -0.0 },
        "label": "Si",
        "xyz": [2.6469002699999997, 1.4460018625056223, 10.201320067469315]
      },
      {
        "species": [{ "element": "Si", "occu": 1 }],
        "abc": [0.25, 0.43504076, 0.06437352],
        "properties": { "magmom": -0.0 },
        "label": "Si",
        "xyz": [0.88230009, 2.686606895408977, 0.8295354105310656]
      },
      {
        "species": [{ "element": "Si", "occu": 1 }],
        "abc": [0.75, 0.56495924, 0.93562648],
        "properties": { "magmom": -0.0 },
        "label": "Si",
        "xyz": [2.6469002699999997, 3.518938334591023, 14.263670509468936]
      },
      {
        "species": [{ "element": "Si", "occu": 1 }],
        "abc": [0.75, 0.94555802, 0.11983948],
        "properties": { "magmom": -0.0 },
        "label": "Si",
        "xyz": [2.6469002699999997, 5.8386138635395115, 1.4922849067684127]
      },
      {
        "species": [{ "element": "Si", "occu": 1 }],
        "abc": [0.25, 0.05444198, 0.88016052],
        "properties": { "magmom": -0.0 },
        "label": "Si",
        "xyz": [0.88230009, 0.3669313664604884, 13.600921013231588]
      },
      {
        "species": [{ "element": "Pt", "occu": 1 }],
        "abc": [0.75, 0.52804917, 0.5768675],
        "properties": { "magmom": -0.0 },
        "label": "Pt",
        "xyz": [2.6469002699999997, 3.2785528266056123, 8.725490797817217]
      },
      {
        "species": [{ "element": "Pt", "occu": 1 }],
        "abc": [0.25, 0.47195083, 0.423132499999999],
        "properties": { "magmom": -0.0 },
        "label": "Pt",
        "xyz": [0.88230009, 2.926992403394387, 6.3677151221827675]
      },
      {
        "species": [{ "element": "Pt", "occu": 1 }],
        "abc": [0.75, 0.85159798, 0.44826912],
        "properties": { "magmom": -0.0 },
        "label": "Pt",
        "xyz": [2.6469002699999997, 5.270420930424138, 6.611232379852772]
      },
      {
        "species": [{ "element": "Pt", "occu": 1 }],
        "abc": [0.25, 0.14840202, 0.55173088],
        "properties": { "magmom": -0.0 },
        "label": "Pt",
        "xyz": [0.88230009, 0.9351242995758615, 8.481973540147228]
      },
      {
        "species": [{ "element": "Pt", "occu": 1 }],
        "abc": [0.75, 0.00755948, 0.2817905],
        "properties": { "magmom": 0.0 },
        "label": "Pt",
        "xyz": [2.6469002699999997, 0.0565715659473094, 4.358227860205575]
      },
      {
        "species": [{ "element": "Pt", "occu": 1 }],
        "abc": [0.25, 0.99244052, 0.7182095],
        "properties": { "magmom": 0.0 },
        "label": "Pt",
        "xyz": [0.88230009, 6.14897366405269, 10.734978059794425]
      },
      {
        "species": [{ "element": "Pt", "occu": 1 }],
        "abc": [0.75, 0.34082852, 0.17352784000000002],
        "properties": { "magmom": 0.0 },
        "label": "Pt",
        "xyz": [2.6469002699999997, 2.1091329692432734, 2.5549693006900034]
      },
      {
        "species": [{ "element": "Pt", "occu": 1 }],
        "abc": [0.25, 0.65917148, 0.82647216],
        "properties": { "magmom": 0.0 },
        "label": "Pt",
        "xyz": [0.88230009, 4.096412260756726, 12.538236619309998]
      },
      {
        "species": [{ "element": "Pt", "occu": 1 }],
        "abc": [0.25, 0.71958701, 0.17828957],
        "properties": { "magmom": 0.0 },
        "label": "Pt",
        "xyz": [0.88230009, 4.446360397026575, 2.4834955686455378]
      },
      {
        "species": [{ "element": "Pt", "occu": 1 }],
        "abc": [0.75, 0.28041299000000003, 0.82171043],
        "properties": { "magmom": 0.0 },
        "label": "Pt",
        "xyz": [2.6469002699999997, 1.7591848329734259, 12.609710351354463]
      },
      {
        "species": [{ "element": "Pt", "occu": 1 }],
        "abc": [0.25, 0.80216891, 0.00145152],
        "properties": { "magmom": -0.0 },
        "label": "Pt",
        "xyz": [0.88230009, 4.9496870202083585, -0.28498664319438244]
      },
      {
        "species": [{ "element": "Pt", "occu": 1 }],
        "abc": [0.75, 0.19783109000000001, 0.9985484800000001],
        "properties": { "magmom": -0.0 },
        "label": "Pt",
        "xyz": [2.6469002699999997, 1.2558582097916413, 15.378192563194384]
      }
    ]
  },
  "task_ids": null,
  "uncorrected_energy_per_atom": null,
  "energy_per_atom": -32.79311980909091,
  "formation_energy_per_atom": -0.7208357750000011,
  "energy_above_hull": 0.0,
  "is_stable": true,
  "equilibrium_reaction_energy_per_atom": null,
  "decomposes_to": null,
  "xas": null,
  "grain_boundaries": null,
  "band_gap": 0.0,
  "cbm": null,
  "vbm": null,
  "efermi": 8.37421645,
  "is_gap_direct": null,
  "is_metal": null,
  "es_source_calc_id": null,
  "bandstructure": null,
  "dos": null,
  "dos_energy_up": null,
  "dos_energy_down": null,
  "is_magnetic": null,
  "ordering": null,
  "total_magnetization": 0.0,
  "total_magnetization_normalized_vol": null,
  "total_magnetization_normalized_formula_units": null,
  "num_magnetic_sites": null,
  "num_unique_magnetic_sites": null,
  "types_of_magnetic_species": null,
  "bulk_modulus": null,
  "shear_modulus": null,
  "universal_anisotropy": null,
  "homogeneous_poisson": null,
  "e_total": null,
  "e_ionic": null,
  "e_electronic": null,
  "n": null,
  "e_ij_max": null,
  "weighted_surface_energy_EV_PER_ANG2": null,
  "weighted_surface_energy": null,
  "weighted_work_function": null,
  "surface_anisotropy": null,
  "shape_factor": null,
  "has_reconstructed": null,
  "possible_species": null,
  "has_props": null,
  "theoretical": null,
  "database_IDs": null,
  "fields_not_requested": [
    "builder_meta",
    "nsites",
    "elements",
    "nelements",
    "composition",
    "composition_reduced",
    "chemsys",
    "symmetry",
    "property_name",
    "deprecated",
    "deprecation_reasons",
    "last_updated",
    "origins",
    "warnings",
    "task_ids",
    "uncorrected_energy_per_atom",
    "equilibrium_reaction_energy_per_atom",
    "decomposes_to",
    "xas",
    "grain_boundaries",
    "cbm",
    "vbm",
    "is_gap_direct",
    "is_metal",
    "es_source_calc_id",
    "bandstructure",
    "dos",
    "dos_energy_up",
    "dos_energy_down",
    "is_magnetic",
    "ordering",
    "total_magnetization_normalized_vol",
    "total_magnetization_normalized_formula_units",
    "num_magnetic_sites",
    "num_unique_magnetic_sites",
    "types_of_magnetic_species",
    "bulk_modulus",
    "shear_modulus",
    "universal_anisotropy",
    "homogeneous_poisson",
    "e_total",
    "e_ionic",
    "e_electronic",
    "n",
    "e_ij_max",
    "weighted_surface_energy_EV_PER_ANG2",
    "weighted_surface_energy",
    "weighted_work_function",
    "surface_anisotropy",
    "shape_factor",
    "has_reconstructed",
    "possible_species",
    "has_props",
    "theoretical",
    "database_IDs"
  ]
}
