{
  "builder_meta": null,
  "nsites": null,
  "elements": null,
  "nelements": null,
  "composition": null,
  "composition_reduced": null,
  "formula_pretty": "Si5Rh4",
  "formula_anonymous": "A4B5",
  "chemsys": null,
  "volume": 254.8449215678628,
  "density": 7.194177194564093,
  "density_atomic": 14.1580511982146,
  "symmetry": null,
  "property_name": null,
  "material_id": "mp-568792",
  "deprecated": null,
  "deprecation_reasons": null,
  "last_updated": null,
  "origins": null,
  "warnings": null,
  "structure": {
    "@module": "pymatgen.core.structure",
    "@class": "Structure",
    "charge": 0,
    "lattice": {
      "matrix": [
        [3.52983205, 0.0, 0.0],
        [0.0, 5.8491332, -1.0462254500000001],
        [0.0, 0.00360446, 12.34263099]
      ],
      "pbc": [true, true, true],
      "a": 3.52983205,
      "b": 5.941964900903567,
      "c": 12.342631516311272,
      "alpha": 100.12443128046365,
      "beta": 90.0,
      "gamma": 90.0,
      "volume": 254.84492156786277
    },
    "properties": {},
    "sites": [
      {
        "species": [{ "element": "Si", "occu": 1 }],
        "abc": [0.75, 0.51297023, 0.07726747],
        "properties": { "magmom": -0.0 },
        "label": "Si",
        "xyz": [2.6473740375, 3.0007097104095517, 0.41700136002254184]
      },
      {
        "species": [{ "element": "Si", "occu": 1 }],
        "abc": [0.75, 0.97763233, 0.13998499],
        "properties": { "magmom": 0.0 },
        "label": "Si",
        "xyz": [2.6473740375, 5.718806289093411, 0.7049592513200416]
      },
      {
        "species": [{ "element": "Si", "occu": 1 }],
        "abc": [0.25, 0.63774878, 0.63621988],
        "properties": { "magmom": 0.0 },
        "label": "Si",
        "xyz": [0.8824580125, 3.7325707914661606, 7.185398202999629]
      },
      {
        "species": [{ "element": "Si", "occu": 1 }],
        "abc": [0.25, 0.89436557, 0.42285876],
        "properties": { "magmom": 0.0 },
        "label": "Si",
        "xyz": [0.8824580125, 5.232787525909993, 4.283481614631216]
      },
      {
        "species": [{ "element": "Si", "occu": 1 }],
        "abc": [0.25, 0.46672927000000003, 0.22355383],
        "properties": { "magmom": -0.0 },
        "label": "Si",
        "xyz": [0.8824580125, 2.730767459406846, 2.2709383895572706]
      },
      {
        "species": [{ "element": "Si", "occu": 1 }],
        "abc": [0.25, 0.48702977000000003, 0.92273253],
        "properties": { "magmom": -0.0 },
        "label": "Si",
        "xyz": [0.8824580125, 2.852027949590448, 10.879404179977458]
      },
      {
        "species": [{ "element": "Si", "occu": 1 }],
        "abc": [0.75, 0.36225122, 0.36378012],
        "properties": { "magmom": 0.0 },
        "label": "Si",
        "xyz": [2.6473740375, 2.1201668685338393, 4.11100733700037]
      },
      {
        "species": [{ "element": "Si", "occu": 1 }],
        "abc": [0.75, 0.53327073, 0.77644617],
        "properties": { "magmom": -0.0 },
        "label": "Si",
        "xyz": [2.6473740375, 3.121970200593154, 9.02546715044273]
      },
      {
        "species": [{ "element": "Si", "occu": 1 }],
        "abc": [0.25, 0.02236767, 0.86001501],
        "properties": { "magmom": 0.0 },
        "label": "Si",
        "xyz": [0.8824580125, 0.13393137090658858, 10.591446288679958]
      },
      {
        "species": [{ "element": "Si", "occu": 1 }],
        "abc": [0.75, 0.10563443, 0.57714124],
        "properties": { "magmom": 0.0 },
        "label": "Si",
        "xyz": [2.6473740375, 0.6199501340900064, 7.012923925368784]
      },
      {
        "species": [{ "element": "Rh", "occu": 1 }],
        "abc": [0.25, 0.30014111, 0.50029155],
        "properties": { "magmom": -0.0 },
        "label": "Rh",
        "xyz": [0.8824580125, 1.757368612066165, 5.8608987211918855]
      },
      {
        "species": [{ "element": "Rh", "occu": 1 }],
        "abc": [0.75, 0.69985889, 0.49970845],
        "properties": { "magmom": -0.0 },
        "label": "Rh",
        "xyz": [2.6473740375, 4.0953690479338345, 5.435506818808116]
      },
      {
        "species": [{ "element": "Rh", "occu": 1 }],
        "abc": [0.75, 0.89206132, 0.7264840300000001],
        "properties": { "magmom": -0.0 },
        "label": "Rh",
        "xyz": [2.6473740375, 5.220404065874598, 8.033427046473495]
      },
      {
        "species": [{ "element": "Rh", "occu": 1 }],
        "abc": [0.25, 0.10793868000000001, 0.27351597],
        "properties": { "magmom": -0.0 },
        "label": "Rh",
        "xyz": [0.8824580125, 0.6323335941254022, 3.262978493526504]
      },
      {
        "species": [{ "element": "Rh", "occu": 1 }],
        "abc": [0.25, 0.28606867, 0.73021164],
        "properties": { "magmom": 0.0 },
        "label": "Rh",
        "xyz": [0.8824580125, 1.6758857738247583, 8.713440494121073]
      },
      {
        "species": [{ "element": "Rh", "occu": 1 }],
        "abc": [0.25, 0.20912078, 0.05025512],
        "properties": { "magmom": -0.0 },
        "label": "Rh",
        "xyz": [0.8824580125, 1.2233564396777312, 0.40149291935831777]
      },
      {
        "species": [{ "element": "Rh", "occu": 1 }],
        "abc": [0.75, 0.79087922, 0.94974488],
        "properties": { "magmom": -0.0 },
        "label": "Rh",
        "xyz": [2.6473740375, 4.629381220322268, 10.894912620641682]
      },
      {
        "species": [{ "element": "Rh", "occu": 1 }],
        "abc": [0.75, 0.71393133, 0.26978836],
        "properties": { "magmom": 0.0 },
        "label": "Rh",
        "xyz": [2.6473740375, 4.176851886175241, 2.582965045878928]
      }
    ]
  },
  "task_ids": null,
  "uncorrected_energy_per_atom": null,
  "energy_per_atom": -16.361937080555556,
  "formation_energy_per_atom": -0.760410692222219,
  "energy_above_hull": 0.0,
  "is_stable": true,
  "equilibrium_reaction_energy_per_atom": null,
  "decomposes_to": null,
  "xas": null,
  "grain_boundaries": null,
  "band_gap": 0.0,
  "cbm": null,
  "vbm": null,
  "efermi": 8.25298902,
  "is_gap_direct": null,
  "is_metal": null,
  "es_source_calc_id": null,
  "bandstructure": null,
  "dos": null,
  "dos_energy_up": null,
  "dos_energy_down": null,
  "is_magnetic": null,
  "ordering": null,
  "total_magnetization": 0.0,
  "total_magnetization_normalized_vol": null,
  "total_magnetization_normalized_formula_units": null,
  "num_magnetic_sites": null,
  "num_unique_magnetic_sites": null,
  "types_of_magnetic_species": null,
  "bulk_modulus": null,
  "shear_modulus": null,
  "universal_anisotropy": null,
  "homogeneous_poisson": null,
  "e_total": null,
  "e_ionic": null,
  "e_electronic": null,
  "n": null,
  "e_ij_max": null,
  "weighted_surface_energy_EV_PER_ANG2": null,
  "weighted_surface_energy": null,
  "weighted_work_function": null,
  "surface_anisotropy": null,
  "shape_factor": null,
  "has_reconstructed": null,
  "possible_species": null,
  "has_props": null,
  "theoretical": null,
  "database_IDs": null,
  "fields_not_requested": [
    "builder_meta",
    "nsites",
    "elements",
    "nelements",
    "composition",
    "composition_reduced",
    "chemsys",
    "symmetry",
    "property_name",
    "deprecated",
    "deprecation_reasons",
    "last_updated",
    "origins",
    "warnings",
    "task_ids",
    "uncorrected_energy_per_atom",
    "equilibrium_reaction_energy_per_atom",
    "decomposes_to",
    "xas",
    "grain_boundaries",
    "cbm",
    "vbm",
    "is_gap_direct",
    "is_metal",
    "es_source_calc_id",
    "bandstructure",
    "dos",
    "dos_energy_up",
    "dos_energy_down",
    "is_magnetic",
    "ordering",
    "total_magnetization_normalized_vol",
    "total_magnetization_normalized_formula_units",
    "num_magnetic_sites",
    "num_unique_magnetic_sites",
    "types_of_magnetic_species",
    "bulk_modulus",
    "shear_modulus",
    "universal_anisotropy",
    "homogeneous_poisson",
    "e_total",
    "e_ionic",
    "e_electronic",
    "n",
    "e_ij_max",
    "weighted_surface_energy_EV_PER_ANG2",
    "weighted_surface_energy",
    "weighted_work_function",
    "surface_anisotropy",
    "shape_factor",
    "has_reconstructed",
    "possible_species",
    "has_props",
    "theoretical",
    "database_IDs"
  ]
}
