{"builder_meta": null, "nsites": null, "elements": null, "nelements": null, "composition": null, "composition_reduced": null, "formula_pretty": "Si7Tc4", "formula_anonymous": "A4B7", "chemsys": null, "volume": 594.6515215027969, "density": 6.574545046632411, "density_atomic": 13.514807306881748, "symmetry": null, "property_name": null, "material_id": "mp-1203760", "deprecated": null, "deprecation_reasons": null, "last_updated": null, "origins": null, "warnings": null, "structure": {"@module": "pymatgen.core.structure", "@class": "Structure", "charge": 0, "lattice": {"matrix": [[5.7421248, -0.0, -0.0], [0.0, 5.7421248, -0.0], [-0.0, 0.0, 18.03504706]], "pbc": [true, true, true], "a": 5.7421248, "b": 5.7421248, "c": 18.03504706, "alpha": 90.0, "beta": 90.0, "gamma": 90.0, "volume": 594.6515215027969}, "properties": {}, "sites": [{"species": [{"element": "Si", "occu": 1}], "abc": [0.18996099, 0.151452299999999, 0.38441072], "properties": {"magmom": 0.0}, "label": "Si", "xyz": [1.090779711711552, 0.8696580078470343, 6.932865425568483]}, {"species": [{"element": "Si", "occu": 1}], "abc": [0.81003901, 0.8485477, 0.38441072], "properties": {"magmom": 0.0}, "label": "Si", "xyz": [4.651345088288448, 4.87246679215296, 6.932865425568483]}, {"species": [{"element": "Si", "occu": 1}], "abc": [0.18996099, 0.8485477, 0.88441072], "properties": {"magmom": 0.0}, "label": "Si", "xyz": [1.090779711711552, 4.87246679215296, 15.950388955568483]}, {"species": [{"element": "Si", "occu": 1}], "abc": [0.81003901, 0.151452299999999, 0.88441072], "properties": {"magmom": 0.0}, "label": "Si", "xyz": [4.651345088288448, 0.8696580078470343, 15.950388955568483]}, {"species": [{"element": "Si", "occu": 1}], "abc": [0.151452299999999, 0.81003901, 0.61558928], "properties": {"magmom": 0.0}, "label": "Si", "xyz": [0.8696580078470343, 4.651345088288448, 11.102181634431517]}, {"species": [{"element": "Si", "occu": 1}], "abc": [0.8485477, 0.18996099, 0.61558928], "properties": {"magmom": 0.0}, "label": "Si", "xyz": [4.87246679215296, 1.090779711711552, 11.102181634431517]}, {"species": [{"element": "Si", "occu": 1}], "abc": [0.8485477, 0.81003901, 0.11558928], "properties": {"magmom": 0.0}, "label": "Si", "xyz": [4.87246679215296, 4.651345088288448, 2.084658104431517]}, {"species": [{"element": "Si", "occu": 1}], "abc": [0.151452299999999, 0.18996099, 0.11558928], "properties": {"magmom": 0.0}, "label": "Si", "xyz": [0.8696580078470343, 1.090779711711552, 2.084658104431517]}, {"species": [{"element": "Si", "occu": 1}], "abc": [0.84634721, 0.32988325, 0.31611839], "properties": {"magmom": 0.0}, "label": "Si", "xyz": [4.859831303951808, 1.8942307909296001, 5.701210040181434]}, {"species": [{"element": "Si", "occu": 1}], "abc": [0.15365279, 0.67011675, 0.31611839], "properties": {"magmom": 0.0}, "label": "Si", "xyz": [0.8822934960481921, 3.8478940090704, 5.701210040181434]}, {"species": [{"element": "Si", "occu": 1}], "abc": [0.84634721, 0.67011675, 0.81611839], "properties": {"magmom": 0.0}, "label": "Si", "xyz": [4.859831303951808, 3.8478940090704, 14.718733570181433]}, {"species": [{"element": "Si", "occu": 1}], "abc": [0.15365279, 0.32988325, 0.81611839], "properties": {"magmom": 0.0}, "label": "Si", "xyz": [0.8822934960481921, 1.8942307909296001, 14.718733570181433]}, {"species": [{"element": "Si", "occu": 1}], "abc": [0.32988325, 0.15365279, 0.68388161], "properties": {"magmom": 0.0}, "label": "Si", "xyz": [1.8942307909296001, 0.8822934960481921, 12.333837019818567]}, {"species": [{"element": "Si", "occu": 1}], "abc": [0.67011675, 0.84634721, 0.68388161], "properties": {"magmom": 0.0}, "label": "Si", "xyz": [3.8478940090704, 4.859831303951808, 12.333837019818567]}, {"species": [{"element": "Si", "occu": 1}], "abc": [0.67011675, 0.15365279, 0.18388161], "properties": {"magmom": 0.0}, "label": "Si", "xyz": [3.8478940090704, 0.8822934960481921, 3.3163134898185667]}, {"species": [{"element": "Si", "occu": 1}], "abc": [0.32988325, 0.84634721, 0.18388161], "properties": {"magmom": 0.0}, "label": "Si", "xyz": [1.8942307909296001, 4.859831303951808, 3.3163134898185667]}, {"species": [{"element": "Si", "occu": 1}], "abc": [0.34079761000000003, 0.34079761000000003, 0.25], "properties": {"magmom": 0.0}, "label": "Si", "xyz": [1.9569024081617281, 1.9569024081617281, 4.508761765]}, {"species": [{"element": "Si", "occu": 1}], "abc": [0.65920239, 0.65920239, 0.25], "properties": {"magmom": 0.0}, "label": "Si", "xyz": [3.785222391838272, 3.785222391838272, 4.508761765]}, {"species": [{"element": "Si", "occu": 1}], "abc": [0.34079761000000003, 0.65920239, 0.75], "properties": {"magmom": 0.0}, "label": "Si", "xyz": [1.9569024081617281, 3.785222391838272, 13.526285295000001]}, {"species": [{"element": "Si", "occu": 1}], "abc": [0.65920239, 0.34079761000000003, 0.75], "properties": {"magmom": 0.0}, "label": "Si", "xyz": [3.785222391838272, 1.9569024081617281, 13.526285295000001]}, {"species": [{"element": "Si", "occu": 1}], "abc": [0.22511521, 0.34805768, 0.54086877], "properties": {"magmom": -0.0}, "label": "Si", "xyz": [1.2926396301982082, 1.998590636158464, 9.754593720234316]}, {"species": [{"element": "Si", "occu": 1}], "abc": [0.77488479, 0.65194232, 0.54086877], "properties": {"magmom": -0.0}, "label": "Si", "xyz": [4.449485169801792, 3.743534163841536, 9.754593720234316]}, {"species": [{"element": "Si", "occu": 1}], "abc": [0.22511521, 0.65194232, 0.04086877], "properties": {"magmom": -0.0}, "label": "Si", "xyz": [1.2926396301982082, 3.743534163841536, 0.7370701902343162]}, {"species": [{"element": "Si", "occu": 1}], "abc": [0.77488479, 0.34805768, 0.04086877], "properties": {"magmom": -0.0}, "label": "Si", "xyz": [4.449485169801792, 1.998590636158464, 0.7370701902343162]}, {"species": [{"element": "Si", "occu": 1}], "abc": [0.34805768, 0.77488479, 0.45913123], "properties": {"magmom": -0.0}, "label": "Si", "xyz": [1.998590636158464, 4.449485169801792, 8.280453339765684]}, {"species": [{"element": "Si", "occu": 1}], "abc": [0.65194232, 0.22511521, 0.45913123], "properties": {"magmom": -0.0}, "label": "Si", "xyz": [3.743534163841536, 1.2926396301982082, 8.280453339765684]}, {"species": [{"element": "Si", "occu": 1}], "abc": [0.65194232, 0.77488479, 0.95913123], "properties": {"magmom": -0.0}, "label": "Si", "xyz": [3.743534163841536, 4.449485169801792, 17.297976869765684]}, {"species": [{"element": "Si", "occu": 1}], "abc": [0.34805768, 0.22511521, 0.95913123], "properties": {"magmom": -0.0}, "label": "Si", "xyz": [1.998590636158464, 1.2926396301982082, 17.297976869765684]}, {"species": [{"element": "Tc", "occu": 1}], "abc": [0.0, 0.0, 0.5], "properties": {"magmom": 0.0}, "label": "Tc", "xyz": [0.0, 0.0, 9.01752353]}, {"species": [{"element": "Tc", "occu": 1}], "abc": [0.0, 0.0, 0.0], "properties": {"magmom": 0.0}, "label": "Tc", "xyz": [0.0, 0.0, 0.0]}, {"species": [{"element": "Tc", "occu": 1}], "abc": [0.0, 0.5, 0.43527275], "properties": {"magmom": 0.0}, "label": "Tc", "xyz": [0.0, 2.8710624, 7.850164530185615]}, {"species": [{"element": "Tc", "occu": 1}], "abc": [0.0, 0.5, 0.93527275], "properties": {"magmom": 0.0}, "label": "Tc", "xyz": [0.0, 2.8710624, 16.867688060185614]}, {"species": [{"element": "Tc", "occu": 1}], "abc": [0.5, 0.0, 0.56472725], "properties": {"magmom": 0.0}, "label": "Tc", "xyz": [2.8710624, 0.0, 10.184882529814386]}, {"species": [{"element": "Tc", "occu": 1}], "abc": [0.5, 0.0, 0.06472725], "properties": {"magmom": 0.0}, "label": "Tc", "xyz": [2.8710624, 0.0, 1.167358999814385]}, {"species": [{"element": "Tc", "occu": 1}], "abc": [0.5, 0.5, 0.36935], "properties": {"magmom": 0.0}, "label": "Tc", "xyz": [2.8710624, 2.8710624, 6.661244631611]}, {"species": [{"element": "Tc", "occu": 1}], "abc": [0.5, 0.5, 0.8693500000000001], "properties": {"magmom": 0.0}, "label": "Tc", "xyz": [2.8710624, 2.8710624, 15.678768161611002]}, {"species": [{"element": "Tc", "occu": 1}], "abc": [0.5, 0.5, 0.63065], "properties": {"magmom": 0.0}, "label": "Tc", "xyz": [2.8710624, 2.8710624, 11.373802428389]}, {"species": [{"element": "Tc", "occu": 1}], "abc": [0.5, 0.5, 0.13065000000000002], "properties": {"magmom": 0.0}, "label": "Tc", "xyz": [2.8710624, 2.8710624, 2.356278898389]}, {"species": [{"element": "Tc", "occu": 1}], "abc": [0.5, 0.0, 0.30760542], "properties": {"magmom": -0.0}, "label": "Tc", "xyz": [2.8710624, 0.0, 5.547678225611065]}, {"species": [{"element": "Tc", "occu": 1}], "abc": [0.5, 0.0, 0.80760542], "properties": {"magmom": -0.0}, "label": "Tc", "xyz": [2.8710624, 0.0, 14.565201755611065]}, {"species": [{"element": "Tc", "occu": 1}], "abc": [0.0, 0.5, 0.69239458], "properties": {"magmom": -0.0}, "label": "Tc", "xyz": [0.0, 2.8710624, 12.487368834388935]}, {"species": [{"element": "Tc", "occu": 1}], "abc": [0.0, 0.5, 0.19239458], "properties": {"magmom": -0.0}, "label": "Tc", "xyz": [0.0, 2.8710624, 3.469845304388935]}, {"species": [{"element": "Tc", "occu": 1}], "abc": [0.0, -0.0, 0.25], "properties": {"magmom": 0.0}, "label": "Tc", "xyz": [0.0, 0.0, 4.508761765]}, {"species": [{"element": "Tc", "occu": 1}], "abc": [0.0, 0.0, 0.75], "properties": {"magmom": 0.0}, "label": "Tc", "xyz": [0.0, 0.0, 13.526285295000001]}]}, "task_ids": null, "uncorrected_energy_per_atom": null, "energy_per_atom": -15.578621689772728, "formation_energy_per_atom": -0.553621656590911, "energy_above_hull": 0.0, "is_stable": true, "equilibrium_reaction_energy_per_atom": null, "decomposes_to": null, "xas": null, "grain_boundaries": null, "band_gap": 1.0648, "cbm": null, "vbm": null, "efermi": 10.93376325, "is_gap_direct": null, "is_metal": null, "es_source_calc_id": null, "bandstructure": null, "dos": null, "dos_energy_up": null, "dos_energy_down": null, "is_magnetic": null, "ordering": null, "total_magnetization": 0.0, "total_magnetization_normalized_vol": null, "total_magnetization_normalized_formula_units": null, "num_magnetic_sites": null, "num_unique_magnetic_sites": null, "types_of_magnetic_species": null, "bulk_modulus": null, "shear_modulus": null, "universal_anisotropy": null, "homogeneous_poisson": null, "e_total": null, "e_ionic": null, "e_electronic": null, "n": null, "e_ij_max": null, "weighted_surface_energy_EV_PER_ANG2": null, "weighted_surface_energy": null, "weighted_work_function": null, "surface_anisotropy": null, "shape_factor": null, "has_reconstructed": null, "possible_species": null, "has_props": null, "theoretical": null, "database_IDs": null, "fields_not_requested": ["builder_meta", "nsites", "elements", "nelements", "composition", "composition_reduced", "chemsys", "symmetry", "property_name", "deprecated", "deprecation_reasons", "last_updated", "origins", "warnings", "task_ids", "uncorrected_energy_per_atom", "equilibrium_reaction_energy_per_atom", "decomposes_to", "xas", "grain_boundaries", "cbm", "vbm", "is_gap_direct", "is_metal", "es_source_calc_id", "bandstructure", "dos", "dos_energy_up", "dos_energy_down", "is_magnetic", "ordering", "total_magnetization_normalized_vol", "total_magnetization_normalized_formula_units", "num_magnetic_sites", "num_unique_magnetic_sites", "types_of_magnetic_species", "bulk_modulus", "shear_modulus", "universal_anisotropy", "homogeneous_poisson", "e_total", "e_ionic", "e_electronic", "n", "e_ij_max", "weighted_surface_energy_EV_PER_ANG2", "weighted_surface_energy", "weighted_work_function", "surface_anisotropy", "shape_factor", "has_reconstructed", "possible_species", "has_props", "theoretical", "database_IDs"]}