{
  "builder_meta": null,
  "nsites": null,
  "elements": null,
  "nelements": null,
  "composition": null,
  "composition_reduced": null,
  "formula_pretty": "Si8C3",
  "formula_anonymous": "A3B8",
  "chemsys": null,
  "volume": 675.4456003157994,
  "density": 2.563814282833018,
  "density_atomic": 15.351036370813624,
  "symmetry": null,
  "property_name": null,
  "material_id": "mp-1179504",
  "deprecated": null,
  "deprecation_reasons": null,
  "last_updated": null,
  "origins": null,
  "warnings": null,
  "structure": {
    "@module": "pymatgen.core.structure",
    "@class": "Structure",
    "charge": 0,
    "lattice": {
      "matrix": [
        [5.120482, -0.602225999999999, -0.423763],
        [-3.3037900000000002, 12.315009, -2.18275],
        [0.359678, -1.945269, 11.422476]
      ],
      "pbc": [true, true, true],
      "a": 5.173160266951817,
      "b": 12.935952713143358,
      "c": 11.592514727901836,
      "alpha": 109.50768690035599,
      "beta": 91.7459985147518,
      "gamma": 110.47500621092873,
      "volume": 675.4456003157994
    },
    "properties": {},
    "sites": [
      {
        "species": [{ "element": "Si", "occu": 1 }],
        "abc": [0.8231600000000001, 0.946943, 0.301798],
        "properties": { "magmom": 0.0 },
        "label": "Si",
        "xyz": [1.1950252501940004, 10.578804919665002, 1.031515827518]
      },
      {
        "species": [{ "element": "Si", "occu": 1 }],
        "abc": [0.17684000000000002, 0.053057, 0.698202],
        "properties": { "magmom": 0.0 },
        "label": "Si",
        "xyz": [0.9813447498060002, -0.8112909196649998, 7.7844471724819995]
      },
      {
        "species": [{ "element": "Si", "occu": 1 }],
        "abc": [0.422736, 0.906362999999999, 0.41252000000000005],
        "properties": { "magmom": 0.0 },
        "label": "Si",
        "xyz": [-0.6814465684579971, 10.104823524050987, 2.5544960857020023]
      },
      {
        "species": [{ "element": "Si", "occu": 1 }],
        "abc": [0.577264, 0.093637, 0.58748],
        "properties": { "magmom": 0.0 },
        "label": "Si",
        "xyz": [2.857816568458, -0.33730952405099934, 6.2614669142979995]
      },
      {
        "species": [{ "element": "Si", "occu": 1 }],
        "abc": [0.262195, 0.775556999999999, 0.624383999999999],
        "properties": { "magmom": 0.0 },
        "label": "Si",
        "xyz": [-0.9951354946879974, 8.178495949646992, 5.328055673248991]
      },
      {
        "species": [{ "element": "Si", "occu": 1 }],
        "abc": [0.737804999999999, 0.224443, 0.375616],
        "properties": { "magmom": 0.0 },
        "label": "Si",
        "xyz": [3.1715054946879953, 1.5890180503530011, 3.4879073267510003]
      },
      {
        "species": [{ "element": "Si", "occu": 1 }],
        "abc": [0.7694200000000001, 0.751124999999999, 0.611208],
        "properties": { "magmom": -0.0 },
        "label": "Si",
        "xyz": [1.6780800677140035, 7.597782431252991, 5.015938889798002]
      },
      {
        "species": [{ "element": "Si", "occu": 1 }],
        "abc": [0.23058, 0.248874999999999, 0.388791999999999],
        "properties": { "magmom": -0.0 },
        "label": "Si",
        "xyz": [0.49828993228600293, 2.16973156874699, 3.800024110201991]
      },
      {
        "species": [{ "element": "Si", "occu": 1 }],
        "abc": [0.227341, 0.534655, 0.669659],
        "properties": { "magmom": -0.0 },
        "label": "Si",
        "xyz": [-0.36143073428600014, 5.144703582558001, 6.385806950251]
      },
      {
        "species": [{ "element": "Si", "occu": 1 }],
        "abc": [0.772659, 0.465344999999999, 0.330341],
        "properties": { "magmom": -0.0 },
        "label": "Si",
        "xyz": [2.537800734286003, 4.622810417441988, 2.430156049749002]
      },
      {
        "species": [{ "element": "Si", "occu": 1 }],
        "abc": [0.240234999999999, 0.611005999999999, 0.422776999999999],
        "properties": { "magmom": -0.0 },
        "label": "Si",
        "xyz": [-0.6364529336640022, 6.55745363393099, 3.3936840850469907]
      },
      {
        "species": [{ "element": "Si", "occu": 1 }],
        "abc": [0.759764999999999, 0.388994, 0.577222999999999],
        "properties": { "magmom": -0.0 },
        "label": "Si",
        "xyz": [2.8128229336639947, 3.210060366069003, 5.422278914952989]
      },
      {
        "species": [{ "element": "Si", "occu": 1 }],
        "abc": [0.899941, 0.757788999999999, 0.407987],
        "properties": { "magmom": 0.0 },
        "label": "Si",
        "xyz": [2.2512999194380026, 7.996566022931988, 2.624796078079002]
      },
      {
        "species": [{ "element": "Si", "occu": 1 }],
        "abc": [0.100059, 0.242210999999999, 0.592013],
        "properties": { "magmom": 0.0 },
        "label": "Si",
        "xyz": [-0.07492991943799682, 1.7709479770679881, 6.191166921921002]
      },
      {
        "species": [{ "element": "Si", "occu": 1 }],
        "abc": [0.059447999999999, 0.759591, 0.168134999999999],
        "properties": { "magmom": -0.0 },
        "label": "Si",
        "xyz": [-2.1446522754240056, 8.991501066756001, 0.23732888418598908]
      },
      {
        "species": [{ "element": "Si", "occu": 1 }],
        "abc": [0.940551999999999, 0.240408999999999, 0.831865],
        "properties": { "magmom": -0.0 },
        "label": "Si",
        "xyz": [4.3210222754239975, 0.7760129332439898, 8.578634115814003]
      },
      {
        "species": [{ "element": "Si", "occu": 1 }],
        "abc": [0.303054999999999, 0.089388, 0.912898999999999],
        "properties": { "magmom": 0.0 },
        "label": "Si",
        "xyz": [1.5848181785119948, -0.8575277007689973, 10.104031764958988]
      },
      {
        "species": [{ "element": "Si", "occu": 1 }],
        "abc": [0.696944999999999, 0.910612, 0.087101],
        "properties": { "magmom": 0.0 },
        "label": "Si",
        "xyz": [0.5915518214879947, 10.625041700769001, -1.2880687649589997]
      },
      {
        "species": [{ "element": "Si", "occu": 1 }],
        "abc": [0.188268, 0.864749, 0.029932999999999002],
        "properties": { "magmom": 0.0 },
        "label": "Si",
        "xyz": [-1.8821599519600007, 10.477784096196004, -1.6254029181260112]
      },
      {
        "species": [{ "element": "Si", "occu": 1 }],
        "abc": [0.811732, 0.13525, 0.9700669999999991],
        "properties": { "magmom": 0.0 },
        "label": "Si",
        "xyz": [4.05853325575, -0.7102824112049972, 10.441368100875989]
      },
      {
        "species": [{ "element": "Si", "occu": 1 }],
        "abc": [0.703897, 0.638919, 0.9919079999999991],
        "properties": { "magmom": -0.0 },
        "label": "Si",
        "xyz": [1.8502052009679995, 5.514860277297003, 9.637159372546991]
      },
      {
        "species": [{ "element": "Si", "occu": 1 }],
        "abc": [0.296103, 0.361081, 0.008092],
        "properties": { "magmom": -0.0 },
        "label": "Si",
        "xyz": [0.326164799032, 4.252653722703, -0.821196372547]
      },
      {
        "species": [{ "element": "Si", "occu": 1 }],
        "abc": [0.700295999999999, 0.362828999999999, 0.93176],
        "properties": { "magmom": -0.0 },
        "label": "Si",
        "xyz": [2.7222758140419976, 2.233982098124989, 9.554281704162003]
      },
      {
        "species": [{ "element": "Si", "occu": 1 }],
        "abc": [0.299703999999999, 0.637170999999999, 0.06824000000000001],
        "properties": { "magmom": -0.0 },
        "label": "Si",
        "xyz": [-0.5459058140420018, 7.533531901874988, -0.7383187041619975]
      },
      {
        "species": [{ "element": "Si", "occu": 1 }],
        "abc": [0.465259, 0.426876, 0.7193600000000001],
        "properties": { "magmom": -0.0 },
        "label": "Si",
        "xyz": [1.2307796408779996, 3.5774420075099997, 7.0879491967430015]
      },
      {
        "species": [{ "element": "Si", "occu": 1 }],
        "abc": [0.534741, 0.573124, 0.28064],
        "properties": { "magmom": -0.0 },
        "label": "Si",
        "xyz": [0.9455903591220001, 6.19007199249, 1.7280138032569998]
      },
      {
        "species": [{ "element": "Si", "occu": 1 }],
        "abc": [0.05462, 0.595677, 0.861417],
        "properties": { "magmom": -0.0 },
        "label": "Si",
        "xyz": [-1.378478245264, 5.627186245800001, 8.516155101682]
      },
      {
        "species": [{ "element": "Si", "occu": 1 }],
        "abc": [0.9453800000000001, 0.404323, 0.138582999999999],
        "properties": { "magmom": -0.0 },
        "label": "Si",
        "xyz": [3.554848245264, 4.140327754200002, 0.2998078983179886]
      },
      {
        "species": [{ "element": "Si", "occu": 1 }],
        "abc": [0.861306999999999, 0.82354, 0.831869],
        "properties": { "magmom": -0.0 },
        "label": "Si",
        "xyz": [1.9887087515559951, 8.004992064717001, 7.339431714402999]
      },
      {
        "species": [{ "element": "Si", "occu": 1 }],
        "abc": [0.138692999999999, 0.17646, 0.168131],
        "properties": { "magmom": -0.0 },
        "label": "Si",
        "xyz": [0.18766124844399484, 1.7625219352830008, 1.4765312855970003]
      },
      {
        "species": [{ "element": "Si", "occu": 1 }],
        "abc": [0.524606999999999, 0.920798, 0.819616999999999],
        "properties": { "magmom": -0.0 },
        "label": "Si",
        "xyz": [-0.0610843205200054, 9.429328140027005, 7.129874641050988]
      },
      {
        "species": [{ "element": "Si", "occu": 1 }],
        "abc": [0.475392999999999, 0.079202, 0.180383],
        "properties": { "magmom": -0.0 },
        "label": "Si",
        "xyz": [2.2374543205199946, 0.33818585997300105, 1.6860883589490003]
      },
      {
        "species": [{ "element": "C", "occu": 1 }],
        "abc": [0.051868, 0.8662000000000001, 0.325433],
        "properties": { "magmom": 0.0 },
        "label": "C",
        "xyz": [-2.479102647050001, 10.002969811155001, 1.8045728428239995]
      },
      {
        "species": [{ "element": "C", "occu": 1 }],
        "abc": [0.948132, 0.1338, 0.674566999999999],
        "properties": { "magmom": 0.0 },
        "label": "C",
        "xyz": [4.65547264705, -0.23545581115499692, 7.011390157175988]
      },
      {
        "species": [{ "element": "C", "occu": 1 }],
        "abc": [0.265102, 0.771192, 0.459817],
        "properties": { "magmom": 0.0 },
        "label": "C",
        "xyz": [-1.0250203395900002, 8.443117347903, 3.4565888900659996]
      },
      {
        "species": [{ "element": "C", "occu": 1 }],
        "abc": [0.734897999999999, 0.228807999999999, 0.540183],
        "properties": { "magmom": 0.0 },
        "label": "C",
        "xyz": [3.2013903395899983, 1.3243966520969894, 5.359374109934002]
      },
      {
        "species": [{ "element": "C", "occu": 1 }],
        "abc": [0.380791, 0.643996, 0.590827],
        "properties": { "magmom": 0.0 },
        "label": "C",
        "xyz": [0.03471339012799968, 6.552176847735001, 5.181659822119]
      },
      {
        "species": [{ "element": "C", "occu": 1 }],
        "abc": [0.619209, 0.356004, 0.409173],
        "properties": { "magmom": 0.0 },
        "label": "C",
        "xyz": [2.141656609872, 3.2153371522650005, 3.6343031778809998]
      },
      {
        "species": [{ "element": "C", "occu": 1 }],
        "abc": [0.217886, 0.935121, 0.906639],
        "properties": { "magmom": -0.0 },
        "label": "C",
        "xyz": [-1.6476639652960003, 9.621150175962, 8.222594830395998]
      },
      {
        "species": [{ "element": "C", "occu": 1 }],
        "abc": [0.782114, 0.064878999999999, 0.093361],
        "properties": { "magmom": -0.0 },
        "label": "C",
        "xyz": [3.8240339652960027, 0.1463638240379885, 0.5933681696040022]
      },
      {
        "species": [{ "element": "C", "occu": 1 }],
        "abc": [0.919948, 0.7185100000000001, 0.8991500000000001],
        "properties": { "magmom": -0.0 },
        "label": "C",
        "xyz": [2.6601754957359995, 6.545351890992001, 8.312351668576001]
      },
      {
        "species": [{ "element": "C", "occu": 1 }],
        "abc": [0.080052, 0.28149, 0.10085000000000001],
        "properties": { "magmom": -0.0 },
        "label": "C",
        "xyz": [-0.48380549573600007, 3.2221621090080004, 0.5036113314240002]
      },
      {
        "species": [{ "element": "C", "occu": 1 }],
        "abc": [0.701307999999999, 0.486506999999999, 0.878093999999999],
        "properties": { "magmom": 0.0 },
        "label": "C",
        "xyz": [2.299549122657998, 3.860863134668991, 8.67089610448999]
      },
      {
        "species": [{ "element": "C", "occu": 1 }],
        "abc": [0.298692, 0.513493, 0.121906],
        "properties": { "magmom": 0.0 },
        "label": "C",
        "xyz": [-0.12317912265799993, 5.906650865331001, 0.14506689551000007]
      }
    ]
  },
  "task_ids": null,
  "uncorrected_energy_per_atom": null,
  "energy_per_atom": -6.011908259999999,
  "formation_energy_per_atom": 0.45068635068181806,
  "energy_above_hull": 0.561894805200958,
  "is_stable": false,
  "equilibrium_reaction_energy_per_atom": null,
  "decomposes_to": null,
  "xas": null,
  "grain_boundaries": null,
  "band_gap": 0.0,
  "cbm": null,
  "vbm": null,
  "efermi": 6.7279087,
  "is_gap_direct": null,
  "is_metal": null,
  "es_source_calc_id": null,
  "bandstructure": null,
  "dos": null,
  "dos_energy_up": null,
  "dos_energy_down": null,
  "is_magnetic": null,
  "ordering": null,
  "total_magnetization": 0.0020671,
  "total_magnetization_normalized_vol": null,
  "total_magnetization_normalized_formula_units": null,
  "num_magnetic_sites": null,
  "num_unique_magnetic_sites": null,
  "types_of_magnetic_species": null,
  "bulk_modulus": null,
  "shear_modulus": null,
  "universal_anisotropy": null,
  "homogeneous_poisson": null,
  "e_total": null,
  "e_ionic": null,
  "e_electronic": null,
  "n": null,
  "e_ij_max": null,
  "weighted_surface_energy_EV_PER_ANG2": null,
  "weighted_surface_energy": null,
  "weighted_work_function": null,
  "surface_anisotropy": null,
  "shape_factor": null,
  "has_reconstructed": null,
  "possible_species": null,
  "has_props": null,
  "theoretical": null,
  "database_IDs": null,
  "fields_not_requested": [
    "builder_meta",
    "nsites",
    "elements",
    "nelements",
    "composition",
    "composition_reduced",
    "chemsys",
    "symmetry",
    "property_name",
    "deprecated",
    "deprecation_reasons",
    "last_updated",
    "origins",
    "warnings",
    "task_ids",
    "uncorrected_energy_per_atom",
    "equilibrium_reaction_energy_per_atom",
    "decomposes_to",
    "xas",
    "grain_boundaries",
    "cbm",
    "vbm",
    "is_gap_direct",
    "is_metal",
    "es_source_calc_id",
    "bandstructure",
    "dos",
    "dos_energy_up",
    "dos_energy_down",
    "is_magnetic",
    "ordering",
    "total_magnetization_normalized_vol",
    "total_magnetization_normalized_formula_units",
    "num_magnetic_sites",
    "num_unique_magnetic_sites",
    "types_of_magnetic_species",
    "bulk_modulus",
    "shear_modulus",
    "universal_anisotropy",
    "homogeneous_poisson",
    "e_total",
    "e_ionic",
    "e_electronic",
    "n",
    "e_ij_max",
    "weighted_surface_energy_EV_PER_ANG2",
    "weighted_surface_energy",
    "weighted_work_function",
    "surface_anisotropy",
    "shape_factor",
    "has_reconstructed",
    "possible_species",
    "has_props",
    "theoretical",
    "database_IDs"
  ]
}
