{
  "builder_meta": null,
  "nsites": null,
  "elements": null,
  "nelements": null,
  "composition": null,
  "composition_reduced": null,
  "formula_pretty": "SiAg2",
  "formula_anonymous": "AB2",
  "chemsys": null,
  "volume": 235.91127077416482,
  "density": 6.8648825283166985,
  "density_atomic": 19.659272564513735,
  "symmetry": null,
  "property_name": null,
  "material_id": "mp-1095654",
  "deprecated": null,
  "deprecation_reasons": null,
  "last_updated": null,
  "origins": null,
  "warnings": null,
  "structure": {
    "@module": "pymatgen.core.structure",
    "@class": "Structure",
    "charge": 0,
    "lattice": {
      "matrix": [
        [2.798404, -4.743336, 0.0],
        [2.798404, 4.743336, 0.0],
        [0.0, 0.0, 8.88637]
      ],
      "pbc": [true, true, true],
      "a": 5.507295284993533,
      "b": 5.507295284993533,
      "c": 8.88637,
      "alpha": 90.0,
      "beta": 90.0,
      "gamma": 118.92173358448701,
      "volume": 235.91127077416482
    },
    "properties": {},
    "sites": [
      {
        "species": [{ "element": "Si", "occu": 1 }],
        "abc": [0.672495, 0.327505, 0.8888900000000001],
        "properties": { "magmom": 0.0 },
        "label": "Si",
        "xyz": [2.798404, -1.6364034866400001, 7.8990054293]
      },
      {
        "species": [{ "element": "Si", "occu": 1 }],
        "abc": [0.327505, 0.672495, 0.11111000000000001],
        "properties": { "magmom": 0.0 },
        "label": "Si",
        "xyz": [2.798404, 1.6364034866400001, 0.9873645707]
      },
      {
        "species": [{ "element": "Si", "occu": 1 }],
        "abc": [0.672495, 0.327505, 0.61111],
        "properties": { "magmom": 0.0 },
        "label": "Si",
        "xyz": [2.798404, -1.6364034866400001, 5.4305495707]
      },
      {
        "species": [{ "element": "Si", "occu": 1 }],
        "abc": [0.327505, 0.672495, 0.38889],
        "properties": { "magmom": 0.0 },
        "label": "Si",
        "xyz": [2.798404, 1.6364034866400001, 3.4558204293]
      },
      {
        "species": [{ "element": "Ag", "occu": 1 }],
        "abc": [0.0, 0.0, 0.0],
        "properties": { "magmom": 0.0 },
        "label": "Ag",
        "xyz": [0.0, 0.0, 0.0]
      },
      {
        "species": [{ "element": "Ag", "occu": 1 }],
        "abc": [0.0, 0.0, 0.5],
        "properties": { "magmom": 0.0 },
        "label": "Ag",
        "xyz": [0.0, 0.0, 4.443185]
      },
      {
        "species": [{ "element": "Ag", "occu": 1 }],
        "abc": [0.176339, 0.823661, 0.75],
        "properties": { "magmom": 0.0 },
        "label": "Ag",
        "xyz": [2.798404, 3.070465746192, 6.6647775]
      },
      {
        "species": [{ "element": "Ag", "occu": 1 }],
        "abc": [0.823661, 0.176339, 0.25],
        "properties": { "magmom": 0.0 },
        "label": "Ag",
        "xyz": [2.798404, -3.070465746192, 2.2215925]
      },
      {
        "species": [{ "element": "Ag", "occu": 1 }],
        "abc": [0.666098, 0.821484, 0.75],
        "properties": { "magmom": 0.0 },
        "label": "Ag",
        "xyz": [4.162855419128, 0.7370480076960004, 6.6647775]
      },
      {
        "species": [{ "element": "Ag", "occu": 1 }],
        "abc": [0.821484, 0.666098, 0.25],
        "properties": { "magmom": 0.0 },
        "label": "Ag",
        "xyz": [4.162855419128, -0.7370480076960004, 2.2215925]
      },
      {
        "species": [{ "element": "Ag", "occu": 1 }],
        "abc": [0.333902, 0.178515999999999, 0.25],
        "properties": { "magmom": 0.0 },
        "label": "Ag",
        "xyz": [1.4339525808719973, -0.7370480076960045, 2.2215925]
      },
      {
        "species": [{ "element": "Ag", "occu": 1 }],
        "abc": [0.178515999999999, 0.333902, 0.75],
        "properties": { "magmom": 0.0 },
        "label": "Ag",
        "xyz": [1.4339525808719973, 0.7370480076960045, 6.6647775]
      }
    ]
  },
  "task_ids": null,
  "uncorrected_energy_per_atom": null,
  "energy_per_atom": -16.625240028611113,
  "formation_energy_per_atom": 0.536599599722222,
  "energy_above_hull": 0.536599599722219,
  "is_stable": false,
  "equilibrium_reaction_energy_per_atom": null,
  "decomposes_to": null,
  "xas": null,
  "grain_boundaries": null,
  "band_gap": 0.0,
  "cbm": null,
  "vbm": null,
  "efermi": 3.88423306,
  "is_gap_direct": null,
  "is_metal": null,
  "es_source_calc_id": null,
  "bandstructure": null,
  "dos": null,
  "dos_energy_up": null,
  "dos_energy_down": null,
  "is_magnetic": null,
  "ordering": null,
  "total_magnetization": 0.0097374,
  "total_magnetization_normalized_vol": null,
  "total_magnetization_normalized_formula_units": null,
  "num_magnetic_sites": null,
  "num_unique_magnetic_sites": null,
  "types_of_magnetic_species": null,
  "bulk_modulus": null,
  "shear_modulus": null,
  "universal_anisotropy": null,
  "homogeneous_poisson": null,
  "e_total": null,
  "e_ionic": null,
  "e_electronic": null,
  "n": null,
  "e_ij_max": null,
  "weighted_surface_energy_EV_PER_ANG2": null,
  "weighted_surface_energy": null,
  "weighted_work_function": null,
  "surface_anisotropy": null,
  "shape_factor": null,
  "has_reconstructed": null,
  "possible_species": null,
  "has_props": null,
  "theoretical": null,
  "database_IDs": null,
  "fields_not_requested": [
    "builder_meta",
    "nsites",
    "elements",
    "nelements",
    "composition",
    "composition_reduced",
    "chemsys",
    "symmetry",
    "property_name",
    "deprecated",
    "deprecation_reasons",
    "last_updated",
    "origins",
    "warnings",
    "task_ids",
    "uncorrected_energy_per_atom",
    "equilibrium_reaction_energy_per_atom",
    "decomposes_to",
    "xas",
    "grain_boundaries",
    "cbm",
    "vbm",
    "is_gap_direct",
    "is_metal",
    "es_source_calc_id",
    "bandstructure",
    "dos",
    "dos_energy_up",
    "dos_energy_down",
    "is_magnetic",
    "ordering",
    "total_magnetization_normalized_vol",
    "total_magnetization_normalized_formula_units",
    "num_magnetic_sites",
    "num_unique_magnetic_sites",
    "types_of_magnetic_species",
    "bulk_modulus",
    "shear_modulus",
    "universal_anisotropy",
    "homogeneous_poisson",
    "e_total",
    "e_ionic",
    "e_electronic",
    "n",
    "e_ij_max",
    "weighted_surface_energy_EV_PER_ANG2",
    "weighted_surface_energy",
    "weighted_work_function",
    "surface_anisotropy",
    "shape_factor",
    "has_reconstructed",
    "possible_species",
    "has_props",
    "theoretical",
    "database_IDs"
  ]
}
