{
  "builder_meta": null,
  "nsites": null,
  "elements": null,
  "nelements": null,
  "composition": null,
  "composition_reduced": null,
  "formula_pretty": "SiAs2",
  "formula_anonymous": "AB2",
  "chemsys": null,
  "volume": 592.9633567752937,
  "density": 3.986183011727875,
  "density_atomic": 24.706806532303904,
  "symmetry": null,
  "property_name": null,
  "material_id": "mp-978553",
  "deprecated": null,
  "deprecation_reasons": null,
  "last_updated": null,
  "origins": null,
  "warnings": null,
  "structure": {
    "@module": "pymatgen.core.structure",
    "@class": "Structure",
    "charge": 0,
    "lattice": {
      "matrix": [
        [15.48089001, -0.0, 0.0],
        [0.0, 10.47976247, 0.0],
        [0.0, 0.0, 3.65494202]
      ],
      "pbc": [true, true, true],
      "a": 15.48089001,
      "b": 10.47976247,
      "c": 3.65494202,
      "alpha": 90.0,
      "beta": 90.0,
      "gamma": 90.0,
      "volume": 592.9633567752937
    },
    "properties": {},
    "sites": [
      {
        "species": [{ "element": "Si", "occu": 1 }],
        "abc": [0.26616711, 0.19838037, 0.500001],
        "properties": { "magmom": 0.0 },
        "label": "Si",
        "xyz": [4.120503754189571, 2.078979156310714, 1.8274746649420202]
      },
      {
        "species": [{ "element": "Si", "occu": 1 }],
        "abc": [0.73383389, 0.80161863, 0.500001],
        "properties": { "magmom": 0.0 },
        "label": "Si",
        "xyz": [11.360401736700439, 8.400772833926817, 1.8274746649420202]
      },
      {
        "species": [{ "element": "Si", "occu": 1 }],
        "abc": [0.76616611, 0.30161963, 0.500001],
        "properties": { "magmom": 0.0 },
        "label": "Si",
        "xyz": [11.86093327829956, 3.1609020786892867, 1.8274746649420202]
      },
      {
        "species": [{ "element": "Si", "occu": 1 }],
        "abc": [0.23383389000000002, 0.69838037, 0.500001],
        "properties": { "magmom": 0.0 },
        "label": "Si",
        "xyz": [3.619956731700439, 7.318860391310714, 1.8274746649420202]
      },
      {
        "species": [{ "element": "Si", "occu": 1 }],
        "abc": [0.15569176, 0.41588019, 0.0],
        "properties": { "magmom": 0.0 },
        "label": "Si",
        "xyz": [2.410247012023318, 4.358325607178469, 0.0]
      },
      {
        "species": [{ "element": "Si", "occu": 1 }],
        "abc": [0.8443092400000001, 0.58411881, 0.0],
        "properties": { "magmom": 0.0 },
        "label": "Si",
        "xyz": [13.070658478866694, 6.121426383059061, 0.0]
      },
      {
        "species": [{ "element": "Si", "occu": 1 }],
        "abc": [0.65569076, 0.08411881, -0.0],
        "properties": { "magmom": 0.0 },
        "label": "Si",
        "xyz": [10.150676536133307, 0.8815451480590608, 0.0]
      },
      {
        "species": [{ "element": "Si", "occu": 1 }],
        "abc": [0.34430824, 0.91588019, 0.0],
        "properties": { "magmom": 0.0 },
        "label": "Si",
        "xyz": [5.330197992976682, 9.59820684217847, 0.0]
      },
      {
        "species": [{ "element": "As", "occu": 1 }],
        "abc": [0.11917517, 0.11566616, 0.500001],
        "properties": { "magmom": -0.0 },
        "label": "As",
        "xyz": [1.8449376986930517, 1.2121538826170153, 1.8274746649420202]
      },
      {
        "species": [{ "element": "As", "occu": 1 }],
        "abc": [0.88082483, 0.8843348400000001, 0.500001],
        "properties": { "magmom": -0.0 },
        "label": "As",
        "xyz": [13.635952311306948, 9.267619067145455, 1.8274746649420202]
      },
      {
        "species": [{ "element": "As", "occu": 1 }],
        "abc": [0.61917517, 0.38433384, 0.500001],
        "properties": { "magmom": -0.0 },
        "label": "As",
        "xyz": [9.585382703693051, 4.027727352382985, 1.8274746649420202]
      },
      {
        "species": [{ "element": "As", "occu": 1 }],
        "abc": [0.38082383000000003, 0.61566616, 0.500001],
        "properties": { "magmom": -0.0 },
        "label": "As",
        "xyz": [5.895491825416938, 6.452035117617015, 1.8274746649420202]
      },
      {
        "species": [{ "element": "As", "occu": 1 }],
        "abc": [0.054571390000000004, 0.24384059, -0.0],
        "properties": { "magmom": 0.0 },
        "label": "As",
        "xyz": [0.844813686282814, 2.5553914637446575, 0.0]
      },
      {
        "species": [{ "element": "As", "occu": 1 }],
        "abc": [0.94542861, 0.75615941, 0.0],
        "properties": { "magmom": 0.0 },
        "label": "As",
        "xyz": [14.636076323717186, 7.924371006255343, 0.0]
      },
      {
        "species": [{ "element": "As", "occu": 1 }],
        "abc": [0.55457039, 0.25616041, -0.0],
        "properties": { "magmom": 0.0 },
        "label": "As",
        "xyz": [8.585243210392804, 2.684500251017813, 0.0]
      },
      {
        "species": [{ "element": "As", "occu": 1 }],
        "abc": [0.44542861, 0.74384059, -0.0],
        "properties": { "magmom": 0.0 },
        "label": "As",
        "xyz": [6.895631318717186, 7.795272698744658, 0.0]
      },
      {
        "species": [{ "element": "As", "occu": 1 }],
        "abc": [0.38228182, 0.0488865, 0.500001],
        "properties": { "magmom": -0.0 },
        "label": "As",
        "xyz": [5.918062808242618, 0.5123189079896551, 1.8274746649420202]
      },
      {
        "species": [{ "element": "As", "occu": 1 }],
        "abc": [0.61771718, 0.951112499999999, 0.500001],
        "properties": { "magmom": -0.0 },
        "label": "As",
        "xyz": [9.562811720867371, 9.967433082247865, 1.8274746649420202]
      },
      {
        "species": [{ "element": "As", "occu": 1 }],
        "abc": [0.88228182, 0.4511135, 0.500001],
        "properties": { "magmom": -0.0 },
        "label": "As",
        "xyz": [13.658507813242618, 4.727562327010346, 1.8274746649420202]
      },
      {
        "species": [{ "element": "As", "occu": 1 }],
        "abc": [0.11771818, 0.5488855, 0.500001],
        "properties": { "magmom": -0.0 },
        "label": "As",
        "xyz": [1.822382196757382, 5.752189663227186, 1.8274746649420202]
      },
      {
        "species": [{ "element": "As", "occu": 1 }],
        "abc": [0.29863208, 0.33608112, 0.0],
        "properties": { "magmom": -0.0 },
        "label": "As",
        "xyz": [4.623090383937521, 3.5220503082515666, 0.0]
      },
      {
        "species": [{ "element": "As", "occu": 1 }],
        "abc": [0.70136692, 0.66391988, 0.0],
        "properties": { "magmom": -0.0 },
        "label": "As",
        "xyz": [10.857784145172468, 6.957722641510904, 0.0]
      },
      {
        "species": [{ "element": "As", "occu": 1 }],
        "abc": [0.79863208, 0.16391988, 0.0],
        "properties": { "magmom": -0.0 },
        "label": "As",
        "xyz": [12.36353538893752, 1.7178414065109036, 0.0]
      },
      {
        "species": [{ "element": "As", "occu": 1 }],
        "abc": [0.20136792, 0.83608012, 0.0],
        "properties": { "magmom": -0.0 },
        "label": "As",
        "xyz": [3.1173546210624794, 8.761921063489098, 0.0]
      }
    ]
  },
  "task_ids": null,
  "uncorrected_energy_per_atom": null,
  "energy_per_atom": -12.838872944583335,
  "formation_energy_per_atom": -0.109264087916666,
  "energy_above_hull": 0.0,
  "is_stable": true,
  "equilibrium_reaction_energy_per_atom": null,
  "decomposes_to": null,
  "xas": null,
  "grain_boundaries": null,
  "band_gap": 0.8890999999999991,
  "cbm": null,
  "vbm": null,
  "efermi": 3.90331174,
  "is_gap_direct": null,
  "is_metal": null,
  "es_source_calc_id": null,
  "bandstructure": null,
  "dos": null,
  "dos_energy_up": null,
  "dos_energy_down": null,
  "is_magnetic": null,
  "ordering": null,
  "total_magnetization": 0.0,
  "total_magnetization_normalized_vol": null,
  "total_magnetization_normalized_formula_units": null,
  "num_magnetic_sites": null,
  "num_unique_magnetic_sites": null,
  "types_of_magnetic_species": null,
  "bulk_modulus": null,
  "shear_modulus": null,
  "universal_anisotropy": null,
  "homogeneous_poisson": null,
  "e_total": null,
  "e_ionic": null,
  "e_electronic": null,
  "n": null,
  "e_ij_max": null,
  "weighted_surface_energy_EV_PER_ANG2": null,
  "weighted_surface_energy": null,
  "weighted_work_function": null,
  "surface_anisotropy": null,
  "shape_factor": null,
  "has_reconstructed": null,
  "possible_species": null,
  "has_props": null,
  "theoretical": null,
  "database_IDs": null,
  "fields_not_requested": [
    "builder_meta",
    "nsites",
    "elements",
    "nelements",
    "composition",
    "composition_reduced",
    "chemsys",
    "symmetry",
    "property_name",
    "deprecated",
    "deprecation_reasons",
    "last_updated",
    "origins",
    "warnings",
    "task_ids",
    "uncorrected_energy_per_atom",
    "equilibrium_reaction_energy_per_atom",
    "decomposes_to",
    "xas",
    "grain_boundaries",
    "cbm",
    "vbm",
    "is_gap_direct",
    "is_metal",
    "es_source_calc_id",
    "bandstructure",
    "dos",
    "dos_energy_up",
    "dos_energy_down",
    "is_magnetic",
    "ordering",
    "total_magnetization_normalized_vol",
    "total_magnetization_normalized_formula_units",
    "num_magnetic_sites",
    "num_unique_magnetic_sites",
    "types_of_magnetic_species",
    "bulk_modulus",
    "shear_modulus",
    "universal_anisotropy",
    "homogeneous_poisson",
    "e_total",
    "e_ionic",
    "e_electronic",
    "n",
    "e_ij_max",
    "weighted_surface_energy_EV_PER_ANG2",
    "weighted_surface_energy",
    "weighted_work_function",
    "surface_anisotropy",
    "shape_factor",
    "has_reconstructed",
    "possible_species",
    "has_props",
    "theoretical",
    "database_IDs"
  ]
}
