{
  "builder_meta": null,
  "nsites": null,
  "elements": null,
  "nelements": null,
  "composition": null,
  "composition_reduced": null,
  "formula_pretty": "SiAs3",
  "formula_anonymous": "AB3",
  "chemsys": null,
  "volume": 247.5537459048853,
  "density": 3.392134500867951,
  "density_atomic": 30.94421823811066,
  "symmetry": null,
  "property_name": null,
  "material_id": "mp-1172435",
  "deprecated": null,
  "deprecation_reasons": null,
  "last_updated": null,
  "origins": null,
  "warnings": null,
  "structure": {
    "@module": "pymatgen.core.structure",
    "@class": "Structure",
    "charge": 0,
    "lattice": {
      "matrix": [
        [4.053915, -7.021587, 0.0],
        [4.053915, 7.021587, 0.0],
        [0.0, 0.0, 4.348401]
      ],
      "pbc": [true, true, true],
      "a": 8.107830216882567,
      "b": 8.107830216882567,
      "c": 4.348401,
      "alpha": 90.0,
      "beta": 90.0,
      "gamma": 120.00000176975031,
      "volume": 247.5537459048853
    },
    "properties": {},
    "sites": [
      {
        "species": [{ "element": "Si", "occu": 1 }],
        "abc": [0.333333, 0.666667, 0.75],
        "properties": { "magmom": -0.0 },
        "label": "Si",
        "xyz": [4.053915, 2.340533681058, 3.26130075]
      },
      {
        "species": [{ "element": "Si", "occu": 1 }],
        "abc": [0.666667, 0.333333, 0.25],
        "properties": { "magmom": -0.0 },
        "label": "Si",
        "xyz": [4.053915, -2.340533681058, 1.08710025]
      },
      {
        "species": [{ "element": "As", "occu": 1 }],
        "abc": [0.230996999999999, 0.461993, 0.25],
        "properties": { "magmom": 0.0 },
        "label": "As",
        "xyz": [2.809322555849996, 1.6219585106520067, 1.08710025]
      },
      {
        "species": [{ "element": "As", "occu": 1 }],
        "abc": [0.538007, 0.769003, 0.25],
        "properties": { "magmom": 0.0 },
        "label": "As",
        "xyz": [5.29850744415, 1.621958510652, 1.08710025]
      },
      {
        "species": [{ "element": "As", "occu": 1 }],
        "abc": [0.230996999999999, 0.769003, 0.25],
        "properties": { "magmom": 0.0 },
        "label": "As",
        "xyz": [4.053914999999996, 3.777655935522007, 1.08710025]
      },
      {
        "species": [{ "element": "As", "occu": 1 }],
        "abc": [0.769003, 0.538007, 0.75],
        "properties": { "magmom": 0.0 },
        "label": "As",
        "xyz": [5.29850744415, -1.621958510652, 3.26130075]
      },
      {
        "species": [{ "element": "As", "occu": 1 }],
        "abc": [0.461993, 0.230996999999999, 0.75],
        "properties": { "magmom": 0.0 },
        "label": "As",
        "xyz": [2.809322555849996, -1.6219585106520067, 3.26130075]
      },
      {
        "species": [{ "element": "As", "occu": 1 }],
        "abc": [0.769003, 0.230996999999999, 0.75],
        "properties": { "magmom": 0.0 },
        "label": "As",
        "xyz": [4.053914999999996, -3.777655935522007, 3.26130075]
      }
    ]
  },
  "task_ids": null,
  "uncorrected_energy_per_atom": null,
  "energy_per_atom": -12.9071017853125,
  "formation_energy_per_atom": 0.31698760406249804,
  "energy_above_hull": 0.39893567,
  "is_stable": false,
  "equilibrium_reaction_energy_per_atom": null,
  "decomposes_to": null,
  "xas": null,
  "grain_boundaries": null,
  "band_gap": 0.0,
  "cbm": null,
  "vbm": null,
  "efermi": 2.47057578,
  "is_gap_direct": null,
  "is_metal": null,
  "es_source_calc_id": null,
  "bandstructure": null,
  "dos": null,
  "dos_energy_up": null,
  "dos_energy_down": null,
  "is_magnetic": null,
  "ordering": null,
  "total_magnetization": 0.003149099999999,
  "total_magnetization_normalized_vol": null,
  "total_magnetization_normalized_formula_units": null,
  "num_magnetic_sites": null,
  "num_unique_magnetic_sites": null,
  "types_of_magnetic_species": null,
  "bulk_modulus": null,
  "shear_modulus": null,
  "universal_anisotropy": null,
  "homogeneous_poisson": null,
  "e_total": null,
  "e_ionic": null,
  "e_electronic": null,
  "n": null,
  "e_ij_max": null,
  "weighted_surface_energy_EV_PER_ANG2": null,
  "weighted_surface_energy": null,
  "weighted_work_function": null,
  "surface_anisotropy": null,
  "shape_factor": null,
  "has_reconstructed": null,
  "possible_species": null,
  "has_props": null,
  "theoretical": null,
  "database_IDs": null,
  "fields_not_requested": [
    "builder_meta",
    "nsites",
    "elements",
    "nelements",
    "composition",
    "composition_reduced",
    "chemsys",
    "symmetry",
    "property_name",
    "deprecated",
    "deprecation_reasons",
    "last_updated",
    "origins",
    "warnings",
    "task_ids",
    "uncorrected_energy_per_atom",
    "equilibrium_reaction_energy_per_atom",
    "decomposes_to",
    "xas",
    "grain_boundaries",
    "cbm",
    "vbm",
    "is_gap_direct",
    "is_metal",
    "es_source_calc_id",
    "bandstructure",
    "dos",
    "dos_energy_up",
    "dos_energy_down",
    "is_magnetic",
    "ordering",
    "total_magnetization_normalized_vol",
    "total_magnetization_normalized_formula_units",
    "num_magnetic_sites",
    "num_unique_magnetic_sites",
    "types_of_magnetic_species",
    "bulk_modulus",
    "shear_modulus",
    "universal_anisotropy",
    "homogeneous_poisson",
    "e_total",
    "e_ionic",
    "e_electronic",
    "n",
    "e_ij_max",
    "weighted_surface_energy_EV_PER_ANG2",
    "weighted_surface_energy",
    "weighted_work_function",
    "surface_anisotropy",
    "shape_factor",
    "has_reconstructed",
    "possible_species",
    "has_props",
    "theoretical",
    "database_IDs"
  ]
}
