{
  "builder_meta": null,
  "nsites": null,
  "elements": null,
  "nelements": null,
  "composition": null,
  "composition_reduced": null,
  "formula_pretty": "SiAs",
  "formula_anonymous": "AB",
  "chemsys": null,
  "volume": 288.35662420758007,
  "density": 3.5590785713465802,
  "density_atomic": 24.029718683965005,
  "symmetry": null,
  "property_name": null,
  "material_id": "mp-1863",
  "deprecated": null,
  "deprecation_reasons": null,
  "last_updated": null,
  "origins": null,
  "warnings": null,
  "structure": {
    "@module": "pymatgen.core.structure",
    "@class": "Structure",
    "charge": 0,
    "lattice": {
      "matrix": [
        [3.67582888, -0.00367586, 0.0035032600000000002],
        [-1.8475408400000002, 8.01364194, -2.58493981],
        [0.00884, -0.27912044, 9.88140149]
      ],
      "pbc": [true, true, true],
      "a": 3.6758323873402365,
      "b": 8.620543957275418,
      "c": 9.885346821037691,
      "alpha": 109.03695847088704,
      "beta": 89.89256119355704,
      "gamma": 102.44683083739746,
      "volume": 288.35662420758007
    },
    "properties": {},
    "sites": [
      {
        "species": [{ "element": "Si", "occu": 1 }],
        "abc": [0.13319236, 0.26844466, 0.41179988],
        "properties": { "magmom": -0.0 },
        "label": "Si",
        "xyz": [-0.002729838207357591, 2.035788025779063, 3.375713266865]
      },
      {
        "species": [{ "element": "Si", "occu": 1 }],
        "abc": [0.86680764, 0.73155534, 0.58820012],
        "properties": { "magmom": -0.0 },
        "label": "Si",
        "xyz": [1.8398578782073574, 5.695057614220936, 3.924251673135]
      },
      {
        "species": [{ "element": "Si", "occu": 1 }],
        "abc": [0.23570189, 0.46920143000000003, 0.29648719],
        "properties": { "magmom": -0.0 },
        "label": "Si",
        "xyz": [0.0021519569807818485, 3.6763902156794352, 1.7176772307191464]
      },
      {
        "species": [{ "element": "Si", "occu": 1 }],
        "abc": [0.76429811, 0.53079857, 0.70351281],
        "properties": { "magmom": -0.0 },
        "label": "Si",
        "xyz": [1.834976083019218, 4.0544554243205635, 5.582287709280854]
      },
      {
        "species": [{ "element": "Si", "occu": 1 }],
        "abc": [0.56628232, 0.13175685, 0.09087376],
        "properties": { "magmom": -0.0 },
        "label": "Si",
        "xyz": [1.8389340688030478, 1.0284059206378393, 0.5593604148610671]
      },
      {
        "species": [{ "element": "Si", "occu": 1 }],
        "abc": [0.43371768, 0.86824315, 0.90912624],
        "properties": { "magmom": -0.0 },
        "label": "Si",
        "xyz": [-0.0018060288030476573, 6.70243971936216, 6.7406045251389335]
      },
      {
        "species": [{ "element": "As", "occu": 1 }],
        "abc": [0.148463899999999, 0.29374328, 0.05184457],
        "properties": { "magmom": -0.0 },
        "label": "As",
        "xyz": [0.003483490980673097, 2.338936856499698, -0.2464915795032535]
      },
      {
        "species": [{ "element": "As", "occu": 1 }],
        "abc": [0.851536099999999, 0.7062567200000001, 0.94815543],
        "properties": { "magmom": -0.0 },
        "label": "As",
        "xyz": [1.8336445490193194, 5.391908783500302, 7.546456519503254]
      },
      {
        "species": [{ "element": "As", "occu": 1 }],
        "abc": [0.16854079, 0.34112772, 0.66574434],
        "properties": { "magmom": 0.0 },
        "label": "As",
        "xyz": [-0.004835111050469749, 2.5472330184319376, 5.697282931720509]
      },
      {
        "species": [{ "element": "As", "occu": 1 }],
        "abc": [0.83145921, 0.65887228, 0.33425566],
        "properties": { "magmom": 0.0 },
        "label": "As",
        "xyz": [1.8419631510504695, 5.183612621568062, 1.6026820082794913]
      },
      {
        "species": [{ "element": "As", "occu": 1 }],
        "abc": [0.54042812, 0.08378984, 0.31789117],
        "properties": { "magmom": 0.0 },
        "label": "As",
        "xyz": [1.8345262976258399, 0.5807453146181916, 2.9265118480219843]
      },
      {
        "species": [{ "element": "As", "occu": 1 }],
        "abc": [0.45957188, 0.91621016, 0.68210883],
        "properties": { "magmom": 0.0 },
        "label": "As",
        "xyz": [0.0026017423741597472, 7.150100325381807, 4.373453091978016]
      }
    ]
  },
  "task_ids": null,
  "uncorrected_energy_per_atom": null,
  "energy_per_atom": -11.860332183333334,
  "formation_energy_per_atom": -0.11968439208333301,
  "energy_above_hull": 0.0,
  "is_stable": true,
  "equilibrium_reaction_energy_per_atom": null,
  "decomposes_to": null,
  "xas": null,
  "grain_boundaries": null,
  "band_gap": 1.451899999999999,
  "cbm": null,
  "vbm": null,
  "efermi": 3.05538631,
  "is_gap_direct": null,
  "is_metal": null,
  "es_source_calc_id": null,
  "bandstructure": null,
  "dos": null,
  "dos_energy_up": null,
  "dos_energy_down": null,
  "is_magnetic": null,
  "ordering": null,
  "total_magnetization": 0.0,
  "total_magnetization_normalized_vol": null,
  "total_magnetization_normalized_formula_units": null,
  "num_magnetic_sites": null,
  "num_unique_magnetic_sites": null,
  "types_of_magnetic_species": null,
  "bulk_modulus": null,
  "shear_modulus": null,
  "universal_anisotropy": null,
  "homogeneous_poisson": null,
  "e_total": null,
  "e_ionic": null,
  "e_electronic": null,
  "n": null,
  "e_ij_max": null,
  "weighted_surface_energy_EV_PER_ANG2": null,
  "weighted_surface_energy": null,
  "weighted_work_function": null,
  "surface_anisotropy": null,
  "shape_factor": null,
  "has_reconstructed": null,
  "possible_species": null,
  "has_props": null,
  "theoretical": null,
  "database_IDs": null,
  "fields_not_requested": [
    "builder_meta",
    "nsites",
    "elements",
    "nelements",
    "composition",
    "composition_reduced",
    "chemsys",
    "symmetry",
    "property_name",
    "deprecated",
    "deprecation_reasons",
    "last_updated",
    "origins",
    "warnings",
    "task_ids",
    "uncorrected_energy_per_atom",
    "equilibrium_reaction_energy_per_atom",
    "decomposes_to",
    "xas",
    "grain_boundaries",
    "cbm",
    "vbm",
    "is_gap_direct",
    "is_metal",
    "es_source_calc_id",
    "bandstructure",
    "dos",
    "dos_energy_up",
    "dos_energy_down",
    "is_magnetic",
    "ordering",
    "total_magnetization_normalized_vol",
    "total_magnetization_normalized_formula_units",
    "num_magnetic_sites",
    "num_unique_magnetic_sites",
    "types_of_magnetic_species",
    "bulk_modulus",
    "shear_modulus",
    "universal_anisotropy",
    "homogeneous_poisson",
    "e_total",
    "e_ionic",
    "e_electronic",
    "n",
    "e_ij_max",
    "weighted_surface_energy_EV_PER_ANG2",
    "weighted_surface_energy",
    "weighted_work_function",
    "surface_anisotropy",
    "shape_factor",
    "has_reconstructed",
    "possible_species",
    "has_props",
    "theoretical",
    "database_IDs"
  ]
}
