{"builder_meta": null, "nsites": null, "elements": null, "nelements": null, "composition": null, "composition_reduced": null, "formula_pretty": "SiB3", "formula_anonymous": "AB3", "chemsys": null, "volume": 325.62657183715186, "density": 2.468922187401574, "density_atomic": 10.175830369910996, "symmetry": null, "property_name": null, "material_id": "mp-569128", "deprecated": null, "deprecation_reasons": null, "last_updated": null, "origins": null, "warnings": null, "structure": {"@module": "pymatgen.core.structure", "@class": "Structure", "charge": 0, "lattice": {"matrix": [[5.74009128, 0.0, 2.36008006], [1.76831207, 6.9612784, 3.85963272], [0.00276832, 0.00762121, 8.15371258]], "pbc": [true, true, true], "a": 6.206337550628522, "b": 8.153716285995536, "c": 8.153716611686216, "alpha": 61.69076512867995, "beta": 67.63018849161614, "gamma": 67.63017526915984, "volume": 325.62657183715186}, "properties": {}, "sites": [{"species": [{"element": "Si", "occu": 1}], "abc": [0.31392497, 0.48163702, 0.01836298], "properties": {"magmom": -0.0}, "label": "Si", "xyz": [2.6536933733008867, 3.352949332093174, 2.7495565246206812]}, {"species": [{"element": "Si", "occu": 1}], "abc": [0.68607503, 0.98163702, 0.51836298], "properties": {"magmom": -0.0}, "label": "Si", "xyz": [5.675408882558363, 6.837399137093174, 9.634533110554486]}, {"species": [{"element": "Si", "occu": 1}], "abc": [0.84794541, 0.15457319, 0.15457319], "properties": {"magmom": -0.0}, "label": "Si", "xyz": [5.141045599485769, 1.077205043507456, 3.858160159702032]}, {"species": [{"element": "Si", "occu": 1}], "abc": [0.31392497, 0.01836298, 0.48163702], "properties": {"magmom": -0.0}, "label": "Si", "xyz": [1.8357627874416367, 0.1315004729068262, 4.738892249445516]}, {"species": [{"element": "Si", "occu": 1}], "abc": [0.68607503, 0.51836298, 0.98163702], "properties": {"magmom": -0.0}, "label": "Si", "xyz": [4.857478296699113, 3.6159502779068267, 11.62386883537932]}, {"species": [{"element": "Si", "occu": 1}], "abc": [0.6570917900000001, 0.34542681000000003, 0.34542681000000003], "properties": {"magmom": -0.0}, "label": "Si", "xyz": [4.383545503309848, 2.4072447614925445, 5.7005207755762015]}, {"species": [{"element": "Si", "occu": 1}], "abc": [0.34290821, 0.65457319, 0.65457319], "properties": {"magmom": -0.0}, "label": "Si", "xyz": [3.1276261666901526, 4.561654848507457, 8.6729045844238]}, {"species": [{"element": "Si", "occu": 1}], "abc": [0.15205459, 0.84542681, 0.84542681], "properties": {"magmom": -0.0}, "label": "Si", "xyz": [2.370126070514231, 5.891694566492545, 10.515265200297968]}, {"species": [{"element": "B", "occu": 1}], "abc": [0.1492889, 0.57449046, 0.57449046], "properties": {"magmom": 0.0}, "label": "B", "xyz": [1.8744007010388712, 4.003566342642721, 7.2538860236051725]}, {"species": [{"element": "B", "occu": 1}], "abc": [0.11532019, 0.49814714, 0.27648756], "properties": {"magmom": -0.0}, "label": "B", "xyz": [1.543593423367022, 3.4698480954609234, 4.449229978038337]}, {"species": [{"element": "B", "occu": 1}], "abc": [0.61004412, 0.99814714, 0.77648756], "properties": {"magmom": -0.0}, "label": "B", "xyz": [5.268894134967352, 6.954297900460924, 11.623490710436172]}, {"species": [{"element": "B", "occu": 1}], "abc": [0.8846798100000001, 0.50185286, 0.72351244], "properties": {"magmom": -0.0}, "label": "B", "xyz": [5.967578246632978, 3.4990515145390764, 9.924195381961663]}, {"species": [{"element": "B", "occu": 1}], "abc": [0.850711099999999, 0.42550954, 0.42550954], "properties": {"magmom": 0.0}, "label": "B", "xyz": [5.636770968961123, 2.9653332673572796, 7.119539336394826]}, {"species": [{"element": "B", "occu": 1}], "abc": [0.8846798100000001, 0.72351244, 0.50185286], "properties": {"magmom": -0.0}, "label": "B", "xyz": [6.358927932729603, 5.0403962467384575, 8.972371443707605]}, {"species": [{"element": "B", "occu": 1}], "abc": [0.15359836, 0.6765833, 0.32660438], "properties": {"magmom": 0.0}, "label": "B", "xyz": [2.078983168045973, 4.7123738326576206, 5.636905711059379]}, {"species": [{"element": "B", "occu": 1}], "abc": [0.65678603, 0.8234167, 0.17339562], "properties": {"magmom": 0.0}, "label": "B", "xyz": [5.226549467441146, 5.73335437234238, 6.141971698714885]}, {"species": [{"element": "B", "occu": 1}], "abc": [0.34321397000000003, 0.1765833, 0.82660438], "properties": {"magmom": 0.0}, "label": "B", "xyz": [2.2846222025588547, 1.2355452376576197, 8.231453661285116]}, {"species": [{"element": "B", "occu": 1}], "abc": [0.20173118, 0.07449046000000001, 0.07449046000000001], "properties": {"magmom": 0.0}, "label": "B", "xyz": [1.2898839801701898, 0.5191165376427207, 1.370981352934109]}, {"species": [{"element": "B", "occu": 1}], "abc": [0.61004412, 0.77648756, 0.99814714], "properties": {"magmom": -0.0}, "label": "B", "xyz": [4.877544448870727, 5.412953168261543, 12.575314648690233]}, {"species": [{"element": "B", "occu": 1}], "abc": [0.8464016400000001, 0.67339562, 0.3234167], "properties": {"magmom": 0.0}, "label": "B", "xyz": [6.050091596791777, 4.690159210748814, 7.233682217144071]}, {"species": [{"element": "B", "occu": 1}], "abc": [0.8464016400000001, 0.3234167, 0.67339562], "properties": {"magmom": 0.0}, "label": "B", "xyz": [5.432188501954027, 2.25652577734238, 8.736519648940622]}, {"species": [{"element": "B", "occu": 1}], "abc": [0.11532019, 0.27648756, 0.49814714], "properties": {"magmom": -0.0}, "label": "B", "xyz": [1.152243737270397, 1.9285033632615436, 5.401053916292396]}, {"species": [{"element": "B", "occu": 1}], "abc": [0.34059632, 0.93070296, 0.93070296], "properties": {"magmom": 0.0}, "label": "B", "xyz": [3.6034037278030437, 6.485975494969846, 11.984690613553468]}, {"species": [{"element": "B", "occu": 1}], "abc": [0.70200323, 0.56929704, 0.56929704], "properties": {"magmom": 0.0}, "label": "B", "xyz": [5.03783344268388, 3.9673739200301545, 8.495945744966507]}, {"species": [{"element": "B", "occu": 1}], "abc": [0.65678603, 0.17339562, 0.8234167], "properties": {"magmom": 0.0}, "label": "B", "xyz": [4.078908812278896, 1.213330615748815, 8.933214126918335]}, {"species": [{"element": "B", "occu": 1}], "abc": [0.38995588000000003, 0.00185286, 0.22351244], "properties": {"magmom": -0.0}, "label": "B", "xyz": [2.2422775350326476, 0.0146017095390764, 2.7499346495638273]}, {"species": [{"element": "B", "occu": 1}], "abc": [0.15359836, 0.32660438, 0.6765833], "properties": {"magmom": 0.0}, "label": "B", "xyz": [1.4610800732082232, 2.2787403992511854, 7.13974314285593]}, {"species": [{"element": "B", "occu": 1}], "abc": [0.65940368, 0.06929704, 0.06929704], "properties": {"magmom": 0.0}, "label": "B", "xyz": [3.907767942196956, 0.4829241150301545, 2.388734746446533]}, {"species": [{"element": "B", "occu": 1}], "abc": [0.29799677, 0.43070296, 0.43070296], "properties": {"magmom": 0.0}, "label": "B", "xyz": [2.47333822731612, 3.0015256899698457, 5.877479615033495]}, {"species": [{"element": "B", "occu": 1}], "abc": [0.38995588000000003, 0.22351244, 0.00185286], "properties": {"magmom": -0.0}, "label": "B", "xyz": [2.6336272211292724, 1.5559464417384565, 1.7981107113097687]}, {"species": [{"element": "B", "occu": 1}], "abc": [0.79826882, 0.92550954, 0.92550954], "properties": {"magmom": 0.0}, "label": "B", "xyz": [6.2212876898298095, 6.449783072357279, 13.00244400706589]}, {"species": [{"element": "B", "occu": 1}], "abc": [0.34321397000000003, 0.82660438, 0.1765833], "properties": {"magmom": 0.0}, "label": "B", "xyz": [3.4322628577211045, 5.755568994251186, 5.440211233081666]}]}, "task_ids": null, "uncorrected_energy_per_atom": null, "energy_per_atom": -7.7473567178125, "formation_energy_per_atom": -0.0441499209375, "energy_above_hull": 0.0, "is_stable": true, "equilibrium_reaction_energy_per_atom": null, "decomposes_to": null, "xas": null, "grain_boundaries": null, "band_gap": 1.408, "cbm": null, "vbm": null, "efermi": 5.28319771, "is_gap_direct": null, "is_metal": null, "es_source_calc_id": null, "bandstructure": null, "dos": null, "dos_energy_up": null, "dos_energy_down": null, "is_magnetic": null, "ordering": null, "total_magnetization": 0.0, "total_magnetization_normalized_vol": null, "total_magnetization_normalized_formula_units": null, "num_magnetic_sites": null, "num_unique_magnetic_sites": null, "types_of_magnetic_species": null, "bulk_modulus": null, "shear_modulus": null, "universal_anisotropy": null, "homogeneous_poisson": null, "e_total": null, "e_ionic": null, "e_electronic": null, "n": null, "e_ij_max": null, "weighted_surface_energy_EV_PER_ANG2": null, "weighted_surface_energy": null, "weighted_work_function": null, "surface_anisotropy": null, "shape_factor": null, "has_reconstructed": null, "possible_species": null, "has_props": null, "theoretical": null, "database_IDs": null, "fields_not_requested": ["builder_meta", "nsites", "elements", "nelements", "composition", "composition_reduced", "chemsys", "symmetry", "property_name", "deprecated", "deprecation_reasons", "last_updated", "origins", "warnings", "task_ids", "uncorrected_energy_per_atom", "equilibrium_reaction_energy_per_atom", "decomposes_to", "xas", "grain_boundaries", "cbm", "vbm", "is_gap_direct", "is_metal", "es_source_calc_id", "bandstructure", "dos", "dos_energy_up", "dos_energy_down", "is_magnetic", "ordering", "total_magnetization_normalized_vol", "total_magnetization_normalized_formula_units", "num_magnetic_sites", "num_unique_magnetic_sites", "types_of_magnetic_species", "bulk_modulus", "shear_modulus", "universal_anisotropy", "homogeneous_poisson", "e_total", "e_ionic", "e_electronic", "n", "e_ij_max", "weighted_surface_energy_EV_PER_ANG2", "weighted_surface_energy", "weighted_work_function", "surface_anisotropy", "shape_factor", "has_reconstructed", "possible_species", "has_props", "theoretical", "database_IDs"]}