{
  "builder_meta": null,
  "nsites": null,
  "elements": null,
  "nelements": null,
  "composition": null,
  "composition_reduced": null,
  "formula_pretty": "SiB4",
  "formula_anonymous": "AB4",
  "chemsys": null,
  "volume": 139.18848467786904,
  "density": 2.552914236227995,
  "density_atomic": 9.279232311857935,
  "symmetry": null,
  "property_name": null,
  "material_id": "mp-978496",
  "deprecated": null,
  "deprecation_reasons": null,
  "last_updated": null,
  "origins": null,
  "warnings": null,
  "structure": {
    "@module": "pymatgen.core.structure",
    "@class": "Structure",
    "charge": 0,
    "lattice": {
      "matrix": [
        [4.52688, -3.10946, 0.0],
        [4.52688, 3.10946, 0.0],
        [2.391028, 0.0, 4.944124]
      ],
      "pbc": [true, true, true],
      "a": 5.491938093788021,
      "b": 5.491938093788021,
      "c": 5.4919374563226775,
      "alpha": 68.96942467354161,
      "beta": 68.96942467354161,
      "gamma": 68.96941866194919,
      "volume": 139.18848467786904
    },
    "properties": {},
    "sites": [
      {
        "species": [{ "element": "Si", "occu": 1 }],
        "abc": [0.325677999999999, 0.325677999999999, 0.325677999999999],
        "properties": { "magmom": -0.0 },
        "label": "Si",
        "xyz": [3.727315666263989, 0.0, 1.6101924160719954]
      },
      {
        "species": [{ "element": "Si", "occu": 1 }],
        "abc": [0.674322, 0.674322, 0.674322],
        "properties": { "magmom": -0.0 },
        "label": "Si",
        "xyz": [7.717472333736, 0.0, 3.3339315839280004]
      },
      {
        "species": [{ "element": "Si", "occu": 1 }],
        "abc": [0.5, 0.5, 0.5],
        "properties": { "magmom": -0.0 },
        "label": "Si",
        "xyz": [5.722394, 0.0, 2.472062]
      },
      {
        "species": [{ "element": "B", "occu": 1 }],
        "abc": [0.274743, 0.822719, 0.822719],
        "properties": { "magmom": -0.0 },
        "label": "B",
        "xyz": [6.9352229436920005, 1.70390945296, 4.067624753156]
      },
      {
        "species": [{ "element": "B", "occu": 1 }],
        "abc": [0.822719, 0.822719, 0.274743],
        "properties": { "magmom": -0.0 },
        "label": "B",
        "xyz": [8.105618579244, 0.0, 1.3583634601320003]
      },
      {
        "species": [{ "element": "B", "occu": 1 }],
        "abc": [0.822719, 0.274743, 0.822719],
        "properties": { "magmom": -0.0 },
        "label": "B",
        "xyz": [6.9352229436920005, -1.70390945296, 4.067624753156]
      },
      {
        "species": [{ "element": "B", "occu": 1 }],
        "abc": [0.177281, 0.725256999999999, 0.177281],
        "properties": { "magmom": -0.0 },
        "label": "B",
        "xyz": [4.509565056307996, 1.703909452959997, 0.876499246844]
      },
      {
        "species": [{ "element": "B", "occu": 1 }],
        "abc": [0.177281, 0.177281, 0.725256999999999],
        "properties": { "magmom": -0.0 },
        "label": "B",
        "xyz": [3.339169420755998, 0.0, 3.5857605398679957]
      },
      {
        "species": [{ "element": "B", "occu": 1 }],
        "abc": [0.725256999999999, 0.177281, 0.177281],
        "properties": { "magmom": -0.0 },
        "label": "B",
        "xyz": [4.509565056307996, -1.703909452959997, 0.876499246844]
      },
      {
        "species": [{ "element": "B", "occu": 1 }],
        "abc": [0.677003999999999, 0.985843999999999, 0.985842999999999],
        "properties": { "magmom": -0.0 },
        "label": "B",
        "xyz": [9.884691570843989, 0.9603256264, 4.874130036531995]
      },
      {
        "species": [{ "element": "B", "occu": 1 }],
        "abc": [0.985843999999999, 0.985843999999999, 0.677003999999999],
        "properties": { "magmom": -0.0 },
        "label": "B",
        "xyz": [10.544330493551989, 0.0, 3.3471917244959957]
      },
      {
        "species": [{ "element": "B", "occu": 1 }],
        "abc": [0.985843999999999, 0.677003999999999, 0.985842999999999],
        "properties": { "magmom": -0.0 },
        "label": "B",
        "xyz": [9.884691570843989, -0.9603256264, 4.874130036531995]
      },
      {
        "species": [{ "element": "B", "occu": 1 }],
        "abc": [0.014156, 0.322996, 0.014156],
        "properties": { "magmom": -0.0 },
        "label": "B",
        "xyz": [1.5600940381280002, 0.9603256264, 0.06998901934400001]
      },
      {
        "species": [{ "element": "B", "occu": 1 }],
        "abc": [0.014157, 0.014156, 0.322996],
        "properties": { "magmom": -0.0 },
        "label": "B",
        "xyz": [0.900462033328, -3.109459999997566e-6, 1.596932275504]
      },
      {
        "species": [{ "element": "B", "occu": 1 }],
        "abc": [0.322996, 0.014156, 0.014156],
        "properties": { "magmom": -0.0 },
        "label": "B",
        "xyz": [1.5600940381280002, -0.9603256264, 0.06998901934400001]
      }
    ]
  },
  "task_ids": null,
  "uncorrected_energy_per_atom": null,
  "energy_per_atom": -7.385534409249999,
  "formation_energy_per_atom": 0.24630186775000001,
  "energy_above_hull": 0.2816218045,
  "is_stable": false,
  "equilibrium_reaction_energy_per_atom": null,
  "decomposes_to": null,
  "xas": null,
  "grain_boundaries": null,
  "band_gap": 0.0,
  "cbm": null,
  "vbm": null,
  "efermi": 7.89515832,
  "is_gap_direct": null,
  "is_metal": null,
  "es_source_calc_id": null,
  "bandstructure": null,
  "dos": null,
  "dos_energy_up": null,
  "dos_energy_down": null,
  "is_magnetic": null,
  "ordering": null,
  "total_magnetization": 8.7e-6,
  "total_magnetization_normalized_vol": null,
  "total_magnetization_normalized_formula_units": null,
  "num_magnetic_sites": null,
  "num_unique_magnetic_sites": null,
  "types_of_magnetic_species": null,
  "bulk_modulus": null,
  "shear_modulus": null,
  "universal_anisotropy": null,
  "homogeneous_poisson": null,
  "e_total": null,
  "e_ionic": null,
  "e_electronic": null,
  "n": null,
  "e_ij_max": null,
  "weighted_surface_energy_EV_PER_ANG2": null,
  "weighted_surface_energy": null,
  "weighted_work_function": null,
  "surface_anisotropy": null,
  "shape_factor": null,
  "has_reconstructed": null,
  "possible_species": null,
  "has_props": null,
  "theoretical": null,
  "database_IDs": null,
  "fields_not_requested": [
    "builder_meta",
    "nsites",
    "elements",
    "nelements",
    "composition",
    "composition_reduced",
    "chemsys",
    "symmetry",
    "property_name",
    "deprecated",
    "deprecation_reasons",
    "last_updated",
    "origins",
    "warnings",
    "task_ids",
    "uncorrected_energy_per_atom",
    "equilibrium_reaction_energy_per_atom",
    "decomposes_to",
    "xas",
    "grain_boundaries",
    "cbm",
    "vbm",
    "is_gap_direct",
    "is_metal",
    "es_source_calc_id",
    "bandstructure",
    "dos",
    "dos_energy_up",
    "dos_energy_down",
    "is_magnetic",
    "ordering",
    "total_magnetization_normalized_vol",
    "total_magnetization_normalized_formula_units",
    "num_magnetic_sites",
    "num_unique_magnetic_sites",
    "types_of_magnetic_species",
    "bulk_modulus",
    "shear_modulus",
    "universal_anisotropy",
    "homogeneous_poisson",
    "e_total",
    "e_ionic",
    "e_electronic",
    "n",
    "e_ij_max",
    "weighted_surface_energy_EV_PER_ANG2",
    "weighted_surface_energy",
    "weighted_work_function",
    "surface_anisotropy",
    "shape_factor",
    "has_reconstructed",
    "possible_species",
    "has_props",
    "theoretical",
    "database_IDs"
  ]
}
