{
  "builder_meta": null,
  "nsites": null,
  "elements": null,
  "nelements": null,
  "composition": null,
  "composition_reduced": null,
  "formula_pretty": "SiB6",
  "formula_anonymous": "AB6",
  "chemsys": null,
  "volume": 70.62670665734987,
  "density": 2.185428209160411,
  "density_atomic": 10.089529522478554,
  "symmetry": null,
  "property_name": null,
  "material_id": "mp-7700",
  "deprecated": null,
  "deprecation_reasons": null,
  "last_updated": null,
  "origins": null,
  "warnings": null,
  "structure": {
    "@module": "pymatgen.core.structure",
    "@class": "Structure",
    "charge": 0,
    "lattice": {
      "matrix": [
        [4.133548, 0.0, 0.0],
        [0.0, 4.133548, 0.0],
        [0.0, 0.0, 4.133548]
      ],
      "pbc": [true, true, true],
      "a": 4.133548,
      "b": 4.133548,
      "c": 4.133548,
      "alpha": 90.0,
      "beta": 90.0,
      "gamma": 90.0,
      "volume": 70.62670665734987
    },
    "properties": {},
    "sites": [
      {
        "species": [{ "element": "Si", "occu": 1 }],
        "abc": [0.0, 0.0, 0.0],
        "properties": { "magmom": 0.0 },
        "label": "Si",
        "xyz": [0.0, 0.0, 0.0]
      },
      {
        "species": [{ "element": "B", "occu": 1 }],
        "abc": [0.7999600000000001, 0.5, 0.5],
        "properties": { "magmom": 0.0 },
        "label": "B",
        "xyz": [3.306673058080001, 2.066774, 2.066774]
      },
      {
        "species": [{ "element": "B", "occu": 1 }],
        "abc": [0.20004000000000002, 0.5, 0.5],
        "properties": { "magmom": 0.0 },
        "label": "B",
        "xyz": [0.8268749419200001, 2.066774, 2.066774]
      },
      {
        "species": [{ "element": "B", "occu": 1 }],
        "abc": [0.5, 0.5, 0.7999600000000001],
        "properties": { "magmom": 0.0 },
        "label": "B",
        "xyz": [2.066774, 2.066774, 3.306673058080001]
      },
      {
        "species": [{ "element": "B", "occu": 1 }],
        "abc": [0.5, 0.5, 0.20004000000000002],
        "properties": { "magmom": 0.0 },
        "label": "B",
        "xyz": [2.066774, 2.066774, 0.8268749419200001]
      },
      {
        "species": [{ "element": "B", "occu": 1 }],
        "abc": [0.5, 0.20004000000000002, 0.5],
        "properties": { "magmom": 0.0 },
        "label": "B",
        "xyz": [2.066774, 0.8268749419200001, 2.066774]
      },
      {
        "species": [{ "element": "B", "occu": 1 }],
        "abc": [0.5, 0.7999600000000001, 0.5],
        "properties": { "magmom": 0.0 },
        "label": "B",
        "xyz": [2.066774, 3.306673058080001, 2.066774]
      }
    ]
  },
  "task_ids": null,
  "uncorrected_energy_per_atom": null,
  "energy_per_atom": -7.096574415178572,
  "formation_energy_per_atom": 0.45369555339285506,
  "energy_above_hull": 0.47892407964285605,
  "is_stable": false,
  "equilibrium_reaction_energy_per_atom": null,
  "decomposes_to": null,
  "xas": null,
  "grain_boundaries": null,
  "band_gap": 0.046599999999999,
  "cbm": null,
  "vbm": null,
  "efermi": 5.36431754,
  "is_gap_direct": null,
  "is_metal": null,
  "es_source_calc_id": null,
  "bandstructure": null,
  "dos": null,
  "dos_energy_up": null,
  "dos_energy_down": null,
  "is_magnetic": null,
  "ordering": null,
  "total_magnetization": 1e-7,
  "total_magnetization_normalized_vol": null,
  "total_magnetization_normalized_formula_units": null,
  "num_magnetic_sites": null,
  "num_unique_magnetic_sites": null,
  "types_of_magnetic_species": null,
  "bulk_modulus": null,
  "shear_modulus": null,
  "universal_anisotropy": null,
  "homogeneous_poisson": null,
  "e_total": null,
  "e_ionic": null,
  "e_electronic": null,
  "n": null,
  "e_ij_max": null,
  "weighted_surface_energy_EV_PER_ANG2": null,
  "weighted_surface_energy": null,
  "weighted_work_function": null,
  "surface_anisotropy": null,
  "shape_factor": null,
  "has_reconstructed": null,
  "possible_species": null,
  "has_props": null,
  "theoretical": null,
  "database_IDs": null,
  "fields_not_requested": [
    "builder_meta",
    "nsites",
    "elements",
    "nelements",
    "composition",
    "composition_reduced",
    "chemsys",
    "symmetry",
    "property_name",
    "deprecated",
    "deprecation_reasons",
    "last_updated",
    "origins",
    "warnings",
    "task_ids",
    "uncorrected_energy_per_atom",
    "equilibrium_reaction_energy_per_atom",
    "decomposes_to",
    "xas",
    "grain_boundaries",
    "cbm",
    "vbm",
    "is_gap_direct",
    "is_metal",
    "es_source_calc_id",
    "bandstructure",
    "dos",
    "dos_energy_up",
    "dos_energy_down",
    "is_magnetic",
    "ordering",
    "total_magnetization_normalized_vol",
    "total_magnetization_normalized_formula_units",
    "num_magnetic_sites",
    "num_unique_magnetic_sites",
    "types_of_magnetic_species",
    "bulk_modulus",
    "shear_modulus",
    "universal_anisotropy",
    "homogeneous_poisson",
    "e_total",
    "e_ionic",
    "e_electronic",
    "n",
    "e_ij_max",
    "weighted_surface_energy_EV_PER_ANG2",
    "weighted_surface_energy",
    "weighted_work_function",
    "surface_anisotropy",
    "shape_factor",
    "has_reconstructed",
    "possible_species",
    "has_props",
    "theoretical",
    "database_IDs"
  ]
}
