{"builder_meta": null, "nsites": null, "elements": null, "nelements": null, "composition": null, "composition_reduced": null, "formula_pretty": "SiBr4", "formula_anonymous": "AB4", "chemsys": null, "volume": 1420.9977274602475, "density": 3.2505156798377612, "density_atomic": 35.524943186506185, "symmetry": null, "property_name": null, "material_id": "mp-570285", "deprecated": null, "deprecation_reasons": null, "last_updated": null, "origins": null, "warnings": null, "structure": {"@module": "pymatgen.core.structure", "@class": "Structure", "charge": 0, "lattice": {"matrix": [[11.24254051, -0.0, -0.0], [0.0, 11.24254051, -0.0], [0.0, -0.0, 11.24254051]], "pbc": [true, true, true], "a": 11.24254051, "b": 11.24254051, "c": 11.24254051, "alpha": 90.0, "beta": 90.0, "gamma": 90.0, "volume": 1420.9977274602475}, "properties": {}, "sites": [{"species": [{"element": "Si", "occu": 1}], "abc": [0.3674637, 0.632536299999999, 0.1325363], "properties": {"magmom": 0.0}, "label": "Si", "xyz": [4.1312255332044865, 7.111314976795502, 1.4900447217955128]}, {"species": [{"element": "Si", "occu": 1}], "abc": [0.1325363, 0.1325363, 0.1325363], "properties": {"magmom": 0.0}, "label": "Si", "xyz": [1.4900447217955128, 1.4900447217955128, 1.4900447217955128]}, {"species": [{"element": "Si", "occu": 1}], "abc": [0.8674637, 0.8674637, 0.8674637], "properties": {"magmom": 0.0}, "label": "Si", "xyz": [9.752495788204486, 9.752495788204486, 9.752495788204486]}, {"species": [{"element": "Si", "occu": 1}], "abc": [0.1325363, 0.3674637, 0.632536299999999], "properties": {"magmom": 0.0}, "label": "Si", "xyz": [1.4900447217955128, 4.1312255332044865, 7.111314976795502]}, {"species": [{"element": "Si", "occu": 1}], "abc": [0.632536299999999, 0.1325363, 0.3674637], "properties": {"magmom": 0.0}, "label": "Si", "xyz": [7.111314976795502, 1.4900447217955128, 4.1312255332044865]}, {"species": [{"element": "Si", "occu": 1}], "abc": [0.8674637, 0.632536299999999, 0.3674637], "properties": {"magmom": 0.0}, "label": "Si", "xyz": [9.752495788204486, 7.111314976795502, 4.1312255332044865]}, {"species": [{"element": "Si", "occu": 1}], "abc": [0.3674637, 0.8674637, 0.632536299999999], "properties": {"magmom": 0.0}, "label": "Si", "xyz": [4.1312255332044865, 9.752495788204486, 7.111314976795502]}, {"species": [{"element": "Si", "occu": 1}], "abc": [0.632536299999999, 0.3674637, 0.8674637], "properties": {"magmom": 0.0}, "label": "Si", "xyz": [7.111314976795502, 4.1312255332044865, 9.752495788204486]}, {"species": [{"element": "Br", "occu": 1}], "abc": [0.25482463, 0.75482463, 0.74517537], "properties": {"magmom": -0.0}, "label": "Br", "xyz": [2.864876225720761, 8.48614648072076, 8.377664284279238]}, {"species": [{"element": "Br", "occu": 1}], "abc": [0.74510273, 0.47274215, 0.98773234], "properties": {"magmom": 0.0}, "label": "Br", "xyz": [8.376847626136593, 5.314822772159497, 11.104620845487092]}, {"species": [{"element": "Br", "occu": 1}], "abc": [0.51226766, 0.24510273000000002, 0.47274215], "properties": {"magmom": 0.0}, "label": "Br", "xyz": [5.759189919512907, 2.7555773711365923, 5.314822772159497]}, {"species": [{"element": "Br", "occu": 1}], "abc": [0.7548972700000001, 0.97274215, 0.98773234], "properties": {"magmom": 0.0}, "label": "Br", "xyz": [8.486963138863407, 10.936093027159496, 11.104620845487092]}, {"species": [{"element": "Br", "occu": 1}], "abc": [0.02725785, 0.01226766, 0.24510273000000002], "properties": {"magmom": 0.0}, "label": "Br", "xyz": [0.3064474828405035, 0.1379196645129066, 2.7555773711365923]}, {"species": [{"element": "Br", "occu": 1}], "abc": [0.74517537, 0.24517537, 0.25482463], "properties": {"magmom": -0.0}, "label": "Br", "xyz": [8.377664284279238, 2.756394029279239, 2.864876225720761]}, {"species": [{"element": "Br", "occu": 1}], "abc": [0.74517537, 0.25482463, 0.75482463], "properties": {"magmom": -0.0}, "label": "Br", "xyz": [8.377664284279238, 2.864876225720761, 8.48614648072076]}, {"species": [{"element": "Br", "occu": 1}], "abc": [0.51226766, 0.25489727, 0.97274215], "properties": {"magmom": 0.0}, "label": "Br", "xyz": [5.759189919512907, 2.8656928838634075, 10.936093027159496]}, {"species": [{"element": "Br", "occu": 1}], "abc": [0.02725785, 0.48773234, 0.74510273], "properties": {"magmom": 0.0}, "label": "Br", "xyz": [0.3064474828405035, 5.483350590487093, 8.376847626136593]}, {"species": [{"element": "Br", "occu": 1}], "abc": [0.47274215, 0.51226766, 0.24510273000000002], "properties": {"magmom": 0.0}, "label": "Br", "xyz": [5.314822772159497, 5.759189919512907, 2.7555773711365923]}, {"species": [{"element": "Br", "occu": 1}], "abc": [0.52725785, 0.48773234, 0.7548972700000001], "properties": {"magmom": 0.0}, "label": "Br", "xyz": [5.927717737840504, 5.483350590487093, 8.486963138863407]}, {"species": [{"element": "Br", "occu": 1}], "abc": [0.97274215, 0.51226766, 0.25489727], "properties": {"magmom": 0.0}, "label": "Br", "xyz": [10.936093027159496, 5.759189919512907, 2.8656928838634075]}, {"species": [{"element": "Br", "occu": 1}], "abc": [0.98773234, 0.74510273, 0.47274215], "properties": {"magmom": 0.0}, "label": "Br", "xyz": [11.104620845487092, 8.376847626136593, 5.314822772159497]}, {"species": [{"element": "Br", "occu": 1}], "abc": [0.25489727, 0.97274215, 0.51226766], "properties": {"magmom": 0.0}, "label": "Br", "xyz": [2.8656928838634075, 10.936093027159496, 5.759189919512907]}, {"species": [{"element": "Br", "occu": 1}], "abc": [0.52725785, 0.01226766, 0.25489727], "properties": {"magmom": 0.0}, "label": "Br", "xyz": [5.927717737840504, 0.1379196645129066, 2.8656928838634075]}, {"species": [{"element": "Br", "occu": 1}], "abc": [0.24510273000000002, 0.47274215, 0.51226766], "properties": {"magmom": 0.0}, "label": "Br", "xyz": [2.7555773711365923, 5.314822772159497, 5.759189919512907]}, {"species": [{"element": "Br", "occu": 1}], "abc": [0.24517537, 0.24517537, 0.24517537], "properties": {"magmom": -0.0}, "label": "Br", "xyz": [2.756394029279239, 2.756394029279239, 2.756394029279239]}, {"species": [{"element": "Br", "occu": 1}], "abc": [0.24517537, 0.25482463, 0.74517537], "properties": {"magmom": -0.0}, "label": "Br", "xyz": [2.756394029279239, 2.864876225720761, 8.377664284279238]}, {"species": [{"element": "Br", "occu": 1}], "abc": [0.01226766, 0.25489727, 0.52725785], "properties": {"magmom": 0.0}, "label": "Br", "xyz": [0.1379196645129066, 2.8656928838634075, 5.927717737840504]}, {"species": [{"element": "Br", "occu": 1}], "abc": [0.7548972700000001, 0.52725785, 0.48773234], "properties": {"magmom": 0.0}, "label": "Br", "xyz": [8.486963138863407, 5.927717737840504, 5.483350590487093]}, {"species": [{"element": "Br", "occu": 1}], "abc": [0.97274215, 0.98773234, 0.7548972700000001], "properties": {"magmom": 0.0}, "label": "Br", "xyz": [10.936093027159496, 11.104620845487092, 8.486963138863407]}, {"species": [{"element": "Br", "occu": 1}], "abc": [0.01226766, 0.24510273000000002, 0.02725785], "properties": {"magmom": 0.0}, "label": "Br", "xyz": [0.1379196645129066, 2.7555773711365923, 0.3064474828405035]}, {"species": [{"element": "Br", "occu": 1}], "abc": [0.74510273, 0.02725785, 0.48773234], "properties": {"magmom": 0.0}, "label": "Br", "xyz": [8.376847626136593, 0.3064474828405035, 5.483350590487093]}, {"species": [{"element": "Br", "occu": 1}], "abc": [0.24510273000000002, 0.02725785, 0.01226766], "properties": {"magmom": 0.0}, "label": "Br", "xyz": [2.7555773711365923, 0.3064474828405035, 0.1379196645129066]}, {"species": [{"element": "Br", "occu": 1}], "abc": [0.47274215, 0.98773234, 0.74510273], "properties": {"magmom": 0.0}, "label": "Br", "xyz": [5.314822772159497, 11.104620845487092, 8.376847626136593]}, {"species": [{"element": "Br", "occu": 1}], "abc": [0.75482463, 0.74517537, 0.25482463], "properties": {"magmom": -0.0}, "label": "Br", "xyz": [8.48614648072076, 8.377664284279238, 2.864876225720761]}, {"species": [{"element": "Br", "occu": 1}], "abc": [0.48773234, 0.7548972700000001, 0.52725785], "properties": {"magmom": 0.0}, "label": "Br", "xyz": [5.483350590487093, 8.486963138863407, 5.927717737840504]}, {"species": [{"element": "Br", "occu": 1}], "abc": [0.25482463, 0.74517537, 0.24517537], "properties": {"magmom": -0.0}, "label": "Br", "xyz": [2.864876225720761, 8.377664284279238, 2.756394029279239]}, {"species": [{"element": "Br", "occu": 1}], "abc": [0.75482463, 0.75482463, 0.75482463], "properties": {"magmom": -0.0}, "label": "Br", "xyz": [8.48614648072076, 8.48614648072076, 8.48614648072076]}, {"species": [{"element": "Br", "occu": 1}], "abc": [0.98773234, 0.7548972700000001, 0.97274215], "properties": {"magmom": 0.0}, "label": "Br", "xyz": [11.104620845487092, 8.486963138863407, 10.936093027159496]}, {"species": [{"element": "Br", "occu": 1}], "abc": [0.25489727, 0.52725785, 0.01226766], "properties": {"magmom": 0.0}, "label": "Br", "xyz": [2.8656928838634075, 5.927717737840504, 0.1379196645129066]}, {"species": [{"element": "Br", "occu": 1}], "abc": [0.48773234, 0.74510273, 0.02725785], "properties": {"magmom": 0.0}, "label": "Br", "xyz": [5.483350590487093, 8.376847626136593, 0.3064474828405035]}]}, "task_ids": null, "uncorrected_energy_per_atom": null, "energy_per_atom": -3.655575020249999, "formation_energy_per_atom": -1.260954186249998, "energy_above_hull": 0.0, "is_stable": true, "equilibrium_reaction_energy_per_atom": null, "decomposes_to": null, "xas": null, "grain_boundaries": null, "band_gap": 4.1046, "cbm": null, "vbm": null, "efermi": -2.63582237, "is_gap_direct": null, "is_metal": null, "es_source_calc_id": null, "bandstructure": null, "dos": null, "dos_energy_up": null, "dos_energy_down": null, "is_magnetic": null, "ordering": null, "total_magnetization": 0.0, "total_magnetization_normalized_vol": null, "total_magnetization_normalized_formula_units": null, "num_magnetic_sites": null, "num_unique_magnetic_sites": null, "types_of_magnetic_species": null, "bulk_modulus": null, "shear_modulus": null, "universal_anisotropy": null, "homogeneous_poisson": null, "e_total": null, "e_ionic": null, "e_electronic": null, "n": null, "e_ij_max": null, "weighted_surface_energy_EV_PER_ANG2": null, "weighted_surface_energy": null, "weighted_work_function": null, "surface_anisotropy": null, "shape_factor": null, "has_reconstructed": null, "possible_species": null, "has_props": null, "theoretical": null, "database_IDs": null, "fields_not_requested": ["builder_meta", "nsites", "elements", "nelements", "composition", "composition_reduced", "chemsys", "symmetry", "property_name", "deprecated", "deprecation_reasons", "last_updated", "origins", "warnings", "task_ids", "uncorrected_energy_per_atom", "equilibrium_reaction_energy_per_atom", "decomposes_to", "xas", "grain_boundaries", "cbm", "vbm", "is_gap_direct", "is_metal", "es_source_calc_id", "bandstructure", "dos", "dos_energy_up", "dos_energy_down", "is_magnetic", "ordering", "total_magnetization_normalized_vol", "total_magnetization_normalized_formula_units", "num_magnetic_sites", "num_unique_magnetic_sites", "types_of_magnetic_species", "bulk_modulus", "shear_modulus", "universal_anisotropy", "homogeneous_poisson", "e_total", "e_ionic", "e_electronic", "n", "e_ij_max", "weighted_surface_energy_EV_PER_ANG2", "weighted_surface_energy", "weighted_work_function", "surface_anisotropy", "shape_factor", "has_reconstructed", "possible_species", "has_props", "theoretical", "database_IDs"]}