{"builder_meta": null, "nsites": null, "elements": null, "nelements": null, "composition": null, "composition_reduced": null, "formula_pretty": "SiBr2", "formula_anonymous": "AB2", "chemsys": null, "volume": 1322.6896562987085, "density": 2.830636761611559, "density_atomic": 36.74137934163079, "symmetry": null, "property_name": null, "material_id": "mp-1195825", "deprecated": null, "deprecation_reasons": null, "last_updated": null, "origins": null, "warnings": null, "structure": {"@module": "pymatgen.core.structure", "@class": "Structure", "charge": 0, "lattice": {"matrix": [[5.13645332, 9.34597836, 0.00679481], [-5.13645332, 9.34597836, 0.00679481], [0.0, 5.00548064, 13.78016922]], "pbc": [true, true, true], "a": 10.664450777399194, "b": 10.664450777399194, "c": 14.66110160149128, "alpha": 72.55431714158657, "beta": 72.55431714158657, "gamma": 57.58546984898321, "volume": 1322.6896562987085}, "properties": {}, "sites": [{"species": [{"element": "Si", "occu": 1}], "abc": [0.75745584, 0.55250523, 0.07789716000000001], "properties": {"magmom": -0.0}, "label": "Si", "xyz": [1.0527192411705255, 12.632780538953428, 1.0823369831354621]}, {"species": [{"element": "Si", "occu": 1}], "abc": [0.44749477, 0.24254416, 0.42210284000000003], "properties": {"magmom": -0.0}, "label": "Si", "xyz": [1.052719241170525, 8.561916501046573, 5.821337246864538]}, {"species": [{"element": "Si", "occu": 1}], "abc": [0.24254416, 0.44749477, 0.92210284], "properties": {"magmom": -0.0}, "label": "Si", "xyz": [-1.052719241170525, 11.064656821046572, 12.711421856864538]}, {"species": [{"element": "Si", "occu": 1}], "abc": [0.55250523, 0.75745584, 0.57789716], "properties": {"magmom": -0.0}, "label": "Si", "xyz": [-1.0527192411705255, 15.135520858953429, 7.972421593135462]}, {"species": [{"element": "Si", "occu": 1}], "abc": [0.82141772, 0.74431991, 0.0041526], "properties": {"magmom": 0.0}, "label": "Si", "xyz": [0.396009302139229, 14.65413576632335, 0.0678624204086723]}, {"species": [{"element": "Si", "occu": 1}], "abc": [0.25568009, 0.17858228, 0.4958474], "properties": {"magmom": 0.0}, "label": "Si", "xyz": [0.39600930213922936, 6.54056127367665, 6.835811809591328]}, {"species": [{"element": "Si", "occu": 1}], "abc": [0.17858228, 0.25568009, 0.995847399999999], "properties": {"magmom": 0.0}, "label": "Si", "xyz": [-0.39600930213922936, 9.043301593676645, 13.725896419591315]}, {"species": [{"element": "Si", "occu": 1}], "abc": [0.74431991, 0.82141772, 0.5041526], "properties": {"magmom": 0.0}, "label": "Si", "xyz": [-0.396009302139229, 17.15687608632335, 6.957947030408671]}, {"species": [{"element": "Si", "occu": 1}], "abc": [0.92237505, 0.33162766, 0.00938524], "properties": {"magmom": -0.0}, "label": "Si", "xyz": [3.034346392646835, 11.766859828163108, 0.1378509055242479]}, {"species": [{"element": "Si", "occu": 1}], "abc": [0.66837234, 0.07762495, 0.49061476], "properties": {"magmom": -0.0}, "label": "Si", "xyz": [3.0343463926468353, 9.427837211836891, 6.765823324475751]}, {"species": [{"element": "Si", "occu": 1}], "abc": [0.07762495, 0.66837234, 0.99061476], "properties": {"magmom": -0.0}, "label": "Si", "xyz": [-3.0343463926468353, 11.930577531836892, 13.655907934475753]}, {"species": [{"element": "Si", "occu": 1}], "abc": [0.33162766, 0.92237505, 0.50938524], "properties": {"magmom": -0.0}, "label": "Si", "xyz": [-3.034346392646835, 14.269600148163109, 7.027935515524248]}, {"species": [{"element": "Br", "occu": 1}], "abc": [0.77233374, 0.50079091, 0.23358187], "properties": {"magmom": -0.0}, "label": "Br", "xyz": [1.3947670706756954, 13.067784956622571, 3.2274483354271077]}, {"species": [{"element": "Br", "occu": 1}], "abc": [0.49920909, 0.22766626, 0.26641813000000003], "properties": {"magmom": -0.0}, "label": "Br", "xyz": [1.3947670706756956, 8.12691208337743, 3.6762258945728923]}, {"species": [{"element": "Br", "occu": 1}], "abc": [0.22766626, 0.49920909, 0.76641813], "properties": {"magmom": -0.0}, "label": "Br", "xyz": [-1.3947670706756956, 10.62965240337743, 10.566310504572893]}, {"species": [{"element": "Br", "occu": 1}], "abc": [0.50079091, 0.77233374, 0.73358187], "properties": {"magmom": -0.0}, "label": "Br", "xyz": [-1.3947670706756954, 15.57052527662257, 10.117532945427108]}, {"species": [{"element": "Br", "occu": 1}], "abc": [0.68024753, 0.92920335, 0.08979896], "properties": {"magmom": -0.0}, "label": "Br", "xyz": [-1.2787499481723223, 15.491380051735092, 1.248380777513944]}, {"species": [{"element": "Br", "occu": 1}], "abc": [0.07079665, 0.31975247, 0.41020104], "properties": {"magmom": -0.0}, "label": "Br", "xyz": [-1.2787499481723223, 5.703316988264909, 5.655293452486056]}, {"species": [{"element": "Br", "occu": 1}], "abc": [0.31975247, 0.07079665, 0.91020104], "properties": {"magmom": -0.0}, "label": "Br", "xyz": [1.2787499481723223, 8.206057308264908, 12.545378062486055]}, {"species": [{"element": "Br", "occu": 1}], "abc": [0.92920335, 0.68024753, 0.58979896], "properties": {"magmom": -0.0}, "label": "Br", "xyz": [1.2787499481723223, 17.994120371735093, 8.138465387513943]}, {"species": [{"element": "Br", "occu": 1}], "abc": [0.77767332, 0.82045314, 0.85324983], "properties": {"magmom": 0.0}, "label": "Br", "xyz": [-0.21973654846800228, 19.206980816851697, 11.768786009987904]}, {"species": [{"element": "Br", "occu": 1}], "abc": [0.17954686, 0.22232668, 0.64675017], "properties": {"magmom": 0.0}, "label": "Br", "xyz": [-0.2197365484680024, 6.993196863148303, 8.915057440012095]}, {"species": [{"element": "Br", "occu": 1}], "abc": [0.22232668, 0.17954686, 0.14675017], "properties": {"magmom": 0.0}, "label": "Br", "xyz": [0.2197365484680024, 4.490456543148303, 2.0249728300120946]}, {"species": [{"element": "Br", "occu": 1}], "abc": [0.82045314, 0.77767332, 0.35324983], "properties": {"magmom": 0.0}, "label": "Br", "xyz": [0.21973654846800228, 16.704240496851696, 4.8787013999879045]}, {"species": [{"element": "Br", "occu": 1}], "abc": [0.87184403, 0.38209317, 0.86236488], "properties": {"magmom": -0.0}, "label": "Br", "xyz": [2.5155824308198556, 16.035820647454912, 11.892054240810925]}, {"species": [{"element": "Br", "occu": 1}], "abc": [0.61790683, 0.12815597, 0.63763512], "properties": {"magmom": -0.0}, "label": "Br", "xyz": [2.5155824308198556, 10.164357032545086, 8.791789209189075]}, {"species": [{"element": "Br", "occu": 1}], "abc": [0.12815597, 0.61790683, 0.13763512], "properties": {"magmom": -0.0}, "label": "Br", "xyz": [-2.5155824308198556, 7.661616712545086, 1.9017045991890742]}, {"species": [{"element": "Br", "occu": 1}], "abc": [0.38209317, 0.87184403, 0.36236488], "properties": {"magmom": -0.0}, "label": "Br", "xyz": [-2.5155824308198556, 13.533080327454915, 5.001969630810925]}, {"species": [{"element": "Br", "occu": 1}], "abc": [0.88436978, 0.14452706, 0.1008732], "properties": {"magmom": 0.0}, "label": "Br", "xyz": [3.80016759542183, 10.12096645100723, 1.3970409243003044]}, {"species": [{"element": "Br", "occu": 1}], "abc": [0.8554729400000001, 0.11563022, 0.3991268], "properties": {"magmom": 0.0}, "label": "Br", "xyz": [3.8001675954218306, 11.07373058899277, 5.506633305699696]}, {"species": [{"element": "Br", "occu": 1}], "abc": [0.11563022, 0.8554729400000001, 0.8991268], "properties": {"magmom": 0.0}, "label": "Br", "xyz": [-3.8001675954218306, 13.576470908992771, 12.396717915699696]}, {"species": [{"element": "Br", "occu": 1}], "abc": [0.14452706, 0.88436978, 0.6008732], "properties": {"magmom": 0.0}, "label": "Br", "xyz": [-3.80016759542183, 12.623706771007232, 8.287125534300305]}, {"species": [{"element": "Br", "occu": 1}], "abc": [0.52444528, 0.63519524, 0.06136253], "properties": {"magmom": 0.0}, "label": "Br", "xyz": [-0.5688619997318676, 11.145124161235568, 0.8534655841690277]}, {"species": [{"element": "Br", "occu": 1}], "abc": [0.36480476, 0.47555472, 0.43863747000000003], "properties": {"magmom": 0.0}, "label": "Br", "xyz": [-0.5688619997318674, 10.049572878764433, 6.050208645830972]}, {"species": [{"element": "Br", "occu": 1}], "abc": [0.47555472, 0.36480476, 0.93863747], "properties": {"magmom": 0.0}, "label": "Br", "xyz": [0.5688619997318674, 12.552313198764434, 12.940293255830971]}, {"species": [{"element": "Br", "occu": 1}], "abc": [0.63519524, 0.52444528, 0.56136253], "properties": {"magmom": 0.0}, "label": "Br", "xyz": [0.5688619997318676, 13.647864481235569, 7.7435501941690275]}]}, "task_ids": null, "uncorrected_energy_per_atom": null, "energy_per_atom": -3.916596578055556, "formation_energy_per_atom": -1.016859544722223, "energy_above_hull": 0.033935610486110004, "is_stable": false, "equilibrium_reaction_energy_per_atom": null, "decomposes_to": null, "xas": null, "grain_boundaries": null, "band_gap": 2.3639, "cbm": null, "vbm": null, "efermi": -0.57421882, "is_gap_direct": null, "is_metal": null, "es_source_calc_id": null, "bandstructure": null, "dos": null, "dos_energy_up": null, "dos_energy_down": null, "is_magnetic": null, "ordering": null, "total_magnetization": 0.0, "total_magnetization_normalized_vol": null, "total_magnetization_normalized_formula_units": null, "num_magnetic_sites": null, "num_unique_magnetic_sites": null, "types_of_magnetic_species": null, "bulk_modulus": null, "shear_modulus": null, "universal_anisotropy": null, "homogeneous_poisson": null, "e_total": null, "e_ionic": null, "e_electronic": null, "n": null, "e_ij_max": null, "weighted_surface_energy_EV_PER_ANG2": null, "weighted_surface_energy": null, "weighted_work_function": null, "surface_anisotropy": null, "shape_factor": null, "has_reconstructed": null, "possible_species": null, "has_props": null, "theoretical": null, "database_IDs": null, "fields_not_requested": ["builder_meta", "nsites", "elements", "nelements", "composition", "composition_reduced", "chemsys", "symmetry", "property_name", "deprecated", "deprecation_reasons", "last_updated", "origins", "warnings", "task_ids", "uncorrected_energy_per_atom", "equilibrium_reaction_energy_per_atom", "decomposes_to", "xas", "grain_boundaries", "cbm", "vbm", "is_gap_direct", "is_metal", "es_source_calc_id", "bandstructure", "dos", "dos_energy_up", "dos_energy_down", "is_magnetic", "ordering", "total_magnetization_normalized_vol", "total_magnetization_normalized_formula_units", "num_magnetic_sites", "num_unique_magnetic_sites", "types_of_magnetic_species", "bulk_modulus", "shear_modulus", "universal_anisotropy", "homogeneous_poisson", "e_total", "e_ionic", "e_electronic", "n", "e_ij_max", "weighted_surface_energy_EV_PER_ANG2", "weighted_surface_energy", "weighted_work_function", "surface_anisotropy", "shape_factor", "has_reconstructed", "possible_species", "has_props", "theoretical", "database_IDs"]}