{"builder_meta": null, "nsites": null, "elements": null, "nelements": null, "composition": null, "composition_reduced": null, "formula_pretty": "SiBr3", "formula_anonymous": "AB3", "chemsys": null, "volume": 289.9820575821661, "density": 3.067005002968582, "density_atomic": 36.24775719777076, "symmetry": null, "property_name": null, "material_id": "mp-1078181", "deprecated": null, "deprecation_reasons": null, "last_updated": null, "origins": null, "warnings": null, "structure": {"@module": "pymatgen.core.structure", "@class": "Structure", "charge": 0, "lattice": {"matrix": [[5.85400191, 3.4072646, -0.01488221], [-5.85400191, 3.4072646, -0.01488221], [0.0, 2.41057629, 7.25860069]], "pbc": [true, true, true], "a": 6.773404749228507, "b": 6.773404749228507, "c": 7.648409117377197, "alpha": 80.99861236652212, "beta": 80.99861236652212, "gamma": 119.59727116778481, "volume": 289.9820575821661}, "properties": {}, "sites": [{"species": [{"element": "Si", "occu": 1}], "abc": [0.45277198, 0.45277198, 0.6601694100000001], "properties": {"magmom": -0.0}, "label": "Si", "xyz": [0.0, 4.676816605781105, 4.778429639565942]}, {"species": [{"element": "Si", "occu": 1}], "abc": [0.54722802, 0.54722802, 0.33983059], "properties": {"magmom": -0.0}, "label": "Si", "xyz": [0.0, 4.548288884218895, 2.4504066304340584]}, {"species": [{"element": "Br", "occu": 1}], "abc": [0.73591765, 0.73591765, 0.74187926], "properties": {"magmom": 0.0}, "label": "Br", "xyz": [0.0, 6.803288868919125, 5.363101146512677]}, {"species": [{"element": "Br", "occu": 1}], "abc": [0.26408235, 0.26408235, 0.25812074], "properties": {"magmom": 0.0}, "label": "Br", "xyz": [0.0, 2.4218166210808745, 1.8657351234873238]}, {"species": [{"element": "Br", "occu": 1}], "abc": [0.11436722, 0.4235179, 0.76423136], "properties": {"magmom": -0.0}, "label": "Br", "xyz": [-1.8097686711977987, 3.674954924733206, 5.539245357703923]}, {"species": [{"element": "Br", "occu": 1}], "abc": [0.4235179, 0.11436722, 0.76423136], "properties": {"magmom": -0.0}, "label": "Br", "xyz": [1.8097686711977987, 3.674954924733206, 5.539245357703923]}, {"species": [{"element": "Br", "occu": 1}], "abc": [0.88563278, 0.5764821, 0.23576864], "properties": {"magmom": -0.0}, "label": "Br", "xyz": [1.8097686711977987, 5.550150565266794, 1.6895909122960768]}, {"species": [{"element": "Br", "occu": 1}], "abc": [0.5764821, 0.88563278, 0.23576864], "properties": {"magmom": -0.0}, "label": "Br", "xyz": [-1.8097686711977987, 5.550150565266794, 1.6895909122960768]}]}, "task_ids": null, "uncorrected_energy_per_atom": null, "energy_per_atom": -3.762081175, "formation_energy_per_atom": -1.17804176625, "energy_above_hull": 0.004102783359373001, "is_stable": false, "equilibrium_reaction_energy_per_atom": null, "decomposes_to": null, "xas": null, "grain_boundaries": null, "band_gap": 3.8434, "cbm": null, "vbm": null, "efermi": -1.32503561, "is_gap_direct": null, "is_metal": null, "es_source_calc_id": null, "bandstructure": null, "dos": null, "dos_energy_up": null, "dos_energy_down": null, "is_magnetic": null, "ordering": null, "total_magnetization": 0.0, "total_magnetization_normalized_vol": null, "total_magnetization_normalized_formula_units": null, "num_magnetic_sites": null, "num_unique_magnetic_sites": null, "types_of_magnetic_species": null, "bulk_modulus": null, "shear_modulus": null, "universal_anisotropy": null, "homogeneous_poisson": null, "e_total": null, "e_ionic": null, "e_electronic": null, "n": null, "e_ij_max": null, "weighted_surface_energy_EV_PER_ANG2": null, "weighted_surface_energy": null, "weighted_work_function": null, "surface_anisotropy": null, "shape_factor": null, "has_reconstructed": null, "possible_species": null, "has_props": null, "theoretical": null, "database_IDs": null, "fields_not_requested": ["builder_meta", "nsites", "elements", "nelements", "composition", "composition_reduced", "chemsys", "symmetry", "property_name", "deprecated", "deprecation_reasons", "last_updated", "origins", "warnings", "task_ids", "uncorrected_energy_per_atom", "equilibrium_reaction_energy_per_atom", "decomposes_to", "xas", "grain_boundaries", "cbm", "vbm", "is_gap_direct", "is_metal", "es_source_calc_id", "bandstructure", "dos", "dos_energy_up", "dos_energy_down", "is_magnetic", "ordering", "total_magnetization_normalized_vol", "total_magnetization_normalized_formula_units", "num_magnetic_sites", "num_unique_magnetic_sites", "types_of_magnetic_species", "bulk_modulus", "shear_modulus", "universal_anisotropy", "homogeneous_poisson", "e_total", "e_ionic", "e_electronic", "n", "e_ij_max", "weighted_surface_energy_EV_PER_ANG2", "weighted_surface_energy", "weighted_work_function", "surface_anisotropy", "shape_factor", "has_reconstructed", "possible_species", "has_props", "theoretical", "database_IDs"]}