{"builder_meta": null, "nsites": null, "elements": null, "nelements": null, "composition": null, "composition_reduced": null, "formula_pretty": "SiCl4", "formula_anonymous": "AB4", "chemsys": null, "volume": 606.8888111020507, "density": 1.8594604540846191, "density_atomic": 30.344440555102533, "symmetry": null, "property_name": null, "material_id": "mp-28391", "deprecated": null, "deprecation_reasons": null, "last_updated": null, "origins": null, "warnings": null, "structure": {"@module": "pymatgen.core.structure", "@class": "Structure", "charge": 0, "lattice": {"matrix": [[6.43901036, 0.0, 0.0], [0.0, 9.53495164, -2.2252245], [0.0, -0.03008576, 9.8919038]], "pbc": [true, true, true], "a": 6.43901036, "b": 9.791165755544073, "c": 9.891949552105954, "alpha": 103.31057763541956, "beta": 90.0, "gamma": 90.0, "volume": 606.8888111020507}, "properties": {}, "sites": [{"species": [{"element": "Si", "occu": 1}], "abc": [0.9287078200000001, 0.75052458, 0.643907999999999], "properties": {"magmom": -0.0}, "label": "Si", "xyz": [5.979959274393016, 7.1368431133812305, 4.69939030878218]}, {"species": [{"element": "Si", "occu": 1}], "abc": [0.42870782, 0.24947542, 0.856092], "properties": {"magmom": -0.0}, "label": "Si", "xyz": [2.7604540943930154, 2.3529798866187686, 7.91324089121781]}, {"species": [{"element": "Si", "occu": 1}], "abc": [0.07129218, 0.24947542, 0.356091999999999], "properties": {"magmom": -0.0}, "label": "Si", "xyz": [0.45905108560698477, 2.3680227666187688, 2.9672889912178]}, {"species": [{"element": "Si", "occu": 1}], "abc": [0.57129218, 0.75052458, 0.143907999999999], "properties": {"magmom": -0.0}, "label": "Si", "xyz": [3.6785562656069852, 7.15188599338123, -0.24656159121781984]}, {"species": [{"element": "Cl", "occu": 1}], "abc": [0.07597671, 0.58880088, 0.69834476], "properties": {"magmom": -0.0}, "label": "Cl", "xyz": [0.48921482280871564, 5.593177683542825, 5.597745041356528]}, {"species": [{"element": "Cl", "occu": 1}], "abc": [0.5759767100000001, 0.41119912000000003, 0.80165524], "properties": {"magmom": -0.0}, "label": "Cl", "xyz": [3.708720002808716, 3.8966453164571746, 7.014886158643472]}, {"species": [{"element": "Cl", "occu": 1}], "abc": [0.92402329, 0.41119912000000003, 0.30165524], "properties": {"magmom": -0.0}, "label": "Cl", "xyz": [5.949795537191285, 3.9116881964571744, 2.0689342586434716]}, {"species": [{"element": "Cl", "occu": 1}], "abc": [0.42402329, 0.58880088, 0.19834476], "properties": {"magmom": -0.0}, "label": "Cl", "xyz": [2.7302903571912847, 5.608220563542825, 0.6517931413565281]}, {"species": [{"element": "Cl", "occu": 1}], "abc": [0.93282821, 0.91908897, 0.80626487], "properties": {"magmom": 0.0}, "label": "Cl", "xyz": [6.006490508290256, 8.73921179043216, 5.930315237635741]}, {"species": [{"element": "Cl", "occu": 1}], "abc": [0.43282821, 0.08091103, 0.69373513], "properties": {"magmom": 0.0}, "label": "Cl", "xyz": [2.7869853282902555, 0.7506112095678402, 6.6823159623642585]}, {"species": [{"element": "Cl", "occu": 1}], "abc": [0.06717179, 0.08091103, 0.19373513], "properties": {"magmom": 0.0}, "label": "Cl", "xyz": [0.4325198517097444, 0.7656540895678402, 1.736364062364259]}, {"species": [{"element": "Cl", "occu": 1}], "abc": [0.5671717900000001, 0.91908897, 0.30626487], "properties": {"magmom": 0.0}, "label": "Cl", "xyz": [3.6520250317097447, 8.754254670432159, 0.9843633376357412]}, {"species": [{"element": "Cl", "occu": 1}], "abc": [0.07489822, 0.7980028100000001, 0.47993664], "properties": {"magmom": -0.0}, "label": "Cl", "xyz": [0.48227041452555924, 7.5944789433678626, 2.9717516690943873]}, {"species": [{"element": "Cl", "occu": 1}], "abc": [0.57489822, 0.20199719, 0.02006336], "properties": {"magmom": -0.0}, "label": "Cl", "xyz": [3.7017755945255595, 1.9254298166321377, -0.251024269094387]}, {"species": [{"element": "Cl", "occu": 1}], "abc": [0.92510178, 0.20199719, 0.52006336], "properties": {"magmom": -0.0}, "label": "Cl", "xyz": [5.956739945474441, 1.9103869366321378, 4.694927630905612]}, {"species": [{"element": "Cl", "occu": 1}], "abc": [0.42510178, 0.7980028100000001, 0.97993664], "properties": {"magmom": -0.0}, "label": "Cl", "xyz": [2.7372347654744407, 7.579436063367862, 7.917703569094386]}, {"species": [{"element": "Cl", "occu": 1}], "abc": [0.63194243, 0.69486253, 0.59207285], "properties": {"magmom": -0.0}, "label": "Cl", "xyz": [4.069083853693575, 6.607667658330432, 4.310502548903845]}, {"species": [{"element": "Cl", "occu": 1}], "abc": [0.13194243, 0.30513747, 0.90792715], "properties": {"magmom": -0.0}, "label": "Cl", "xyz": [0.8495786736935749, 2.882155341669567, 8.302128651096154]}, {"species": [{"element": "Cl", "occu": 1}], "abc": [0.36805757, 0.30513747, 0.40792715], "properties": {"magmom": -0.0}, "label": "Cl", "xyz": [2.369926506306425, 2.8971982216695666, 3.3561767510961547]}, {"species": [{"element": "Cl", "occu": 1}], "abc": [0.8680575700000001, 0.69486253, 0.09207285], "properties": {"magmom": -0.0}, "label": "Cl", "xyz": [5.589431686306425, 6.622710538330432, -0.635449351096155]}]}, "task_ids": null, "uncorrected_energy_per_atom": null, "energy_per_atom": -8.028485926, "formation_energy_per_atom": -1.351781889000001, "energy_above_hull": 0.0, "is_stable": true, "equilibrium_reaction_energy_per_atom": null, "decomposes_to": null, "xas": null, "grain_boundaries": null, "band_gap": 5.5658, "cbm": null, "vbm": null, "efermi": -2.63413313, "is_gap_direct": null, "is_metal": null, "es_source_calc_id": null, "bandstructure": null, "dos": null, "dos_energy_up": null, "dos_energy_down": null, "is_magnetic": null, "ordering": null, "total_magnetization": 1e-07, "total_magnetization_normalized_vol": null, "total_magnetization_normalized_formula_units": null, "num_magnetic_sites": null, "num_unique_magnetic_sites": null, "types_of_magnetic_species": null, "bulk_modulus": null, "shear_modulus": null, "universal_anisotropy": null, "homogeneous_poisson": null, "e_total": null, "e_ionic": null, "e_electronic": null, "n": null, "e_ij_max": null, "weighted_surface_energy_EV_PER_ANG2": null, "weighted_surface_energy": null, "weighted_work_function": null, "surface_anisotropy": null, "shape_factor": null, "has_reconstructed": null, "possible_species": null, "has_props": null, "theoretical": null, "database_IDs": null, "fields_not_requested": ["builder_meta", "nsites", "elements", "nelements", "composition", "composition_reduced", "chemsys", "symmetry", "property_name", "deprecated", "deprecation_reasons", "last_updated", "origins", "warnings", "task_ids", "uncorrected_energy_per_atom", "equilibrium_reaction_energy_per_atom", "decomposes_to", "xas", "grain_boundaries", "cbm", "vbm", "is_gap_direct", "is_metal", "es_source_calc_id", "bandstructure", "dos", "dos_energy_up", "dos_energy_down", "is_magnetic", "ordering", "total_magnetization_normalized_vol", "total_magnetization_normalized_formula_units", "num_magnetic_sites", "num_unique_magnetic_sites", "types_of_magnetic_species", "bulk_modulus", "shear_modulus", "universal_anisotropy", "homogeneous_poisson", "e_total", "e_ionic", "e_electronic", "n", "e_ij_max", "weighted_surface_energy_EV_PER_ANG2", "weighted_surface_energy", "weighted_work_function", "surface_anisotropy", "shape_factor", "has_reconstructed", "possible_species", "has_props", "theoretical", "database_IDs"]}