{
  "builder_meta": null,
  "nsites": null,
  "elements": null,
  "nelements": null,
  "composition": null,
  "composition_reduced": null,
  "formula_pretty": "SiCl2",
  "formula_anonymous": "AB2",
  "chemsys": null,
  "volume": 399.43326494446063,
  "density": 1.6461248217189932,
  "density_atomic": 33.28610541203839,
  "symmetry": null,
  "property_name": null,
  "material_id": "mp-29174",
  "deprecated": null,
  "deprecation_reasons": null,
  "last_updated": null,
  "origins": null,
  "warnings": null,
  "structure": {
    "@module": "pymatgen.core.structure",
    "@class": "Structure",
    "charge": 0,
    "lattice": {
      "matrix": [
        [4.02709, 0.0, 0.0],
        [0.0, 7.189396, 0.0],
        [0.0, 0.0, 13.796232]
      ],
      "pbc": [true, true, true],
      "a": 4.02709,
      "b": 7.189396,
      "c": 13.796232,
      "alpha": 90.0,
      "beta": 90.0,
      "gamma": 90.0,
      "volume": 399.43326494446063
    },
    "properties": {},
    "sites": [
      {
        "species": [{ "element": "Si", "occu": 1 }],
        "abc": [0.475487999999999, 0.336227999999999, 0.510753999999999],
        "properties": { "magmom": 0.0 },
        "label": "Si",
        "xyz": [1.9148329699199962, 2.417276238287993, 7.046480678927987]
      },
      {
        "species": [{ "element": "Si", "occu": 1 }],
        "abc": [0.975487999999999, 0.163772, 0.489245999999999],
        "properties": { "magmom": 0.0 },
        "label": "Si",
        "xyz": [3.9283779699199965, 1.177421761712, 6.749751321071987]
      },
      {
        "species": [{ "element": "Si", "occu": 1 }],
        "abc": [0.524512, 0.836228, 0.989246],
        "properties": { "magmom": 0.0 },
        "label": "Si",
        "xyz": [2.11225703008, 6.011974238288, 13.647867321071999]
      },
      {
        "species": [{ "element": "Si", "occu": 1 }],
        "abc": [0.024512, 0.663771999999999, 0.010754],
        "properties": { "magmom": 0.0 },
        "label": "Si",
        "xyz": [0.09871203008, 4.772119761711993, 0.14836467892799998]
      },
      {
        "species": [{ "element": "Cl", "occu": 1 }],
        "abc": [0.473392, 0.551038, 0.411774],
        "properties": { "magmom": 0.0 },
        "label": "Cl",
        "xyz": [1.90639218928, 3.9616303930480004, 5.680929635568]
      },
      {
        "species": [{ "element": "Cl", "occu": 1 }],
        "abc": [0.973391999999999, 0.948962, 0.588226],
        "properties": { "magmom": 0.0 },
        "label": "Cl",
        "xyz": [3.9199371892799966, 6.822463606952, 8.115302364432]
      },
      {
        "species": [{ "element": "Cl", "occu": 1 }],
        "abc": [0.526608, 0.051038, 0.088226],
        "properties": { "magmom": 0.0 },
        "label": "Cl",
        "xyz": [2.12069781072, 0.366932393048, 1.217186364432]
      },
      {
        "species": [{ "element": "Cl", "occu": 1 }],
        "abc": [0.026608, 0.44896199999999903, 0.911774],
        "properties": { "magmom": 0.0 },
        "label": "Cl",
        "xyz": [0.10715281072, 3.2277656069519933, 12.579045635567999]
      },
      {
        "species": [{ "element": "Cl", "occu": 1 }],
        "abc": [0.473705999999999, 0.442415, 0.6496700000000001],
        "properties": { "magmom": 0.0 },
        "label": "Cl",
        "xyz": [1.9076566955399963, 3.18069663134, 8.96299804344]
      },
      {
        "species": [{ "element": "Cl", "occu": 1 }],
        "abc": [0.973706, 0.057585, 0.35033000000000003],
        "properties": { "magmom": 0.0 },
        "label": "Cl",
        "xyz": [3.92120169554, 0.41400136866, 4.83323395656]
      },
      {
        "species": [{ "element": "Cl", "occu": 1 }],
        "abc": [0.526293999999999, 0.942415, 0.85033],
        "properties": { "magmom": 0.0 },
        "label": "Cl",
        "xyz": [2.1194333044599962, 6.77539463134, 11.73134995656]
      },
      {
        "species": [{ "element": "Cl", "occu": 1 }],
        "abc": [0.026293999999999002, 0.557585, 0.14967000000000003],
        "properties": { "magmom": 0.0 },
        "label": "Cl",
        "xyz": [0.10588830445999599, 4.00869936866, 2.0648820434400004]
      }
    ]
  },
  "task_ids": null,
  "uncorrected_energy_per_atom": null,
  "energy_per_atom": -8.09173161875,
  "formation_energy_per_atom": -1.06551748875,
  "energy_above_hull": 0.060967418749999,
  "is_stable": false,
  "equilibrium_reaction_energy_per_atom": null,
  "decomposes_to": null,
  "xas": null,
  "grain_boundaries": null,
  "band_gap": 2.0151,
  "cbm": null,
  "vbm": null,
  "efermi": -0.08388791,
  "is_gap_direct": null,
  "is_metal": null,
  "es_source_calc_id": null,
  "bandstructure": null,
  "dos": null,
  "dos_energy_up": null,
  "dos_energy_down": null,
  "is_magnetic": null,
  "ordering": null,
  "total_magnetization": 4.4500000000000004e-5,
  "total_magnetization_normalized_vol": null,
  "total_magnetization_normalized_formula_units": null,
  "num_magnetic_sites": null,
  "num_unique_magnetic_sites": null,
  "types_of_magnetic_species": null,
  "bulk_modulus": null,
  "shear_modulus": null,
  "universal_anisotropy": null,
  "homogeneous_poisson": null,
  "e_total": null,
  "e_ionic": null,
  "e_electronic": null,
  "n": null,
  "e_ij_max": null,
  "weighted_surface_energy_EV_PER_ANG2": null,
  "weighted_surface_energy": null,
  "weighted_work_function": null,
  "surface_anisotropy": null,
  "shape_factor": null,
  "has_reconstructed": null,
  "possible_species": null,
  "has_props": null,
  "theoretical": null,
  "database_IDs": null,
  "fields_not_requested": [
    "builder_meta",
    "nsites",
    "elements",
    "nelements",
    "composition",
    "composition_reduced",
    "chemsys",
    "symmetry",
    "property_name",
    "deprecated",
    "deprecation_reasons",
    "last_updated",
    "origins",
    "warnings",
    "task_ids",
    "uncorrected_energy_per_atom",
    "equilibrium_reaction_energy_per_atom",
    "decomposes_to",
    "xas",
    "grain_boundaries",
    "cbm",
    "vbm",
    "is_gap_direct",
    "is_metal",
    "es_source_calc_id",
    "bandstructure",
    "dos",
    "dos_energy_up",
    "dos_energy_down",
    "is_magnetic",
    "ordering",
    "total_magnetization_normalized_vol",
    "total_magnetization_normalized_formula_units",
    "num_magnetic_sites",
    "num_unique_magnetic_sites",
    "types_of_magnetic_species",
    "bulk_modulus",
    "shear_modulus",
    "universal_anisotropy",
    "homogeneous_poisson",
    "e_total",
    "e_ionic",
    "e_electronic",
    "n",
    "e_ij_max",
    "weighted_surface_energy_EV_PER_ANG2",
    "weighted_surface_energy",
    "weighted_work_function",
    "surface_anisotropy",
    "shape_factor",
    "has_reconstructed",
    "possible_species",
    "has_props",
    "theoretical",
    "database_IDs"
  ]
}
