{"builder_meta": null, "nsites": null, "elements": null, "nelements": null, "composition": null, "composition_reduced": null, "formula_pretty": "SiF4", "formula_anonymous": "AB4", "chemsys": null, "volume": 73.70707884853111, "density": 2.344787441334236, "density_atomic": 14.741415769706222, "symmetry": null, "property_name": null, "material_id": "mp-1818", "deprecated": null, "deprecation_reasons": null, "last_updated": null, "origins": null, "warnings": null, "structure": {"@module": "pymatgen.core.structure", "@class": "Structure", "charge": 0, "lattice": {"matrix": [[4.31321239, -0.0, -1.5249498300000002], [-2.1566047, 3.73535048, -1.5249498300000002], [-0.0, -0.0, 4.5748514700000005]], "pbc": [true, true, true], "a": 4.574852249555885, "b": 4.574850710626015, "c": 4.5748514700000005, "alpha": 109.47121522964466, "beta": 109.47120841537594, "gamma": 109.47122094438402, "volume": 73.70707884853113}, "properties": {}, "sites": [{"species": [{"element": "Si", "occu": 1}], "abc": [0.0, -0.0, -0.0], "properties": {"magmom": -0.0}, "label": "Si", "xyz": [0.0, 0.0, 0.0]}, {"species": [{"element": "F", "occu": 1}], "abc": [-0.0, -0.0, 0.65750054], "properties": {"magmom": 0.0}, "label": "F", "xyz": [0.0, 0.0, 3.0079673119447943]}, {"species": [{"element": "F", "occu": 1}], "abc": [0.34249946000000003, 0.34249946000000003, 0.34249946000000003], "properties": {"magmom": 0.0}, "label": "F", "xyz": [0.7386369692568475, 1.279355522310741, 0.5222951714510227]}, {"species": [{"element": "F", "occu": 1}], "abc": [0.65750054, -0.0, -0.0], "properties": {"magmom": 0.0}, "label": "F", "xyz": [2.835939475559691, 0.0, -1.0026553366979083]}, {"species": [{"element": "F", "occu": 1}], "abc": [0.0, 0.65750054, 0.0], "properties": {"magmom": 0.0}, "label": "F", "xyz": [-1.417968754816538, 2.4559949576892595, -1.0026553366979083]}]}, "task_ids": null, "uncorrected_energy_per_atom": null, "energy_per_atom": -7.562547372, "formation_energy_per_atom": -3.306972093, "energy_above_hull": 0.0, "is_stable": true, "equilibrium_reaction_energy_per_atom": null, "decomposes_to": null, "xas": null, "grain_boundaries": null, "band_gap": 7.7173, "cbm": null, "vbm": null, "efermi": -4.95091498, "is_gap_direct": null, "is_metal": null, "es_source_calc_id": null, "bandstructure": null, "dos": null, "dos_energy_up": null, "dos_energy_down": null, "is_magnetic": null, "ordering": null, "total_magnetization": 0.0, "total_magnetization_normalized_vol": null, "total_magnetization_normalized_formula_units": null, "num_magnetic_sites": null, "num_unique_magnetic_sites": null, "types_of_magnetic_species": null, "bulk_modulus": null, "shear_modulus": null, "universal_anisotropy": null, "homogeneous_poisson": null, "e_total": null, "e_ionic": null, "e_electronic": null, "n": null, "e_ij_max": null, "weighted_surface_energy_EV_PER_ANG2": null, "weighted_surface_energy": null, "weighted_work_function": null, "surface_anisotropy": null, "shape_factor": null, "has_reconstructed": null, "possible_species": null, "has_props": null, "theoretical": null, "database_IDs": null, "fields_not_requested": ["builder_meta", "nsites", "elements", "nelements", "composition", "composition_reduced", "chemsys", "symmetry", "property_name", "deprecated", "deprecation_reasons", "last_updated", "origins", "warnings", "task_ids", "uncorrected_energy_per_atom", "equilibrium_reaction_energy_per_atom", "decomposes_to", "xas", "grain_boundaries", "cbm", "vbm", "is_gap_direct", "is_metal", "es_source_calc_id", "bandstructure", "dos", "dos_energy_up", "dos_energy_down", "is_magnetic", "ordering", "total_magnetization_normalized_vol", "total_magnetization_normalized_formula_units", "num_magnetic_sites", "num_unique_magnetic_sites", "types_of_magnetic_species", "bulk_modulus", "shear_modulus", "universal_anisotropy", "homogeneous_poisson", "e_total", "e_ionic", "e_electronic", "n", "e_ij_max", "weighted_surface_energy_EV_PER_ANG2", "weighted_surface_energy", "weighted_work_function", "surface_anisotropy", "shape_factor", "has_reconstructed", "possible_species", "has_props", "theoretical", "database_IDs"]}