{
  "builder_meta": null,
  "nsites": null,
  "elements": null,
  "nelements": null,
  "composition": null,
  "composition_reduced": null,
  "formula_pretty": "SiH4",
  "formula_anonymous": "AB4",
  "chemsys": null,
  "volume": 274.7684273612943,
  "density": 0.776391457407485,
  "density_atomic": 13.738421368064715,
  "symmetry": null,
  "property_name": null,
  "material_id": "mp-23739",
  "deprecated": null,
  "deprecation_reasons": null,
  "last_updated": null,
  "origins": null,
  "warnings": null,
  "structure": {
    "@module": "pymatgen.core.structure",
    "@class": "Structure",
    "charge": 0,
    "lattice": {
      "matrix": [
        [4.95676104, 0.0, 0.0],
        [0.0, 7.33785361, -1.8026962100000001],
        [0.0, 0.05224856, 7.54156102]
      ],
      "pbc": [true, true, true],
      "a": 4.95676104,
      "b": 7.556044549057291,
      "c": 7.5417420090059775,
      "alpha": 103.40560799046577,
      "beta": 90.0,
      "gamma": 90.0,
      "volume": 274.7684273612943
    },
    "properties": {},
    "sites": [
      {
        "species": [{ "element": "Si", "occu": 1 }],
        "abc": [0.92814948, 0.86114827, 0.24892646000000002],
        "properties": { "magmom": -0.0 },
        "label": "Si",
        "xyz": [4.600615181760259, 6.331985990845652, 0.32490536500553224]
      },
      {
        "species": [{ "element": "Si", "occu": 1 }],
        "abc": [0.42814948, 0.6388517300000001, 0.75107354],
        "properties": { "magmom": -0.0 },
        "label": "Si",
        "xyz": [2.122234661760259, 4.727042984154348, 4.512611339994467]
      },
      {
        "species": [{ "element": "Si", "occu": 1 }],
        "abc": [0.07185052, 0.13885173, 0.75107354],
        "properties": { "magmom": -0.0 },
        "label": "Si",
        "xyz": [0.3561458582397408, 1.0581161791543476, 5.413959444994467]
      },
      {
        "species": [{ "element": "Si", "occu": 1 }],
        "abc": [0.57185052, 0.36114827, 0.24892646000000002],
        "properties": { "magmom": -0.0 },
        "label": "Si",
        "xyz": [2.8345263782397407, 2.663059185845652, 1.2262534700055325]
      },
      {
        "species": [{ "element": "H", "occu": 1 }],
        "abc": [0.06441839, 0.02025849, 0.20542565000000002],
        "properties": { "magmom": 0.0 },
        "label": "H",
        "xyz": [0.3193065658115256, 0.1593870283792129, 1.51271017140484]
      },
      {
        "species": [{ "element": "H", "occu": 1 }],
        "abc": [0.56441839, 0.47974151000000004, 0.79457435],
        "properties": { "magmom": 0.0 },
        "label": "H",
        "xyz": [2.7976870858115257, 3.561788336620787, 5.1275027435951595]
      },
      {
        "species": [{ "element": "H", "occu": 1 }],
        "abc": [0.9355816100000001, 0.97974151, 0.79457435],
        "properties": { "magmom": 0.0 },
        "label": "H",
        "xyz": [4.637454474188474, 7.230715141620786, 4.22615463859516]
      },
      {
        "species": [{ "element": "H", "occu": 1 }],
        "abc": [0.43558161, 0.52025849, 0.20542565000000002],
        "properties": { "magmom": 0.0 },
        "label": "H",
        "xyz": [2.1590739541884743, 3.828313833379213, 0.61136206640484]
      },
      {
        "species": [{ "element": "H", "occu": 1 }],
        "abc": [0.56655858, 0.20703399, 0.08681364],
        "properties": { "magmom": 0.0 },
        "label": "H",
        "xyz": [2.8082954962217235, 1.5237209985925622, 0.2814909743141349]
      },
      {
        "species": [{ "element": "H", "occu": 1 }],
        "abc": [0.06655858, 0.29296601, 0.91318636],
        "properties": { "magmom": 0.0 },
        "label": "H",
        "xyz": [0.3299149762217232, 2.1974543664074377, 6.358721940685864]
      },
      {
        "species": [{ "element": "H", "occu": 1 }],
        "abc": [0.43344142, 0.79296601, 0.91318636],
        "properties": { "magmom": 0.0 },
        "label": "H",
        "xyz": [2.148465543778277, 5.866381171407437, 5.457373835685864]
      },
      {
        "species": [{ "element": "H", "occu": 1 }],
        "abc": [0.93344142, 0.70703399, 0.08681364],
        "properties": { "magmom": 0.0 },
        "label": "H",
        "xyz": [4.6268460637782765, 5.192647803592562, -0.6198571306858652]
      },
      {
        "species": [{ "element": "H", "occu": 1 }],
        "abc": [0.85487773, 0.40900181, 0.30246828000000003],
        "properties": { "magmom": 0.0 },
        "label": "H",
        "xyz": [4.237424626027639, 3.016998940080711, 1.5437769774643053]
      },
      {
        "species": [{ "element": "H", "occu": 1 }],
        "abc": [0.35487773, 0.09099819, 0.69753172],
        "properties": { "magmom": 0.0 },
        "label": "H",
        "xyz": [1.7590441060276392, 0.7041764249192892, 5.096435937535694]
      },
      {
        "species": [{ "element": "H", "occu": 1 }],
        "abc": [0.14512227, 0.59099819, 0.69753172],
        "properties": { "magmom": 0.0 },
        "label": "H",
        "xyz": [0.7193364139723608, 4.3731032299192885, 4.195087832535694]
      },
      {
        "species": [{ "element": "H", "occu": 1 }],
        "abc": [0.64512227, 0.90900181, 0.30246828000000003],
        "properties": { "magmom": 0.0 },
        "label": "H",
        "xyz": [3.1977169339723606, 6.685925745080711, 0.6424288724643052]
      },
      {
        "species": [{ "element": "H", "occu": 1 }],
        "abc": [0.42962286, 0.30814979, 0.40152134],
        "properties": { "magmom": -0.0 },
        "label": "H",
        "xyz": [2.1295378543413745, 2.282136960796512, 2.4725972278968706]
      },
      {
        "species": [{ "element": "H", "occu": 1 }],
        "abc": [0.92962286, 0.19185021, 0.59847866],
        "properties": { "magmom": -0.0 },
        "label": "H",
        "xyz": [4.6079183743413745, 1.4390384042034876, 4.16761568710313]
      },
      {
        "species": [{ "element": "H", "occu": 1 }],
        "abc": [0.5703771400000001, 0.69185021, 0.59847866],
        "properties": { "magmom": -0.0 },
        "label": "H",
        "xyz": [2.827223185658626, 5.107965209203488, 3.2662675821031293]
      },
      {
        "species": [{ "element": "H", "occu": 1 }],
        "abc": [0.07037714, 0.80814979, 0.40152134],
        "properties": { "magmom": -0.0 },
        "label": "H",
        "xyz": [0.3488426656586256, 5.951063765796512, 1.5712491228968706]
      }
    ]
  },
  "task_ids": null,
  "uncorrected_energy_per_atom": null,
  "energy_per_atom": -4.5270602605,
  "formation_energy_per_atom": -0.008217420500000001,
  "energy_above_hull": 0.0,
  "is_stable": true,
  "equilibrium_reaction_energy_per_atom": null,
  "decomposes_to": null,
  "xas": null,
  "grain_boundaries": null,
  "band_gap": 6.562100000000001,
  "cbm": null,
  "vbm": null,
  "efermi": -4.05406389,
  "is_gap_direct": null,
  "is_metal": null,
  "es_source_calc_id": null,
  "bandstructure": null,
  "dos": null,
  "dos_energy_up": null,
  "dos_energy_down": null,
  "is_magnetic": null,
  "ordering": null,
  "total_magnetization": 0.0,
  "total_magnetization_normalized_vol": null,
  "total_magnetization_normalized_formula_units": null,
  "num_magnetic_sites": null,
  "num_unique_magnetic_sites": null,
  "types_of_magnetic_species": null,
  "bulk_modulus": null,
  "shear_modulus": null,
  "universal_anisotropy": null,
  "homogeneous_poisson": null,
  "e_total": null,
  "e_ionic": null,
  "e_electronic": null,
  "n": null,
  "e_ij_max": null,
  "weighted_surface_energy_EV_PER_ANG2": null,
  "weighted_surface_energy": null,
  "weighted_work_function": null,
  "surface_anisotropy": null,
  "shape_factor": null,
  "has_reconstructed": null,
  "possible_species": null,
  "has_props": null,
  "theoretical": null,
  "database_IDs": null,
  "fields_not_requested": [
    "builder_meta",
    "nsites",
    "elements",
    "nelements",
    "composition",
    "composition_reduced",
    "chemsys",
    "symmetry",
    "property_name",
    "deprecated",
    "deprecation_reasons",
    "last_updated",
    "origins",
    "warnings",
    "task_ids",
    "uncorrected_energy_per_atom",
    "equilibrium_reaction_energy_per_atom",
    "decomposes_to",
    "xas",
    "grain_boundaries",
    "cbm",
    "vbm",
    "is_gap_direct",
    "is_metal",
    "es_source_calc_id",
    "bandstructure",
    "dos",
    "dos_energy_up",
    "dos_energy_down",
    "is_magnetic",
    "ordering",
    "total_magnetization_normalized_vol",
    "total_magnetization_normalized_formula_units",
    "num_magnetic_sites",
    "num_unique_magnetic_sites",
    "types_of_magnetic_species",
    "bulk_modulus",
    "shear_modulus",
    "universal_anisotropy",
    "homogeneous_poisson",
    "e_total",
    "e_ionic",
    "e_electronic",
    "n",
    "e_ij_max",
    "weighted_surface_energy_EV_PER_ANG2",
    "weighted_surface_energy",
    "weighted_work_function",
    "surface_anisotropy",
    "shape_factor",
    "has_reconstructed",
    "possible_species",
    "has_props",
    "theoretical",
    "database_IDs"
  ]
}
