{"builder_meta": null, "nsites": null, "elements": null, "nelements": null, "composition": null, "composition_reduced": null, "formula_pretty": "SiH8", "formula_anonymous": "AB8", "chemsys": null, "volume": 233.54578634398237, "density": 0.514047895010128, "density_atomic": 12.974765907999021, "symmetry": null, "property_name": null, "material_id": "mp-1188318", "deprecated": null, "deprecation_reasons": null, "last_updated": null, "origins": null, "warnings": null, "structure": {"@module": "pymatgen.core.structure", "@class": "Structure", "charge": 0, "lattice": {"matrix": [[5.53813922, 0.0, 0.0], [0.0, 5.55217752, 0.0], [0.0, 0.0, 7.5952981]], "pbc": [true, true, true], "a": 5.53813922, "b": 5.55217752, "c": 7.5952981, "alpha": 90.0, "beta": 90.0, "gamma": 90.0, "volume": 233.54578634398237}, "properties": {}, "sites": [{"species": [{"element": "Si", "occu": 1}], "abc": [0.5, 0.24762759999999903, 0.858533], "properties": {"magmom": -0.0}, "label": "Si", "xyz": [2.76906961, 1.3748723940515466, 6.5208140636872995]}, {"species": [{"element": "Si", "occu": 1}], "abc": [0.0, 0.752372399999999, 0.358533], "properties": {"magmom": -0.0}, "label": "Si", "xyz": [0.0, 4.177305125948442, 2.7231650136873]}, {"species": [{"element": "H", "occu": 1}], "abc": [0.5, 0.46506189000000003, 0.97153279], "properties": {"magmom": 0.0}, "label": "H", "xyz": [2.76906961, 2.582106171066713, 7.379081153974699]}, {"species": [{"element": "H", "occu": 1}], "abc": [0.0, 0.53493811, 0.47153279000000003], "properties": {"magmom": 0.0}, "label": "H", "xyz": [0.0, 2.970071348933287, 3.581432103974699]}, {"species": [{"element": "H", "occu": 1}], "abc": [0.5, 0.0288536, 0.97013512], "properties": {"magmom": 0.0}, "label": "H", "xyz": [2.76906961, 0.16020030929107199, 7.368465433679272]}, {"species": [{"element": "H", "occu": 1}], "abc": [0.0, 0.9711464, 0.47013512], "properties": {"magmom": 0.0}, "label": "H", "xyz": [0.0, 5.391977210708927, 3.570816383679272]}, {"species": [{"element": "H", "occu": 1}], "abc": [0.71821092, 0.24770207, 0.74582286], "properties": {"magmom": 0.0}, "label": "H", "xyz": [3.977552064284282, 1.3752858647114663, 5.664746951494566]}, {"species": [{"element": "H", "occu": 1}], "abc": [0.28178908, 0.24770207, 0.74582286], "properties": {"magmom": 0.0}, "label": "H", "xyz": [1.5605871557157176, 1.3752858647114663, 5.664746951494566]}, {"species": [{"element": "H", "occu": 1}], "abc": [0.78178908, 0.75229793, 0.24582286], "properties": {"magmom": 0.0}, "label": "H", "xyz": [4.3296567657157174, 4.176891655288533, 1.8670979014945661]}, {"species": [{"element": "H", "occu": 1}], "abc": [0.21821092, 0.75229793, 0.24582286], "properties": {"magmom": 0.0}, "label": "H", "xyz": [1.2084824542842822, 4.176891655288533, 1.8670979014945661]}, {"species": [{"element": "H", "occu": 1}], "abc": [0.5, 0.28684856000000003, 0.3124328], "properties": {"magmom": 0.0}, "label": "H", "xyz": [2.76906961, 1.5926341264763713, 2.37302025221768]}, {"species": [{"element": "H", "occu": 1}], "abc": [0.0, 0.71315144, 0.8124328], "properties": {"magmom": 0.0}, "label": "H", "xyz": [0.0, 3.9595433935236284, 6.1706693022176795]}, {"species": [{"element": "H", "occu": 1}], "abc": [0.5, 0.22962045, 0.40089126], "properties": {"magmom": 0.0}, "label": "H", "xyz": [2.76906961, 1.274893500622284, 3.044888625384606]}, {"species": [{"element": "H", "occu": 1}], "abc": [0.0, 0.77037955, 0.90089126], "properties": {"magmom": 0.0}, "label": "H", "xyz": [0.0, 4.277284019377716, 6.842537675384606]}, {"species": [{"element": "H", "occu": 1}], "abc": [0.5, 0.7587354, 0.65183227], "properties": {"magmom": 0.0}, "label": "H", "xyz": [2.76906961, 4.212633631508208, 4.9508604018496865]}, {"species": [{"element": "H", "occu": 1}], "abc": [0.0, 0.2412646, 0.15183227], "properties": {"magmom": 0.0}, "label": "H", "xyz": [0.0, 1.3395438884917918, 1.153211351849687]}, {"species": [{"element": "H", "occu": 1}], "abc": [0.5, 0.7067850999999991, 0.56159803], "properties": {"magmom": 0.0}, "label": "H", "xyz": [2.76906961, 3.9241963436909466, 4.265504450222743]}, {"species": [{"element": "H", "occu": 1}], "abc": [0.0, 0.2932149, 0.06159803], "properties": {"magmom": 0.0}, "label": "H", "xyz": [0.0, 1.627981176309048, 0.46785540022274297]}]}, "task_ids": null, "uncorrected_energy_per_atom": null, "energy_per_atom": -4.049096685555556, "formation_energy_per_atom": -0.0030229294444440004, "energy_above_hull": 0.0015423041666660002, "is_stable": false, "equilibrium_reaction_energy_per_atom": null, "decomposes_to": null, "xas": null, "grain_boundaries": null, "band_gap": 7.028499999999999, "cbm": null, "vbm": null, "efermi": -4.65125577, "is_gap_direct": null, "is_metal": null, "es_source_calc_id": null, "bandstructure": null, "dos": null, "dos_energy_up": null, "dos_energy_down": null, "is_magnetic": null, "ordering": null, "total_magnetization": 0.0, "total_magnetization_normalized_vol": null, "total_magnetization_normalized_formula_units": null, "num_magnetic_sites": null, "num_unique_magnetic_sites": null, "types_of_magnetic_species": null, "bulk_modulus": null, "shear_modulus": null, "universal_anisotropy": null, "homogeneous_poisson": null, "e_total": null, "e_ionic": null, "e_electronic": null, "n": null, "e_ij_max": null, "weighted_surface_energy_EV_PER_ANG2": null, "weighted_surface_energy": null, "weighted_work_function": null, "surface_anisotropy": null, "shape_factor": null, "has_reconstructed": null, "possible_species": null, "has_props": null, "theoretical": null, "database_IDs": null, "fields_not_requested": ["builder_meta", "nsites", "elements", "nelements", "composition", "composition_reduced", "chemsys", "symmetry", "property_name", "deprecated", "deprecation_reasons", "last_updated", "origins", "warnings", "task_ids", "uncorrected_energy_per_atom", "equilibrium_reaction_energy_per_atom", "decomposes_to", "xas", "grain_boundaries", "cbm", "vbm", "is_gap_direct", "is_metal", "es_source_calc_id", "bandstructure", "dos", "dos_energy_up", "dos_energy_down", "is_magnetic", "ordering", "total_magnetization_normalized_vol", "total_magnetization_normalized_formula_units", "num_magnetic_sites", "num_unique_magnetic_sites", "types_of_magnetic_species", "bulk_modulus", "shear_modulus", "universal_anisotropy", "homogeneous_poisson", "e_total", "e_ionic", "e_electronic", "n", "e_ij_max", "weighted_surface_energy_EV_PER_ANG2", "weighted_surface_energy", "weighted_work_function", "surface_anisotropy", "shape_factor", "has_reconstructed", "possible_species", "has_props", "theoretical", "database_IDs"]}