{
  "builder_meta": null,
  "nsites": null,
  "elements": null,
  "nelements": null,
  "composition": null,
  "composition_reduced": null,
  "formula_pretty": "SiHg3",
  "formula_anonymous": "AB3",
  "chemsys": null,
  "volume": 199.8964208709701,
  "density": 10.464416116164356,
  "density_atomic": 24.987052608871263,
  "symmetry": null,
  "property_name": null,
  "material_id": "mp-2790577",
  "deprecated": null,
  "deprecation_reasons": null,
  "last_updated": null,
  "origins": null,
  "warnings": null,
  "structure": {
    "@module": "pymatgen.core.structure",
    "@class": "Structure",
    "charge": 0.0,
    "lattice": {
      "matrix": [
        [3.82274433, -6.6211873, -0.0],
        [3.82274433, 6.6211873, 0.0],
        [0.0, 0.0, 3.94878871]
      ],
      "pbc": [true, true, true],
      "a": 7.645488570014897,
      "b": 7.645488570014897,
      "c": 3.94878871,
      "alpha": 90.0,
      "beta": 90.0,
      "gamma": 119.99999922132297,
      "volume": 199.8964208709701
    },
    "properties": {},
    "sites": [
      {
        "species": [{ "element": "Si", "occu": 1 }],
        "abc": [0.333333, 0.666667, 0.75],
        "properties": { "magmom": 0.0 },
        "label": "Si",
        "xyz": [3.82274433, 2.2070668474582, 2.9615915325]
      },
      {
        "species": [{ "element": "Si", "occu": 1 }],
        "abc": [0.666667, 0.333333, 0.25],
        "properties": { "magmom": -0.0 },
        "label": "Si",
        "xyz": [3.82274433, -2.2070668474582, 0.9871971775]
      },
      {
        "species": [{ "element": "Hg", "occu": 1 }],
        "abc": [0.17989895, 0.35979691, 0.25],
        "properties": { "magmom": -0.0 },
        "label": "Hg",
        "xyz": [2.063119288739474, 1.191138088047908, 0.9871971775]
      },
      {
        "species": [{ "element": "Hg", "occu": 1 }],
        "abc": [0.64020309, 0.82010105, 0.25],
        "properties": { "magmom": -0.0 },
        "label": "Hg",
        "xyz": [5.582369371260526, 1.191138088047909, 0.9871971775]
      },
      {
        "species": [{ "element": "Hg", "occu": 1 }],
        "abc": [0.17989895, 0.82010105, 0.25],
        "properties": { "magmom": -0.0 },
        "label": "Hg",
        "xyz": [3.82274433, 4.23889801395333, 0.9871971775]
      },
      {
        "species": [{ "element": "Hg", "occu": 1 }],
        "abc": [0.82010105, 0.64020309, 0.75],
        "properties": { "magmom": 0.0 },
        "label": "Hg",
        "xyz": [5.582369371260526, -1.191138088047909, 2.9615915325]
      },
      {
        "species": [{ "element": "Hg", "occu": 1 }],
        "abc": [0.35979691, 0.17989895, 0.75],
        "properties": { "magmom": 0.0 },
        "label": "Hg",
        "xyz": [2.063119288739474, -1.191138088047908, 2.9615915325]
      },
      {
        "species": [{ "element": "Hg", "occu": 1 }],
        "abc": [0.82010105, 0.17989895, 0.75],
        "properties": { "magmom": 0.0 },
        "label": "Hg",
        "xyz": [3.82274433, -4.23889801395333, 2.9615915325]
      }
    ]
  },
  "task_ids": null,
  "uncorrected_energy_per_atom": null,
  "energy_per_atom": -38.821145614375,
  "formation_energy_per_atom": 0.398150426249998,
  "energy_above_hull": 0.398150426249998,
  "is_stable": false,
  "equilibrium_reaction_energy_per_atom": null,
  "decomposes_to": null,
  "xas": null,
  "grain_boundaries": null,
  "band_gap": 0.0,
  "cbm": null,
  "vbm": null,
  "efermi": 2.88569713,
  "is_gap_direct": null,
  "is_metal": null,
  "es_source_calc_id": null,
  "bandstructure": null,
  "dos": null,
  "dos_energy_up": null,
  "dos_energy_down": null,
  "is_magnetic": null,
  "ordering": null,
  "total_magnetization": 0.0,
  "total_magnetization_normalized_vol": null,
  "total_magnetization_normalized_formula_units": null,
  "num_magnetic_sites": null,
  "num_unique_magnetic_sites": null,
  "types_of_magnetic_species": null,
  "bulk_modulus": null,
  "shear_modulus": null,
  "universal_anisotropy": null,
  "homogeneous_poisson": null,
  "e_total": null,
  "e_ionic": null,
  "e_electronic": null,
  "n": null,
  "e_ij_max": null,
  "weighted_surface_energy_EV_PER_ANG2": null,
  "weighted_surface_energy": null,
  "weighted_work_function": null,
  "surface_anisotropy": null,
  "shape_factor": null,
  "has_reconstructed": null,
  "possible_species": null,
  "has_props": null,
  "theoretical": null,
  "database_IDs": null,
  "fields_not_requested": [
    "builder_meta",
    "nsites",
    "elements",
    "nelements",
    "composition",
    "composition_reduced",
    "chemsys",
    "symmetry",
    "property_name",
    "deprecated",
    "deprecation_reasons",
    "last_updated",
    "origins",
    "warnings",
    "task_ids",
    "uncorrected_energy_per_atom",
    "equilibrium_reaction_energy_per_atom",
    "decomposes_to",
    "xas",
    "grain_boundaries",
    "cbm",
    "vbm",
    "is_gap_direct",
    "is_metal",
    "es_source_calc_id",
    "bandstructure",
    "dos",
    "dos_energy_up",
    "dos_energy_down",
    "is_magnetic",
    "ordering",
    "total_magnetization_normalized_vol",
    "total_magnetization_normalized_formula_units",
    "num_magnetic_sites",
    "num_unique_magnetic_sites",
    "types_of_magnetic_species",
    "bulk_modulus",
    "shear_modulus",
    "universal_anisotropy",
    "homogeneous_poisson",
    "e_total",
    "e_ionic",
    "e_electronic",
    "n",
    "e_ij_max",
    "weighted_surface_energy_EV_PER_ANG2",
    "weighted_surface_energy",
    "weighted_work_function",
    "surface_anisotropy",
    "shape_factor",
    "has_reconstructed",
    "possible_species",
    "has_props",
    "theoretical",
    "database_IDs"
  ]
}
