{
  "builder_meta": null,
  "nsites": null,
  "elements": null,
  "nelements": null,
  "composition": null,
  "composition_reduced": null,
  "formula_pretty": "SiI2",
  "formula_anonymous": "AB2",
  "chemsys": null,
  "volume": 2958.122066643363,
  "density": 3.164823626149328,
  "density_atomic": 49.30203444405605,
  "symmetry": null,
  "property_name": null,
  "material_id": "mp-541053",
  "deprecated": null,
  "deprecation_reasons": null,
  "last_updated": null,
  "origins": null,
  "warnings": null,
  "structure": {
    "@module": "pymatgen.core.structure",
    "@class": "Structure",
    "charge": 0,
    "lattice": {
      "matrix": [
        [17.017163, 0.0, 0.0],
        [0.0, 11.592207, 0.0],
        [0.0, 8.598447, 14.995564]
      ],
      "pbc": [true, true, true],
      "a": 17.017163,
      "b": 11.592207,
      "c": 17.285839016082065,
      "alpha": 60.17006769566936,
      "beta": 90.0,
      "gamma": 90.0,
      "volume": 2958.122066643363
    },
    "properties": {},
    "sites": [
      {
        "species": [{ "element": "Si", "occu": 1 }],
        "abc": [0.826352, 0.438235, 0.460715],
        "properties": { "magmom": 0.0 },
        "label": "Si",
        "xyz": [14.062166679376, 9.04154434425, 6.90868126826]
      },
      {
        "species": [{ "element": "Si", "occu": 1 }],
        "abc": [0.326352, 0.561765, 0.039285],
        "properties": { "magmom": 0.0 },
        "label": "Si",
        "xyz": [5.553585179375999, 6.849886155749999, 0.58910073174]
      },
      {
        "species": [{ "element": "Si", "occu": 1 }],
        "abc": [0.173648, 0.561765, 0.539285],
        "properties": { "magmom": 0.0 },
        "label": "Si",
        "xyz": [2.9549963206239998, 11.14910965575, 8.08688273174]
      },
      {
        "species": [{ "element": "Si", "occu": 1 }],
        "abc": [0.673648, 0.438235, 0.960715],
        "properties": { "magmom": 0.0 },
        "label": "Si",
        "xyz": [11.463577820624, 13.34076784425, 14.40646326826]
      },
      {
        "species": [{ "element": "Si", "occu": 1 }],
        "abc": [0.684541, 0.438793, 0.465325],
        "properties": { "magmom": 0.0 },
        "label": "Si",
        "xyz": [11.648945777183, 9.087651636426, 6.9778108183]
      },
      {
        "species": [{ "element": "Si", "occu": 1 }],
        "abc": [0.184540999999999, 0.561207, 0.034675],
        "properties": { "magmom": -0.0 },
        "label": "Si",
        "xyz": [3.140364277182983, 6.803778863574, 0.5199711817]
      },
      {
        "species": [{ "element": "Si", "occu": 1 }],
        "abc": [0.315459, 0.561207, 0.534675],
        "properties": { "magmom": -0.0 },
        "label": "Si",
        "xyz": [5.368217222817, 11.103002363574, 8.0177531817]
      },
      {
        "species": [{ "element": "Si", "occu": 1 }],
        "abc": [0.815458999999999, 0.438793, 0.965325],
        "properties": { "magmom": 0.0 },
        "label": "Si",
        "xyz": [13.876798722816984, 13.386875136426001, 14.475592818299999]
      },
      {
        "species": [{ "element": "Si", "occu": 1 }],
        "abc": [0.6455900000000001, 0.23108599999999901, 0.480668],
        "properties": { "magmom": -0.0 },
        "label": "Si",
        "xyz": [10.986110261170001, 6.811795069397989, 7.207887756752]
      },
      {
        "species": [{ "element": "Si", "occu": 1 }],
        "abc": [0.14559000000000002, 0.768914, 0.019332],
        "properties": { "magmom": -0.0 },
        "label": "Si",
        "xyz": [2.4775287611700003, 9.079635430602, 0.28989424324799995]
      },
      {
        "species": [{ "element": "Si", "occu": 1 }],
        "abc": [0.35441, 0.768914, 0.519332],
        "properties": { "magmom": -0.0 },
        "label": "Si",
        "xyz": [6.03105273883, 13.378858930602, 7.787676243248]
      },
      {
        "species": [{ "element": "Si", "occu": 1 }],
        "abc": [0.8544100000000001, 0.23108599999999901, 0.980668],
        "properties": { "magmom": -0.0 },
        "label": "Si",
        "xyz": [14.539634238830002, 11.111018569397988, 14.705669756752]
      },
      {
        "species": [{ "element": "Si", "occu": 1 }],
        "abc": [0.745887, 0.080107, 0.568655],
        "properties": { "magmom": 0.0 },
        "label": "Si",
        "xyz": [12.692880658581, 5.818166804934, 8.52730244642]
      },
      {
        "species": [{ "element": "Si", "occu": 1 }],
        "abc": [0.245887, 0.919893, 0.931345],
        "properties": { "magmom": 0.0 },
        "label": "Si",
        "xyz": [4.184299158581, 18.671710695065997, 13.966043553579999]
      },
      {
        "species": [{ "element": "Si", "occu": 1 }],
        "abc": [0.254113, 0.919893, 0.431345],
        "properties": { "magmom": 0.0 },
        "label": "Si",
        "xyz": [4.324282341419, 14.372487195065998, 6.46826155358]
      },
      {
        "species": [{ "element": "Si", "occu": 1 }],
        "abc": [0.754112999999999, 0.080107, 0.068655],
        "properties": { "magmom": 0.0 },
        "label": "Si",
        "xyz": [12.832863841418984, 1.518943304934, 1.0295204464199998]
      },
      {
        "species": [{ "element": "Si", "occu": 1 }],
        "abc": [0.865155, 0.207597999999999, 0.520776],
        "properties": { "magmom": 0.0 },
        "label": "Si",
        "xyz": [14.722483655265, 6.884383823657989, 7.809329837664]
      },
      {
        "species": [{ "element": "Si", "occu": 1 }],
        "abc": [0.365155, 0.792401999999999, 0.979224],
        "properties": { "magmom": 0.0 },
        "label": "Si",
        "xyz": [6.213902155265, 17.60549367634199, 14.684016162336]
      },
      {
        "species": [{ "element": "Si", "occu": 1 }],
        "abc": [0.134845, 0.792401999999999, 0.479224],
        "properties": { "magmom": 0.0 },
        "label": "Si",
        "xyz": [2.294679344735, 13.30627017634199, 7.1862341623359995]
      },
      {
        "species": [{ "element": "Si", "occu": 1 }],
        "abc": [0.634845, 0.207597999999999, 0.020776],
        "properties": { "magmom": 0.0 },
        "label": "Si",
        "xyz": [10.803260844735, 2.5851603236579885, 0.31154783766399996]
      },
      {
        "species": [{ "element": "I", "occu": 1 }],
        "abc": [0.871321, 0.574041999999999, 0.305516],
        "properties": { "magmom": -0.0 },
        "label": "I",
        "xyz": [14.827411482323, 9.281376824345989, 4.581384731024]
      },
      {
        "species": [{ "element": "I", "occu": 1 }],
        "abc": [0.371320999999999, 0.425958, 0.194484],
        "properties": { "magmom": -0.0 },
        "label": "I",
        "xyz": [6.318829982322983, 6.610053675654001, 2.916397268976]
      },
      {
        "species": [{ "element": "I", "occu": 1 }],
        "abc": [0.128679, 0.425958, 0.694484],
        "properties": { "magmom": -0.0 },
        "label": "I",
        "xyz": [2.1897515176769997, 10.909277175654001, 10.414179268976]
      },
      {
        "species": [{ "element": "I", "occu": 1 }],
        "abc": [0.628679, 0.574041999999999, 0.805516],
        "properties": { "magmom": -0.0 },
        "label": "I",
        "xyz": [10.698333017677, 13.58060032434599, 12.079166731024]
      },
      {
        "species": [{ "element": "I", "occu": 1 }],
        "abc": [0.8802000000000001, 0.529111, 0.551582999999999],
        "properties": { "magmom": -0.0 },
        "label": "I",
        "xyz": [14.978506872600002, 10.876321429577992, 8.271298177811985]
      },
      {
        "species": [{ "element": "I", "occu": 1 }],
        "abc": [0.38020000000000004, 0.470889, 0.948417],
        "properties": { "magmom": -0.0 },
        "label": "I",
        "xyz": [6.469925372600001, 13.613556070422, 14.222047822188]
      },
      {
        "species": [{ "element": "I", "occu": 1 }],
        "abc": [0.1198, 0.470889, 0.448416999999999],
        "properties": { "magmom": -0.0 },
        "label": "I",
        "xyz": [2.0386561274, 9.314332570421993, 6.724265822187985]
      },
      {
        "species": [{ "element": "I", "occu": 1 }],
        "abc": [0.6198, 0.529111, 0.051583],
        "properties": { "magmom": -0.0 },
        "label": "I",
        "xyz": [10.5472376274, 6.577097929578, 0.773516177812]
      },
      {
        "species": [{ "element": "I", "occu": 1 }],
        "abc": [0.641390999999999, 0.444127999999999, 0.599443],
        "properties": { "magmom": -0.0 },
        "label": "I",
        "xyz": [10.914655193732983, 10.302702575516989, 8.988985870852]
      },
      {
        "species": [{ "element": "I", "occu": 1 }],
        "abc": [0.141391, 0.555871999999999, 0.900556999999999],
        "properties": { "magmom": -0.0 },
        "label": "I",
        "xyz": [2.4060736937329996, 14.187174924482981, 13.504360129147985]
      },
      {
        "species": [{ "element": "I", "occu": 1 }],
        "abc": [0.358609, 0.555871999999999, 0.400557],
        "properties": { "magmom": -0.0 },
        "label": "I",
        "xyz": [6.102507806267, 9.887951424482988, 6.006578129148]
      },
      {
        "species": [{ "element": "I", "occu": 1 }],
        "abc": [0.858609, 0.444127999999999, 0.099442999999999],
        "properties": { "magmom": -0.0 },
        "label": "I",
        "xyz": [14.611089306266999, 6.00347907551698, 1.491203870851985]
      },
      {
        "species": [{ "element": "I", "occu": 1 }],
        "abc": [0.627630999999999, 0.626458, 0.33074000000000003],
        "properties": { "magmom": -0.0 },
        "label": "I",
        "xyz": [10.680499030852983, 10.105881173585999, 4.95963283736]
      },
      {
        "species": [{ "element": "I", "occu": 1 }],
        "abc": [0.127631, 0.373542, 0.16926000000000002],
        "properties": { "magmom": -0.0 },
        "label": "I",
        "xyz": [2.171917530853, 5.785549326413999, 2.5381491626400003]
      },
      {
        "species": [{ "element": "I", "occu": 1 }],
        "abc": [0.372369, 0.373542, 0.6692600000000001],
        "properties": { "magmom": -0.0 },
        "label": "I",
        "xyz": [6.336663969147, 10.084772826414, 10.03593116264]
      },
      {
        "species": [{ "element": "I", "occu": 1 }],
        "abc": [0.872369, 0.626458, 0.83074],
        "properties": { "magmom": -0.0 },
        "label": "I",
        "xyz": [14.845245469146999, 14.405104673585999, 12.45741483736]
      },
      {
        "species": [{ "element": "I", "occu": 1 }],
        "abc": [0.654934, 0.254691, 0.33126000000000005],
        "properties": { "magmom": -0.0 },
        "label": "I",
        "xyz": [11.145118632242001, 5.800752346257001, 4.967430530640001]
      },
      {
        "species": [{ "element": "I", "occu": 1 }],
        "abc": [0.154934, 0.745309, 0.16874],
        "properties": { "magmom": -0.0 },
        "label": "I",
        "xyz": [2.6365371322419997, 10.090678153743001, 2.53035146936]
      },
      {
        "species": [{ "element": "I", "occu": 1 }],
        "abc": [0.345066, 0.745309, 0.66874],
        "properties": { "magmom": -0.0 },
        "label": "I",
        "xyz": [5.872044367758, 14.389901653743001, 10.02813346936]
      },
      {
        "species": [{ "element": "I", "occu": 1 }],
        "abc": [0.845066, 0.254691, 0.8312600000000001],
        "properties": { "magmom": -0.0 },
        "label": "I",
        "xyz": [14.380625867757999, 10.099975846257001, 12.465212530640002]
      },
      {
        "species": [{ "element": "I", "occu": 1 }],
        "abc": [0.513423, 0.160849, 0.544150999999999],
        "properties": { "magmom": -0.0 },
        "label": "I",
        "xyz": [8.737002878949, 6.5434484372399915, 8.159851146163986]
      },
      {
        "species": [{ "element": "I", "occu": 1 }],
        "abc": [0.013423, 0.839151, 0.955849],
        "properties": { "magmom": -0.0 },
        "label": "I",
        "xyz": [0.228421378949, 17.946429062759996, 14.333494853836]
      },
      {
        "species": [{ "element": "I", "occu": 1 }],
        "abc": [0.486577, 0.839151, 0.455849],
        "properties": { "magmom": -0.0 },
        "label": "I",
        "xyz": [8.280160121050999, 13.64720556276, 6.835712853836]
      },
      {
        "species": [{ "element": "I", "occu": 1 }],
        "abc": [0.986576999999999, 0.160849, 0.044150999999999004],
        "properties": { "magmom": -0.0 },
        "label": "I",
        "xyz": [16.788741621050985, 2.2442249372399914, 0.662069146163985]
      },
      {
        "species": [{ "element": "I", "occu": 1 }],
        "abc": [0.720488999999999, 0.017946999999999002, 0.724969],
        "properties": { "magmom": -0.0 },
        "label": "I",
        "xyz": [12.260678752706983, 6.441652862171988, 10.871319037515999]
      },
      {
        "species": [{ "element": "I", "occu": 1 }],
        "abc": [0.220489, 0.982053, 0.775030999999999],
        "properties": { "magmom": -0.0 },
        "label": "I",
        "xyz": [3.752097252707, 18.048224637827992, 11.622026962483986]
      },
      {
        "species": [{ "element": "I", "occu": 1 }],
        "abc": [0.279511, 0.982053, 0.275030999999999],
        "properties": { "magmom": -0.0 },
        "label": "I",
        "xyz": [4.756484247293, 13.74900113782799, 4.124244962483985]
      },
      {
        "species": [{ "element": "I", "occu": 1 }],
        "abc": [0.779511, 0.017946999999999002, 0.224969],
        "properties": { "magmom": -0.0 },
        "label": "I",
        "xyz": [13.265065747292999, 2.1424293621719883, 3.373537037516]
      },
      {
        "species": [{ "element": "I", "occu": 1 }],
        "abc": [0.751085, 0.881234, 0.551963],
        "properties": { "magmom": -0.0 },
        "label": "I",
        "xyz": [12.781335871855, 14.961471544899, 8.276996492132]
      },
      {
        "species": [{ "element": "I", "occu": 1 }],
        "abc": [0.251085, 0.118766, 0.948036999999999],
        "properties": { "magmom": -0.0 },
        "label": "I",
        "xyz": [4.272754371855, 9.528405955100991, 14.216349507867985]
      },
      {
        "species": [{ "element": "I", "occu": 1 }],
        "abc": [0.248915, 0.118766, 0.448036999999999],
        "properties": { "magmom": -0.0 },
        "label": "I",
        "xyz": [4.235827128145, 5.229182455100991, 6.718567507867985]
      },
      {
        "species": [{ "element": "I", "occu": 1 }],
        "abc": [0.748915, 0.881234, 0.051962999999999],
        "properties": { "magmom": -0.0 },
        "label": "I",
        "xyz": [12.744408628145, 10.662248044898991, 0.779214492131985]
      },
      {
        "species": [{ "element": "I", "occu": 1 }],
        "abc": [0.925195999999999, 0.176397, 0.402816],
        "properties": { "magmom": -0.0 },
        "label": "I",
        "xyz": [15.744211138947984, 5.508422564931, 6.040453108224]
      },
      {
        "species": [{ "element": "I", "occu": 1 }],
        "abc": [0.425195999999999, 0.823603, 0.09718399999999901],
        "properties": { "magmom": -0.0 },
        "label": "I",
        "xyz": [7.235629638947984, 10.38300793506899, 1.457328891775985]
      },
      {
        "species": [{ "element": "I", "occu": 1 }],
        "abc": [0.074804, 0.823603, 0.597183999999999],
        "properties": { "magmom": -0.0 },
        "label": "I",
        "xyz": [1.2729518610519999, 14.682231435068992, 8.955110891775986]
      },
      {
        "species": [{ "element": "I", "occu": 1 }],
        "abc": [0.574804, 0.176397, 0.902816],
        "properties": { "magmom": -0.0 },
        "label": "I",
        "xyz": [9.781533361052, 9.807646064931, 13.538235108223999]
      },
      {
        "species": [{ "element": "I", "occu": 1 }],
        "abc": [0.95735, 0.132632, 0.646716],
        "properties": { "magmom": -0.0 },
        "label": "I",
        "xyz": [16.291380998050002, 7.098250848876, 9.697871167824]
      },
      {
        "species": [{ "element": "I", "occu": 1 }],
        "abc": [0.45735000000000003, 0.867367999999999, 0.853283999999999],
        "properties": { "magmom": -0.0 },
        "label": "I",
        "xyz": [7.782799498050001, 17.391626651123982, 12.795474832175985]
      },
      {
        "species": [{ "element": "I", "occu": 1 }],
        "abc": [0.04265, 0.867367999999999, 0.353284],
        "properties": { "magmom": -0.0 },
        "label": "I",
        "xyz": [0.72578200195, 13.092403151123989, 5.297692832176]
      },
      {
        "species": [{ "element": "I", "occu": 1 }],
        "abc": [0.5426500000000001, 0.132632, 0.146715999999999],
        "properties": { "magmom": -0.0 },
        "label": "I",
        "xyz": [9.234363501950002, 2.799027348875992, 2.200089167823985]
      }
    ]
  },
  "task_ids": null,
  "uncorrected_energy_per_atom": null,
  "energy_per_atom": -3.3823431533333332,
  "formation_energy_per_atom": -0.557895399999999,
  "energy_above_hull": 0.025878015555554003,
  "is_stable": false,
  "equilibrium_reaction_energy_per_atom": null,
  "decomposes_to": null,
  "xas": null,
  "grain_boundaries": null,
  "band_gap": 2.3855,
  "cbm": null,
  "vbm": null,
  "efermi": 1.07123565,
  "is_gap_direct": null,
  "is_metal": null,
  "es_source_calc_id": null,
  "bandstructure": null,
  "dos": null,
  "dos_energy_up": null,
  "dos_energy_down": null,
  "is_magnetic": null,
  "ordering": null,
  "total_magnetization": 0.0385111,
  "total_magnetization_normalized_vol": null,
  "total_magnetization_normalized_formula_units": null,
  "num_magnetic_sites": null,
  "num_unique_magnetic_sites": null,
  "types_of_magnetic_species": null,
  "bulk_modulus": null,
  "shear_modulus": null,
  "universal_anisotropy": null,
  "homogeneous_poisson": null,
  "e_total": null,
  "e_ionic": null,
  "e_electronic": null,
  "n": null,
  "e_ij_max": null,
  "weighted_surface_energy_EV_PER_ANG2": null,
  "weighted_surface_energy": null,
  "weighted_work_function": null,
  "surface_anisotropy": null,
  "shape_factor": null,
  "has_reconstructed": null,
  "possible_species": null,
  "has_props": null,
  "theoretical": null,
  "database_IDs": null,
  "fields_not_requested": [
    "builder_meta",
    "nsites",
    "elements",
    "nelements",
    "composition",
    "composition_reduced",
    "chemsys",
    "symmetry",
    "property_name",
    "deprecated",
    "deprecation_reasons",
    "last_updated",
    "origins",
    "warnings",
    "task_ids",
    "uncorrected_energy_per_atom",
    "equilibrium_reaction_energy_per_atom",
    "decomposes_to",
    "xas",
    "grain_boundaries",
    "cbm",
    "vbm",
    "is_gap_direct",
    "is_metal",
    "es_source_calc_id",
    "bandstructure",
    "dos",
    "dos_energy_up",
    "dos_energy_down",
    "is_magnetic",
    "ordering",
    "total_magnetization_normalized_vol",
    "total_magnetization_normalized_formula_units",
    "num_magnetic_sites",
    "num_unique_magnetic_sites",
    "types_of_magnetic_species",
    "bulk_modulus",
    "shear_modulus",
    "universal_anisotropy",
    "homogeneous_poisson",
    "e_total",
    "e_ionic",
    "e_electronic",
    "n",
    "e_ij_max",
    "weighted_surface_energy_EV_PER_ANG2",
    "weighted_surface_energy",
    "weighted_work_function",
    "surface_anisotropy",
    "shape_factor",
    "has_reconstructed",
    "possible_species",
    "has_props",
    "theoretical",
    "database_IDs"
  ]
}
