{
  "builder_meta": null,
  "nsites": null,
  "elements": null,
  "nelements": null,
  "composition": null,
  "composition_reduced": null,
  "formula_pretty": "SiI3",
  "formula_anonymous": "AB3",
  "chemsys": null,
  "volume": 359.69755994118,
  "density": 3.774429609972908,
  "density_atomic": 44.9621949926475,
  "symmetry": null,
  "property_name": null,
  "material_id": "mp-1078195",
  "deprecated": null,
  "deprecation_reasons": null,
  "last_updated": null,
  "origins": null,
  "warnings": null,
  "structure": {
    "@module": "pymatgen.core.structure",
    "@class": "Structure",
    "charge": 0,
    "lattice": {
      "matrix": [
        [-3.68425429, -6.38093141, -0.0],
        [3.68392105, -6.38112386, -1e-8],
        [-0.00011142, -4.25401741, 7.65044881]
      ],
      "pbc": [true, true, true],
      "a": 7.368175848370341,
      "b": 7.368175894975255,
      "c": 8.753629597568539,
      "alpha": 65.11085622969871,
      "beta": 65.11085375735652,
      "gamma": 59.999995248632736,
      "volume": 359.6975599411799
    },
    "properties": {},
    "sites": [
      {
        "species": [{ "element": "Si", "occu": 1 }],
        "abc": [0.05116894, 0.05116894, 0.84649217],
        "properties": { "magmom": 0.0 },
        "label": "Si",
        "xyz": [-0.00011136769514702106, -4.254013268995994, 6.476045014139128]
      },
      {
        "species": [{ "element": "Si", "occu": 1 }],
        "abc": [0.9488310600000001, 0.9488310600000001, 0.15350783],
        "properties": { "magmom": 0.0 },
        "label": "Si",
        "xyz": [-0.0003332923048529081, -12.762059411004008, 1.1744037858608718]
      },
      {
        "species": [{ "element": "I", "occu": 1 }],
        "abc": [0.09225556, 0.76416562, 0.74802482],
        "properties": { "magmom": -0.0 },
        "label": "I",
        "xyz": [2.4751495255725042, -8.647022478716949, 5.722725586377808]
      },
      {
        "species": [{ "element": "I", "occu": 1 }],
        "abc": [0.76416562, 0.395555, 0.74802482],
        "properties": { "magmom": -0.0 },
        "label": "I",
        "xyz": [-1.3582704177482043, -10.58228446293454, 5.722725590063915]
      },
      {
        "species": [{ "element": "I", "occu": 1 }],
        "abc": [0.395555, 0.09225556, 0.74802482],
        "properties": { "magmom": -0.0 },
        "label": "I",
        "xyz": [-1.1175463511428565, -6.294814086408328, 5.722725593096909]
      },
      {
        "species": [{ "element": "I", "occu": 1 }],
        "abc": [0.90774444, 0.23583438, 0.25197518],
        "properties": { "magmom": -0.0 },
        "label": "I",
        "xyz": [-2.475594185572504, -8.36905020128305, 1.9277232136221922]
      },
      {
        "species": [{ "element": "I", "occu": 1 }],
        "abc": [0.23583438, 0.604445, 0.25197518],
        "properties": { "magmom": -0.0 },
        "label": "I",
        "xyz": [1.357825757748204, -6.433788217065461, 1.927723209936086]
      },
      {
        "species": [{ "element": "I", "occu": 1 }],
        "abc": [0.604445, 0.90774444, 0.25197518],
        "properties": { "magmom": -0.0 },
        "label": "I",
        "xyz": [1.117101691142856, -10.721258593591672, 1.9277232069030916]
      }
    ]
  },
  "task_ids": null,
  "uncorrected_energy_per_atom": null,
  "energy_per_atom": -3.156084061249998,
  "formation_energy_per_atom": -0.656745092499998,
  "energy_above_hull": 0.0,
  "is_stable": true,
  "equilibrium_reaction_energy_per_atom": null,
  "decomposes_to": null,
  "xas": null,
  "grain_boundaries": null,
  "band_gap": 2.9566,
  "cbm": null,
  "vbm": null,
  "efermi": -0.324872899999999,
  "is_gap_direct": null,
  "is_metal": null,
  "es_source_calc_id": null,
  "bandstructure": null,
  "dos": null,
  "dos_energy_up": null,
  "dos_energy_down": null,
  "is_magnetic": null,
  "ordering": null,
  "total_magnetization": 0.0,
  "total_magnetization_normalized_vol": null,
  "total_magnetization_normalized_formula_units": null,
  "num_magnetic_sites": null,
  "num_unique_magnetic_sites": null,
  "types_of_magnetic_species": null,
  "bulk_modulus": null,
  "shear_modulus": null,
  "universal_anisotropy": null,
  "homogeneous_poisson": null,
  "e_total": null,
  "e_ionic": null,
  "e_electronic": null,
  "n": null,
  "e_ij_max": null,
  "weighted_surface_energy_EV_PER_ANG2": null,
  "weighted_surface_energy": null,
  "weighted_work_function": null,
  "surface_anisotropy": null,
  "shape_factor": null,
  "has_reconstructed": null,
  "possible_species": null,
  "has_props": null,
  "theoretical": null,
  "database_IDs": null,
  "fields_not_requested": [
    "builder_meta",
    "nsites",
    "elements",
    "nelements",
    "composition",
    "composition_reduced",
    "chemsys",
    "symmetry",
    "property_name",
    "deprecated",
    "deprecation_reasons",
    "last_updated",
    "origins",
    "warnings",
    "task_ids",
    "uncorrected_energy_per_atom",
    "equilibrium_reaction_energy_per_atom",
    "decomposes_to",
    "xas",
    "grain_boundaries",
    "cbm",
    "vbm",
    "is_gap_direct",
    "is_metal",
    "es_source_calc_id",
    "bandstructure",
    "dos",
    "dos_energy_up",
    "dos_energy_down",
    "is_magnetic",
    "ordering",
    "total_magnetization_normalized_vol",
    "total_magnetization_normalized_formula_units",
    "num_magnetic_sites",
    "num_unique_magnetic_sites",
    "types_of_magnetic_species",
    "bulk_modulus",
    "shear_modulus",
    "universal_anisotropy",
    "homogeneous_poisson",
    "e_total",
    "e_ionic",
    "e_electronic",
    "n",
    "e_ij_max",
    "weighted_surface_energy_EV_PER_ANG2",
    "weighted_surface_energy",
    "weighted_work_function",
    "surface_anisotropy",
    "shape_factor",
    "has_reconstructed",
    "possible_species",
    "has_props",
    "theoretical",
    "database_IDs"
  ]
}
