{
  "builder_meta": null,
  "nsites": null,
  "elements": null,
  "nelements": null,
  "composition": null,
  "composition_reduced": null,
  "formula_pretty": "SiIr3",
  "formula_anonymous": "AB3",
  "chemsys": null,
  "volume": 110.29876991278157,
  "density": 18.208518264401498,
  "density_atomic": 13.787346239097696,
  "symmetry": null,
  "property_name": null,
  "material_id": "mp-1841",
  "deprecated": null,
  "deprecation_reasons": null,
  "last_updated": null,
  "origins": null,
  "warnings": null,
  "structure": {
    "@module": "pymatgen.core.structure",
    "@class": "Structure",
    "charge": 0,
    "lattice": {
      "matrix": [
        [4.60600128, -0.0, -2.52785184],
        [-1.387328989999999, 4.39210291, -2.52785184],
        [-0.00235682, -0.0032161200000000003, 5.45593125]
      ],
      "pbc": [true, true, true],
      "a": 5.254072964506015,
      "b": 5.254073145999803,
      "c": 5.455932706948916,
      "alpha": 118.783473479898,
      "beta": 118.7834738161068,
      "gamma": 90.00000867310692,
      "volume": 110.29876991278155
    },
    "properties": {},
    "sites": [
      {
        "species": [{ "element": "Si", "occu": 1 }],
        "abc": [0.25, 0.75, 0.5],
        "properties": { "magmom": 0.0 },
        "label": "Si",
        "xyz": [0.10982516750000067, 3.2924691225, 0.2001137850000001]
      },
      {
        "species": [{ "element": "Si", "occu": 1 }],
        "abc": [0.75, 0.25, 0.5],
        "properties": { "magmom": 0.0 },
        "label": "Si",
        "xyz": [3.1064903025, 1.0964176675000001, 0.2001137850000001]
      },
      {
        "species": [{ "element": "Ir", "occu": 1 }],
        "abc": [0.25, 0.25, 0.5],
        "properties": { "magmom": 0.0 },
        "label": "Ir",
        "xyz": [0.8034896625000003, 1.0964176675000001, 1.464039705]
      },
      {
        "species": [{ "element": "Ir", "occu": 1 }],
        "abc": [0.75, 0.75, 0.5],
        "properties": { "magmom": 0.0 },
        "label": "Ir",
        "xyz": [2.4128258075000004, 3.2924691225, -1.0638121349999996]
      },
      {
        "species": [{ "element": "Ir", "occu": 1 }],
        "abc": [0.18401228, 0.68401228, 0.0],
        "properties": { "magmom": 0.0 },
        "label": "Ir",
        "xyz": [-0.10138926834427808, 3.004252325463735, -2.19423748116119]
      },
      {
        "species": [{ "element": "Ir", "occu": 1 }],
        "abc": [0.31598772, 0.18401228, -0.0],
        "properties": { "magmom": 0.0 },
        "label": "Ir",
        "xyz": [1.2001542722242848, 0.8082008704637348, -1.26392592]
      },
      {
        "species": [{ "element": "Ir", "occu": 1 }],
        "abc": [0.68401228, 0.81598772, 0.0],
        "properties": { "magmom": 0.0 },
        "label": "Ir",
        "xyz": [2.0185180177757163, 3.583902039536265, -3.79177776]
      },
      {
        "species": [{ "element": "Ir", "occu": 1 }],
        "abc": [0.81598772, 0.31598772, -0.0],
        "properties": { "magmom": 0.0 },
        "label": "Ir",
        "xyz": [3.320061558344279, 1.3878505845362654, -2.8614661988388095]
      }
    ]
  },
  "task_ids": null,
  "uncorrected_energy_per_atom": null,
  "energy_per_atom": -41.86712387125,
  "formation_energy_per_atom": -0.404167635000007,
  "energy_above_hull": 0.0,
  "is_stable": true,
  "equilibrium_reaction_energy_per_atom": null,
  "decomposes_to": null,
  "xas": null,
  "grain_boundaries": null,
  "band_gap": 0.0,
  "cbm": null,
  "vbm": null,
  "efermi": 10.00152093,
  "is_gap_direct": null,
  "is_metal": null,
  "es_source_calc_id": null,
  "bandstructure": null,
  "dos": null,
  "dos_energy_up": null,
  "dos_energy_down": null,
  "is_magnetic": null,
  "ordering": null,
  "total_magnetization": 0.0,
  "total_magnetization_normalized_vol": null,
  "total_magnetization_normalized_formula_units": null,
  "num_magnetic_sites": null,
  "num_unique_magnetic_sites": null,
  "types_of_magnetic_species": null,
  "bulk_modulus": null,
  "shear_modulus": null,
  "universal_anisotropy": null,
  "homogeneous_poisson": null,
  "e_total": null,
  "e_ionic": null,
  "e_electronic": null,
  "n": null,
  "e_ij_max": null,
  "weighted_surface_energy_EV_PER_ANG2": null,
  "weighted_surface_energy": null,
  "weighted_work_function": null,
  "surface_anisotropy": null,
  "shape_factor": null,
  "has_reconstructed": null,
  "possible_species": null,
  "has_props": null,
  "theoretical": null,
  "database_IDs": null,
  "fields_not_requested": [
    "builder_meta",
    "nsites",
    "elements",
    "nelements",
    "composition",
    "composition_reduced",
    "chemsys",
    "symmetry",
    "property_name",
    "deprecated",
    "deprecation_reasons",
    "last_updated",
    "origins",
    "warnings",
    "task_ids",
    "uncorrected_energy_per_atom",
    "equilibrium_reaction_energy_per_atom",
    "decomposes_to",
    "xas",
    "grain_boundaries",
    "cbm",
    "vbm",
    "is_gap_direct",
    "is_metal",
    "es_source_calc_id",
    "bandstructure",
    "dos",
    "dos_energy_up",
    "dos_energy_down",
    "is_magnetic",
    "ordering",
    "total_magnetization_normalized_vol",
    "total_magnetization_normalized_formula_units",
    "num_magnetic_sites",
    "num_unique_magnetic_sites",
    "types_of_magnetic_species",
    "bulk_modulus",
    "shear_modulus",
    "universal_anisotropy",
    "homogeneous_poisson",
    "e_total",
    "e_ionic",
    "e_electronic",
    "n",
    "e_ij_max",
    "weighted_surface_energy_EV_PER_ANG2",
    "weighted_surface_energy",
    "weighted_work_function",
    "surface_anisotropy",
    "shape_factor",
    "has_reconstructed",
    "possible_species",
    "has_props",
    "theoretical",
    "database_IDs"
  ]
}
