{
  "builder_meta": null,
  "nsites": null,
  "elements": null,
  "nelements": null,
  "composition": null,
  "composition_reduced": null,
  "formula_pretty": "SiIr2",
  "formula_anonymous": "AB2",
  "chemsys": null,
  "volume": 162.18435990234303,
  "density": 16.894471104285625,
  "density_atomic": 13.515363325195253,
  "symmetry": null,
  "property_name": null,
  "material_id": "mp-1103038",
  "deprecated": null,
  "deprecation_reasons": null,
  "last_updated": null,
  "origins": null,
  "warnings": null,
  "structure": {
    "@module": "pymatgen.core.structure",
    "@class": "Structure",
    "charge": 0,
    "lattice": {
      "matrix": [
        [0.0, -3.991976, 0.0],
        [-5.28767911, 0.0, -6.239e-5],
        [-5.8670000000000006e-5, 0.0, -7.68344449]
      ],
      "pbc": [true, true, true],
      "a": 3.991976,
      "b": 5.2876791103680745,
      "c": 7.683444490223999,
      "alpha": 89.99888645505231,
      "beta": 90.0,
      "gamma": 90.0,
      "volume": 162.18435990234303
    },
    "properties": {},
    "sites": [
      {
        "species": [{ "element": "Si", "occu": 1 }],
        "abc": [0.75, 0.20594202, 0.60091183],
        "properties": { "magmom": -0.0 },
        "label": "Si",
        "xyz": [-1.0889905725222684, -2.993982, -4.6170855379119455]
      },
      {
        "species": [{ "element": "Si", "occu": 1 }],
        "abc": [0.75, 0.70595367, 0.89908962],
        "properties": { "magmom": -0.0 },
        "label": "Si",
        "xyz": [-3.7329092230748393, -2.993982, -6.908149231254666]
      },
      {
        "species": [{ "element": "Si", "occu": 1 }],
        "abc": [0.25, 0.7940576500000001, 0.39910698],
        "properties": { "magmom": -0.0 },
        "label": "Si",
        "xyz": [-4.198745463647208, -0.997994, -3.066565867658324]
      },
      {
        "species": [{ "element": "Si", "occu": 1 }],
        "abc": [0.25, 0.29405262, 0.10088983],
        "properties": { "magmom": -0.0 },
        "label": "Si",
        "xyz": [-1.5548618152210942, -0.997994, -0.7751997543534985]
      },
      {
        "species": [{ "element": "Ir", "occu": 1 }],
        "abc": [0.75, 0.6602221500000001, 0.57420487],
        "properties": { "magmom": 0.0 },
        "label": "Ir",
        "xyz": [-3.4910765591140094, -2.993982, -4.411912435792605]
      },
      {
        "species": [{ "element": "Ir", "occu": 1 }],
        "abc": [0.75, 0.16019607, 0.92580608],
        "properties": { "magmom": 0.0 },
        "label": "Ir",
        "xyz": [-0.8471197298858113, -2.993982, -7.1133896188173065]
      },
      {
        "species": [{ "element": "Ir", "occu": 1 }],
        "abc": [0.25, 0.33978673, 0.42579515],
        "properties": { "magmom": 0.0 },
        "label": "Ir",
        "xyz": [-1.7967081754776608, -0.997994, -3.2715945984303083]
      },
      {
        "species": [{ "element": "Ir", "occu": 1 }],
        "abc": [0.25, 0.83979909, 0.07420166],
        "properties": { "magmom": 0.0 },
        "label": "Ir",
        "xyz": [-4.440592458201402, -0.997994, -0.5701767307410786]
      },
      {
        "species": [{ "element": "Ir", "occu": 1 }],
        "abc": [0.75, 0.52340146, 0.20016239],
        "properties": { "magmom": 0.0 },
        "label": "Ir",
        "xyz": [-2.7675907097129215, -2.993982, -1.5379692675678207]
      },
      {
        "species": [{ "element": "Ir", "occu": 1 }],
        "abc": [0.75, 0.0233688, 0.29982343],
        "properties": { "magmom": 0.0 },
        "label": "Ir",
        "xyz": [-0.1235843062264061, -2.993982, -2.3036781391858328]
      },
      {
        "species": [{ "element": "Ir", "occu": 1 }],
        "abc": [0.25, 0.47662027, 0.79983172],
        "properties": { "magmom": 0.0 },
        "label": "Ir",
        "xyz": [-2.520261971208572, -0.997994, -6.145492358299869]
      },
      {
        "species": [{ "element": "Ir", "occu": 1 }],
        "abc": [0.25, 0.97659949, 0.7001764500000001],
        "properties": { "magmom": 0.0 },
        "label": "Ir",
        "xyz": [-5.163985801461975, -0.997994, -5.379827816822442]
      }
    ]
  },
  "task_ids": null,
  "uncorrected_energy_per_atom": null,
  "energy_per_atom": -38.33122188916666,
  "formation_energy_per_atom": -0.500398057499997,
  "energy_above_hull": 0.016088381250000002,
  "is_stable": false,
  "equilibrium_reaction_energy_per_atom": null,
  "decomposes_to": null,
  "xas": null,
  "grain_boundaries": null,
  "band_gap": 0.0,
  "cbm": null,
  "vbm": null,
  "efermi": 10.499268260000001,
  "is_gap_direct": null,
  "is_metal": null,
  "es_source_calc_id": null,
  "bandstructure": null,
  "dos": null,
  "dos_energy_up": null,
  "dos_energy_down": null,
  "is_magnetic": null,
  "ordering": null,
  "total_magnetization": 2e-7,
  "total_magnetization_normalized_vol": null,
  "total_magnetization_normalized_formula_units": null,
  "num_magnetic_sites": null,
  "num_unique_magnetic_sites": null,
  "types_of_magnetic_species": null,
  "bulk_modulus": null,
  "shear_modulus": null,
  "universal_anisotropy": null,
  "homogeneous_poisson": null,
  "e_total": null,
  "e_ionic": null,
  "e_electronic": null,
  "n": null,
  "e_ij_max": null,
  "weighted_surface_energy_EV_PER_ANG2": null,
  "weighted_surface_energy": null,
  "weighted_work_function": null,
  "surface_anisotropy": null,
  "shape_factor": null,
  "has_reconstructed": null,
  "possible_species": null,
  "has_props": null,
  "theoretical": null,
  "database_IDs": null,
  "fields_not_requested": [
    "builder_meta",
    "nsites",
    "elements",
    "nelements",
    "composition",
    "composition_reduced",
    "chemsys",
    "symmetry",
    "property_name",
    "deprecated",
    "deprecation_reasons",
    "last_updated",
    "origins",
    "warnings",
    "task_ids",
    "uncorrected_energy_per_atom",
    "equilibrium_reaction_energy_per_atom",
    "decomposes_to",
    "xas",
    "grain_boundaries",
    "cbm",
    "vbm",
    "is_gap_direct",
    "is_metal",
    "es_source_calc_id",
    "bandstructure",
    "dos",
    "dos_energy_up",
    "dos_energy_down",
    "is_magnetic",
    "ordering",
    "total_magnetization_normalized_vol",
    "total_magnetization_normalized_formula_units",
    "num_magnetic_sites",
    "num_unique_magnetic_sites",
    "types_of_magnetic_species",
    "bulk_modulus",
    "shear_modulus",
    "universal_anisotropy",
    "homogeneous_poisson",
    "e_total",
    "e_ionic",
    "e_electronic",
    "n",
    "e_ij_max",
    "weighted_surface_energy_EV_PER_ANG2",
    "weighted_surface_energy",
    "weighted_work_function",
    "surface_anisotropy",
    "shape_factor",
    "has_reconstructed",
    "possible_species",
    "has_props",
    "theoretical",
    "database_IDs"
  ]
}
