{
  "builder_meta": null,
  "nsites": null,
  "elements": null,
  "nelements": null,
  "composition": null,
  "composition_reduced": null,
  "formula_pretty": "SiNi",
  "formula_anonymous": "AB",
  "chemsys": null,
  "volume": 95.11263185898753,
  "density": 6.060173114343621,
  "density_atomic": 11.88907898237344,
  "symmetry": null,
  "property_name": null,
  "material_id": "mp-351",
  "deprecated": null,
  "deprecation_reasons": null,
  "last_updated": null,
  "origins": null,
  "warnings": null,
  "structure": {
    "@module": "pymatgen.core.structure",
    "@class": "Structure",
    "charge": 0,
    "lattice": {
      "matrix": [
        [3.32129709, 0.0, 0.0],
        [0.0, 5.14153507, 0.0],
        [0.0, 0.0, 5.56977526]
      ],
      "pbc": [true, true, true],
      "a": 3.32129709,
      "b": 5.14153507,
      "c": 5.56977526,
      "alpha": 90.0,
      "beta": 90.0,
      "gamma": 90.0,
      "volume": 95.11263185898753
    },
    "properties": {},
    "sites": [
      {
        "species": [{ "element": "Si", "occu": 1 }],
        "abc": [0.75, 0.82108937, 0.41767557],
        "properties": { "magmom": -0.0 },
        "label": "Si",
        "xyz": [2.4909728175, 4.221659791459206, 2.3263590564923984]
      },
      {
        "species": [{ "element": "Si", "occu": 1 }],
        "abc": [0.25, 0.17891063000000001, 0.58232443],
        "properties": { "magmom": -0.0 },
        "label": "Si",
        "xyz": [0.8303242725, 0.9198752785407941, 3.2434162035076017]
      },
      {
        "species": [{ "element": "Si", "occu": 1 }],
        "abc": [0.75, 0.32108937, 0.08232443],
        "properties": { "magmom": -0.0 },
        "label": "Si",
        "xyz": [2.4909728175, 1.6508922564592057, 0.45852857350760184]
      },
      {
        "species": [{ "element": "Si", "occu": 1 }],
        "abc": [0.25, 0.67891063, 0.91767557],
        "properties": { "magmom": -0.0 },
        "label": "Si",
        "xyz": [0.8303242725, 3.4906428135407936, 5.111246686492398]
      },
      {
        "species": [{ "element": "Ni", "occu": 1 }],
        "abc": [0.25, 0.50794985, 0.31147944],
        "properties": { "magmom": 0.0 },
        "label": "Ni",
        "xyz": [0.8303242725, 2.6116419675762397, 1.7348704789106544]
      },
      {
        "species": [{ "element": "Ni", "occu": 1 }],
        "abc": [0.75, 0.49205015, 0.6885205600000001],
        "properties": { "magmom": 0.0 },
        "label": "Ni",
        "xyz": [2.4909728175, 2.5298931024237605, 3.834904781089346]
      },
      {
        "species": [{ "element": "Ni", "occu": 1 }],
        "abc": [0.25, 0.00794985, 0.18852056],
        "properties": { "magmom": 0.0 },
        "label": "Ni",
        "xyz": [0.8303242725, 0.040874432576239496, 1.0500171510893457]
      },
      {
        "species": [{ "element": "Ni", "occu": 1 }],
        "abc": [0.75, 0.9920501500000001, 0.81147944],
        "properties": { "magmom": 0.0 },
        "label": "Ni",
        "xyz": [2.4909728175, 5.10066063742376, 4.519758108910655]
      }
    ]
  },
  "task_ids": null,
  "uncorrected_energy_per_atom": null,
  "energy_per_atom": -10.84839634625,
  "formation_energy_per_atom": -0.470655468750001,
  "energy_above_hull": 0.0,
  "is_stable": true,
  "equilibrium_reaction_energy_per_atom": null,
  "decomposes_to": null,
  "xas": null,
  "grain_boundaries": null,
  "band_gap": 0.0,
  "cbm": null,
  "vbm": null,
  "efermi": 10.03041751,
  "is_gap_direct": null,
  "is_metal": null,
  "es_source_calc_id": null,
  "bandstructure": null,
  "dos": null,
  "dos_energy_up": null,
  "dos_energy_down": null,
  "is_magnetic": null,
  "ordering": null,
  "total_magnetization": 0.0,
  "total_magnetization_normalized_vol": null,
  "total_magnetization_normalized_formula_units": null,
  "num_magnetic_sites": null,
  "num_unique_magnetic_sites": null,
  "types_of_magnetic_species": null,
  "bulk_modulus": null,
  "shear_modulus": null,
  "universal_anisotropy": null,
  "homogeneous_poisson": null,
  "e_total": null,
  "e_ionic": null,
  "e_electronic": null,
  "n": null,
  "e_ij_max": null,
  "weighted_surface_energy_EV_PER_ANG2": null,
  "weighted_surface_energy": null,
  "weighted_work_function": null,
  "surface_anisotropy": null,
  "shape_factor": null,
  "has_reconstructed": null,
  "possible_species": null,
  "has_props": null,
  "theoretical": null,
  "database_IDs": null,
  "fields_not_requested": [
    "builder_meta",
    "nsites",
    "elements",
    "nelements",
    "composition",
    "composition_reduced",
    "chemsys",
    "symmetry",
    "property_name",
    "deprecated",
    "deprecation_reasons",
    "last_updated",
    "origins",
    "warnings",
    "task_ids",
    "uncorrected_energy_per_atom",
    "equilibrium_reaction_energy_per_atom",
    "decomposes_to",
    "xas",
    "grain_boundaries",
    "cbm",
    "vbm",
    "is_gap_direct",
    "is_metal",
    "es_source_calc_id",
    "bandstructure",
    "dos",
    "dos_energy_up",
    "dos_energy_down",
    "is_magnetic",
    "ordering",
    "total_magnetization_normalized_vol",
    "total_magnetization_normalized_formula_units",
    "num_magnetic_sites",
    "num_unique_magnetic_sites",
    "types_of_magnetic_species",
    "bulk_modulus",
    "shear_modulus",
    "universal_anisotropy",
    "homogeneous_poisson",
    "e_total",
    "e_ionic",
    "e_electronic",
    "n",
    "e_ij_max",
    "weighted_surface_energy_EV_PER_ANG2",
    "weighted_surface_energy",
    "weighted_work_function",
    "surface_anisotropy",
    "shape_factor",
    "has_reconstructed",
    "possible_species",
    "has_props",
    "theoretical",
    "database_IDs"
  ]
}
