{"builder_meta": null, "nsites": null, "elements": null, "nelements": null, "composition": null, "composition_reduced": null, "formula_pretty": "SiNi2", "formula_anonymous": "AB2", "chemsys": null, "volume": 127.59978623566468, "density": 7.57250288216039, "density_atomic": 10.633315519638723, "symmetry": null, "property_name": null, "material_id": "mp-1118", "deprecated": null, "deprecation_reasons": null, "last_updated": null, "origins": null, "warnings": null, "structure": {"@module": "pymatgen.core.structure", "@class": "Structure", "charge": 0, "lattice": {"matrix": [[3.69732692, -0.0, 0.0], [-0.0, 4.92873769, 0.0], [0.0, 0.0, 7.00206904]], "pbc": [true, true, true], "a": 3.69732692, "b": 4.92873769, "c": 7.00206904, "alpha": 90.0, "beta": 90.0, "gamma": 90.0, "volume": 127.59978623566468}, "properties": {}, "sites": [{"species": [{"element": "Si", "occu": 1}], "abc": [0.25, 0.79079786, 0.11334354], "properties": {"magmom": -0.0}, "label": "Si", "xyz": [0.92433173, 3.8976352177533435, 0.7936392923180017]}, {"species": [{"element": "Si", "occu": 1}], "abc": [0.75, 0.20920214, 0.88665646], "properties": {"magmom": -0.0}, "label": "Si", "xyz": [2.77299519, 1.0311024722466566, 6.208429747681999]}, {"species": [{"element": "Si", "occu": 1}], "abc": [0.25, 0.29079786, 0.38665646000000004], "properties": {"magmom": -0.0}, "label": "Si", "xyz": [0.92433173, 1.4332663727533435, 2.7073952276819986]}, {"species": [{"element": "Si", "occu": 1}], "abc": [0.75, 0.70920214, 0.61334354], "properties": {"magmom": -0.0}, "label": "Si", "xyz": [2.77299519, 3.4954713172466567, 4.294673812318002]}, {"species": [{"element": "Ni", "occu": 1}], "abc": [0.25, 0.95787963, 0.79275013], "properties": {"magmom": -0.0}, "label": "Ni", "xyz": [0.92433173, 4.7211374348642545, 5.550891141728976]}, {"species": [{"element": "Ni", "occu": 1}], "abc": [0.75, 0.042120370000000004, 0.20724987], "properties": {"magmom": -0.0}, "label": "Ni", "xyz": [2.77299519, 0.20760025513574532, 1.4511778982710248]}, {"species": [{"element": "Ni", "occu": 1}], "abc": [0.25, 0.45787963, 0.7072498700000001], "properties": {"magmom": -0.0}, "label": "Ni", "xyz": [0.92433173, 2.256768589864255, 4.952212418271025]}, {"species": [{"element": "Ni", "occu": 1}], "abc": [0.75, 0.54212037, 0.29275013], "properties": {"magmom": -0.0}, "label": "Ni", "xyz": [2.77299519, 2.6719691001357453, 2.049856621728975]}, {"species": [{"element": "Ni", "occu": 1}], "abc": [0.25, 0.82885332, 0.43954786], "properties": {"magmom": -0.0}, "label": "Ni", "xyz": [0.92433173, 4.085200597765631, 3.0777444621042545]}, {"species": [{"element": "Ni", "occu": 1}], "abc": [0.75, 0.17114668, 0.56045214], "properties": {"magmom": -0.0}, "label": "Ni", "xyz": [2.77299519, 0.8435370922343692, 3.924324577895746]}, {"species": [{"element": "Ni", "occu": 1}], "abc": [0.25, 0.32885332, 0.06045214], "properties": {"magmom": -0.0}, "label": "Ni", "xyz": [0.92433173, 1.6208317527656309, 0.42329005789574564]}, {"species": [{"element": "Ni", "occu": 1}], "abc": [0.75, 0.67114668, 0.93954786], "properties": {"magmom": -0.0}, "label": "Ni", "xyz": [2.77299519, 3.307905937234369, 6.578778982104255]}]}, "task_ids": null, "uncorrected_energy_per_atom": null, "energy_per_atom": -11.4363607225, "formation_energy_per_atom": -0.5239610841666671, "energy_above_hull": 0.0, "is_stable": true, "equilibrium_reaction_energy_per_atom": null, "decomposes_to": null, "xas": null, "grain_boundaries": null, "band_gap": 0.0, "cbm": null, "vbm": null, "efermi": 10.11620412, "is_gap_direct": null, "is_metal": null, "es_source_calc_id": null, "bandstructure": null, "dos": null, "dos_energy_up": null, "dos_energy_down": null, "is_magnetic": null, "ordering": null, "total_magnetization": 0.0, "total_magnetization_normalized_vol": null, "total_magnetization_normalized_formula_units": null, "num_magnetic_sites": null, "num_unique_magnetic_sites": null, "types_of_magnetic_species": null, "bulk_modulus": null, "shear_modulus": null, "universal_anisotropy": null, "homogeneous_poisson": null, "e_total": null, "e_ionic": null, "e_electronic": null, "n": null, "e_ij_max": null, "weighted_surface_energy_EV_PER_ANG2": null, "weighted_surface_energy": null, "weighted_work_function": null, "surface_anisotropy": null, "shape_factor": null, "has_reconstructed": null, "possible_species": null, "has_props": null, "theoretical": null, "database_IDs": null, "fields_not_requested": ["builder_meta", "nsites", "elements", "nelements", "composition", "composition_reduced", "chemsys", "symmetry", "property_name", "deprecated", "deprecation_reasons", "last_updated", "origins", "warnings", "task_ids", "uncorrected_energy_per_atom", "equilibrium_reaction_energy_per_atom", "decomposes_to", "xas", "grain_boundaries", "cbm", "vbm", "is_gap_direct", "is_metal", "es_source_calc_id", "bandstructure", "dos", "dos_energy_up", "dos_energy_down", "is_magnetic", "ordering", "total_magnetization_normalized_vol", "total_magnetization_normalized_formula_units", "num_magnetic_sites", "num_unique_magnetic_sites", "types_of_magnetic_species", "bulk_modulus", "shear_modulus", "universal_anisotropy", "homogeneous_poisson", "e_total", "e_ionic", "e_electronic", "n", "e_ij_max", "weighted_surface_energy_EV_PER_ANG2", "weighted_surface_energy", "weighted_work_function", "surface_anisotropy", "shape_factor", "has_reconstructed", "possible_species", "has_props", "theoretical", "database_IDs"]}