{
  "builder_meta": null,
  "nsites": null,
  "elements": null,
  "nelements": null,
  "composition": null,
  "composition_reduced": null,
  "formula_pretty": "SiO",
  "formula_anonymous": "AB",
  "chemsys": null,
  "volume": 170.2302929034805,
  "density": 2.58019994380181,
  "density_atomic": 14.185857741956708,
  "symmetry": null,
  "property_name": null,
  "material_id": "mp-32761",
  "deprecated": null,
  "deprecation_reasons": null,
  "last_updated": null,
  "origins": null,
  "warnings": null,
  "structure": {
    "@module": "pymatgen.core.structure",
    "@class": "Structure",
    "charge": 0,
    "lattice": {
      "matrix": [
        [2.26648, -3.925658, 0.0],
        [2.26648, 3.925658, 0.0],
        [0.0, 0.0, 9.566267]
      ],
      "pbc": [true, true, true],
      "a": 4.532959554569619,
      "b": 4.532959554569619,
      "c": 9.566267,
      "alpha": 90.0,
      "beta": 90.0,
      "gamma": 119.99999349885282,
      "volume": 170.2302929034805
    },
    "properties": {},
    "sites": [
      {
        "species": [{ "element": "Si", "occu": 1 }],
        "abc": [0.0, 0.5, 0.107358],
        "properties": { "magmom": -0.001 },
        "label": "Si",
        "xyz": [1.13324, 1.962829, 1.0270152925859999]
      },
      {
        "species": [{ "element": "Si", "occu": 1 }],
        "abc": [0.0, 0.5, 0.559308],
        "properties": { "magmom": 0.0 },
        "label": "Si",
        "xyz": [1.13324, 1.962829, 5.350489663236]
      },
      {
        "species": [{ "element": "Si", "occu": 1 }],
        "abc": [0.5, 0.5, 0.892641999999999],
        "properties": { "magmom": 0.001 },
        "label": "Si",
        "xyz": [2.26648, 0.0, 8.53925170741399]
      },
      {
        "species": [{ "element": "Si", "occu": 1 }],
        "abc": [0.5, 0.5, 0.440691],
        "properties": { "magmom": -0.0 },
        "label": "Si",
        "xyz": [2.26648, 0.0, 4.215767770497]
      },
      {
        "species": [{ "element": "Si", "occu": 1 }],
        "abc": [0.5, 0.0, 0.774025],
        "properties": { "magmom": 0.001 },
        "label": "Si",
        "xyz": [1.13324, -1.962829, 7.404529814675]
      },
      {
        "species": [{ "element": "Si", "occu": 1 }],
        "abc": [0.5, 0.0, 0.225974999999999],
        "properties": { "magmom": -0.001 },
        "label": "Si",
        "xyz": [1.13324, -1.962829, 2.1617371853249905]
      },
      {
        "species": [{ "element": "O", "occu": 1 }],
        "abc": [0.168758, 0.831241999999999, 0.666667],
        "properties": { "magmom": -0.0 },
        "label": "O",
        "xyz": [2.266479999999998, 2.6006856144719963, 6.377514522089]
      },
      {
        "species": [{ "element": "O", "occu": 1 }],
        "abc": [0.168758, 0.337516, 0.0],
        "properties": { "magmom": -0.0 },
        "label": "O",
        "xyz": [1.14745989552, 0.6624861927639999, 0.0]
      },
      {
        "species": [{ "element": "O", "occu": 1 }],
        "abc": [0.662484, 0.831241999999999, 0.333333],
        "properties": { "magmom": 0.0 },
        "label": "O",
        "xyz": [3.3855001044799975, 0.6624861927639962, 3.1887524779109997]
      },
      {
        "species": [{ "element": "O", "occu": 1 }],
        "abc": [0.337516, 0.168758, 0.333333],
        "properties": { "magmom": 0.0 },
        "label": "O",
        "xyz": [1.14745989552, -0.6624861927639999, 3.1887524779109997]
      },
      {
        "species": [{ "element": "O", "occu": 1 }],
        "abc": [0.831241999999999, 0.662484, 0.0],
        "properties": { "magmom": -0.0 },
        "label": "O",
        "xyz": [3.3855001044799975, -0.6624861927639962, 0.0]
      },
      {
        "species": [{ "element": "O", "occu": 1 }],
        "abc": [0.831241999999999, 0.168758, 0.666667],
        "properties": { "magmom": -0.0 },
        "label": "O",
        "xyz": [2.266479999999998, -2.6006856144719963, 6.377514522089]
      }
    ]
  },
  "task_ids": null,
  "uncorrected_energy_per_atom": null,
  "energy_per_atom": -7.2337889,
  "formation_energy_per_atom": -2.0471493825,
  "energy_above_hull": 0.40747412541666606,
  "is_stable": false,
  "equilibrium_reaction_energy_per_atom": null,
  "decomposes_to": null,
  "xas": null,
  "grain_boundaries": null,
  "band_gap": 0.0,
  "cbm": null,
  "vbm": null,
  "efermi": 5.01235491,
  "is_gap_direct": null,
  "is_metal": null,
  "es_source_calc_id": null,
  "bandstructure": null,
  "dos": null,
  "dos_energy_up": null,
  "dos_energy_down": null,
  "is_magnetic": null,
  "ordering": null,
  "total_magnetization": 0.00021899999999900002,
  "total_magnetization_normalized_vol": null,
  "total_magnetization_normalized_formula_units": null,
  "num_magnetic_sites": null,
  "num_unique_magnetic_sites": null,
  "types_of_magnetic_species": null,
  "bulk_modulus": null,
  "shear_modulus": null,
  "universal_anisotropy": null,
  "homogeneous_poisson": null,
  "e_total": null,
  "e_ionic": null,
  "e_electronic": null,
  "n": null,
  "e_ij_max": null,
  "weighted_surface_energy_EV_PER_ANG2": null,
  "weighted_surface_energy": null,
  "weighted_work_function": null,
  "surface_anisotropy": null,
  "shape_factor": null,
  "has_reconstructed": null,
  "possible_species": null,
  "has_props": null,
  "theoretical": null,
  "database_IDs": null,
  "fields_not_requested": [
    "builder_meta",
    "nsites",
    "elements",
    "nelements",
    "composition",
    "composition_reduced",
    "chemsys",
    "symmetry",
    "property_name",
    "deprecated",
    "deprecation_reasons",
    "last_updated",
    "origins",
    "warnings",
    "task_ids",
    "uncorrected_energy_per_atom",
    "equilibrium_reaction_energy_per_atom",
    "decomposes_to",
    "xas",
    "grain_boundaries",
    "cbm",
    "vbm",
    "is_gap_direct",
    "is_metal",
    "es_source_calc_id",
    "bandstructure",
    "dos",
    "dos_energy_up",
    "dos_energy_down",
    "is_magnetic",
    "ordering",
    "total_magnetization_normalized_vol",
    "total_magnetization_normalized_formula_units",
    "num_magnetic_sites",
    "num_unique_magnetic_sites",
    "types_of_magnetic_species",
    "bulk_modulus",
    "shear_modulus",
    "universal_anisotropy",
    "homogeneous_poisson",
    "e_total",
    "e_ionic",
    "e_electronic",
    "n",
    "e_ij_max",
    "weighted_surface_energy_EV_PER_ANG2",
    "weighted_surface_energy",
    "weighted_work_function",
    "surface_anisotropy",
    "shape_factor",
    "has_reconstructed",
    "possible_species",
    "has_props",
    "theoretical",
    "database_IDs"
  ]
}
