{"builder_meta": null, "nsites": null, "elements": null, "nelements": null, "composition": null, "composition_reduced": null, "formula_pretty": "SiO2", "formula_anonymous": "AB2", "chemsys": null, "volume": 113.6254509687595, "density": 2.634242414582259, "density_atomic": 12.625050107639943, "symmetry": null, "property_name": null, "material_id": "mp-7000", "deprecated": null, "deprecation_reasons": null, "last_updated": null, "origins": null, "warnings": null, "structure": {"@module": "pymatgen.core.structure", "@class": "Structure", "charge": 0, "lattice": {"matrix": [[4.914966, -1e-08, 0.0], [-2.45748252, 4.2564861, -0.0], [0.0, 0.0, 5.43130114]], "pbc": [true, true, true], "a": 4.914966, "b": 4.914966353455409, "c": 5.43130114, "alpha": 90.0, "beta": 90.0, "gamma": 119.99999127648242, "volume": 113.6254509687595}, "properties": {}, "sites": [{"species": [{"element": "Si", "occu": 1}], "abc": [0.53108859, 0.53108859, 0.0], "properties": {"magmom": -0.0}, "label": "Si", "xyz": [1.305141436341493, 2.260571195892713, 0.0]}, {"species": [{"element": "Si", "occu": 1}], "abc": [-0.0, 0.46891141000000003, 0.666667], "properties": {"magmom": -0.0}, "label": "Si", "xyz": [-1.1523415935035533, 1.995914898796401, 3.62086923710038]}, {"species": [{"element": "Si", "occu": 1}], "abc": [0.46891141000000003, -0.0, 0.333333], "properties": {"magmom": -0.0}, "label": "Si", "xyz": [2.30468363716206, -4.689114100000001e-09, 1.81043190289962]}, {"species": [{"element": "O", "occu": 1}], "abc": [0.26922311, 0.41339429, 0.78489098], "properties": {"magmom": 0.0}, "label": "O", "xyz": [0.307313190521449, 1.7596070465121378, 4.262979274449718]}, {"species": [{"element": "O", "occu": 1}], "abc": [0.5866057100000001, 0.85582782, 0.11822498000000001], "properties": {"magmom": 0.0}, "label": "O", "xyz": [0.7799652122761533, 3.642819213957245, 0.6421154686504773]}, {"species": [{"element": "O", "occu": 1}], "abc": [0.14417218, 0.73077689, 0.45155798], "properties": {"magmom": 0.0}, "label": "O", "xyz": [-1.087270070349083, 3.1105416730445072, 2.4525473715500974]}, {"species": [{"element": "O", "occu": 1}], "abc": [0.41339429, 0.26922311, 0.21510902], "properties": {"magmom": 0.0}, "label": "O", "xyz": [1.3702077931391026, 1.145944421379828, 1.168321865550283]}, {"species": [{"element": "O", "occu": 1}], "abc": [0.73077689, 0.14417218, 0.54844202], "properties": {"magmom": 0.0}, "label": "O", "xyz": [3.237442955715446, 0.6136668728689291, 2.978753768449903]}, {"species": [{"element": "O", "occu": 1}], "abc": [0.85582782, 0.5866057100000001, 0.88177502], "properties": {"magmom": 0.0}, "label": "O", "xyz": [2.76479135869693, 2.496879042237353, 4.789185671349523]}]}, "task_ids": null, "uncorrected_energy_per_atom": null, "energy_per_atom": -8.379911357222223, "formation_energy_per_atom": -3.27283134388889, "energy_above_hull": 0.0, "is_stable": true, "equilibrium_reaction_energy_per_atom": null, "decomposes_to": null, "xas": null, "grain_boundaries": null, "band_gap": 5.719, "cbm": null, "vbm": null, "efermi": 0.890025899999999, "is_gap_direct": null, "is_metal": null, "es_source_calc_id": null, "bandstructure": null, "dos": null, "dos_energy_up": null, "dos_energy_down": null, "is_magnetic": null, "ordering": null, "total_magnetization": 0.0, "total_magnetization_normalized_vol": null, "total_magnetization_normalized_formula_units": null, "num_magnetic_sites": null, "num_unique_magnetic_sites": null, "types_of_magnetic_species": null, "bulk_modulus": null, "shear_modulus": null, "universal_anisotropy": null, "homogeneous_poisson": null, "e_total": null, "e_ionic": null, "e_electronic": null, "n": null, "e_ij_max": null, "weighted_surface_energy_EV_PER_ANG2": null, "weighted_surface_energy": null, "weighted_work_function": null, "surface_anisotropy": null, "shape_factor": null, "has_reconstructed": null, "possible_species": null, "has_props": null, "theoretical": null, "database_IDs": null, "fields_not_requested": ["builder_meta", "nsites", "elements", "nelements", "composition", "composition_reduced", "chemsys", "symmetry", "property_name", "deprecated", "deprecation_reasons", "last_updated", "origins", "warnings", "task_ids", "uncorrected_energy_per_atom", "equilibrium_reaction_energy_per_atom", "decomposes_to", "xas", "grain_boundaries", "cbm", "vbm", "is_gap_direct", "is_metal", "es_source_calc_id", "bandstructure", "dos", "dos_energy_up", "dos_energy_down", "is_magnetic", "ordering", "total_magnetization_normalized_vol", "total_magnetization_normalized_formula_units", "num_magnetic_sites", "num_unique_magnetic_sites", "types_of_magnetic_species", "bulk_modulus", "shear_modulus", "universal_anisotropy", "homogeneous_poisson", "e_total", "e_ionic", "e_electronic", "n", "e_ij_max", "weighted_surface_energy_EV_PER_ANG2", "weighted_surface_energy", "weighted_work_function", "surface_anisotropy", "shape_factor", "has_reconstructed", "possible_species", "has_props", "theoretical", "database_IDs"]}