{
  "builder_meta": null,
  "nsites": null,
  "elements": null,
  "nelements": null,
  "composition": null,
  "composition_reduced": null,
  "formula_pretty": "SiO4",
  "formula_anonymous": "AB4",
  "chemsys": null,
  "volume": 231.42523646269996,
  "density": 1.9821639237898672,
  "density_atomic": 15.42834909751333,
  "symmetry": null,
  "property_name": null,
  "material_id": "mp-685105",
  "deprecated": null,
  "deprecation_reasons": null,
  "last_updated": null,
  "origins": null,
  "warnings": null,
  "structure": {
    "@module": "pymatgen.core.structure",
    "@class": "Structure",
    "charge": 0,
    "lattice": {
      "matrix": [
        [5.026546, 0.055076, 0.75182],
        [-2.418496, 4.314805, -0.700944999999999],
        [1.609741, -0.757012, 10.906544]
      ],
      "pbc": [true, true, true],
      "a": 5.082758244132019,
      "b": 4.99579713189657,
      "c": 11.050657685367012,
      "alpha": 105.55494712665137,
      "beta": 73.18378623099761,
      "gamma": 119.3502458283438,
      "volume": 231.42523646269996
    },
    "properties": {},
    "sites": [
      {
        "species": [{ "element": "Si", "occu": 1 }],
        "abc": [0.344035, 0.5814900000000001, 0.65663],
        "properties": { "magmom": 0.0 },
        "label": "Si",
        "xyz": [1.3799807468999998, 2.0308872415500003, 7.012623872370002]
      },
      {
        "species": [{ "element": "Si", "occu": 1 }],
        "abc": [0.384964, 0.73289, 0.006092999999999],
        "properties": { "magmom": 0.001 },
        "label": "Si",
        "xyz": [0.172355872816998, 3.178867239598001, -0.15783837397801032]
      },
      {
        "species": [{ "element": "Si", "occu": 1 }],
        "abc": [0.394642, 0.961926, 0.546775],
        "properties": { "magmom": 0.001 },
        "label": "Si",
        "xyz": [0.537438118511, 3.758343180921999, 5.585868123970002]
      },
      {
        "species": [{ "element": "O", "occu": 1 }],
        "abc": [0.28033, 0.968386, 0.413087],
        "properties": { "magmom": -0.047 },
        "label": "O",
        "xyz": [-0.26798294680900014, 3.8811243937659996, 4.037323917158001]
      },
      {
        "species": [{ "element": "O", "occu": 1 }],
        "abc": [0.178240999999999, 0.637937, 0.829583],
        "properties": { "magmom": 0.0 },
        "label": "O",
        "xyz": [0.6885022708369949, 2.134386272605, 8.734729889307]
      },
      {
        "species": [{ "element": "O", "occu": 1 }],
        "abc": [0.632929, 0.903493999999999, 0.612957],
        "properties": { "magmom": -0.001 },
        "label": "O",
        "xyz": [1.983052122347002, 3.4692438217899952, 6.527791569558001]
      },
      {
        "species": [{ "element": "O", "occu": 1 }],
        "abc": [0.713171999999999, 0.806584, 0.017811],
        "properties": { "magmom": -0.004 },
        "label": "O",
        "xyz": [1.6627427831989947, 3.506048196459999, 0.16506240634400013]
      },
      {
        "species": [{ "element": "O", "occu": 1 }],
        "abc": [0.375228, 0.272954, 0.640824],
        "properties": { "magmom": -0.001 },
        "label": "O",
        "xyz": [2.257523311888, 0.7132978834099997, 7.079953325686]
      },
      {
        "species": [{ "element": "O", "occu": 1 }],
        "abc": [0.675754, 0.571974, 0.285197],
        "properties": { "magmom": 0.046 },
        "label": "O",
        "xyz": [2.472485038556999, 2.28927655101, 3.2176366860180003]
      },
      {
        "species": [{ "element": "O", "occu": 1 }],
        "abc": [0.787134, 0.569821, 0.17176000000000002],
        "properties": { "magmom": 0.047 },
        "label": "O",
        "xyz": [2.8549445641079996, 2.371994310969, 2.0656779004750008]
      },
      {
        "species": [{ "element": "O", "occu": 1 }],
        "abc": [0.17966000000000001, 0.748101, 0.151395],
        "properties": { "magmom": 0.0 },
        "label": "O",
        "xyz": [-0.662503283041, 3.123197057725, 1.2618905546350008]
      },
      {
        "species": [{ "element": "O", "occu": 1 }],
        "abc": [0.390828, 0.936759, 0.896666],
        "properties": { "magmom": -0.0 },
        "label": "O",
        "xyz": [1.1423670491299995, 3.3846707379309997, 9.416742952009]
      },
      {
        "species": [{ "element": "O", "occu": 1 }],
        "abc": [0.599506, 0.024482999999999002, 0.393775999999999],
        "properties": { "magmom": -0.043000000000000003 },
        "label": "O",
        "xyz": [3.5881098207240005, -0.15943539404100357, 4.72829463462899]
      },
      {
        "species": [{ "element": "O", "occu": 1 }],
        "abc": [0.108835, 0.615656, 0.592637],
        "properties": { "magmom": -0.001 },
        "label": "O",
        "xyz": [0.012094637550999932, 2.213796462896, 6.113904851308]
      },
      {
        "species": [{ "element": "O", "occu": 1 }],
        "abc": [0.16474000000000003, 0.417545, 0.901477],
        "properties": { "magmom": -0.0 },
        "label": "O",
        "xyz": [1.2693867631770002, 1.128269567241, 9.663177312263]
      }
    ]
  },
  "task_ids": null,
  "uncorrected_energy_per_atom": null,
  "energy_per_atom": -6.204206068,
  "formation_energy_per_atom": -1.160773658,
  "energy_above_hull": 0.8029251483333321,
  "is_stable": false,
  "equilibrium_reaction_energy_per_atom": null,
  "decomposes_to": null,
  "xas": null,
  "grain_boundaries": null,
  "band_gap": 0.38920000000000005,
  "cbm": null,
  "vbm": null,
  "efermi": -0.08989901,
  "is_gap_direct": null,
  "is_metal": null,
  "es_source_calc_id": null,
  "bandstructure": null,
  "dos": null,
  "dos_energy_up": null,
  "dos_energy_down": null,
  "is_magnetic": null,
  "ordering": null,
  "total_magnetization": 0.0099984,
  "total_magnetization_normalized_vol": null,
  "total_magnetization_normalized_formula_units": null,
  "num_magnetic_sites": null,
  "num_unique_magnetic_sites": null,
  "types_of_magnetic_species": null,
  "bulk_modulus": null,
  "shear_modulus": null,
  "universal_anisotropy": null,
  "homogeneous_poisson": null,
  "e_total": null,
  "e_ionic": null,
  "e_electronic": null,
  "n": null,
  "e_ij_max": null,
  "weighted_surface_energy_EV_PER_ANG2": null,
  "weighted_surface_energy": null,
  "weighted_work_function": null,
  "surface_anisotropy": null,
  "shape_factor": null,
  "has_reconstructed": null,
  "possible_species": null,
  "has_props": null,
  "theoretical": null,
  "database_IDs": null,
  "fields_not_requested": [
    "builder_meta",
    "nsites",
    "elements",
    "nelements",
    "composition",
    "composition_reduced",
    "chemsys",
    "symmetry",
    "property_name",
    "deprecated",
    "deprecation_reasons",
    "last_updated",
    "origins",
    "warnings",
    "task_ids",
    "uncorrected_energy_per_atom",
    "equilibrium_reaction_energy_per_atom",
    "decomposes_to",
    "xas",
    "grain_boundaries",
    "cbm",
    "vbm",
    "is_gap_direct",
    "is_metal",
    "es_source_calc_id",
    "bandstructure",
    "dos",
    "dos_energy_up",
    "dos_energy_down",
    "is_magnetic",
    "ordering",
    "total_magnetization_normalized_vol",
    "total_magnetization_normalized_formula_units",
    "num_magnetic_sites",
    "num_unique_magnetic_sites",
    "types_of_magnetic_species",
    "bulk_modulus",
    "shear_modulus",
    "universal_anisotropy",
    "homogeneous_poisson",
    "e_total",
    "e_ionic",
    "e_electronic",
    "n",
    "e_ij_max",
    "weighted_surface_energy_EV_PER_ANG2",
    "weighted_surface_energy",
    "weighted_work_function",
    "surface_anisotropy",
    "shape_factor",
    "has_reconstructed",
    "possible_species",
    "has_props",
    "theoretical",
    "database_IDs"
  ]
}
