{
  "builder_meta": null,
  "nsites": null,
  "elements": null,
  "nelements": null,
  "composition": null,
  "composition_reduced": null,
  "formula_pretty": "SiOs",
  "formula_anonymous": "AB",
  "chemsys": null,
  "volume": 108.2579655882025,
  "density": 13.394724891590547,
  "density_atomic": 13.532245698525312,
  "symmetry": null,
  "property_name": null,
  "material_id": "mp-2488",
  "deprecated": null,
  "deprecation_reasons": null,
  "last_updated": null,
  "origins": null,
  "warnings": null,
  "structure": {
    "@module": "pymatgen.core.structure",
    "@class": "Structure",
    "charge": 0,
    "lattice": {
      "matrix": [
        [4.76599176, -0.0, -0.0],
        [-0.0, 4.76599176, 0.0],
        [0.0, -0.0, 4.76599176]
      ],
      "pbc": [true, true, true],
      "a": 4.76599176,
      "b": 4.76599176,
      "c": 4.76599176,
      "alpha": 90.0,
      "beta": 90.0,
      "gamma": 90.0,
      "volume": 108.2579655882025
    },
    "properties": {},
    "sites": [
      {
        "species": [{ "element": "Si", "occu": 1 }],
        "abc": [0.16476255, 0.33523745, 0.6647625500000001],
        "properties": { "magmom": -0.0 },
        "label": "Si",
        "xyz": [0.785256955656588, 1.5977389243434121, 3.1682528356565887]
      },
      {
        "species": [{ "element": "Si", "occu": 1 }],
        "abc": [0.33523745, 0.6647625500000001, 0.16476255],
        "properties": { "magmom": -0.0 },
        "label": "Si",
        "xyz": [1.5977389243434121, 3.1682528356565887, 0.785256955656588]
      },
      {
        "species": [{ "element": "Si", "occu": 1 }],
        "abc": [0.6647625500000001, 0.16476255, 0.33523745],
        "properties": { "magmom": -0.0 },
        "label": "Si",
        "xyz": [3.1682528356565887, 0.785256955656588, 1.5977389243434121]
      },
      {
        "species": [{ "element": "Si", "occu": 1 }],
        "abc": [0.83523745, 0.83523745, 0.83523745],
        "properties": { "magmom": -0.0 },
        "label": "Si",
        "xyz": [3.9807348043434123, 3.9807348043434123, 3.9807348043434123]
      },
      {
        "species": [{ "element": "Os", "occu": 1 }],
        "abc": [0.87716635, 0.62283365, 0.37716635],
        "properties": { "magmom": -0.0 },
        "label": "Os",
        "xyz": [4.1805675962492765, 2.9684200437507244, 1.7975717162492761]
      },
      {
        "species": [{ "element": "Os", "occu": 1 }],
        "abc": [0.62283365, 0.37716635, 0.87716635],
        "properties": { "magmom": -0.0 },
        "label": "Os",
        "xyz": [2.9684200437507244, 1.7975717162492761, 4.1805675962492765]
      },
      {
        "species": [{ "element": "Os", "occu": 1 }],
        "abc": [0.37716635, 0.87716635, 0.62283365],
        "properties": { "magmom": -0.0 },
        "label": "Os",
        "xyz": [1.7975717162492761, 4.1805675962492765, 2.9684200437507244]
      },
      {
        "species": [{ "element": "Os", "occu": 1 }],
        "abc": [0.12283365, 0.12283365, 0.12283365],
        "properties": { "magmom": -0.0 },
        "label": "Os",
        "xyz": [0.585424163750724, 0.585424163750724, 0.585424163750724]
      }
    ]
  },
  "task_ids": null,
  "uncorrected_energy_per_atom": null,
  "energy_per_atom": -31.27197913125,
  "formation_energy_per_atom": -0.392482408749998,
  "energy_above_hull": 0.0,
  "is_stable": true,
  "equilibrium_reaction_energy_per_atom": null,
  "decomposes_to": null,
  "xas": null,
  "grain_boundaries": null,
  "band_gap": 0.5122,
  "cbm": null,
  "vbm": null,
  "efermi": 9.83219609,
  "is_gap_direct": null,
  "is_metal": null,
  "es_source_calc_id": null,
  "bandstructure": null,
  "dos": null,
  "dos_energy_up": null,
  "dos_energy_down": null,
  "is_magnetic": null,
  "ordering": null,
  "total_magnetization": 0.0,
  "total_magnetization_normalized_vol": null,
  "total_magnetization_normalized_formula_units": null,
  "num_magnetic_sites": null,
  "num_unique_magnetic_sites": null,
  "types_of_magnetic_species": null,
  "bulk_modulus": null,
  "shear_modulus": null,
  "universal_anisotropy": null,
  "homogeneous_poisson": null,
  "e_total": null,
  "e_ionic": null,
  "e_electronic": null,
  "n": null,
  "e_ij_max": null,
  "weighted_surface_energy_EV_PER_ANG2": null,
  "weighted_surface_energy": null,
  "weighted_work_function": null,
  "surface_anisotropy": null,
  "shape_factor": null,
  "has_reconstructed": null,
  "possible_species": null,
  "has_props": null,
  "theoretical": null,
  "database_IDs": null,
  "fields_not_requested": [
    "builder_meta",
    "nsites",
    "elements",
    "nelements",
    "composition",
    "composition_reduced",
    "chemsys",
    "symmetry",
    "property_name",
    "deprecated",
    "deprecation_reasons",
    "last_updated",
    "origins",
    "warnings",
    "task_ids",
    "uncorrected_energy_per_atom",
    "equilibrium_reaction_energy_per_atom",
    "decomposes_to",
    "xas",
    "grain_boundaries",
    "cbm",
    "vbm",
    "is_gap_direct",
    "is_metal",
    "es_source_calc_id",
    "bandstructure",
    "dos",
    "dos_energy_up",
    "dos_energy_down",
    "is_magnetic",
    "ordering",
    "total_magnetization_normalized_vol",
    "total_magnetization_normalized_formula_units",
    "num_magnetic_sites",
    "num_unique_magnetic_sites",
    "types_of_magnetic_species",
    "bulk_modulus",
    "shear_modulus",
    "universal_anisotropy",
    "homogeneous_poisson",
    "e_total",
    "e_ionic",
    "e_electronic",
    "n",
    "e_ij_max",
    "weighted_surface_energy_EV_PER_ANG2",
    "weighted_surface_energy",
    "weighted_work_function",
    "surface_anisotropy",
    "shape_factor",
    "has_reconstructed",
    "possible_species",
    "has_props",
    "theoretical",
    "database_IDs"
  ]
}
