{"builder_meta": null, "nsites": null, "elements": null, "nelements": null, "composition": null, "composition_reduced": null, "formula_pretty": "SiP", "formula_anonymous": "AB", "chemsys": null, "volume": 520.8539229316051, "density": 2.259448359192474, "density_atomic": 21.70224678881688, "symmetry": null, "property_name": null, "material_id": "mp-2798", "deprecated": null, "deprecation_reasons": null, "last_updated": null, "origins": null, "warnings": null, "structure": {"@module": "pymatgen.core.structure", "@class": "Structure", "charge": 0, "lattice": {"matrix": [[3.52225672, -5.927e-05, 1.565e-05], [-1.761311979999999, 10.26048521, -0.00043789], [5.593e-05, -0.00054252, 14.41213394]], "pbc": [true, true, true], "a": 3.522256720533444, "b": 10.410560831543512, "c": 14.412133950319642, "alpha": 90.00457330829617, "beta": 89.99952303754253, "gamma": 99.74140772516039, "volume": 520.8539229316051}, "properties": {}, "sites": [{"species": [{"element": "Si", "occu": 1}], "abc": [0.16987701, 0.34009465, 0.73866032], "properties": {"magmom": -0.0}, "label": "Si", "xyz": [-0.0006210280612018409, 3.4891253197179375, 10.645525202532179]}, {"species": [{"element": "Si", "occu": 1}], "abc": [0.83012548, 0.65988954, 0.23856895], "properties": {"magmom": -0.0}, "label": "Si", "xyz": [1.7616570412559107, 6.77060823543975, 3.4380116937582543]}, {"species": [{"element": "Si", "occu": 1}], "abc": [0.058936260000000004, 0.118291899999999, 0.77879982], "properties": {"magmom": -0.0}, "label": "Si", "xyz": [-0.0007167444963603033, 1.2133062827823125, 11.22411644180027]}, {"species": [{"element": "Si", "occu": 1}], "abc": [0.94105863, 0.8817073400000001, 0.27868124], "properties": {"magmom": 0.0}, "label": "Si", "xyz": [1.7617039692773144, 9.046538154927118, 4.016019994185732]}, {"species": [{"element": "Si", "occu": 1}], "abc": [0.43462489, 0.86991016, 0.68465431], "properties": {"magmom": -0.0}, "label": "Si", "xyz": [-0.0012844541343967366, 8.925303131835243, 9.866955495237848]}, {"species": [{"element": "Si", "occu": 1}], "abc": [0.56534289, 0.13007524, 0.1845432], "properties": {"magmom": 0.0}, "label": "Si", "xyz": [1.762190036394522, 1.3345014499572463, 2.659613205085593]}, {"species": [{"element": "Si", "occu": 1}], "abc": [0.43154738000000004, 0.86388498, 0.84699323], "properties": {"magmom": -0.0}, "label": "Si", "xyz": [-0.0015029330813118645, 8.863393971850794, 12.206608344155832]}, {"species": [{"element": "Si", "occu": 1}], "abc": [0.56842666, 0.13611961, 0.34688447], "properties": {"magmom": 0.0}, "label": "Si", "xyz": [1.7624149244546345, 1.3964313627851654, 4.999294733807118]}, {"species": [{"element": "Si", "occu": 1}], "abc": [0.79410843, 0.58848554, 0.832441299999999], "properties": {"magmom": -0.0}, "label": "Si", "xyz": [1.76059368075929, 6.037648496608141, 11.997010248651527]}, {"species": [{"element": "Si", "occu": 1}], "abc": [0.20592074, 0.4115481, 0.3323291], "properties": {"magmom": -0.0}, "label": "Si", "xyz": [0.00045969854269822813, 4.222490693148009, 4.789394511221726]}, {"species": [{"element": "Si", "occu": 1}], "abc": [0.79718534, 0.59434461, 0.67017927], "properties": {"magmom": -0.0}, "label": "Si", "xyz": [1.7611026221856285, 6.097853245715556, 9.658465621440723]}, {"species": [{"element": "Si", "occu": 1}], "abc": [0.20282949, 0.40562984, 0.17007179], "properties": {"magmom": 0.0}, "label": "Si", "xyz": [-1.3650355595212072e-05, 4.161854685003283, 2.4509229699264337]}, {"species": [{"element": "P", "occu": 1}], "abc": [0.99830599, 0.99732175, 0.64479078], "properties": {"magmom": 0.0}, "label": "P", "xyz": [1.7597312988525144, 10.232596083996325, 9.29238999090471]}, {"species": [{"element": "P", "occu": 1}], "abc": [0.00164463, 0.0026679, 0.14466185], "properties": {"magmom": -0.0}, "label": "P", "xyz": [0.001101895775242103, 0.0272953690676769, 2.0848848156999176]}, {"species": [{"element": "P", "occu": 1}], "abc": [0.23053515, 0.4613352, 0.87244875], "properties": {"magmom": 0.0}, "label": "P", "xyz": [-0.0005024372134000834, 4.733036011738202, 12.573649834589943]}, {"species": [{"element": "P", "occu": 1}], "abc": [0.7695040400000001, 0.53869699, 0.37235842], "properties": {"magmom": 0.0}, "label": "P", "xyz": [1.7615981398866398, 5.52704487817205, 5.36625557544005]}, {"species": [{"element": "P", "occu": 1}], "abc": [0.34366842000000003, 0.68733415, 0.59715836], "properties": {"magmom": 0.0}, "label": "P", "xyz": [-8.807179425893896e-05, 7.052037540822202, 8.606030669370568]}, {"species": [{"element": "P", "occu": 1}], "abc": [0.65634452, 0.31262714, 0.09704723], "properties": {"magmom": -0.0}, "label": "P", "xyz": [1.7611853971016114, 3.2076145946116803, 1.3985310527593897]}, {"species": [{"element": "P", "occu": 1}], "abc": [0.53994475, 0.08044318, 0.87505294], "properties": {"magmom": 0.0}, "label": "P", "xyz": [1.7601874291838577, 0.8248793223890265, 12.611353400742031]}, {"species": [{"element": "P", "occu": 1}], "abc": [0.46005154000000004, 0.91957177, 0.37494872], "properties": {"magmom": -0.0}, "label": "P", "xyz": [0.0007878242224549814, 9.435021861184172, 5.403415701795793]}, {"species": [{"element": "P", "occu": 1}], "abc": [0.68869051, 0.37763406, 0.64241798], "properties": {"magmom": 0.0}, "label": "P", "xyz": [1.7606493133513104, 3.8743193441332155, 9.258459389052192]}, {"species": [{"element": "P", "occu": 1}], "abc": [0.31133105, 0.62233879, 0.14232792], "properties": {"magmom": 0.0}, "label": "P", "xyz": [0.00046307696201796224, 6.385402282069805, 2.050981402839784]}, {"species": [{"element": "P", "occu": 1}], "abc": [0.8850307, 0.77092142, 0.92001168], "properties": {"magmom": 0.0}, "label": "P", "xyz": [1.7595236540499557, 7.909476247475975, 13.259007830474271]}, {"species": [{"element": "P", "occu": 1}], "abc": [0.1149655, 0.22912713, 0.41988937], "properties": {"magmom": -0.0}, "label": "P", "xyz": [0.0013971303436069085, 2.35072091618855, 6.051403307153337]}]}, "task_ids": null, "uncorrected_energy_per_atom": null, "energy_per_atom": -9.057882655833334, "formation_energy_per_atom": -0.169962202321427, "energy_above_hull": 0.0, "is_stable": true, "equilibrium_reaction_energy_per_atom": null, "decomposes_to": null, "xas": null, "grain_boundaries": null, "band_gap": 1.7395, "cbm": null, "vbm": null, "efermi": 3.50735638, "is_gap_direct": null, "is_metal": null, "es_source_calc_id": null, "bandstructure": null, "dos": null, "dos_energy_up": null, "dos_energy_down": null, "is_magnetic": null, "ordering": null, "total_magnetization": 0.0, "total_magnetization_normalized_vol": null, "total_magnetization_normalized_formula_units": null, "num_magnetic_sites": null, "num_unique_magnetic_sites": null, "types_of_magnetic_species": null, "bulk_modulus": null, "shear_modulus": null, "universal_anisotropy": null, "homogeneous_poisson": null, "e_total": null, "e_ionic": null, "e_electronic": null, "n": null, "e_ij_max": null, "weighted_surface_energy_EV_PER_ANG2": null, "weighted_surface_energy": null, "weighted_work_function": null, "surface_anisotropy": null, "shape_factor": null, "has_reconstructed": null, "possible_species": null, "has_props": null, "theoretical": null, "database_IDs": null, "fields_not_requested": ["builder_meta", "nsites", "elements", "nelements", "composition", "composition_reduced", "chemsys", "symmetry", "property_name", "deprecated", "deprecation_reasons", "last_updated", "origins", "warnings", "task_ids", "uncorrected_energy_per_atom", "equilibrium_reaction_energy_per_atom", "decomposes_to", "xas", "grain_boundaries", "cbm", "vbm", "is_gap_direct", "is_metal", "es_source_calc_id", "bandstructure", "dos", "dos_energy_up", "dos_energy_down", "is_magnetic", "ordering", "total_magnetization_normalized_vol", "total_magnetization_normalized_formula_units", "num_magnetic_sites", "num_unique_magnetic_sites", "types_of_magnetic_species", "bulk_modulus", "shear_modulus", "universal_anisotropy", "homogeneous_poisson", "e_total", "e_ionic", "e_electronic", "n", "e_ij_max", "weighted_surface_energy_EV_PER_ANG2", "weighted_surface_energy", "weighted_work_function", "surface_anisotropy", "shape_factor", "has_reconstructed", "possible_species", "has_props", "theoretical", "database_IDs"]}