{
  "builder_meta": null,
  "nsites": null,
  "elements": null,
  "nelements": null,
  "composition": null,
  "composition_reduced": null,
  "formula_pretty": "SiP2",
  "formula_anonymous": "AB2",
  "chemsys": null,
  "volume": 525.5840606792137,
  "density": 2.27561472762978,
  "density_atomic": 21.899335861633904,
  "symmetry": null,
  "property_name": null,
  "material_id": "mp-9996",
  "deprecated": null,
  "deprecation_reasons": null,
  "last_updated": null,
  "origins": null,
  "warnings": null,
  "structure": {
    "@module": "pymatgen.core.structure",
    "@class": "Structure",
    "charge": 0,
    "lattice": {
      "matrix": [
        [3.44067778, 0.0, 0.0],
        [0.0, 10.19462847, -0.0],
        [0.0, -0.0, 14.98396604]
      ],
      "pbc": [true, true, true],
      "a": 3.44067778,
      "b": 10.19462847,
      "c": 14.98396604,
      "alpha": 90.0,
      "beta": 90.0,
      "gamma": 90.0,
      "volume": 525.5840606792137
    },
    "properties": {},
    "sites": [
      {
        "species": [{ "element": "Si", "occu": 1 }],
        "abc": [0.0, 0.5887681300000001, 0.8399762],
        "properties": { "magmom": 0.0 },
        "label": "Si",
        "xyz": [0.0, 6.002272340326662, 12.586174855208247]
      },
      {
        "species": [{ "element": "Si", "occu": 1 }],
        "abc": [0.0, 0.41123187, 0.1600238],
        "properties": { "magmom": 0.0 },
        "label": "Si",
        "xyz": [0.0, 4.192356129673339, 2.397791184791752]
      },
      {
        "species": [{ "element": "Si", "occu": 1 }],
        "abc": [-0.0, 0.08876813, 0.660023799999999],
        "properties": { "magmom": 0.0 },
        "label": "Si",
        "xyz": [0.0, 0.9049581053266611, 9.889774204791738]
      },
      {
        "species": [{ "element": "Si", "occu": 1 }],
        "abc": [-0.0, 0.91123187, 0.3399762],
        "properties": { "magmom": 0.0 },
        "label": "Si",
        "xyz": [0.0, 9.28967036467334, 5.094191835208248]
      },
      {
        "species": [{ "element": "Si", "occu": 1 }],
        "abc": [0.5, 0.80551943, 0.73215532],
        "properties": { "magmom": 0.0 },
        "label": "Si",
        "xyz": [1.72033889, 8.211971314216171, 10.970590450885334]
      },
      {
        "species": [{ "element": "Si", "occu": 1 }],
        "abc": [0.5, 0.19448057, 0.26784468],
        "properties": { "magmom": 0.0 },
        "label": "Si",
        "xyz": [1.72033889, 1.9826571557838277, 4.013375589114667]
      },
      {
        "species": [{ "element": "Si", "occu": 1 }],
        "abc": [0.5, 0.30551943, 0.7678446800000001],
        "properties": { "magmom": 0.0 },
        "label": "Si",
        "xyz": [1.72033889, 3.1146570792161716, 11.50535860911467]
      },
      {
        "species": [{ "element": "Si", "occu": 1 }],
        "abc": [0.5, 0.69448057, 0.23215532],
        "properties": { "magmom": 0.0 },
        "label": "Si",
        "xyz": [1.72033889, 7.079971390783827, 3.478607430885333]
      },
      {
        "species": [{ "element": "P", "occu": 1 }],
        "abc": [0.0, 0.67155813, 0.700557099999999],
        "properties": { "magmom": -0.0 },
        "label": "P",
        "xyz": [0.0, 6.8462856313579605, 10.49712379548087]
      },
      {
        "species": [{ "element": "P", "occu": 1 }],
        "abc": [0.0, 0.32844287, 0.2994429],
        "properties": { "magmom": -0.0 },
        "label": "P",
        "xyz": [0.0, 3.348353033270509, 4.486842244519116]
      },
      {
        "species": [{ "element": "P", "occu": 1 }],
        "abc": [-0.0, 0.17155713, 0.7994429],
        "properties": { "magmom": -0.0 },
        "label": "P",
        "xyz": [0.0, 1.748961201729491, 11.978825264519116]
      },
      {
        "species": [{ "element": "P", "occu": 1 }],
        "abc": [0.0, 0.82844187, 0.2005571],
        "properties": { "magmom": -0.0 },
        "label": "P",
        "xyz": [0.0, 8.445657073642039, 3.005140775480884]
      },
      {
        "species": [{ "element": "P", "occu": 1 }],
        "abc": [-0.0, 0.75947576, 0.93726933],
        "properties": { "magmom": -0.0 },
        "label": "P",
        "xyz": [0.0, 7.7425732051708875, 14.044011811053554]
      },
      {
        "species": [{ "element": "P", "occu": 1 }],
        "abc": [-0.0, 0.24052424, 0.06273067],
        "properties": { "magmom": -0.0 },
        "label": "P",
        "xyz": [0.0, 2.4520552648291125, 0.9399542289464469]
      },
      {
        "species": [{ "element": "P", "occu": 1 }],
        "abc": [-0.0, 0.25947576, 0.56273067],
        "properties": { "magmom": -0.0 },
        "label": "P",
        "xyz": [0.0, 2.6452589701708873, 8.431937248946447]
      },
      {
        "species": [{ "element": "P", "occu": 1 }],
        "abc": [-0.0, 0.7405242400000001, 0.43726933],
        "properties": { "magmom": -0.0 },
        "label": "P",
        "xyz": [0.0, 7.549369499829113, 6.552028791053553]
      },
      {
        "species": [{ "element": "P", "occu": 1 }],
        "abc": [0.5, 0.87447453, 0.88017858],
        "properties": { "magmom": 0.0 },
        "label": "P",
        "xyz": [1.72033889, 8.914942939827869, 13.188565951855423]
      },
      {
        "species": [{ "element": "P", "occu": 1 }],
        "abc": [0.5, 0.12552547, 0.11982142],
        "properties": { "magmom": 0.0 },
        "label": "P",
        "xyz": [1.72033889, 1.2796855301721308, 1.7954000881445769]
      },
      {
        "species": [{ "element": "P", "occu": 1 }],
        "abc": [0.5, 0.37447453, 0.6198214200000001],
        "properties": { "magmom": 0.0 },
        "label": "P",
        "xyz": [1.72033889, 3.8176287048278694, 9.287383108144578]
      },
      {
        "species": [{ "element": "P", "occu": 1 }],
        "abc": [0.5, 0.62552547, 0.38017858],
        "properties": { "magmom": 0.0 },
        "label": "P",
        "xyz": [1.72033889, 6.376999765172131, 5.696582931855423]
      },
      {
        "species": [{ "element": "P", "occu": 1 }],
        "abc": [0.5, 0.959153399999999, 0.6235381600000001],
        "properties": { "magmom": -0.0 },
        "label": "P",
        "xyz": [1.72033889, 9.778212558737287, 9.343074614084088]
      },
      {
        "species": [{ "element": "P", "occu": 1 }],
        "abc": [0.5, 0.0408466, 0.37646184],
        "properties": { "magmom": -0.0 },
        "label": "P",
        "xyz": [1.72033889, 0.41641591126270194, 5.640891425915914]
      },
      {
        "species": [{ "element": "P", "occu": 1 }],
        "abc": [0.5, 0.4591534, 0.87646184],
        "properties": { "magmom": -0.0 },
        "label": "P",
        "xyz": [1.72033889, 4.680898323737297, 13.132874445915915]
      },
      {
        "species": [{ "element": "P", "occu": 1 }],
        "abc": [0.5, 0.5408466, 0.12353816000000001],
        "properties": { "magmom": -0.0 },
        "label": "P",
        "xyz": [1.72033889, 5.513730146262701, 1.8510915940840866]
      }
    ]
  },
  "task_ids": null,
  "uncorrected_energy_per_atom": null,
  "energy_per_atom": -9.068363137916666,
  "formation_energy_per_atom": -0.14239073156745902,
  "energy_above_hull": 0.0,
  "is_stable": true,
  "equilibrium_reaction_energy_per_atom": null,
  "decomposes_to": null,
  "xas": null,
  "grain_boundaries": null,
  "band_gap": 1.4262000000000001,
  "cbm": null,
  "vbm": null,
  "efermi": 3.4854361,
  "is_gap_direct": null,
  "is_metal": null,
  "es_source_calc_id": null,
  "bandstructure": null,
  "dos": null,
  "dos_energy_up": null,
  "dos_energy_down": null,
  "is_magnetic": null,
  "ordering": null,
  "total_magnetization": 0.0,
  "total_magnetization_normalized_vol": null,
  "total_magnetization_normalized_formula_units": null,
  "num_magnetic_sites": null,
  "num_unique_magnetic_sites": null,
  "types_of_magnetic_species": null,
  "bulk_modulus": null,
  "shear_modulus": null,
  "universal_anisotropy": null,
  "homogeneous_poisson": null,
  "e_total": null,
  "e_ionic": null,
  "e_electronic": null,
  "n": null,
  "e_ij_max": null,
  "weighted_surface_energy_EV_PER_ANG2": null,
  "weighted_surface_energy": null,
  "weighted_work_function": null,
  "surface_anisotropy": null,
  "shape_factor": null,
  "has_reconstructed": null,
  "possible_species": null,
  "has_props": null,
  "theoretical": null,
  "database_IDs": null,
  "fields_not_requested": [
    "builder_meta",
    "nsites",
    "elements",
    "nelements",
    "composition",
    "composition_reduced",
    "chemsys",
    "symmetry",
    "property_name",
    "deprecated",
    "deprecation_reasons",
    "last_updated",
    "origins",
    "warnings",
    "task_ids",
    "uncorrected_energy_per_atom",
    "equilibrium_reaction_energy_per_atom",
    "decomposes_to",
    "xas",
    "grain_boundaries",
    "cbm",
    "vbm",
    "is_gap_direct",
    "is_metal",
    "es_source_calc_id",
    "bandstructure",
    "dos",
    "dos_energy_up",
    "dos_energy_down",
    "is_magnetic",
    "ordering",
    "total_magnetization_normalized_vol",
    "total_magnetization_normalized_formula_units",
    "num_magnetic_sites",
    "num_unique_magnetic_sites",
    "types_of_magnetic_species",
    "bulk_modulus",
    "shear_modulus",
    "universal_anisotropy",
    "homogeneous_poisson",
    "e_total",
    "e_ionic",
    "e_electronic",
    "n",
    "e_ij_max",
    "weighted_surface_energy_EV_PER_ANG2",
    "weighted_surface_energy",
    "weighted_work_function",
    "surface_anisotropy",
    "shape_factor",
    "has_reconstructed",
    "possible_species",
    "has_props",
    "theoretical",
    "database_IDs"
  ]
}
