{
  "builder_meta": null,
  "nsites": null,
  "elements": null,
  "nelements": null,
  "composition": null,
  "composition_reduced": null,
  "formula_pretty": "SiPd2",
  "formula_anonymous": "AB2",
  "chemsys": null,
  "volume": 127.37244384690827,
  "density": 9.422749367303965,
  "density_atomic": 14.152493760767586,
  "symmetry": null,
  "property_name": null,
  "material_id": "mp-697068",
  "deprecated": null,
  "deprecation_reasons": null,
  "last_updated": null,
  "origins": null,
  "warnings": null,
  "structure": {
    "@module": "pymatgen.core.structure",
    "@class": "Structure",
    "charge": 0,
    "lattice": {
      "matrix": [
        [6.47789615, -0.0006010400000000001, 0.0],
        [-3.2394693, 5.60972302, 0.0],
        [0.0, 0.0, 3.50528514]
      ],
      "pbc": [true, true, true],
      "a": 6.477896177883211,
      "b": 6.477897321412281,
      "c": 3.50528514,
      "alpha": 90.0,
      "beta": 90.0,
      "gamma": 120.01063357434523,
      "volume": 127.37244384690827
    },
    "properties": {},
    "sites": [
      {
        "species": [{ "element": "Si", "occu": 1 }],
        "abc": [0.66672256, 0.33340574, -0.0],
        "properties": { "magmom": 0.0 },
        "label": "Si",
        "xyz": [3.2389018453683613, 1.8699131277506724, 0.0]
      },
      {
        "species": [{ "element": "Si", "occu": 1 }],
        "abc": [0.33340574, 0.66672256, -0.0],
        "properties": { "magmom": 0.0 },
        "label": "Si",
        "xyz": [-5.9505203506837745e-5, 3.739928502599361, 0.0]
      },
      {
        "species": [{ "element": "Si", "occu": 1 }],
        "abc": [0.00012923, 0.00012923, 0.5],
        "properties": { "magmom": 0.0 },
        "label": "Si",
        "xyz": [0.00041850190182550007, 0.0007248668334753999, 1.75264257]
      },
      {
        "species": [{ "element": "Pd", "occu": 1 }],
        "abc": [0.73542924, 0.73542924, -0.0],
        "properties": { "magmom": -0.0 },
        "label": "Pd",
        "xyz": [2.381633797091094, 4.125112314818694, 0.0]
      },
      {
        "species": [{ "element": "Pd", "occu": 1 }],
        "abc": [0.26463774, 2.089e-5, -0.0],
        "properties": { "magmom": -0.0 },
        "label": "Pd",
        "xyz": [1.7142281245770241, -4.187075336180003e-5, 0.0]
      },
      {
        "species": [{ "element": "Pd", "occu": 1 }],
        "abc": [2.089e-5, 0.26463774, -0.0],
        "properties": { "magmom": -0.0 },
        "label": "Pd",
        "xyz": [-0.8571505111008085, 1.484544409483049, 0.0]
      },
      {
        "species": [{ "element": "Pd", "occu": 1 }],
        "abc": [0.39325002000000003, 0.39325002000000003, 0.5],
        "properties": { "magmom": 0.0 },
        "label": "Pd",
        "xyz": [1.2735114235310374, 2.2057873308174396, 1.75264257]
      },
      {
        "species": [{ "element": "Pd", "occu": 1 }],
        "abc": [0.60669845, 0.99981112, 0.5],
        "properties": { "magmom": -0.0 },
        "label": "Pd",
        "xyz": [0.6912721244273516, 5.608298805479595, 1.75264257]
      },
      {
        "species": [{ "element": "Pd", "occu": 1 }],
        "abc": [0.99981112, 0.60669845, 0.5],
        "properties": { "magmom": -0.0 },
        "label": "Pd",
        "xyz": [4.511291601842604, 3.4028093346877544, 1.75264257]
      }
    ]
  },
  "task_ids": null,
  "uncorrected_energy_per_atom": null,
  "energy_per_atom": -18.911060664444445,
  "formation_energy_per_atom": -0.679503392777778,
  "energy_above_hull": 0.0,
  "is_stable": true,
  "equilibrium_reaction_energy_per_atom": null,
  "decomposes_to": null,
  "xas": null,
  "grain_boundaries": null,
  "band_gap": 0.0,
  "cbm": null,
  "vbm": null,
  "efermi": 6.70724752,
  "is_gap_direct": null,
  "is_metal": null,
  "es_source_calc_id": null,
  "bandstructure": null,
  "dos": null,
  "dos_energy_up": null,
  "dos_energy_down": null,
  "is_magnetic": null,
  "ordering": null,
  "total_magnetization": 0.0,
  "total_magnetization_normalized_vol": null,
  "total_magnetization_normalized_formula_units": null,
  "num_magnetic_sites": null,
  "num_unique_magnetic_sites": null,
  "types_of_magnetic_species": null,
  "bulk_modulus": null,
  "shear_modulus": null,
  "universal_anisotropy": null,
  "homogeneous_poisson": null,
  "e_total": null,
  "e_ionic": null,
  "e_electronic": null,
  "n": null,
  "e_ij_max": null,
  "weighted_surface_energy_EV_PER_ANG2": null,
  "weighted_surface_energy": null,
  "weighted_work_function": null,
  "surface_anisotropy": null,
  "shape_factor": null,
  "has_reconstructed": null,
  "possible_species": null,
  "has_props": null,
  "theoretical": null,
  "database_IDs": null,
  "fields_not_requested": [
    "builder_meta",
    "nsites",
    "elements",
    "nelements",
    "composition",
    "composition_reduced",
    "chemsys",
    "symmetry",
    "property_name",
    "deprecated",
    "deprecation_reasons",
    "last_updated",
    "origins",
    "warnings",
    "task_ids",
    "uncorrected_energy_per_atom",
    "equilibrium_reaction_energy_per_atom",
    "decomposes_to",
    "xas",
    "grain_boundaries",
    "cbm",
    "vbm",
    "is_gap_direct",
    "is_metal",
    "es_source_calc_id",
    "bandstructure",
    "dos",
    "dos_energy_up",
    "dos_energy_down",
    "is_magnetic",
    "ordering",
    "total_magnetization_normalized_vol",
    "total_magnetization_normalized_formula_units",
    "num_magnetic_sites",
    "num_unique_magnetic_sites",
    "types_of_magnetic_species",
    "bulk_modulus",
    "shear_modulus",
    "universal_anisotropy",
    "homogeneous_poisson",
    "e_total",
    "e_ionic",
    "e_electronic",
    "n",
    "e_ij_max",
    "weighted_surface_energy_EV_PER_ANG2",
    "weighted_surface_energy",
    "weighted_work_function",
    "surface_anisotropy",
    "shape_factor",
    "has_reconstructed",
    "possible_species",
    "has_props",
    "theoretical",
    "database_IDs"
  ]
}
