{"builder_meta": null, "nsites": null, "elements": null, "nelements": null, "composition": null, "composition_reduced": null, "formula_pretty": "SiPd3", "formula_anonymous": "AB3", "chemsys": null, "volume": 232.84628474446436, "density": 9.908352593913097, "density_atomic": 14.552892796529022, "symmetry": null, "property_name": null, "material_id": "mp-20622", "deprecated": null, "deprecation_reasons": null, "last_updated": null, "origins": null, "warnings": null, "structure": {"@module": "pymatgen.core.structure", "@class": "Structure", "charge": 0, "lattice": {"matrix": [[5.29195367, -0.0, 0.0], [0.0, 5.82306144, 0.0], [0.0, 0.0, 7.5561732500000005]], "pbc": [true, true, true], "a": 5.29195367, "b": 5.82306144, "c": 7.5561732500000005, "alpha": 90.0, "beta": 90.0, "gamma": 90.0, "volume": 232.84628474446438}, "properties": {}, "sites": [{"species": [{"element": "Si", "occu": 1}], "abc": [0.52988074, 0.10600168, 0.75], "properties": {"magmom": 0.0}, "label": "Si", "xyz": [2.8041043267053154, 0.6172542953832192, 5.6671299375]}, {"species": [{"element": "Si", "occu": 1}], "abc": [0.02988074, 0.39399832, 0.25], "properties": {"magmom": 0.0}, "label": "Si", "xyz": [0.1581274917053158, 2.294276424616781, 1.8890433125000001]}, {"species": [{"element": "Si", "occu": 1}], "abc": [0.97011926, 0.60600168, 0.75], "properties": {"magmom": 0.0}, "label": "Si", "xyz": [5.133826178294684, 3.528785015383219, 5.6671299375]}, {"species": [{"element": "Si", "occu": 1}], "abc": [0.47011926, 0.89399832, 0.25], "properties": {"magmom": 0.0}, "label": "Si", "xyz": [2.487849343294684, 5.205807144616781, 1.8890433125000001]}, {"species": [{"element": "Pd", "occu": 1}], "abc": [0.67693596, 0.82165574, 0.94792942], "properties": {"magmom": -0.0}, "label": "Pd", "xyz": [3.582313737876973, 4.784551856548665, 7.1627189262920155]}, {"species": [{"element": "Pd", "occu": 1}], "abc": [0.17693596, 0.67834426, 0.05207058], "properties": {"magmom": -0.0}, "label": "Pd", "xyz": [0.9363369028769732, 3.9500403034513347, 0.393454323707985]}, {"species": [{"element": "Pd", "occu": 1}], "abc": [0.82306404, 0.32165574, 0.55207058], "properties": {"magmom": -0.0}, "label": "Pd", "xyz": [4.355616767123027, 1.8730211365486658, 4.171540948707985]}, {"species": [{"element": "Pd", "occu": 1}], "abc": [0.32306404, 0.17834426, 0.44792942], "properties": {"magmom": -0.0}, "label": "Pd", "xyz": [1.7096399321230267, 1.0385095834513345, 3.384632301292015]}, {"species": [{"element": "Pd", "occu": 1}], "abc": [0.903455399999999, 0.0053764600000000004, 0.25], "properties": {"magmom": -0.0}, "label": "Pd", "xyz": [4.7810441197113125, 0.0313074569097024, 1.8890433125000001]}, {"species": [{"element": "Pd", "occu": 1}], "abc": [0.403455399999999, 0.49462354000000003, 0.75], "properties": {"magmom": -0.0}, "label": "Pd", "xyz": [2.1350672847113126, 2.880223263090298, 5.6671299375]}, {"species": [{"element": "Pd", "occu": 1}], "abc": [0.5965446, 0.50537646, 0.25], "properties": {"magmom": -0.0}, "label": "Pd", "xyz": [3.156886385288682, 2.9428381769097025, 1.8890433125000001]}, {"species": [{"element": "Pd", "occu": 1}], "abc": [0.0965446, 0.99462354, 0.75], "properties": {"magmom": -0.0}, "label": "Pd", "xyz": [0.5109095502886819, 5.791753983090297, 5.6671299375]}, {"species": [{"element": "Pd", "occu": 1}], "abc": [0.67693596, 0.82165574, 0.55207058], "properties": {"magmom": -0.0}, "label": "Pd", "xyz": [3.582313737876973, 4.784551856548665, 4.171540948707985]}, {"species": [{"element": "Pd", "occu": 1}], "abc": [0.17693596, 0.67834426, 0.44792942], "properties": {"magmom": -0.0}, "label": "Pd", "xyz": [0.9363369028769732, 3.9500403034513347, 3.384632301292015]}, {"species": [{"element": "Pd", "occu": 1}], "abc": [0.82306404, 0.32165574, 0.94792942], "properties": {"magmom": -0.0}, "label": "Pd", "xyz": [4.355616767123027, 1.8730211365486658, 7.1627189262920155]}, {"species": [{"element": "Pd", "occu": 1}], "abc": [0.32306404, 0.17834426, 0.05207058], "properties": {"magmom": -0.0}, "label": "Pd", "xyz": [1.7096399321230267, 1.0385095834513345, 0.393454323707985]}]}, "task_ids": null, "uncorrected_energy_per_atom": null, "energy_per_atom": -20.015117826875, "formation_energy_per_atom": -0.6013364706249961, "energy_above_hull": 0.0, "is_stable": true, "equilibrium_reaction_energy_per_atom": null, "decomposes_to": null, "xas": null, "grain_boundaries": null, "band_gap": 0.0, "cbm": null, "vbm": null, "efermi": 5.9769416, "is_gap_direct": null, "is_metal": null, "es_source_calc_id": null, "bandstructure": null, "dos": null, "dos_energy_up": null, "dos_energy_down": null, "is_magnetic": null, "ordering": null, "total_magnetization": 0.0, "total_magnetization_normalized_vol": null, "total_magnetization_normalized_formula_units": null, "num_magnetic_sites": null, "num_unique_magnetic_sites": null, "types_of_magnetic_species": null, "bulk_modulus": null, "shear_modulus": null, "universal_anisotropy": null, "homogeneous_poisson": null, "e_total": null, "e_ionic": null, "e_electronic": null, "n": null, "e_ij_max": null, "weighted_surface_energy_EV_PER_ANG2": null, "weighted_surface_energy": null, "weighted_work_function": null, "surface_anisotropy": null, "shape_factor": null, "has_reconstructed": null, "possible_species": null, "has_props": null, "theoretical": null, "database_IDs": null, "fields_not_requested": ["builder_meta", "nsites", "elements", "nelements", "composition", "composition_reduced", "chemsys", "symmetry", "property_name", "deprecated", "deprecation_reasons", "last_updated", "origins", "warnings", "task_ids", "uncorrected_energy_per_atom", "equilibrium_reaction_energy_per_atom", "decomposes_to", "xas", "grain_boundaries", "cbm", "vbm", "is_gap_direct", "is_metal", "es_source_calc_id", "bandstructure", "dos", "dos_energy_up", "dos_energy_down", "is_magnetic", "ordering", "total_magnetization_normalized_vol", "total_magnetization_normalized_formula_units", "num_magnetic_sites", "num_unique_magnetic_sites", "types_of_magnetic_species", "bulk_modulus", "shear_modulus", "universal_anisotropy", "homogeneous_poisson", "e_total", "e_ionic", "e_electronic", "n", "e_ij_max", "weighted_surface_energy_EV_PER_ANG2", "weighted_surface_energy", "weighted_work_function", "surface_anisotropy", "shape_factor", "has_reconstructed", "possible_species", "has_props", "theoretical", "database_IDs"]}