{"builder_meta": null, "nsites": null, "elements": null, "nelements": null, "composition": null, "composition_reduced": null, "formula_pretty": "SiPd4", "formula_anonymous": "AB4", "chemsys": null, "volume": 75.32127140769833, "density": 10.003752270016381, "density_atomic": 15.064254281539666, "symmetry": null, "property_name": null, "material_id": "mp-1219217", "deprecated": null, "deprecation_reasons": null, "last_updated": null, "origins": null, "warnings": null, "structure": {"@module": "pymatgen.core.structure", "@class": "Structure", "charge": 0, "lattice": {"matrix": [[10.557182, -1.43735, 0.0], [10.557182, 1.43735, 0.0], [10.361488, 0.0, 2.481859]], "pbc": [true, true, true], "a": 10.654579616466526, "b": 10.654579616466526, "c": 10.654579187843366, "alpha": 15.506183016197848, "beta": 15.506183016197848, "gamma": 15.506187261676846, "volume": 75.32127140769833}, "properties": {}, "sites": [{"species": [{"element": "Si", "occu": 1}], "abc": [0.0, 0.0, 0.0], "properties": {"magmom": 0.0}, "label": "Si", "xyz": [0.0, 0.0, 0.0]}, {"species": [{"element": "Pd", "occu": 1}], "abc": [0.609348999999999, 0.609348999999999, 0.609348999999999], "properties": {"magmom": -0.0}, "label": "Pd", "xyz": [19.17977894034797, 0.0, 1.5123182997909976]}, {"species": [{"element": "Pd", "occu": 1}], "abc": [0.202236, 0.202236, 0.202236], "properties": {"magmom": -0.0}, "label": "Pd", "xyz": [6.365550405072, 0.0, 0.501921236724]}, {"species": [{"element": "Pd", "occu": 1}], "abc": [0.797763999999999, 0.797763999999999, 0.797763999999999], "properties": {"magmom": -0.0}, "label": "Pd", "xyz": [25.110301594927968, 0.0, 1.9799377632759976]}, {"species": [{"element": "Pd", "occu": 1}], "abc": [0.390650999999999, 0.390650999999999, 0.390650999999999], "properties": {"magmom": -0.0}, "label": "Pd", "xyz": [12.296073059651967, 0.0, 0.9695407002089976]}]}, "task_ids": null, "uncorrected_energy_per_atom": null, "energy_per_atom": -20.380288318833333, "formation_energy_per_atom": -0.257172511833331, "energy_above_hull": 0.23040817066666702, "is_stable": false, "equilibrium_reaction_energy_per_atom": null, "decomposes_to": null, "xas": null, "grain_boundaries": null, "band_gap": 0.0, "cbm": null, "vbm": null, "efermi": 5.15392665, "is_gap_direct": null, "is_metal": null, "es_source_calc_id": null, "bandstructure": null, "dos": null, "dos_energy_up": null, "dos_energy_down": null, "is_magnetic": null, "ordering": null, "total_magnetization": 0.0002385, "total_magnetization_normalized_vol": null, "total_magnetization_normalized_formula_units": null, "num_magnetic_sites": null, "num_unique_magnetic_sites": null, "types_of_magnetic_species": null, "bulk_modulus": null, "shear_modulus": null, "universal_anisotropy": null, "homogeneous_poisson": null, "e_total": null, "e_ionic": null, "e_electronic": null, "n": null, "e_ij_max": null, "weighted_surface_energy_EV_PER_ANG2": null, "weighted_surface_energy": null, "weighted_work_function": null, "surface_anisotropy": null, "shape_factor": null, "has_reconstructed": null, "possible_species": null, "has_props": null, "theoretical": null, "database_IDs": null, "fields_not_requested": ["builder_meta", "nsites", "elements", "nelements", "composition", "composition_reduced", "chemsys", "symmetry", "property_name", "deprecated", "deprecation_reasons", "last_updated", "origins", "warnings", "task_ids", "uncorrected_energy_per_atom", "equilibrium_reaction_energy_per_atom", "decomposes_to", "xas", "grain_boundaries", "cbm", "vbm", "is_gap_direct", "is_metal", "es_source_calc_id", "bandstructure", "dos", "dos_energy_up", "dos_energy_down", "is_magnetic", "ordering", "total_magnetization_normalized_vol", "total_magnetization_normalized_formula_units", "num_magnetic_sites", "num_unique_magnetic_sites", "types_of_magnetic_species", "bulk_modulus", "shear_modulus", "universal_anisotropy", "homogeneous_poisson", "e_total", "e_ionic", "e_electronic", "n", "e_ij_max", "weighted_surface_energy_EV_PER_ANG2", "weighted_surface_energy", "weighted_work_function", "surface_anisotropy", "shape_factor", "has_reconstructed", "possible_species", "has_props", "theoretical", "database_IDs"]}