{
  "builder_meta": null,
  "nsites": null,
  "elements": null,
  "nelements": null,
  "composition": null,
  "composition_reduced": null,
  "formula_pretty": "SiPd",
  "formula_anonymous": "AB",
  "chemsys": null,
  "volume": 118.28681767456312,
  "density": 7.55288346794697,
  "density_atomic": 14.78585220932039,
  "symmetry": null,
  "property_name": null,
  "material_id": "mp-389",
  "deprecated": null,
  "deprecation_reasons": null,
  "last_updated": null,
  "origins": null,
  "warnings": null,
  "structure": {
    "@module": "pymatgen.core.structure",
    "@class": "Structure",
    "charge": 0,
    "lattice": {
      "matrix": [
        [3.4403273, -0.0, 0.0],
        [0.0, 5.60170188, 0.0],
        [0.0, 0.0, 6.13785457]
      ],
      "pbc": [true, true, true],
      "a": 3.4403273,
      "b": 5.60170188,
      "c": 6.13785457,
      "alpha": 90.0,
      "beta": 90.0,
      "gamma": 90.0,
      "volume": 118.28681767456312
    },
    "properties": {},
    "sites": [
      {
        "species": [{ "element": "Si", "occu": 1 }],
        "abc": [0.25, 0.67657388, 0.92786185],
        "properties": { "magmom": 0.0 },
        "label": "Si",
        "xyz": [0.860081825, 3.789965175554894, 5.695081096351155]
      },
      {
        "species": [{ "element": "Si", "occu": 1 }],
        "abc": [0.75, 0.32342612, 0.07213815],
        "properties": { "magmom": 0.0 },
        "label": "Si",
        "xyz": [2.580245475, 1.8117367044451056, 0.4427734736488455]
      },
      {
        "species": [{ "element": "Si", "occu": 1 }],
        "abc": [0.25, 0.17657388000000002, 0.57213815],
        "properties": { "magmom": 0.0 },
        "label": "Si",
        "xyz": [0.860081825, 0.9891142355548945, 3.511700758648846]
      },
      {
        "species": [{ "element": "Si", "occu": 1 }],
        "abc": [0.75, 0.82342612, 0.42786185],
        "properties": { "magmom": 0.0 },
        "label": "Si",
        "xyz": [2.580245475, 4.612587644445106, 2.626153811351154]
      },
      {
        "species": [{ "element": "Pd", "occu": 1 }],
        "abc": [0.25, 0.503464, 0.30854298],
        "properties": { "magmom": -0.0 },
        "label": "Pd",
        "xyz": [0.860081825, 2.8202552353123203, 1.8937919398344187]
      },
      {
        "species": [{ "element": "Pd", "occu": 1 }],
        "abc": [0.75, 0.496536, 0.69145702],
        "properties": { "magmom": -0.0 },
        "label": "Pd",
        "xyz": [2.580245475, 2.78144664468768, 4.2440626301655815]
      },
      {
        "species": [{ "element": "Pd", "occu": 1 }],
        "abc": [0.25, 0.0034639999999990004, 0.19145702],
        "properties": { "magmom": -0.0 },
        "label": "Pd",
        "xyz": [0.860081825, 0.019404295312314402, 1.1751353451655815]
      },
      {
        "species": [{ "element": "Pd", "occu": 1 }],
        "abc": [0.75, 0.996536, 0.80854298],
        "properties": { "magmom": -0.0 },
        "label": "Pd",
        "xyz": [2.580245475, 5.58229758468768, 4.9627192248344185]
      }
    ]
  },
  "task_ids": null,
  "uncorrected_energy_per_atom": null,
  "energy_per_atom": -16.374754525,
  "formation_energy_per_atom": -0.507645422499999,
  "energy_above_hull": 0.001982122083333,
  "is_stable": false,
  "equilibrium_reaction_energy_per_atom": null,
  "decomposes_to": null,
  "xas": null,
  "grain_boundaries": null,
  "band_gap": 0.0,
  "cbm": null,
  "vbm": null,
  "efermi": 7.88868945,
  "is_gap_direct": null,
  "is_metal": null,
  "es_source_calc_id": null,
  "bandstructure": null,
  "dos": null,
  "dos_energy_up": null,
  "dos_energy_down": null,
  "is_magnetic": null,
  "ordering": null,
  "total_magnetization": 0.0,
  "total_magnetization_normalized_vol": null,
  "total_magnetization_normalized_formula_units": null,
  "num_magnetic_sites": null,
  "num_unique_magnetic_sites": null,
  "types_of_magnetic_species": null,
  "bulk_modulus": null,
  "shear_modulus": null,
  "universal_anisotropy": null,
  "homogeneous_poisson": null,
  "e_total": null,
  "e_ionic": null,
  "e_electronic": null,
  "n": null,
  "e_ij_max": null,
  "weighted_surface_energy_EV_PER_ANG2": null,
  "weighted_surface_energy": null,
  "weighted_work_function": null,
  "surface_anisotropy": null,
  "shape_factor": null,
  "has_reconstructed": null,
  "possible_species": null,
  "has_props": null,
  "theoretical": null,
  "database_IDs": null,
  "fields_not_requested": [
    "builder_meta",
    "nsites",
    "elements",
    "nelements",
    "composition",
    "composition_reduced",
    "chemsys",
    "symmetry",
    "property_name",
    "deprecated",
    "deprecation_reasons",
    "last_updated",
    "origins",
    "warnings",
    "task_ids",
    "uncorrected_energy_per_atom",
    "equilibrium_reaction_energy_per_atom",
    "decomposes_to",
    "xas",
    "grain_boundaries",
    "cbm",
    "vbm",
    "is_gap_direct",
    "is_metal",
    "es_source_calc_id",
    "bandstructure",
    "dos",
    "dos_energy_up",
    "dos_energy_down",
    "is_magnetic",
    "ordering",
    "total_magnetization_normalized_vol",
    "total_magnetization_normalized_formula_units",
    "num_magnetic_sites",
    "num_unique_magnetic_sites",
    "types_of_magnetic_species",
    "bulk_modulus",
    "shear_modulus",
    "universal_anisotropy",
    "homogeneous_poisson",
    "e_total",
    "e_ionic",
    "e_electronic",
    "n",
    "e_ij_max",
    "weighted_surface_energy_EV_PER_ANG2",
    "weighted_surface_energy",
    "weighted_work_function",
    "surface_anisotropy",
    "shape_factor",
    "has_reconstructed",
    "possible_species",
    "has_props",
    "theoretical",
    "database_IDs"
  ]
}
