{"builder_meta": null, "nsites": null, "elements": null, "nelements": null, "composition": null, "composition_reduced": null, "formula_pretty": "SiPt3", "formula_anonymous": "AB3", "chemsys": null, "volume": 119.3329768269781, "density": 17.069395348068234, "density_atomic": 14.916622103372262, "symmetry": null, "property_name": null, "material_id": "mp-13363", "deprecated": null, "deprecation_reasons": null, "last_updated": null, "origins": null, "warnings": null, "structure": {"@module": "pymatgen.core.structure", "@class": "Structure", "charge": 0, "lattice": {"matrix": [[4.71745849, 0.03867219, -2.6099103], [-3.07971323, 4.55964665, -0.07083243], [0.0412736, -0.020625440000000002, 5.50253644]], "pbc": [true, true, true], "a": 5.391432269554962, "b": 5.502729176057365, "c": 5.502729885462308, "alpha": 91.15604717760759, "beta": 118.52431796182182, "gamma": 118.52433043094328, "volume": 119.3329768269781}, "properties": {}, "sites": [{"species": [{"element": "Si", "occu": 1}], "abc": [0.0791081, 0.28766168000000003, 0.28766168000000003], "properties": {"magmom": 0.0}, "label": "Si", "xyz": [-0.5008534705716093, 1.3087617502979723, 1.356028055775907]}, {"species": [{"element": "Si", "occu": 1}], "abc": [0.9208919, 0.71233832, 0.71233832], "properties": {"magmom": 0.0}, "label": "Si", "xyz": [2.1798723305716097, 3.2689316497020284, 1.4657656542240933]}, {"species": [{"element": "Pt", "occu": 1}], "abc": [0.5, 0.7264115600000001, 0.27358844], "properties": {"magmom": -0.0}, "label": "Pt", "xyz": [0.1328819330802451, 3.325873249121361, 0.14902171468786252]}, {"species": [{"element": "Pt", "occu": 1}], "abc": [0.5, 0.27358844, 0.7264115600000001], "properties": {"magmom": -0.0}, "label": "Pt", "xyz": [1.546136926919755, 1.2518201508786397, 2.6727719953121376]}, {"species": [{"element": "Pt", "occu": 1}], "abc": [-0.0, 0.81721785, 0.18278215], "properties": {"magmom": -0.0}, "label": "Pt", "xyz": [-2.5092525470909157, 3.7224546698048067, 0.9478799148016704]}, {"species": [{"element": "Pt", "occu": 1}], "abc": [0.0, 0.18278215, 0.81721785], "properties": {"magmom": -0.0}, "label": "Pt", "xyz": [-0.5291870829090846, 0.8165665401951935, 4.4838240951983295]}, {"species": [{"element": "Pt", "occu": 1}], "abc": [0.6416843, 0.28514584, 0.28514584], "properties": {"magmom": 0.0}, "label": "Pt", "xyz": [2.1607206283490683, 1.3190983528728832, -0.1259106613554719]}, {"species": [{"element": "Pt", "occu": 1}], "abc": [0.358315699999999, 0.71485416, 0.71485416], "properties": {"magmom": 0.0}, "label": "Pt", "xyz": [-0.48170176834907225, 3.258595047127117, 2.9477043713554743]}]}, "task_ids": null, "uncorrected_energy_per_atom": null, "energy_per_atom": -41.348538205, "formation_energy_per_atom": -0.539309381249999, "energy_above_hull": 0.0451005675, "is_stable": false, "equilibrium_reaction_energy_per_atom": null, "decomposes_to": null, "xas": null, "grain_boundaries": null, "band_gap": 0.0, "cbm": null, "vbm": null, "efermi": 8.40549836, "is_gap_direct": null, "is_metal": null, "es_source_calc_id": null, "bandstructure": null, "dos": null, "dos_energy_up": null, "dos_energy_down": null, "is_magnetic": null, "ordering": null, "total_magnetization": 0.0, "total_magnetization_normalized_vol": null, "total_magnetization_normalized_formula_units": null, "num_magnetic_sites": null, "num_unique_magnetic_sites": null, "types_of_magnetic_species": null, "bulk_modulus": null, "shear_modulus": null, "universal_anisotropy": null, "homogeneous_poisson": null, "e_total": null, "e_ionic": null, "e_electronic": null, "n": null, "e_ij_max": null, "weighted_surface_energy_EV_PER_ANG2": null, "weighted_surface_energy": null, "weighted_work_function": null, "surface_anisotropy": null, "shape_factor": null, "has_reconstructed": null, "possible_species": null, "has_props": null, "theoretical": null, "database_IDs": null, "fields_not_requested": ["builder_meta", "nsites", "elements", "nelements", "composition", "composition_reduced", "chemsys", "symmetry", "property_name", "deprecated", "deprecation_reasons", "last_updated", "origins", "warnings", "task_ids", "uncorrected_energy_per_atom", "equilibrium_reaction_energy_per_atom", "decomposes_to", "xas", "grain_boundaries", "cbm", "vbm", "is_gap_direct", "is_metal", "es_source_calc_id", "bandstructure", "dos", "dos_energy_up", "dos_energy_down", "is_magnetic", "ordering", "total_magnetization_normalized_vol", "total_magnetization_normalized_formula_units", "num_magnetic_sites", "num_unique_magnetic_sites", "types_of_magnetic_species", "bulk_modulus", "shear_modulus", "universal_anisotropy", "homogeneous_poisson", "e_total", "e_ionic", "e_electronic", "n", "e_ij_max", "weighted_surface_energy_EV_PER_ANG2", "weighted_surface_energy", "weighted_work_function", "surface_anisotropy", "shape_factor", "has_reconstructed", "possible_species", "has_props", "theoretical", "database_IDs"]}