{
  "builder_meta": null,
  "nsites": null,
  "elements": null,
  "nelements": null,
  "composition": null,
  "composition_reduced": null,
  "formula_pretty": "SiPt",
  "formula_anonymous": "AB",
  "chemsys": null,
  "volume": 120.74430185067973,
  "density": 12.276576783950405,
  "density_atomic": 15.093037731334967,
  "symmetry": null,
  "property_name": null,
  "material_id": "mp-696",
  "deprecated": null,
  "deprecation_reasons": null,
  "last_updated": null,
  "origins": null,
  "warnings": null,
  "structure": {
    "@module": "pymatgen.core.structure",
    "@class": "Structure",
    "charge": 0,
    "lattice": {
      "matrix": [
        [3.6073755, -0.0, 0.0],
        [-0.0, 5.63304949, 0.0],
        [0.0, 0.0, 5.9419874]
      ],
      "pbc": [true, true, true],
      "a": 3.6073755,
      "b": 5.63304949,
      "c": 5.9419874,
      "alpha": 90.0,
      "beta": 90.0,
      "gamma": 90.0,
      "volume": 120.74430185067973
    },
    "properties": {},
    "sites": [
      {
        "species": [{ "element": "Si", "occu": 1 }],
        "abc": [0.25, 0.67843145, 0.91758058],
        "properties": { "magmom": 0.0 },
        "label": "Si",
        "xyz": [0.901843875, 3.821637933422461, 5.452252244844693]
      },
      {
        "species": [{ "element": "Si", "occu": 1 }],
        "abc": [0.75, 0.32156855, 0.08241942000000001],
        "properties": { "magmom": 0.0 },
        "label": "Si",
        "xyz": [2.705531625, 1.8114115565775397, 0.4897351551553081]
      },
      {
        "species": [{ "element": "Si", "occu": 1 }],
        "abc": [0.25, 0.17843145, 0.58241942],
        "properties": { "magmom": 0.0 },
        "label": "Si",
        "xyz": [0.901843875, 1.0051131884224604, 3.4607288551553084]
      },
      {
        "species": [{ "element": "Si", "occu": 1 }],
        "abc": [0.75, 0.8215685500000001, 0.41758058000000003],
        "properties": { "magmom": 0.0 },
        "label": "Si",
        "xyz": [2.705531625, 4.62793630157754, 2.4812585448446924]
      },
      {
        "species": [{ "element": "Pt", "occu": 1 }],
        "abc": [0.25, 0.49348488, 0.30602241],
        "properties": { "magmom": 0.0 },
        "label": "Pt",
        "xyz": [0.901843875, 2.7798247516067116, 1.8183813043376342]
      },
      {
        "species": [{ "element": "Pt", "occu": 1 }],
        "abc": [0.75, 0.50651512, 0.69397759],
        "properties": { "magmom": 0.0 },
        "label": "Pt",
        "xyz": [2.705531625, 2.8532247383932887, 4.123606095662367]
      },
      {
        "species": [{ "element": "Pt", "occu": 1 }],
        "abc": [0.25, 0.99348488, 0.19397759],
        "properties": { "magmom": 0.0 },
        "label": "Pt",
        "xyz": [0.901843875, 5.596349496606711, 1.1526123956623662]
      },
      {
        "species": [{ "element": "Pt", "occu": 1 }],
        "abc": [0.75, 0.00651512, 0.80602241],
        "properties": { "magmom": 0.0 },
        "label": "Pt",
        "xyz": [2.705531625, 0.036699993393288804, 4.789375004337634]
      }
    ]
  },
  "task_ids": null,
  "uncorrected_energy_per_atom": null,
  "energy_per_atom": -30.82775437125,
  "formation_energy_per_atom": -0.6970136237499991,
  "energy_above_hull": 0.0,
  "is_stable": true,
  "equilibrium_reaction_energy_per_atom": null,
  "decomposes_to": null,
  "xas": null,
  "grain_boundaries": null,
  "band_gap": 0.0,
  "cbm": null,
  "vbm": null,
  "efermi": 9.341901440000001,
  "is_gap_direct": null,
  "is_metal": null,
  "es_source_calc_id": null,
  "bandstructure": null,
  "dos": null,
  "dos_energy_up": null,
  "dos_energy_down": null,
  "is_magnetic": null,
  "ordering": null,
  "total_magnetization": 0.0,
  "total_magnetization_normalized_vol": null,
  "total_magnetization_normalized_formula_units": null,
  "num_magnetic_sites": null,
  "num_unique_magnetic_sites": null,
  "types_of_magnetic_species": null,
  "bulk_modulus": null,
  "shear_modulus": null,
  "universal_anisotropy": null,
  "homogeneous_poisson": null,
  "e_total": null,
  "e_ionic": null,
  "e_electronic": null,
  "n": null,
  "e_ij_max": null,
  "weighted_surface_energy_EV_PER_ANG2": null,
  "weighted_surface_energy": null,
  "weighted_work_function": null,
  "surface_anisotropy": null,
  "shape_factor": null,
  "has_reconstructed": null,
  "possible_species": null,
  "has_props": null,
  "theoretical": null,
  "database_IDs": null,
  "fields_not_requested": [
    "builder_meta",
    "nsites",
    "elements",
    "nelements",
    "composition",
    "composition_reduced",
    "chemsys",
    "symmetry",
    "property_name",
    "deprecated",
    "deprecation_reasons",
    "last_updated",
    "origins",
    "warnings",
    "task_ids",
    "uncorrected_energy_per_atom",
    "equilibrium_reaction_energy_per_atom",
    "decomposes_to",
    "xas",
    "grain_boundaries",
    "cbm",
    "vbm",
    "is_gap_direct",
    "is_metal",
    "es_source_calc_id",
    "bandstructure",
    "dos",
    "dos_energy_up",
    "dos_energy_down",
    "is_magnetic",
    "ordering",
    "total_magnetization_normalized_vol",
    "total_magnetization_normalized_formula_units",
    "num_magnetic_sites",
    "num_unique_magnetic_sites",
    "types_of_magnetic_species",
    "bulk_modulus",
    "shear_modulus",
    "universal_anisotropy",
    "homogeneous_poisson",
    "e_total",
    "e_ionic",
    "e_electronic",
    "n",
    "e_ij_max",
    "weighted_surface_energy_EV_PER_ANG2",
    "weighted_surface_energy",
    "weighted_work_function",
    "surface_anisotropy",
    "shape_factor",
    "has_reconstructed",
    "possible_species",
    "has_props",
    "theoretical",
    "database_IDs"
  ]
}
