{
  "builder_meta": null,
  "nsites": null,
  "elements": null,
  "nelements": null,
  "composition": null,
  "composition_reduced": null,
  "formula_pretty": "SiRh",
  "formula_anonymous": "AB",
  "chemsys": null,
  "volume": 109.45495626207786,
  "density": 7.949047911624329,
  "density_atomic": 13.681869532759732,
  "symmetry": null,
  "property_name": null,
  "material_id": "mp-818",
  "deprecated": null,
  "deprecation_reasons": null,
  "last_updated": null,
  "origins": null,
  "warnings": null,
  "structure": {
    "@module": "pymatgen.core.structure",
    "@class": "Structure",
    "charge": 0,
    "lattice": {
      "matrix": [
        [3.08801144, 0.0, 0.0],
        [-0.0, 5.54852767, 0.0],
        [0.0, 0.0, 6.38820398]
      ],
      "pbc": [true, true, true],
      "a": 3.08801144,
      "b": 5.54852767,
      "c": 6.38820398,
      "alpha": 90.0,
      "beta": 90.0,
      "gamma": 90.0,
      "volume": 109.45495626207786
    },
    "properties": {},
    "sites": [
      {
        "species": [{ "element": "Si", "occu": 1 }],
        "abc": [0.25, 0.68388494, 0.94357005],
        "properties": { "magmom": 0.0 },
        "label": "Si",
        "xyz": [0.77200286, 3.79455451268629, 6.0277179488187995]
      },
      {
        "species": [{ "element": "Si", "occu": 1 }],
        "abc": [0.75, 0.31611506, 0.05642995],
        "properties": { "magmom": 0.0 },
        "label": "Si",
        "xyz": [2.31600858, 1.7539731573137103, 0.360486031181201]
      },
      {
        "species": [{ "element": "Si", "occu": 1 }],
        "abc": [0.25, 0.18388494, 0.5564299500000001],
        "properties": { "magmom": 0.0 },
        "label": "Si",
        "xyz": [0.77200286, 1.02029067768629, 3.5545880211812015]
      },
      {
        "species": [{ "element": "Si", "occu": 1 }],
        "abc": [0.75, 0.81611506, 0.44357005],
        "properties": { "magmom": 0.0 },
        "label": "Si",
        "xyz": [2.31600858, 4.528236992313711, 2.833615958818799]
      },
      {
        "species": [{ "element": "Rh", "occu": 1 }],
        "abc": [0.25, 0.50210364, 0.29724905],
        "properties": { "magmom": 0.0 },
        "label": "Rh",
        "xyz": [0.77200286, 2.7859359397477186, 1.898887564261219]
      },
      {
        "species": [{ "element": "Rh", "occu": 1 }],
        "abc": [0.75, 0.49789636000000004, 0.70275095],
        "properties": { "magmom": 0.0 },
        "label": "Rh",
        "xyz": [2.31600858, 2.7625917302522818, 4.489316415738781]
      },
      {
        "species": [{ "element": "Rh", "occu": 1 }],
        "abc": [0.25, 0.00210364, 0.20275095],
        "properties": { "magmom": 0.0 },
        "label": "Rh",
        "xyz": [0.77200286, 0.011672104747718801, 1.2952144257387812]
      },
      {
        "species": [{ "element": "Rh", "occu": 1 }],
        "abc": [0.75, 0.99789636, 0.79724905],
        "properties": { "magmom": 0.0 },
        "label": "Rh",
        "xyz": [2.31600858, 5.5368555652522815, 5.092989554261219]
      }
    ]
  },
  "task_ids": null,
  "uncorrected_energy_per_atom": null,
  "energy_per_atom": -17.29586623125,
  "formation_energy_per_atom": -0.8408696187499981,
  "energy_above_hull": 0.0,
  "is_stable": true,
  "equilibrium_reaction_energy_per_atom": null,
  "decomposes_to": null,
  "xas": null,
  "grain_boundaries": null,
  "band_gap": 0.0,
  "cbm": null,
  "vbm": null,
  "efermi": 8.41254696,
  "is_gap_direct": null,
  "is_metal": null,
  "es_source_calc_id": null,
  "bandstructure": null,
  "dos": null,
  "dos_energy_up": null,
  "dos_energy_down": null,
  "is_magnetic": null,
  "ordering": null,
  "total_magnetization": 3e-7,
  "total_magnetization_normalized_vol": null,
  "total_magnetization_normalized_formula_units": null,
  "num_magnetic_sites": null,
  "num_unique_magnetic_sites": null,
  "types_of_magnetic_species": null,
  "bulk_modulus": null,
  "shear_modulus": null,
  "universal_anisotropy": null,
  "homogeneous_poisson": null,
  "e_total": null,
  "e_ionic": null,
  "e_electronic": null,
  "n": null,
  "e_ij_max": null,
  "weighted_surface_energy_EV_PER_ANG2": null,
  "weighted_surface_energy": null,
  "weighted_work_function": null,
  "surface_anisotropy": null,
  "shape_factor": null,
  "has_reconstructed": null,
  "possible_species": null,
  "has_props": null,
  "theoretical": null,
  "database_IDs": null,
  "fields_not_requested": [
    "builder_meta",
    "nsites",
    "elements",
    "nelements",
    "composition",
    "composition_reduced",
    "chemsys",
    "symmetry",
    "property_name",
    "deprecated",
    "deprecation_reasons",
    "last_updated",
    "origins",
    "warnings",
    "task_ids",
    "uncorrected_energy_per_atom",
    "equilibrium_reaction_energy_per_atom",
    "decomposes_to",
    "xas",
    "grain_boundaries",
    "cbm",
    "vbm",
    "is_gap_direct",
    "is_metal",
    "es_source_calc_id",
    "bandstructure",
    "dos",
    "dos_energy_up",
    "dos_energy_down",
    "is_magnetic",
    "ordering",
    "total_magnetization_normalized_vol",
    "total_magnetization_normalized_formula_units",
    "num_magnetic_sites",
    "num_unique_magnetic_sites",
    "types_of_magnetic_species",
    "bulk_modulus",
    "shear_modulus",
    "universal_anisotropy",
    "homogeneous_poisson",
    "e_total",
    "e_ionic",
    "e_electronic",
    "n",
    "e_ij_max",
    "weighted_surface_energy_EV_PER_ANG2",
    "weighted_surface_energy",
    "weighted_work_function",
    "surface_anisotropy",
    "shape_factor",
    "has_reconstructed",
    "possible_species",
    "has_props",
    "theoretical",
    "database_IDs"
  ]
}
