{"builder_meta": null, "nsites": null, "elements": null, "nelements": null, "composition": null, "composition_reduced": null, "formula_pretty": "SiRh2", "formula_anonymous": "AB2", "chemsys": null, "volume": 158.03492360542506, "density": 9.830593565780013, "density_atomic": 13.169576967118756, "symmetry": null, "property_name": null, "material_id": "mp-20418", "deprecated": null, "deprecation_reasons": null, "last_updated": null, "origins": null, "warnings": null, "structure": {"@module": "pymatgen.core.structure", "@class": "Structure", "charge": 0, "lattice": {"matrix": [[3.925897619999999, -0.0, 0.0], [0.0, 5.45743621, 0.0], [0.0, 0.0, 7.3760768500000005]], "pbc": [true, true, true], "a": 3.925897619999999, "b": 5.45743621, "c": 7.3760768500000005, "alpha": 90.0, "beta": 90.0, "gamma": 90.0, "volume": 158.03492360542504}, "properties": {}, "sites": [{"species": [{"element": "Si", "occu": 1}], "abc": [0.25, 0.77675216, 0.39373504], "properties": {"magmom": -0.0}, "label": "Si", "xyz": [0.9814744049999997, 4.239075364179714, 2.904219913577824]}, {"species": [{"element": "Si", "occu": 1}], "abc": [0.75, 0.22324784, 0.60626496], "properties": {"magmom": -0.0}, "label": "Si", "xyz": [2.944423214999999, 1.2183608458202864, 4.471856936422176]}, {"species": [{"element": "Si", "occu": 1}], "abc": [0.25, 0.27675216, 0.10626496], "properties": {"magmom": -0.0}, "label": "Si", "xyz": [0.9814744049999997, 1.5103572591797136, 0.7838185114221761]}, {"species": [{"element": "Si", "occu": 1}], "abc": [0.75, 0.72324784, 0.89373504], "properties": {"magmom": -0.0}, "label": "Si", "xyz": [2.944423214999999, 3.9470789508202864, 6.592258338577825]}, {"species": [{"element": "Rh", "occu": 1}], "abc": [0.75, 0.02696495, 0.30362068000000003], "properties": {"magmom": -0.0}, "label": "Rh", "xyz": [2.944423214999999, 0.1471594945308395, 2.239529468929258]}, {"species": [{"element": "Rh", "occu": 1}], "abc": [0.25, 0.97303505, 0.69637932], "properties": {"magmom": -0.0}, "label": "Rh", "xyz": [0.9814744049999997, 5.31027671546916, 5.136547381070742]}, {"species": [{"element": "Rh", "occu": 1}], "abc": [0.75, 0.52696495, 0.19637932], "properties": {"magmom": -0.0}, "label": "Rh", "xyz": [2.944423214999999, 2.8758775995308397, 1.448508956070742]}, {"species": [{"element": "Rh", "occu": 1}], "abc": [0.25, 0.47303505, 0.80362068], "properties": {"magmom": -0.0}, "label": "Rh", "xyz": [0.9814744049999997, 2.5815586104691604, 5.927567893929258]}, {"species": [{"element": "Rh", "occu": 1}], "abc": [0.25, 0.34095298, 0.43007797000000003], "properties": {"magmom": -0.0}, "label": "Rh", "xyz": [0.9814744049999997, 1.8607291389594058, 3.172288158211995]}, {"species": [{"element": "Rh", "occu": 1}], "abc": [0.75, 0.65904702, 0.56992203], "properties": {"magmom": -0.0}, "label": "Rh", "xyz": [2.944423214999999, 3.5967070710405946, 4.203788691788006]}, {"species": [{"element": "Rh", "occu": 1}], "abc": [0.25, 0.8409529800000001, 0.06992203], "properties": {"magmom": -0.0}, "label": "Rh", "xyz": [0.9814744049999997, 4.589447243959406, 0.5157502667880055]}, {"species": [{"element": "Rh", "occu": 1}], "abc": [0.75, 0.15904702, 0.93007797], "properties": {"magmom": -0.0}, "label": "Rh", "xyz": [2.944423214999999, 0.8679889660405943, 6.860326583211995]}]}, "task_ids": null, "uncorrected_energy_per_atom": null, "energy_per_atom": -19.75758478166667, "formation_energy_per_atom": -0.7421774966666681, "energy_above_hull": 0.0, "is_stable": true, "equilibrium_reaction_energy_per_atom": null, "decomposes_to": null, "xas": null, "grain_boundaries": null, "band_gap": 0.0, "cbm": null, "vbm": null, "efermi": 8.31015071, "is_gap_direct": null, "is_metal": null, "es_source_calc_id": null, "bandstructure": null, "dos": null, "dos_energy_up": null, "dos_energy_down": null, "is_magnetic": null, "ordering": null, "total_magnetization": 0.0, "total_magnetization_normalized_vol": null, "total_magnetization_normalized_formula_units": null, "num_magnetic_sites": null, "num_unique_magnetic_sites": null, "types_of_magnetic_species": null, "bulk_modulus": null, "shear_modulus": null, "universal_anisotropy": null, "homogeneous_poisson": null, "e_total": null, "e_ionic": null, "e_electronic": null, "n": null, "e_ij_max": null, "weighted_surface_energy_EV_PER_ANG2": null, "weighted_surface_energy": null, "weighted_work_function": null, "surface_anisotropy": null, "shape_factor": null, "has_reconstructed": null, "possible_species": null, "has_props": null, "theoretical": null, "database_IDs": null, "fields_not_requested": ["builder_meta", "nsites", "elements", "nelements", "composition", "composition_reduced", "chemsys", "symmetry", "property_name", "deprecated", "deprecation_reasons", "last_updated", "origins", "warnings", "task_ids", "uncorrected_energy_per_atom", "equilibrium_reaction_energy_per_atom", "decomposes_to", "xas", "grain_boundaries", "cbm", "vbm", "is_gap_direct", "is_metal", "es_source_calc_id", "bandstructure", "dos", "dos_energy_up", "dos_energy_down", "is_magnetic", "ordering", "total_magnetization_normalized_vol", "total_magnetization_normalized_formula_units", "num_magnetic_sites", "num_unique_magnetic_sites", "types_of_magnetic_species", "bulk_modulus", "shear_modulus", "universal_anisotropy", "homogeneous_poisson", "e_total", "e_ionic", "e_electronic", "n", "e_ij_max", "weighted_surface_energy_EV_PER_ANG2", "weighted_surface_energy", "weighted_work_function", "surface_anisotropy", "shape_factor", "has_reconstructed", "possible_species", "has_props", "theoretical", "database_IDs"]}