{"builder_meta": null, "nsites": null, "elements": null, "nelements": null, "composition": null, "composition_reduced": null, "formula_pretty": "SiRu2", "formula_anonymous": "AB2", "chemsys": null, "volume": 156.44539350414988, "density": 9.774616645836296, "density_atomic": 13.037116125345824, "symmetry": null, "property_name": null, "material_id": "mp-10025", "deprecated": null, "deprecation_reasons": null, "last_updated": null, "origins": null, "warnings": null, "structure": {"@module": "pymatgen.core.structure", "@class": "Structure", "charge": 0, "lattice": {"matrix": [[4.01013555, 0.0, 0.0], [0.0, 5.27355362, 0.0], [0.0, 0.0, 7.3977621]], "pbc": [true, true, true], "a": 4.01013555, "b": 5.27355362, "c": 7.3977621, "alpha": 90.0, "beta": 90.0, "gamma": 90.0, "volume": 156.44539350414988}, "properties": {}, "sites": [{"species": [{"element": "Si", "occu": 1}], "abc": [0.25, 0.7996397, 0.40225402], "properties": {"magmom": -0.0}, "label": "Si", "xyz": [1.0025338875, 4.216942834630714, 2.975779543728642]}, {"species": [{"element": "Si", "occu": 1}], "abc": [0.75, 0.2003603, 0.59774598], "properties": {"magmom": -0.0}, "label": "Si", "xyz": [3.0076016625, 1.056610785369286, 4.421982556271358]}, {"species": [{"element": "Si", "occu": 1}], "abc": [0.25, 0.2996397, 0.09774598], "properties": {"magmom": -0.0}, "label": "Si", "xyz": [1.0025338875, 1.580166024630714, 0.7231015062713579]}, {"species": [{"element": "Si", "occu": 1}], "abc": [0.75, 0.700360299999999, 0.90225402], "properties": {"magmom": -0.0}, "label": "Si", "xyz": [3.0076016625, 3.6933875953692814, 6.674660593728642]}, {"species": [{"element": "Ru", "occu": 1}], "abc": [0.75, 0.01386223, 0.28778136], "properties": {"magmom": 0.0}, "label": "Ru", "xyz": [3.0076016625, 0.0731032131977726, 2.128938038094456]}, {"species": [{"element": "Ru", "occu": 1}], "abc": [0.25, 0.98613777, 0.71221864], "properties": {"magmom": 0.0}, "label": "Ru", "xyz": [1.0025338875, 5.2004504068022275, 5.268824061905544]}, {"species": [{"element": "Ru", "occu": 1}], "abc": [0.75, 0.51386223, 0.21221864000000001], "properties": {"magmom": 0.0}, "label": "Ru", "xyz": [3.0076016625, 2.7098800231977727, 1.569943011905544]}, {"species": [{"element": "Ru", "occu": 1}], "abc": [0.25, 0.48613777, 0.78778136], "properties": {"magmom": 0.0}, "label": "Ru", "xyz": [1.0025338875, 2.5636735968022277, 5.827819088094455]}, {"species": [{"element": "Ru", "occu": 1}], "abc": [0.25, 0.33350832, 0.43467162000000004], "properties": {"magmom": 0.0}, "label": "Ru", "xyz": [1.0025338875, 1.7587740082361187, 3.215597236381602]}, {"species": [{"element": "Ru", "occu": 1}], "abc": [0.75, 0.66649168, 0.56532838], "properties": {"magmom": 0.0}, "label": "Ru", "xyz": [3.0076016625, 3.514779611763882, 4.1821648636183975]}, {"species": [{"element": "Ru", "occu": 1}], "abc": [0.25, 0.83350832, 0.06532838], "properties": {"magmom": 0.0}, "label": "Ru", "xyz": [1.0025338875, 4.395550818236119, 0.483283813618398]}, {"species": [{"element": "Ru", "occu": 1}], "abc": [0.75, 0.16649168, 0.93467162], "properties": {"magmom": 0.0}, "label": "Ru", "xyz": [3.0076016625, 0.8780028017638817, 6.914478286381602]}]}, "task_ids": null, "uncorrected_energy_per_atom": null, "energy_per_atom": -20.2736483375, "formation_energy_per_atom": -0.399369942499999, "energy_above_hull": 0.036985155833331, "is_stable": false, "equilibrium_reaction_energy_per_atom": null, "decomposes_to": null, "xas": null, "grain_boundaries": null, "band_gap": 0.0, "cbm": null, "vbm": null, "efermi": 9.1108581, "is_gap_direct": null, "is_metal": null, "es_source_calc_id": null, "bandstructure": null, "dos": null, "dos_energy_up": null, "dos_energy_down": null, "is_magnetic": null, "ordering": null, "total_magnetization": 2e-07, "total_magnetization_normalized_vol": null, "total_magnetization_normalized_formula_units": null, "num_magnetic_sites": null, "num_unique_magnetic_sites": null, "types_of_magnetic_species": null, "bulk_modulus": null, "shear_modulus": null, "universal_anisotropy": null, "homogeneous_poisson": null, "e_total": null, "e_ionic": null, "e_electronic": null, "n": null, "e_ij_max": null, "weighted_surface_energy_EV_PER_ANG2": null, "weighted_surface_energy": null, "weighted_work_function": null, "surface_anisotropy": null, "shape_factor": null, "has_reconstructed": null, "possible_species": null, "has_props": null, "theoretical": null, "database_IDs": null, "fields_not_requested": ["builder_meta", "nsites", "elements", "nelements", "composition", "composition_reduced", "chemsys", "symmetry", "property_name", "deprecated", "deprecation_reasons", "last_updated", "origins", "warnings", "task_ids", "uncorrected_energy_per_atom", "equilibrium_reaction_energy_per_atom", "decomposes_to", "xas", "grain_boundaries", "cbm", "vbm", "is_gap_direct", "is_metal", "es_source_calc_id", "bandstructure", "dos", "dos_energy_up", "dos_energy_down", "is_magnetic", "ordering", "total_magnetization_normalized_vol", "total_magnetization_normalized_formula_units", "num_magnetic_sites", "num_unique_magnetic_sites", "types_of_magnetic_species", "bulk_modulus", "shear_modulus", "universal_anisotropy", "homogeneous_poisson", "e_total", "e_ionic", "e_electronic", "n", "e_ij_max", "weighted_surface_energy_EV_PER_ANG2", "weighted_surface_energy", "weighted_work_function", "surface_anisotropy", "shape_factor", "has_reconstructed", "possible_species", "has_props", "theoretical", "database_IDs"]}