{
  "builder_meta": null,
  "nsites": null,
  "elements": null,
  "nelements": null,
  "composition": null,
  "composition_reduced": null,
  "formula_pretty": "SiS",
  "formula_anonymous": "AB",
  "chemsys": null,
  "volume": 635.3512977903785,
  "density": 0.628831674526475,
  "density_atomic": 79.4189122237973,
  "symmetry": null,
  "property_name": null,
  "material_id": "mp-1023900",
  "deprecated": null,
  "deprecation_reasons": null,
  "last_updated": null,
  "origins": null,
  "warnings": null,
  "structure": {
    "@module": "pymatgen.core.structure",
    "@class": "Structure",
    "charge": 0,
    "lattice": {
      "matrix": [
        [3.98543, 0.0, 0.0],
        [0.0, 6.6429, 0.0],
        [0.0, 0.0, 23.99833]
      ],
      "pbc": [true, true, true],
      "a": 3.98543,
      "b": 6.6429,
      "c": 23.99833,
      "alpha": 90.0,
      "beta": 90.0,
      "gamma": 90.0,
      "volume": 635.3512977903785
    },
    "properties": {},
    "sites": [
      {
        "species": [{ "element": "Si", "occu": 1 }],
        "abc": [0.75, 0.75, 0.027323999999999002],
        "properties": { "magmom": -0.0 },
        "label": "Si",
        "xyz": [2.9890725, 4.982175, 0.655730368919976]
      },
      {
        "species": [{ "element": "Si", "occu": 1 }],
        "abc": [0.75, 0.25, 0.027323999999999002],
        "properties": { "magmom": -0.0 },
        "label": "Si",
        "xyz": [2.9890725, 1.660725, 0.655730368919976]
      },
      {
        "species": [{ "element": "Si", "occu": 1 }],
        "abc": [0.25, 0.75, 0.972676],
        "properties": { "magmom": -0.0 },
        "label": "Si",
        "xyz": [0.9963575, 4.982175, 23.34259963108]
      },
      {
        "species": [{ "element": "Si", "occu": 1 }],
        "abc": [0.25, 0.25, 0.972676],
        "properties": { "magmom": -0.0 },
        "label": "Si",
        "xyz": [0.9963575, 1.660725, 23.34259963108]
      },
      {
        "species": [{ "element": "S", "occu": 1 }],
        "abc": [0.795253, 0.5, 0.084830999999999],
        "properties": { "magmom": -0.0 },
        "label": "S",
        "xyz": [3.16942516379, 3.32145, 2.035802332229976]
      },
      {
        "species": [{ "element": "S", "occu": 1 }],
        "abc": [0.704747, 0.0, 0.084830999999999],
        "properties": { "magmom": -0.0 },
        "label": "S",
        "xyz": [2.80871983621, 0.0, 2.035802332229976]
      },
      {
        "species": [{ "element": "S", "occu": 1 }],
        "abc": [0.204746999999999, 0.5, 0.915169],
        "properties": { "magmom": -0.0 },
        "label": "S",
        "xyz": [0.8160048362099961, 3.32145, 21.96252766777]
      },
      {
        "species": [{ "element": "S", "occu": 1 }],
        "abc": [0.295253, 0.0, 0.915169],
        "properties": { "magmom": -0.0 },
        "label": "S",
        "xyz": [1.17671016379, 0.0, 21.96252766777]
      }
    ]
  },
  "task_ids": null,
  "uncorrected_energy_per_atom": null,
  "energy_per_atom": -8.87940748375,
  "formation_energy_per_atom": -0.47502564515625,
  "energy_above_hull": 0.08684334124999801,
  "is_stable": false,
  "equilibrium_reaction_energy_per_atom": null,
  "decomposes_to": null,
  "xas": null,
  "grain_boundaries": null,
  "band_gap": 0.4776,
  "cbm": null,
  "vbm": null,
  "efermi": -2.38142622,
  "is_gap_direct": null,
  "is_metal": null,
  "es_source_calc_id": null,
  "bandstructure": null,
  "dos": null,
  "dos_energy_up": null,
  "dos_energy_down": null,
  "is_magnetic": null,
  "ordering": null,
  "total_magnetization": 0.0003113,
  "total_magnetization_normalized_vol": null,
  "total_magnetization_normalized_formula_units": null,
  "num_magnetic_sites": null,
  "num_unique_magnetic_sites": null,
  "types_of_magnetic_species": null,
  "bulk_modulus": null,
  "shear_modulus": null,
  "universal_anisotropy": null,
  "homogeneous_poisson": null,
  "e_total": null,
  "e_ionic": null,
  "e_electronic": null,
  "n": null,
  "e_ij_max": null,
  "weighted_surface_energy_EV_PER_ANG2": null,
  "weighted_surface_energy": null,
  "weighted_work_function": null,
  "surface_anisotropy": null,
  "shape_factor": null,
  "has_reconstructed": null,
  "possible_species": null,
  "has_props": null,
  "theoretical": null,
  "database_IDs": null,
  "fields_not_requested": [
    "builder_meta",
    "nsites",
    "elements",
    "nelements",
    "composition",
    "composition_reduced",
    "chemsys",
    "symmetry",
    "property_name",
    "deprecated",
    "deprecation_reasons",
    "last_updated",
    "origins",
    "warnings",
    "task_ids",
    "uncorrected_energy_per_atom",
    "equilibrium_reaction_energy_per_atom",
    "decomposes_to",
    "xas",
    "grain_boundaries",
    "cbm",
    "vbm",
    "is_gap_direct",
    "is_metal",
    "es_source_calc_id",
    "bandstructure",
    "dos",
    "dos_energy_up",
    "dos_energy_down",
    "is_magnetic",
    "ordering",
    "total_magnetization_normalized_vol",
    "total_magnetization_normalized_formula_units",
    "num_magnetic_sites",
    "num_unique_magnetic_sites",
    "types_of_magnetic_species",
    "bulk_modulus",
    "shear_modulus",
    "universal_anisotropy",
    "homogeneous_poisson",
    "e_total",
    "e_ionic",
    "e_electronic",
    "n",
    "e_ij_max",
    "weighted_surface_energy_EV_PER_ANG2",
    "weighted_surface_energy",
    "weighted_work_function",
    "surface_anisotropy",
    "shape_factor",
    "has_reconstructed",
    "possible_species",
    "has_props",
    "theoretical",
    "database_IDs"
  ]
}
