{"builder_meta": null, "nsites": null, "elements": null, "nelements": null, "composition": null, "composition_reduced": null, "formula_pretty": "SiS2", "formula_anonymous": "AB2", "chemsys": null, "volume": 156.65137604743768, "density": 1.955009195063587, "density_atomic": 26.108562674572948, "symmetry": null, "property_name": null, "material_id": "mp-1602", "deprecated": null, "deprecation_reasons": null, "last_updated": null, "origins": null, "warnings": null, "structure": {"@module": "pymatgen.core.structure", "@class": "Structure", "charge": 0, "lattice": {"matrix": [[4.95790483, 0.0, -2.49144759], [-1.3000876, 4.96708035, -2.58713387], [0.07594598, -0.01060501, 6.32989254]], "pbc": [true, true, true], "a": 5.548705380271523, "b": 5.749380543356915, "c": 6.3303570062092795, "alpha": 117.00781113478405, "beta": 115.9930142335087, "gamma": 90.00000385432722, "volume": 156.65137604743768}, "properties": {}, "sites": [{"species": [{"element": "Si", "occu": 1}], "abc": [0.75, -0.0, -0.0], "properties": {"magmom": -0.0}, "label": "Si", "xyz": [3.7184286225000003, 0.0, -1.8685856925]}, {"species": [{"element": "Si", "occu": 1}], "abc": [0.25, -0.0, -0.0], "properties": {"magmom": -0.0}, "label": "Si", "xyz": [1.2394762075, 0.0, -0.6228618975]}, {"species": [{"element": "S", "occu": 1}], "abc": [0.8847456300000001, 0.68330985, 0.76949027], "properties": {"magmom": 0.0}, "label": "S", "xyz": [3.556561662011148, 3.3858944768881947, 0.8986792954094347]}, {"species": [{"element": "S", "occu": 1}], "abc": [0.11525437000000001, 0.31669015, 0.23050973], "properties": {"magmom": 0.0}, "label": "S", "xyz": [0.17720154798885265, 1.570580863111805, 0.3526317845905653]}, {"species": [{"element": "S", "occu": 1}], "abc": [0.61525437, 0.91381858, 0.23050973], "properties": {"magmom": 0.0}, "label": "S", "xyz": [1.879834695538385, 4.536565754191155, -2.437943196402359]}, {"species": [{"element": "S", "occu": 1}], "abc": [0.38474563, 0.08618142000000001, 0.76949027], "properties": {"magmom": 0.0}, "label": "S", "xyz": [1.8539285144616156, 0.4199095858088443, 3.689254276402359]}]}, "task_ids": null, "uncorrected_energy_per_atom": null, "energy_per_atom": -9.030412901666667, "formation_energy_per_atom": -0.749158648541666, "energy_above_hull": 0.0, "is_stable": true, "equilibrium_reaction_energy_per_atom": null, "decomposes_to": null, "xas": null, "grain_boundaries": null, "band_gap": 3.1072, "cbm": null, "vbm": null, "efermi": 0.8082025700000001, "is_gap_direct": null, "is_metal": null, "es_source_calc_id": null, "bandstructure": null, "dos": null, "dos_energy_up": null, "dos_energy_down": null, "is_magnetic": null, "ordering": null, "total_magnetization": 0.0, "total_magnetization_normalized_vol": null, "total_magnetization_normalized_formula_units": null, "num_magnetic_sites": null, "num_unique_magnetic_sites": null, "types_of_magnetic_species": null, "bulk_modulus": null, "shear_modulus": null, "universal_anisotropy": null, "homogeneous_poisson": null, "e_total": null, "e_ionic": null, "e_electronic": null, "n": null, "e_ij_max": null, "weighted_surface_energy_EV_PER_ANG2": null, "weighted_surface_energy": null, "weighted_work_function": null, "surface_anisotropy": null, "shape_factor": null, "has_reconstructed": null, "possible_species": null, "has_props": null, "theoretical": null, "database_IDs": null, "fields_not_requested": ["builder_meta", "nsites", "elements", "nelements", "composition", "composition_reduced", "chemsys", "symmetry", "property_name", "deprecated", "deprecation_reasons", "last_updated", "origins", "warnings", "task_ids", "uncorrected_energy_per_atom", "equilibrium_reaction_energy_per_atom", "decomposes_to", "xas", "grain_boundaries", "cbm", "vbm", "is_gap_direct", "is_metal", "es_source_calc_id", "bandstructure", "dos", "dos_energy_up", "dos_energy_down", "is_magnetic", "ordering", "total_magnetization_normalized_vol", "total_magnetization_normalized_formula_units", "num_magnetic_sites", "num_unique_magnetic_sites", "types_of_magnetic_species", "bulk_modulus", "shear_modulus", "universal_anisotropy", "homogeneous_poisson", "e_total", "e_ionic", "e_electronic", "n", "e_ij_max", "weighted_surface_energy_EV_PER_ANG2", "weighted_surface_energy", "weighted_work_function", "surface_anisotropy", "shape_factor", "has_reconstructed", "possible_species", "has_props", "theoretical", "database_IDs"]}