{
  "builder_meta": null,
  "nsites": null,
  "elements": null,
  "nelements": null,
  "composition": null,
  "composition_reduced": null,
  "formula_pretty": "SiS4",
  "formula_anonymous": "AB4",
  "chemsys": null,
  "volume": 247.86198772469413,
  "density": 2.094857811964887,
  "density_atomic": 24.78619877246941,
  "symmetry": null,
  "property_name": null,
  "material_id": "mp-1080657",
  "deprecated": null,
  "deprecation_reasons": null,
  "last_updated": null,
  "origins": null,
  "warnings": null,
  "structure": {
    "@module": "pymatgen.core.structure",
    "@class": "Structure",
    "charge": 0,
    "lattice": {
      "matrix": [
        [4.710985, 0.0, 0.0],
        [0.0, 6.882284, 0.0],
        [0.0, 0.437708, 7.644791]
      ],
      "pbc": [true, true, true],
      "a": 4.710985,
      "b": 6.882284,
      "c": 7.657311390229928,
      "alpha": 86.72306669626468,
      "beta": 90.0,
      "gamma": 90.0,
      "volume": 247.86198772469413
    },
    "properties": {},
    "sites": [
      {
        "species": [{ "element": "Si", "occu": 1 }],
        "abc": [0.25, 0.617961, 0.651658],
        "properties": { "magmom": -0.0 },
        "label": "Si",
        "xyz": [1.17774625, 4.538219022788001, 4.981789213478]
      },
      {
        "species": [{ "element": "Si", "occu": 1 }],
        "abc": [0.75, 0.382038999999999, 0.348342],
        "properties": { "magmom": -0.0 },
        "label": "Si",
        "xyz": [3.5332387499999998, 2.7817729772119932, 2.663001786522]
      },
      {
        "species": [{ "element": "S", "occu": 1 }],
        "abc": [0.525687999999999, 0.746877999999999, 0.834947],
        "properties": { "magmom": -0.0 },
        "label": "S",
        "xyz": [2.4765082826799953, 5.505689490827994, 6.382995311077]
      },
      {
        "species": [{ "element": "S", "occu": 1 }],
        "abc": [0.025688, 0.253122, 0.165053],
        "properties": { "magmom": -0.0 },
        "label": "S",
        "xyz": [0.12101578267999999, 1.8143025091720002, 1.261795688923]
      },
      {
        "species": [{ "element": "S", "occu": 1 }],
        "abc": [0.474311999999999, 0.253122, 0.165053],
        "properties": { "magmom": -0.0 },
        "label": "S",
        "xyz": [2.2344767173199953, 1.8143025091720002, 1.261795688923]
      },
      {
        "species": [{ "element": "S", "occu": 1 }],
        "abc": [0.974312, 0.746877999999999, 0.834947],
        "properties": { "magmom": -0.0 },
        "label": "S",
        "xyz": [4.58996921732, 5.505689490827994, 6.382995311077]
      },
      {
        "species": [{ "element": "S", "occu": 1 }],
        "abc": [0.25, 0.740275, 0.387374999999999],
        "properties": { "magmom": -0.0 },
        "label": "S",
        "xyz": [1.17774625, 5.264339924600001, 2.9614009136249924]
      },
      {
        "species": [{ "element": "S", "occu": 1 }],
        "abc": [0.75, 0.259725, 0.612625],
        "properties": { "magmom": -0.0 },
        "label": "S",
        "xyz": [3.5332387499999998, 2.0556520754, 4.683390086375]
      },
      {
        "species": [{ "element": "S", "occu": 1 }],
        "abc": [0.25, 0.303062999999999, 0.658285999999999],
        "properties": { "magmom": -0.0 },
        "label": "S",
        "xyz": [1.17774625, 2.3739026843799933, 5.032458888225992]
      },
      {
        "species": [{ "element": "S", "occu": 1 }],
        "abc": [0.75, 0.696936999999999, 0.341713999999999],
        "properties": { "magmom": -0.0 },
        "label": "S",
        "xyz": [3.5332387499999998, 4.946089315619993, 2.6123321117739926]
      }
    ]
  },
  "task_ids": null,
  "uncorrected_energy_per_atom": null,
  "energy_per_atom": -8.481017951125,
  "formation_energy_per_atom": -0.298265766374998,
  "energy_above_hull": 0.151229422749999,
  "is_stable": false,
  "equilibrium_reaction_energy_per_atom": null,
  "decomposes_to": null,
  "xas": null,
  "grain_boundaries": null,
  "band_gap": 0.0,
  "cbm": null,
  "vbm": null,
  "efermi": 2.77623125,
  "is_gap_direct": null,
  "is_metal": null,
  "es_source_calc_id": null,
  "bandstructure": null,
  "dos": null,
  "dos_energy_up": null,
  "dos_energy_down": null,
  "is_magnetic": null,
  "ordering": null,
  "total_magnetization": 0.0004249,
  "total_magnetization_normalized_vol": null,
  "total_magnetization_normalized_formula_units": null,
  "num_magnetic_sites": null,
  "num_unique_magnetic_sites": null,
  "types_of_magnetic_species": null,
  "bulk_modulus": null,
  "shear_modulus": null,
  "universal_anisotropy": null,
  "homogeneous_poisson": null,
  "e_total": null,
  "e_ionic": null,
  "e_electronic": null,
  "n": null,
  "e_ij_max": null,
  "weighted_surface_energy_EV_PER_ANG2": null,
  "weighted_surface_energy": null,
  "weighted_work_function": null,
  "surface_anisotropy": null,
  "shape_factor": null,
  "has_reconstructed": null,
  "possible_species": null,
  "has_props": null,
  "theoretical": null,
  "database_IDs": null,
  "fields_not_requested": [
    "builder_meta",
    "nsites",
    "elements",
    "nelements",
    "composition",
    "composition_reduced",
    "chemsys",
    "symmetry",
    "property_name",
    "deprecated",
    "deprecation_reasons",
    "last_updated",
    "origins",
    "warnings",
    "task_ids",
    "uncorrected_energy_per_atom",
    "equilibrium_reaction_energy_per_atom",
    "decomposes_to",
    "xas",
    "grain_boundaries",
    "cbm",
    "vbm",
    "is_gap_direct",
    "is_metal",
    "es_source_calc_id",
    "bandstructure",
    "dos",
    "dos_energy_up",
    "dos_energy_down",
    "is_magnetic",
    "ordering",
    "total_magnetization_normalized_vol",
    "total_magnetization_normalized_formula_units",
    "num_magnetic_sites",
    "num_unique_magnetic_sites",
    "types_of_magnetic_species",
    "bulk_modulus",
    "shear_modulus",
    "universal_anisotropy",
    "homogeneous_poisson",
    "e_total",
    "e_ionic",
    "e_electronic",
    "n",
    "e_ij_max",
    "weighted_surface_energy_EV_PER_ANG2",
    "weighted_surface_energy",
    "weighted_work_function",
    "surface_anisotropy",
    "shape_factor",
    "has_reconstructed",
    "possible_species",
    "has_props",
    "theoretical",
    "database_IDs"
  ]
}
