{"builder_meta": null, "nsites": null, "elements": null, "nelements": null, "composition": null, "composition_reduced": null, "formula_pretty": "SiSb3", "formula_anonymous": "AB3", "chemsys": null, "volume": 200.38154884959647, "density": 6.519550167694571, "density_atomic": 25.04769360619956, "symmetry": null, "property_name": null, "material_id": "mp-972794", "deprecated": null, "deprecation_reasons": null, "last_updated": null, "origins": null, "warnings": null, "structure": {"@module": "pymatgen.core.structure", "@class": "Structure", "charge": 0, "lattice": {"matrix": [[3.224847, -5.585599, 0.0], [3.224847, 5.585599, 0.0], [0.0, 0.0, 5.562229]], "pbc": [true, true, true], "a": 6.449694129352958, "b": 6.449694129352958, "c": 5.562229, "alpha": 90.0, "beta": 90.0, "gamma": 120.00000132687265, "volume": 200.38154884959647}, "properties": {}, "sites": [{"species": [{"element": "Si", "occu": 1}], "abc": [0.333333, 0.666667, 0.75], "properties": {"magmom": 0.0}, "label": "Si", "xyz": [3.2248469999999996, 1.8618700570660003, 4.17167175]}, {"species": [{"element": "Si", "occu": 1}], "abc": [0.666667, 0.333333, 0.25], "properties": {"magmom": 0.0}, "label": "Si", "xyz": [3.2248469999999996, -1.8618700570660003, 1.39055725]}, {"species": [{"element": "Sb", "occu": 1}], "abc": [0.17463, 0.34926, 0.25], "properties": {"magmom": 0.0}, "label": "Sb", "xyz": [1.68946509483, 0.9754131533700001, 1.39055725]}, {"species": [{"element": "Sb", "occu": 1}], "abc": [0.6507400000000001, 0.82537, 0.25], "properties": {"magmom": 0.0}, "label": "Sb", "xyz": [4.760228905170001, 0.9754131533699995, 1.39055725]}, {"species": [{"element": "Sb", "occu": 1}], "abc": [0.17463, 0.82537, 0.25], "properties": {"magmom": 0.0}, "label": "Sb", "xyz": [3.224847, 3.6347726932600004, 1.39055725]}, {"species": [{"element": "Sb", "occu": 1}], "abc": [0.82537, 0.6507400000000001, 0.75], "properties": {"magmom": 0.0}, "label": "Sb", "xyz": [4.760228905170001, -0.9754131533699995, 4.17167175]}, {"species": [{"element": "Sb", "occu": 1}], "abc": [0.34926, 0.17463, 0.75], "properties": {"magmom": 0.0}, "label": "Sb", "xyz": [1.68946509483, -0.9754131533700001, 4.17167175]}, {"species": [{"element": "Sb", "occu": 1}], "abc": [0.82537, 0.17463, 0.75], "properties": {"magmom": 0.0}, "label": "Sb", "xyz": [3.224847, -3.6347726932600004, 4.17167175]}]}, "task_ids": null, "uncorrected_energy_per_atom": null, "energy_per_atom": -21.1441764325, "formation_energy_per_atom": 0.32900151375000003, "energy_above_hull": 0.32900151375000003, "is_stable": false, "equilibrium_reaction_energy_per_atom": null, "decomposes_to": null, "xas": null, "grain_boundaries": null, "band_gap": 0.0, "cbm": null, "vbm": null, "efermi": 8.15940995, "is_gap_direct": null, "is_metal": null, "es_source_calc_id": null, "bandstructure": null, "dos": null, "dos_energy_up": null, "dos_energy_down": null, "is_magnetic": null, "ordering": null, "total_magnetization": 0.0126787, "total_magnetization_normalized_vol": null, "total_magnetization_normalized_formula_units": null, "num_magnetic_sites": null, "num_unique_magnetic_sites": null, "types_of_magnetic_species": null, "bulk_modulus": null, "shear_modulus": null, "universal_anisotropy": null, "homogeneous_poisson": null, "e_total": null, "e_ionic": null, "e_electronic": null, "n": null, "e_ij_max": null, "weighted_surface_energy_EV_PER_ANG2": null, "weighted_surface_energy": null, "weighted_work_function": null, "surface_anisotropy": null, "shape_factor": null, "has_reconstructed": null, "possible_species": null, "has_props": null, "theoretical": null, "database_IDs": null, "fields_not_requested": ["builder_meta", "nsites", "elements", "nelements", "composition", "composition_reduced", "chemsys", "symmetry", "property_name", "deprecated", "deprecation_reasons", "last_updated", "origins", "warnings", "task_ids", "uncorrected_energy_per_atom", "equilibrium_reaction_energy_per_atom", "decomposes_to", "xas", "grain_boundaries", "cbm", "vbm", "is_gap_direct", "is_metal", "es_source_calc_id", "bandstructure", "dos", "dos_energy_up", "dos_energy_down", "is_magnetic", "ordering", "total_magnetization_normalized_vol", "total_magnetization_normalized_formula_units", "num_magnetic_sites", "num_unique_magnetic_sites", "types_of_magnetic_species", "bulk_modulus", "shear_modulus", "universal_anisotropy", "homogeneous_poisson", "e_total", "e_ionic", "e_electronic", "n", "e_ij_max", "weighted_surface_energy_EV_PER_ANG2", "weighted_surface_energy", "weighted_work_function", "surface_anisotropy", "shape_factor", "has_reconstructed", "possible_species", "has_props", "theoretical", "database_IDs"]}