{"builder_meta": null, "nsites": null, "elements": null, "nelements": null, "composition": null, "composition_reduced": null, "formula_pretty": "SiSe2", "formula_anonymous": "AB2", "chemsys": null, "volume": 691.0016622931032, "density": 3.575903401765799, "density_atomic": 28.7917359288793, "symmetry": null, "property_name": null, "material_id": "mp-1250007", "deprecated": null, "deprecation_reasons": null, "last_updated": null, "origins": null, "warnings": null, "structure": {"@module": "pymatgen.core.structure", "@class": "Structure", "charge": 0, "lattice": {"matrix": [[6.38735378, 0.0, -1.21978155], [0.0, 17.33355763, 0.0], [-0.06490798, 0.0, 6.25362859]], "pbc": [true, true, true], "a": 6.502780585303543, "b": 17.33355763, "c": 6.253965429032452, "alpha": 90.0, "beta": 101.40616525958988, "gamma": 90.0, "volume": 691.0016622931032}, "properties": {}, "sites": [{"species": [{"element": "Si", "occu": 1}], "abc": [0.11865794, 0.06454223, 0.120760899999999], "properties": {"magmom": 0.0}, "label": "Si", "xyz": [0.7500718955040312, 1.1187464632737152, 0.6104570508211178]}, {"species": [{"element": "Si", "occu": 1}], "abc": [0.88134206, 0.56454223, 0.3792391], "properties": {"magmom": 0.0}, "label": "Si", "xyz": [5.604827894495968, 9.785525278273717, 1.2965756941788757]}, {"species": [{"element": "Si", "occu": 1}], "abc": [0.88134206, 0.93545777, 0.879239099999999], "properties": {"magmom": 0.0}, "label": "Si", "xyz": [5.572373904495969, 16.214811166726285, 4.423389989178871]}, {"species": [{"element": "Si", "occu": 1}], "abc": [0.11865794, 0.43545777, 0.6207609], "properties": {"magmom": 0.0}, "label": "Si", "xyz": [0.7176179055040312, 7.548032351726286, 3.7372713458211235]}, {"species": [{"element": "Si", "occu": 1}], "abc": [0.35109133000000003, 0.19541899000000001, 0.35169], "properties": {"magmom": 0.0}, "label": "Si", "xyz": [2.219717046314528, 3.3873063251613944, 1.7710839121181385]}, {"species": [{"element": "Si", "occu": 1}], "abc": [0.64890867, 0.69541899, 0.14831000000000003], "properties": {"magmom": 0.0}, "label": "Si", "xyz": [4.135182743685472, 12.054085140161394, 0.13594883288186177]}, {"species": [{"element": "Si", "occu": 1}], "abc": [0.64890867, 0.80458101, 0.64831], "properties": {"magmom": 0.0}, "label": "Si", "xyz": [4.102728753685472, 13.946251304838608, 3.262763127881862]}, {"species": [{"element": "Si", "occu": 1}], "abc": [0.35109133000000003, 0.30458101, 0.8516900000000001], "properties": {"magmom": 0.0}, "label": "Si", "xyz": [2.187263056314528, 5.279472489838606, 4.897898207118139]}, {"species": [{"element": "Se", "occu": 1}], "abc": [0.9986242999999991, 0.17874045, 0.23341202], "properties": {"magmom": -0.0}, "label": "Se", "xyz": [6.363416394678929, 3.0982078908871338, 0.2415685849999878]}, {"species": [{"element": "Se", "occu": 1}], "abc": [0.001375699999999, 0.67874045, 0.26658798], "properties": {"magmom": -0.0}, "label": "Se", "xyz": [-0.00851660467894079, 11.764986705887136, 1.6654641600000144]}, {"species": [{"element": "Se", "occu": 1}], "abc": [0.001375699999999, 0.8212595500000001, 0.7665879800000001], "properties": {"magmom": -0.0}, "label": "Se", "xyz": [-0.04097059467894079, 14.235349739112868, 4.792278455000015]}, {"species": [{"element": "Se", "occu": 1}], "abc": [0.9986242999999991, 0.32125955, 0.73341202], "properties": {"magmom": -0.0}, "label": "Se", "xyz": [6.330962404678928, 5.568570924112867, 3.368382879999988]}, {"species": [{"element": "Se", "occu": 1}], "abc": [0.47566319, 0.30554803, 0.221858399999999], "properties": {"magmom": -0.0}, "label": "Se", "xyz": [3.023828694063326, 5.29623438673797, 0.8072148499955052]}, {"species": [{"element": "Se", "occu": 1}], "abc": [0.52433681, 0.80554803, 0.2781416], "properties": {"magmom": -0.0}, "label": "Se", "xyz": [3.331071095936674, 13.963013201737969, 1.0998178950044886]}, {"species": [{"element": "Se", "occu": 1}], "abc": [0.52433681, 0.69445197, 0.7781416], "properties": {"magmom": -0.0}, "label": "Se", "xyz": [3.298617105936674, 12.037323243262033, 4.226632190004488]}, {"species": [{"element": "Se", "occu": 1}], "abc": [0.47566319, 0.19445197, 0.7218584], "properties": {"magmom": -0.0}, "label": "Se", "xyz": [2.991374704063326, 3.3705444282620314, 3.9340291449955114]}, {"species": [{"element": "Se", "occu": 1}], "abc": [0.471331, 0.08066145, 0.24424678], "properties": {"magmom": -0.0}, "label": "Se", "xyz": [2.9947042793698757, 1.3981498920943636, 0.9525077886803901]}, {"species": [{"element": "Se", "occu": 1}], "abc": [0.528669, 0.58066145, 0.25575322], "properties": {"magmom": -0.0}, "label": "Se", "xyz": [3.360195510630124, 10.064928707094365, 0.9545249563196099]}, {"species": [{"element": "Se", "occu": 1}], "abc": [0.528669, 0.91933855, 0.75575322], "properties": {"magmom": -0.0}, "label": "Se", "xyz": [3.327741520630124, 15.935407737905637, 4.081339251319609]}, {"species": [{"element": "Se", "occu": 1}], "abc": [0.471331, 0.41933855000000003, 0.74424678], "properties": {"magmom": -0.0}, "label": "Se", "xyz": [2.9622502893698757, 7.268628922905638, 4.07932208368039]}, {"species": [{"element": "Se", "occu": 1}], "abc": [0.00902098, 0.4541129, 0.25432733], "properties": {"magmom": -0.0}, "label": "Se", "xyz": [0.04111231745321099, 7.871392122676427, 1.5794650371394459]}, {"species": [{"element": "Se", "occu": 1}], "abc": [0.99097902, 0.954112899999999, 0.24567267], "properties": {"magmom": -0.0}, "label": "Se", "xyz": [6.31378747254679, 16.538170937676412, 0.32756770786055434]}, {"species": [{"element": "Se", "occu": 1}], "abc": [0.99097902, 0.5458871, 0.74567267], "properties": {"magmom": -0.0}, "label": "Se", "xyz": [6.281333482546789, 9.462165507323572, 3.4543820028605543]}, {"species": [{"element": "Se", "occu": 1}], "abc": [0.00902098, 0.0458871, 0.75432733], "properties": {"magmom": -0.0}, "label": "Se", "xyz": [0.008658327453210997, 0.7953866923235731, 4.706279332139446]}]}, "task_ids": null, "uncorrected_energy_per_atom": null, "energy_per_atom": -12.984201890416665, "formation_energy_per_atom": -0.5185735381249991, "energy_above_hull": 0.0, "is_stable": true, "equilibrium_reaction_energy_per_atom": null, "decomposes_to": null, "xas": null, "grain_boundaries": null, "band_gap": 2.4771, "cbm": null, "vbm": null, "efermi": 3.26404458, "is_gap_direct": null, "is_metal": null, "es_source_calc_id": null, "bandstructure": null, "dos": null, "dos_energy_up": null, "dos_energy_down": null, "is_magnetic": null, "ordering": null, "total_magnetization": 0.0, "total_magnetization_normalized_vol": null, "total_magnetization_normalized_formula_units": null, "num_magnetic_sites": null, "num_unique_magnetic_sites": null, "types_of_magnetic_species": null, "bulk_modulus": null, "shear_modulus": null, "universal_anisotropy": null, "homogeneous_poisson": null, "e_total": null, "e_ionic": null, "e_electronic": null, "n": null, "e_ij_max": null, "weighted_surface_energy_EV_PER_ANG2": null, "weighted_surface_energy": null, "weighted_work_function": null, "surface_anisotropy": null, "shape_factor": null, "has_reconstructed": null, "possible_species": null, "has_props": null, "theoretical": null, "database_IDs": null, "fields_not_requested": ["builder_meta", "nsites", "elements", "nelements", "composition", "composition_reduced", "chemsys", "symmetry", "property_name", "deprecated", "deprecation_reasons", "last_updated", "origins", "warnings", "task_ids", "uncorrected_energy_per_atom", "equilibrium_reaction_energy_per_atom", "decomposes_to", "xas", "grain_boundaries", "cbm", "vbm", "is_gap_direct", "is_metal", "es_source_calc_id", "bandstructure", "dos", "dos_energy_up", "dos_energy_down", "is_magnetic", "ordering", "total_magnetization_normalized_vol", "total_magnetization_normalized_formula_units", "num_magnetic_sites", "num_unique_magnetic_sites", "types_of_magnetic_species", "bulk_modulus", "shear_modulus", "universal_anisotropy", "homogeneous_poisson", "e_total", "e_ionic", "e_electronic", "n", "e_ij_max", "weighted_surface_energy_EV_PER_ANG2", "weighted_surface_energy", "weighted_work_function", "surface_anisotropy", "shape_factor", "has_reconstructed", "possible_species", "has_props", "theoretical", "database_IDs"]}