{
  "builder_meta": null,
  "nsites": null,
  "elements": null,
  "nelements": null,
  "composition": null,
  "composition_reduced": null,
  "formula_pretty": "SiTc4",
  "formula_anonymous": "AB4",
  "chemsys": null,
  "volume": 71.84928047132681,
  "density": 9.708773414099475,
  "density_atomic": 14.369856094265362,
  "symmetry": null,
  "property_name": null,
  "material_id": "mp-1219219",
  "deprecated": null,
  "deprecation_reasons": null,
  "last_updated": null,
  "origins": null,
  "warnings": null,
  "structure": {
    "@module": "pymatgen.core.structure",
    "@class": "Structure",
    "charge": 0,
    "lattice": {
      "matrix": [
        [0.0, 2.298172, 10.608022],
        [1.473586, 0.0, 10.608022],
        [1.473586, 2.298172, 0.0]
      ],
      "pbc": [true, true, true],
      "a": 10.854110985892303,
      "b": 10.709882653506527,
      "c": 2.73002751652433,
      "alpha": 85.74085998982804,
      "beta": 79.73277186533659,
      "gamma": 14.526368144835418,
      "volume": 71.84928047132681
    },
    "properties": {},
    "sites": [
      {
        "species": [{ "element": "Si", "occu": 1 }],
        "abc": [0.0, 0.0, 0.0],
        "properties": { "magmom": -0.0 },
        "label": "Si",
        "xyz": [0.0, 0.0, 0.0]
      },
      {
        "species": [{ "element": "Tc", "occu": 1 }],
        "abc": [0.407369, 0.407369, 0.592631],
        "properties": { "magmom": -0.001 },
        "label": "Tc",
        "xyz": [1.473586, 2.298172, 8.642758628235999]
      },
      {
        "species": [{ "element": "Tc", "occu": 1 }],
        "abc": [0.802796, 0.802796, 0.197204],
        "properties": { "magmom": 0.008 },
        "label": "Tc",
        "xyz": [1.473586, 2.298172, 17.032155259023998]
      },
      {
        "species": [{ "element": "Tc", "occu": 1 }],
        "abc": [0.197204, 0.197204, 0.802796],
        "properties": { "magmom": 0.008 },
        "label": "Tc",
        "xyz": [1.473586, 2.298172, 4.183888740976]
      },
      {
        "species": [{ "element": "Tc", "occu": 1 }],
        "abc": [0.592631, 0.592631, 0.407369],
        "properties": { "magmom": -0.001 },
        "label": "Tc",
        "xyz": [1.473586, 2.298172, 12.573285371764001]
      }
    ]
  },
  "task_ids": null,
  "uncorrected_energy_per_atom": null,
  "energy_per_atom": -22.386242631500004,
  "formation_energy_per_atom": 0.140239927499999,
  "energy_above_hull": 0.34840717849999603,
  "is_stable": false,
  "equilibrium_reaction_energy_per_atom": null,
  "decomposes_to": null,
  "xas": null,
  "grain_boundaries": null,
  "band_gap": 0.0,
  "cbm": null,
  "vbm": null,
  "efermi": 9.0805622,
  "is_gap_direct": null,
  "is_metal": null,
  "es_source_calc_id": null,
  "bandstructure": null,
  "dos": null,
  "dos_energy_up": null,
  "dos_energy_down": null,
  "is_magnetic": null,
  "ordering": null,
  "total_magnetization": 0.026314999999999002,
  "total_magnetization_normalized_vol": null,
  "total_magnetization_normalized_formula_units": null,
  "num_magnetic_sites": null,
  "num_unique_magnetic_sites": null,
  "types_of_magnetic_species": null,
  "bulk_modulus": null,
  "shear_modulus": null,
  "universal_anisotropy": null,
  "homogeneous_poisson": null,
  "e_total": null,
  "e_ionic": null,
  "e_electronic": null,
  "n": null,
  "e_ij_max": null,
  "weighted_surface_energy_EV_PER_ANG2": null,
  "weighted_surface_energy": null,
  "weighted_work_function": null,
  "surface_anisotropy": null,
  "shape_factor": null,
  "has_reconstructed": null,
  "possible_species": null,
  "has_props": null,
  "theoretical": null,
  "database_IDs": null,
  "fields_not_requested": [
    "builder_meta",
    "nsites",
    "elements",
    "nelements",
    "composition",
    "composition_reduced",
    "chemsys",
    "symmetry",
    "property_name",
    "deprecated",
    "deprecation_reasons",
    "last_updated",
    "origins",
    "warnings",
    "task_ids",
    "uncorrected_energy_per_atom",
    "equilibrium_reaction_energy_per_atom",
    "decomposes_to",
    "xas",
    "grain_boundaries",
    "cbm",
    "vbm",
    "is_gap_direct",
    "is_metal",
    "es_source_calc_id",
    "bandstructure",
    "dos",
    "dos_energy_up",
    "dos_energy_down",
    "is_magnetic",
    "ordering",
    "total_magnetization_normalized_vol",
    "total_magnetization_normalized_formula_units",
    "num_magnetic_sites",
    "num_unique_magnetic_sites",
    "types_of_magnetic_species",
    "bulk_modulus",
    "shear_modulus",
    "universal_anisotropy",
    "homogeneous_poisson",
    "e_total",
    "e_ionic",
    "e_electronic",
    "n",
    "e_ij_max",
    "weighted_surface_energy_EV_PER_ANG2",
    "weighted_surface_energy",
    "weighted_work_function",
    "surface_anisotropy",
    "shape_factor",
    "has_reconstructed",
    "possible_species",
    "has_props",
    "theoretical",
    "database_IDs"
  ]
}
