{
  "builder_meta": null,
  "nsites": null,
  "elements": null,
  "nelements": null,
  "composition": null,
  "composition_reduced": null,
  "formula_pretty": "SiTc3",
  "formula_anonymous": "AB3",
  "chemsys": null,
  "volume": 112.26128147192495,
  "density": 9.52840638415747,
  "density_atomic": 14.032660183990618,
  "symmetry": null,
  "property_name": null,
  "material_id": "mp-972784",
  "deprecated": null,
  "deprecation_reasons": null,
  "last_updated": null,
  "origins": null,
  "warnings": null,
  "structure": {
    "@module": "pymatgen.core.structure",
    "@class": "Structure",
    "charge": 0,
    "lattice": {
      "matrix": [
        [2.705267, -4.685659, 0.0],
        [2.705267, 4.685659, 0.0],
        [0.0, 0.0, 4.428117999999999]
      ],
      "pbc": [true, true, true],
      "a": 5.410533227471208,
      "b": 5.410533227471208,
      "c": 4.428117999999999,
      "alpha": 90.0,
      "beta": 90.0,
      "gamma": 119.99999055359379,
      "volume": 112.2612814719249
    },
    "properties": {},
    "sites": [
      {
        "species": [{ "element": "Si", "occu": 1 }],
        "abc": [0.666667, 0.333333, 0.25],
        "properties": { "magmom": -0.0 },
        "label": "Si",
        "xyz": [2.705267, -1.561889457106, 1.1070294999999997]
      },
      {
        "species": [{ "element": "Si", "occu": 1 }],
        "abc": [0.333333, 0.666667, 0.75],
        "properties": { "magmom": -0.0 },
        "label": "Si",
        "xyz": [2.705267, 1.561889457106, 3.321088499999999]
      },
      {
        "species": [{ "element": "Tc", "occu": 1 }],
        "abc": [0.170899, 0.341796999999999, 0.25],
        "properties": { "magmom": 0.002 },
        "label": "Tc",
        "xyz": [1.3869795698319973, 0.8007697517819956, 1.1070294999999997]
      },
      {
        "species": [{ "element": "Tc", "occu": 1 }],
        "abc": [0.658203, 0.829101, 0.25],
        "properties": { "magmom": 0.001 },
        "label": "Tc",
        "xyz": [4.023554430168, 0.800769751782, 1.1070294999999997]
      },
      {
        "species": [{ "element": "Tc", "occu": 1 }],
        "abc": [0.170899, 0.829101, 0.25],
        "properties": { "magmom": 0.002 },
        "label": "Tc",
        "xyz": [2.705267, 3.0841101251180003, 1.1070294999999997]
      },
      {
        "species": [{ "element": "Tc", "occu": 1 }],
        "abc": [0.829101, 0.658203, 0.75],
        "properties": { "magmom": 0.002 },
        "label": "Tc",
        "xyz": [4.023554430168, -0.800769751782, 3.321088499999999]
      },
      {
        "species": [{ "element": "Tc", "occu": 1 }],
        "abc": [0.341796999999999, 0.170899, 0.75],
        "properties": { "magmom": 0.001 },
        "label": "Tc",
        "xyz": [1.3869795698319973, -0.8007697517819956, 3.321088499999999]
      },
      {
        "species": [{ "element": "Tc", "occu": 1 }],
        "abc": [0.829101, 0.170899, 0.75],
        "properties": { "magmom": 0.002 },
        "label": "Tc",
        "xyz": [2.705267, -3.0841101251180003, 3.321088499999999]
      }
    ]
  },
  "task_ids": null,
  "uncorrected_energy_per_atom": null,
  "energy_per_atom": -21.792045408125,
  "formation_energy_per_atom": -0.125107721874996,
  "energy_above_hull": 0.135101341875,
  "is_stable": false,
  "equilibrium_reaction_energy_per_atom": null,
  "decomposes_to": null,
  "xas": null,
  "grain_boundaries": null,
  "band_gap": 0.0,
  "cbm": null,
  "vbm": null,
  "efermi": 9.54487304,
  "is_gap_direct": null,
  "is_metal": null,
  "es_source_calc_id": null,
  "bandstructure": null,
  "dos": null,
  "dos_energy_up": null,
  "dos_energy_down": null,
  "is_magnetic": null,
  "ordering": null,
  "total_magnetization": 0.0170271,
  "total_magnetization_normalized_vol": null,
  "total_magnetization_normalized_formula_units": null,
  "num_magnetic_sites": null,
  "num_unique_magnetic_sites": null,
  "types_of_magnetic_species": null,
  "bulk_modulus": null,
  "shear_modulus": null,
  "universal_anisotropy": null,
  "homogeneous_poisson": null,
  "e_total": null,
  "e_ionic": null,
  "e_electronic": null,
  "n": null,
  "e_ij_max": null,
  "weighted_surface_energy_EV_PER_ANG2": null,
  "weighted_surface_energy": null,
  "weighted_work_function": null,
  "surface_anisotropy": null,
  "shape_factor": null,
  "has_reconstructed": null,
  "possible_species": null,
  "has_props": null,
  "theoretical": null,
  "database_IDs": null,
  "fields_not_requested": [
    "builder_meta",
    "nsites",
    "elements",
    "nelements",
    "composition",
    "composition_reduced",
    "chemsys",
    "symmetry",
    "property_name",
    "deprecated",
    "deprecation_reasons",
    "last_updated",
    "origins",
    "warnings",
    "task_ids",
    "uncorrected_energy_per_atom",
    "equilibrium_reaction_energy_per_atom",
    "decomposes_to",
    "xas",
    "grain_boundaries",
    "cbm",
    "vbm",
    "is_gap_direct",
    "is_metal",
    "es_source_calc_id",
    "bandstructure",
    "dos",
    "dos_energy_up",
    "dos_energy_down",
    "is_magnetic",
    "ordering",
    "total_magnetization_normalized_vol",
    "total_magnetization_normalized_formula_units",
    "num_magnetic_sites",
    "num_unique_magnetic_sites",
    "types_of_magnetic_species",
    "bulk_modulus",
    "shear_modulus",
    "universal_anisotropy",
    "homogeneous_poisson",
    "e_total",
    "e_ionic",
    "e_electronic",
    "n",
    "e_ij_max",
    "weighted_surface_energy_EV_PER_ANG2",
    "weighted_surface_energy",
    "weighted_work_function",
    "surface_anisotropy",
    "shape_factor",
    "has_reconstructed",
    "possible_species",
    "has_props",
    "theoretical",
    "database_IDs"
  ]
}
