{"builder_meta": null, "nsites": null, "elements": null, "nelements": null, "composition": null, "composition_reduced": null, "formula_pretty": "Sm2Au", "formula_anonymous": "AB2", "chemsys": null, "volume": 336.9417529113753, "density": 9.810930032930518, "density_atomic": 28.078479409281275, "symmetry": null, "property_name": null, "material_id": "mp-1103633", "deprecated": null, "deprecation_reasons": null, "last_updated": null, "origins": null, "warnings": null, "structure": {"@module": "pymatgen.core.structure", "@class": "Structure", "charge": 0, "lattice": {"matrix": [[0.0, -5.026163, 0.0], [-7.269608, 0.0, 0.0], [0.0, 0.0, -9.221621]], "pbc": [true, true, true], "a": 5.026163, "b": 7.269608, "c": 9.221621, "alpha": 90.0, "beta": 90.0, "gamma": 90.0, "volume": 336.9417529113753}, "properties": {}, "sites": [{"species": [{"element": "Sm", "occu": 1}], "abc": [0.75, 0.151562, 0.08464], "properties": {"magmom": -0.0}, "label": "Sm", "xyz": [-1.1017963276959999, -3.7696222500000003, -0.7805180014400002]}, {"species": [{"element": "Sm", "occu": 1}], "abc": [0.75, 0.651562, 0.41536], "properties": {"magmom": 0.0}, "label": "Sm", "xyz": [-4.736600327695999, -3.7696222500000003, -3.8302924985600004]}, {"species": [{"element": "Sm", "occu": 1}], "abc": [0.25, 0.848437999999999, 0.9153600000000001], "properties": {"magmom": -0.0}, "label": "Sm", "xyz": [-6.167811672303992, -1.25654075, -8.441102998560002]}, {"species": [{"element": "Sm", "occu": 1}], "abc": [0.25, 0.348437999999999, 0.58464], "properties": {"magmom": 0.0}, "label": "Sm", "xyz": [-2.533007672303993, -1.25654075, -5.391328501440001]}, {"species": [{"element": "Sm", "occu": 1}], "abc": [0.75, 0.510159, 0.823955999999999], "properties": {"magmom": -0.0}, "label": "Sm", "xyz": [-3.7086559476720002, -3.7696222500000003, -7.598209952675991]}, {"species": [{"element": "Sm", "occu": 1}], "abc": [0.75, 0.010159, 0.676044], "properties": {"magmom": 0.0}, "label": "Sm", "xyz": [-0.073851947672, -3.7696222500000003, -6.234221547324]}, {"species": [{"element": "Sm", "occu": 1}], "abc": [0.25, 0.489840999999999, 0.176043999999999], "properties": {"magmom": 0.0}, "label": "Sm", "xyz": [-3.560952052327993, -1.25654075, -1.6234110473239909]}, {"species": [{"element": "Sm", "occu": 1}], "abc": [0.25, 0.989841, 0.323955999999999], "properties": {"magmom": -0.0}, "label": "Sm", "xyz": [-7.195756052328, -1.25654075, -2.9873994526759913]}, {"species": [{"element": "Au", "occu": 1}], "abc": [0.75, 0.743367999999999, 0.096804], "properties": {"magmom": -0.0}, "label": "Au", "xyz": [-5.4039939597439925, -3.7696222500000003, -0.892689799284]}, {"species": [{"element": "Au", "occu": 1}], "abc": [0.75, 0.243368, 0.403196], "properties": {"magmom": 0.0}, "label": "Au", "xyz": [-1.769189959744, -3.7696222500000003, -3.718120700716]}, {"species": [{"element": "Au", "occu": 1}], "abc": [0.25, 0.256631999999999, 0.903196], "properties": {"magmom": -0.0}, "label": "Au", "xyz": [-1.8656140402559929, -1.25654075, -8.328931200716001]}, {"species": [{"element": "Au", "occu": 1}], "abc": [0.25, 0.756632, 0.596804], "properties": {"magmom": 0.0}, "label": "Au", "xyz": [-5.500418040256, -1.25654075, -5.503500299284]}]}, "task_ids": null, "uncorrected_energy_per_atom": null, "energy_per_atom": -4.8154284175, "formation_energy_per_atom": -0.5784103275000001, "energy_above_hull": 0.0, "is_stable": true, "equilibrium_reaction_energy_per_atom": null, "decomposes_to": null, "xas": null, "grain_boundaries": null, "band_gap": 0.0, "cbm": null, "vbm": null, "efermi": 3.8378849500000003, "is_gap_direct": null, "is_metal": null, "es_source_calc_id": null, "bandstructure": null, "dos": null, "dos_energy_up": null, "dos_energy_down": null, "is_magnetic": null, "ordering": null, "total_magnetization": 0.0005272, "total_magnetization_normalized_vol": null, "total_magnetization_normalized_formula_units": null, "num_magnetic_sites": null, "num_unique_magnetic_sites": null, "types_of_magnetic_species": null, "bulk_modulus": null, "shear_modulus": null, "universal_anisotropy": null, "homogeneous_poisson": null, "e_total": null, "e_ionic": null, "e_electronic": null, "n": null, "e_ij_max": null, "weighted_surface_energy_EV_PER_ANG2": null, "weighted_surface_energy": null, "weighted_work_function": null, "surface_anisotropy": null, "shape_factor": null, "has_reconstructed": null, "possible_species": null, "has_props": null, "theoretical": null, "database_IDs": null, "fields_not_requested": ["builder_meta", "nsites", "elements", "nelements", "composition", "composition_reduced", "chemsys", "symmetry", "property_name", "deprecated", "deprecation_reasons", "last_updated", "origins", "warnings", "task_ids", "uncorrected_energy_per_atom", "equilibrium_reaction_energy_per_atom", "decomposes_to", "xas", "grain_boundaries", "cbm", "vbm", "is_gap_direct", "is_metal", "es_source_calc_id", "bandstructure", "dos", "dos_energy_up", "dos_energy_down", "is_magnetic", "ordering", "total_magnetization_normalized_vol", "total_magnetization_normalized_formula_units", "num_magnetic_sites", "num_unique_magnetic_sites", "types_of_magnetic_species", "bulk_modulus", "shear_modulus", "universal_anisotropy", "homogeneous_poisson", "e_total", "e_ionic", "e_electronic", "n", "e_ij_max", "weighted_surface_energy_EV_PER_ANG2", "weighted_surface_energy", "weighted_work_function", "surface_anisotropy", "shape_factor", "has_reconstructed", "possible_species", "has_props", "theoretical", "database_IDs"]}