{"builder_meta": null, "nsites": null, "elements": null, "nelements": null, "composition": null, "composition_reduced": null, "formula_pretty": "Sm2Al", "formula_anonymous": "AB2", "chemsys": null, "volume": 335.8011231539622, "density": 6.481946241504789, "density_atomic": 27.983426929496847, "symmetry": null, "property_name": null, "material_id": "mp-1102344", "deprecated": null, "deprecation_reasons": null, "last_updated": null, "origins": null, "warnings": null, "structure": {"@module": "pymatgen.core.structure", "@class": "Structure", "charge": 0, "lattice": {"matrix": [[5.19675933, -0.0, 0.0], [0.0, 6.66375078, 0.0], [0.0, 0.0, 9.69685259]], "pbc": [true, true, true], "a": 5.19675933, "b": 6.66375078, "c": 9.69685259, "alpha": 90.0, "beta": 90.0, "gamma": 90.0, "volume": 335.8011231539622}, "properties": {}, "sites": [{"species": [{"element": "Sm", "occu": 1}], "abc": [0.25, 0.19288437, 0.9236409800000001], "properties": {"magmom": 0.0}, "label": "Sm", "xyz": [1.2991898325, 1.2853333710373085, 8.956410429143139]}, {"species": [{"element": "Sm", "occu": 1}], "abc": [0.25, 0.69288437, 0.57635902], "properties": {"magmom": 0.0}, "label": "Sm", "xyz": [1.2991898325, 4.6172087610373085, 5.588868455856863]}, {"species": [{"element": "Sm", "occu": 1}], "abc": [0.75, 0.80711563, 0.07635902], "properties": {"magmom": 0.0}, "label": "Sm", "xyz": [3.8975694975, 5.378417408962691, 0.7404421608568619]}, {"species": [{"element": "Sm", "occu": 1}], "abc": [0.75, 0.30711563000000003, 0.42364098], "properties": {"magmom": 0.0}, "label": "Sm", "xyz": [3.8975694975, 2.0465420189626915, 4.1079841341431385]}, {"species": [{"element": "Sm", "occu": 1}], "abc": [0.25, 0.02553261, 0.2947052], "properties": {"magmom": 0.0}, "label": "Sm", "xyz": [1.2991898325, 0.17014294980293582, 2.857712881906468]}, {"species": [{"element": "Sm", "occu": 1}], "abc": [0.25, 0.52553261, 0.2052948], "properties": {"magmom": 0.0}, "label": "Sm", "xyz": [1.2991898325, 3.5020183398029356, 1.9907134130935322]}, {"species": [{"element": "Sm", "occu": 1}], "abc": [0.75, 0.97446739, 0.7052948], "properties": {"magmom": 0.0}, "label": "Sm", "xyz": [3.8975694975, 6.493607830197065, 6.8391397080935326]}, {"species": [{"element": "Sm", "occu": 1}], "abc": [0.75, 0.47446739, 0.7947052], "properties": {"magmom": 0.0}, "label": "Sm", "xyz": [3.8975694975, 3.161732440197064, 7.706139176906468]}, {"species": [{"element": "Al", "occu": 1}], "abc": [0.25, 0.21126191, 0.60235585], "properties": {"magmom": -0.0}, "label": "Al", "xyz": [1.2991898325, 1.4077967175467898, 5.840955884174152]}, {"species": [{"element": "Al", "occu": 1}], "abc": [0.25, 0.71126191, 0.89764415], "properties": {"magmom": -0.0}, "label": "Al", "xyz": [1.2991898325, 4.73967210754679, 8.704323000825848]}, {"species": [{"element": "Al", "occu": 1}], "abc": [0.75, 0.7887380900000001, 0.39764415000000003], "properties": {"magmom": -0.0}, "label": "Al", "xyz": [3.8975694975, 5.255954062453211, 3.855896705825849]}, {"species": [{"element": "Al", "occu": 1}], "abc": [0.75, 0.28873809, 0.10235585], "properties": {"magmom": -0.0}, "label": "Al", "xyz": [3.8975694975, 1.9240786724532102, 0.9925295891741516]}]}, "task_ids": null, "uncorrected_energy_per_atom": null, "energy_per_atom": -22.380037409166665, "formation_energy_per_atom": -0.314055085833331, "energy_above_hull": 0.000983889791669, "is_stable": false, "equilibrium_reaction_energy_per_atom": null, "decomposes_to": null, "xas": null, "grain_boundaries": null, "band_gap": 0.0, "cbm": null, "vbm": null, "efermi": 3.95153, "is_gap_direct": null, "is_metal": null, "es_source_calc_id": null, "bandstructure": null, "dos": null, "dos_energy_up": null, "dos_energy_down": null, "is_magnetic": null, "ordering": null, "total_magnetization": 9e-07, "total_magnetization_normalized_vol": null, "total_magnetization_normalized_formula_units": null, "num_magnetic_sites": null, "num_unique_magnetic_sites": null, "types_of_magnetic_species": null, "bulk_modulus": null, "shear_modulus": null, "universal_anisotropy": null, "homogeneous_poisson": null, "e_total": null, "e_ionic": null, "e_electronic": null, "n": null, "e_ij_max": null, "weighted_surface_energy_EV_PER_ANG2": null, "weighted_surface_energy": null, "weighted_work_function": null, "surface_anisotropy": null, "shape_factor": null, "has_reconstructed": null, "possible_species": null, "has_props": null, "theoretical": null, "database_IDs": null, "fields_not_requested": ["builder_meta", "nsites", "elements", "nelements", "composition", "composition_reduced", "chemsys", "symmetry", "property_name", "deprecated", "deprecation_reasons", "last_updated", "origins", "warnings", "task_ids", "uncorrected_energy_per_atom", "equilibrium_reaction_energy_per_atom", "decomposes_to", "xas", "grain_boundaries", "cbm", "vbm", "is_gap_direct", "is_metal", "es_source_calc_id", "bandstructure", "dos", "dos_energy_up", "dos_energy_down", "is_magnetic", "ordering", "total_magnetization_normalized_vol", "total_magnetization_normalized_formula_units", "num_magnetic_sites", "num_unique_magnetic_sites", "types_of_magnetic_species", "bulk_modulus", "shear_modulus", "universal_anisotropy", "homogeneous_poisson", "e_total", "e_ionic", "e_electronic", "n", "e_ij_max", "weighted_surface_energy_EV_PER_ANG2", "weighted_surface_energy", "weighted_work_function", "surface_anisotropy", "shape_factor", "has_reconstructed", "possible_species", "has_props", "theoretical", "database_IDs"]}