{
  "builder_meta": null,
  "nsites": null,
  "elements": null,
  "nelements": null,
  "composition": null,
  "composition_reduced": null,
  "formula_pretty": "Sm2B5",
  "formula_anonymous": "A2B5",
  "chemsys": null,
  "volume": 369.5861698180531,
  "density": 6.375971781011579,
  "density_atomic": 13.19950606493047,
  "symmetry": null,
  "property_name": null,
  "material_id": "mp-570421",
  "deprecated": null,
  "deprecation_reasons": null,
  "last_updated": null,
  "origins": null,
  "warnings": null,
  "structure": {
    "@module": "pymatgen.core.structure",
    "@class": "Structure",
    "charge": 0,
    "lattice": {
      "matrix": [
        [7.25196108, 0.02313885, 0.0],
        [-1.488316489999999, 7.05123963, 0.0],
        [0.0, 0.0, 7.22274676]
      ],
      "pbc": [true, true, true],
      "a": 7.251997994498764,
      "b": 7.206598802076362,
      "c": 7.22274676,
      "alpha": 90.0,
      "beta": 90.0,
      "gamma": 101.73575858923463,
      "volume": 369.5861698180531
    },
    "properties": {},
    "sites": [
      {
        "species": [{ "element": "Sm", "occu": 1 }],
        "abc": [0.24153772, 0.76012685, 0.81657751],
        "properties": { "magmom": 0.0 },
        "label": "Sm",
        "xyz": [0.6203128194451821, 5.365425473619488, 5.897932564641367]
      },
      {
        "species": [{ "element": "Sm", "occu": 1 }],
        "abc": [0.75846228, 0.23987315, 0.18342149],
        "properties": { "magmom": 0.0 },
        "label": "Sm",
        "xyz": [5.14333177055482, 1.7089530063805127, 1.3248069726118723]
      },
      {
        "species": [{ "element": "Sm", "occu": 1 }],
        "abc": [0.7415377200000001, 0.76012685, 0.68342249],
        "properties": { "magmom": 0.0 },
        "label": "Sm",
        "xyz": [4.246293359445183, 5.376994898619488, 4.936187575358632]
      },
      {
        "species": [{ "element": "Sm", "occu": 1 }],
        "abc": [0.8677021300000001, 0.76568066, 0.19030189],
        "properties": { "magmom": 0.0 },
        "label": "Sm",
        "xyz": [5.152966923441018, 5.419075443147307, 1.3745023594193764]
      },
      {
        "species": [{ "element": "Sm", "occu": 1 }],
        "abc": [0.36770213, 0.76568066, 0.30969811],
        "properties": { "magmom": 0.0 },
        "label": "Sm",
        "xyz": [1.526986383441018, 5.4075060181473065, 2.2368710205806237]
      },
      {
        "species": [{ "element": "Sm", "occu": 1 }],
        "abc": [0.25846228, 0.23987315, 0.31657751],
        "properties": { "magmom": 0.0 },
        "label": "Sm",
        "xyz": [1.517351230554819, 1.6973835813805127, 2.2865591846413675]
      },
      {
        "species": [{ "element": "Sm", "occu": 1 }],
        "abc": [0.63229787, 0.23431934000000001, 0.69030189],
        "properties": { "magmom": 0.0 },
        "label": "Sm",
        "xyz": [4.2366582065589835, 1.666872461852694, 4.9858757394193765]
      },
      {
        "species": [{ "element": "Sm", "occu": 1 }],
        "abc": [0.13229787, 0.23431934000000001, 0.80969811],
        "properties": { "magmom": 0.0 },
        "label": "Sm",
        "xyz": [0.6106776665589834, 1.655303036852694, 5.848244400580623]
      },
      {
        "species": [{ "element": "B", "occu": 1 }],
        "abc": [0.03951422, 0.50228161, 0.3279081],
        "properties": { "magmom": -0.0 },
        "label": "B",
        "xyz": [-0.4609984172401908, 3.542622307461652, 2.368397166852756]
      },
      {
        "species": [{ "element": "B", "occu": 1 }],
        "abc": [0.82746886, 0.49705408, 0.46132678],
        "properties": { "magmom": 0.0 },
        "label": "B",
        "xyz": [5.26099818394619, 3.5239941049804013, 3.3320465055462325]
      },
      {
        "species": [{ "element": "B", "occu": 1 }],
        "abc": [0.46048578, 0.49771839, 0.827908099999999],
        "properties": { "magmom": -0.0 },
        "label": "B",
        "xyz": [2.598662467240192, 3.5201867475383493, 5.979770546852749]
      },
      {
        "species": [{ "element": "B", "occu": 1 }],
        "abc": [0.53951422, 0.50228161, 0.1720919],
        "properties": { "magmom": -0.0 },
        "label": "B",
        "xyz": [3.1649821227598096, 3.5541917324616517, 1.242976213147244]
      },
      {
        "species": [{ "element": "B", "occu": 1 }],
        "abc": [0.40916857, 0.50103682, 0.59103379],
        "properties": { "magmom": -0.0 },
        "label": "B",
        "xyz": [2.221573183496094, 3.5423983714391216, 4.268887391773021]
      },
      {
        "species": [{ "element": "B", "occu": 1 }],
        "abc": [0.03589025, 0.68315958, 0.50129559],
        "properties": { "magmom": -0.0 },
        "label": "B",
        "xyz": [-0.7564829720640036, 4.8179523632213686, 3.6207310984747885]
      },
      {
        "species": [{ "element": "B", "occu": 1 }],
        "abc": [0.93222476, 0.07919686000000001, 0.49445695],
        "properties": { "magmom": 0.0 },
        "label": "B",
        "xyz": [6.642587684638119, 0.5800066466914878, 3.571337333571982]
      },
      {
        "species": [{ "element": "B", "occu": 1 }],
        "abc": [0.96410975, 0.31684042, 0.49870441],
        "properties": { "magmom": -0.0 },
        "label": "B",
        "xyz": [6.520127562064005, 2.2564261167786324, 3.6020156615252112]
      },
      {
        "species": [{ "element": "B", "occu": 1 }],
        "abc": [0.17253114, 0.50294592, 0.5386732200000001],
        "properties": { "magmom": 0.0 },
        "label": "B",
        "xyz": [0.5026464060538108, 3.5503843750195996, 3.8907002544537677]
      },
      {
        "species": [{ "element": "B", "occu": 1 }],
        "abc": [0.56777524, 0.92080314, 0.99445695],
        "properties": { "magmom": 0.0 },
        "label": "B",
        "xyz": [2.7470374453618818, 6.505941258308512, 7.182710713571982]
      },
      {
        "species": [{ "element": "B", "occu": 1 }],
        "abc": [0.06777424, 0.92080314, 0.50554305],
        "properties": { "magmom": 0.0 },
        "label": "B",
        "xyz": [-0.8789503465991986, 6.494371810169662, 3.651409426428018]
      },
      {
        "species": [{ "element": "B", "occu": 1 }],
        "abc": [0.43222476, 0.07919686000000001, 0.00554305],
        "properties": { "magmom": 0.0 },
        "label": "B",
        "xyz": [3.0166071446381193, 0.5684372216914879, 0.040036046428017995]
      },
      {
        "species": [{ "element": "B", "occu": 1 }],
        "abc": [0.9091685700000001, 0.50103682, 0.90896621],
        "properties": { "magmom": -0.0 },
        "label": "B",
        "xyz": [5.847553723496095, 3.553967796439122, 6.565232748226979]
      },
      {
        "species": [{ "element": "B", "occu": 1 }],
        "abc": [0.59083143, 0.49896318, 0.40896621],
        "properties": { "magmom": -0.0 },
        "label": "B",
        "xyz": [3.542071406503907, 3.531980108560879, 2.9538593682269796]
      },
      {
        "species": [{ "element": "B", "occu": 1 }],
        "abc": [0.67253114, 0.50294592, 0.96132678],
        "properties": { "magmom": 0.0 },
        "label": "B",
        "xyz": [4.128626946053811, 3.5619538000195994, 6.943419885546233]
      },
      {
        "species": [{ "element": "B", "occu": 1 }],
        "abc": [0.32746886000000003, 0.49705408, 0.03867322],
        "properties": { "magmom": 0.0 },
        "label": "B",
        "xyz": [1.6350176439461903, 3.5124246799804015, 0.2793268744537672]
      },
      {
        "species": [{ "element": "B", "occu": 1 }],
        "abc": [0.46410975, 0.31684042, 0.0012955900000000001],
        "properties": { "magmom": -0.0 },
        "label": "B",
        "xyz": [2.894147022064004, 2.2448566917786326, 0.0093577184747884]
      },
      {
        "species": [{ "element": "B", "occu": 1 }],
        "abc": [0.53589025, 0.68315958, 0.99870441],
        "properties": { "magmom": -0.0 },
        "label": "B",
        "xyz": [2.869497567935997, 4.829521788221368, 7.213389041525211]
      },
      {
        "species": [{ "element": "B", "occu": 1 }],
        "abc": [0.09083143, 0.49896318, 0.09103379],
        "properties": { "magmom": -0.0 },
        "label": "B",
        "xyz": [-0.08390913349609319, 3.520410683560879, 0.6575140117730204]
      },
      {
        "species": [{ "element": "B", "occu": 1 }],
        "abc": [0.9604857800000001, 0.49771839, 0.6720919],
        "properties": { "magmom": -0.0 },
        "label": "B",
        "xyz": [6.224643007240193, 3.531756172538349, 4.854349593147243]
      }
    ]
  },
  "task_ids": null,
  "uncorrected_energy_per_atom": null,
  "energy_per_atom": -14.3645651675,
  "formation_energy_per_atom": -0.622048077857144,
  "energy_above_hull": 0.0,
  "is_stable": true,
  "equilibrium_reaction_energy_per_atom": null,
  "decomposes_to": null,
  "xas": null,
  "grain_boundaries": null,
  "band_gap": 0.0,
  "cbm": null,
  "vbm": null,
  "efermi": 4.68992968,
  "is_gap_direct": null,
  "is_metal": null,
  "es_source_calc_id": null,
  "bandstructure": null,
  "dos": null,
  "dos_energy_up": null,
  "dos_energy_down": null,
  "is_magnetic": null,
  "ordering": null,
  "total_magnetization": 1e-7,
  "total_magnetization_normalized_vol": null,
  "total_magnetization_normalized_formula_units": null,
  "num_magnetic_sites": null,
  "num_unique_magnetic_sites": null,
  "types_of_magnetic_species": null,
  "bulk_modulus": null,
  "shear_modulus": null,
  "universal_anisotropy": null,
  "homogeneous_poisson": null,
  "e_total": null,
  "e_ionic": null,
  "e_electronic": null,
  "n": null,
  "e_ij_max": null,
  "weighted_surface_energy_EV_PER_ANG2": null,
  "weighted_surface_energy": null,
  "weighted_work_function": null,
  "surface_anisotropy": null,
  "shape_factor": null,
  "has_reconstructed": null,
  "possible_species": null,
  "has_props": null,
  "theoretical": null,
  "database_IDs": null,
  "fields_not_requested": [
    "builder_meta",
    "nsites",
    "elements",
    "nelements",
    "composition",
    "composition_reduced",
    "chemsys",
    "symmetry",
    "property_name",
    "deprecated",
    "deprecation_reasons",
    "last_updated",
    "origins",
    "warnings",
    "task_ids",
    "uncorrected_energy_per_atom",
    "equilibrium_reaction_energy_per_atom",
    "decomposes_to",
    "xas",
    "grain_boundaries",
    "cbm",
    "vbm",
    "is_gap_direct",
    "is_metal",
    "es_source_calc_id",
    "bandstructure",
    "dos",
    "dos_energy_up",
    "dos_energy_down",
    "is_magnetic",
    "ordering",
    "total_magnetization_normalized_vol",
    "total_magnetization_normalized_formula_units",
    "num_magnetic_sites",
    "num_unique_magnetic_sites",
    "types_of_magnetic_species",
    "bulk_modulus",
    "shear_modulus",
    "universal_anisotropy",
    "homogeneous_poisson",
    "e_total",
    "e_ionic",
    "e_electronic",
    "n",
    "e_ij_max",
    "weighted_surface_energy_EV_PER_ANG2",
    "weighted_surface_energy",
    "weighted_work_function",
    "surface_anisotropy",
    "shape_factor",
    "has_reconstructed",
    "possible_species",
    "has_props",
    "theoretical",
    "database_IDs"
  ]
}
