{"builder_meta": null, "nsites": null, "elements": null, "nelements": null, "composition": null, "composition_reduced": null, "formula_pretty": "Sm2Bi", "formula_anonymous": "AB2", "chemsys": null, "volume": 186.54057322388113, "density": 9.074459371858438, "density_atomic": 31.09009553731352, "symmetry": null, "property_name": null, "material_id": "mp-1206229", "deprecated": null, "deprecation_reasons": null, "last_updated": null, "origins": null, "warnings": null, "structure": {"@module": "pymatgen.core.structure", "@class": "Structure", "charge": 0, "lattice": {"matrix": [[4.57323856, 0.0, 0.0], [-0.0, 4.5732396, -0.0], [-2.28661928, -2.28662032, 8.91919163]], "pbc": [true, true, true], "a": 4.57323856, "b": 4.5732396, "c": 9.487319935164338, "alpha": 103.94666520004884, "beta": 103.94665872850786, "gamma": 90.0, "volume": 186.54057322388113}, "properties": {}, "sites": [{"species": [{"element": "Sm", "occu": 1}], "abc": [0.32096319, 0.32096319, 0.64192538], "properties": {"magmom": 0.17400000000000002}, "label": "Sm", "xyz": [2.2866192801451746e-06, 1.95281860260188e-06, 5.72545547638057]}, {"species": [{"element": "Sm", "occu": 1}], "abc": [0.67903681, 0.67903681, 0.35807462], "properties": {"magmom": 0.17400000000000002}, "label": "Sm", "xyz": [2.2866169933807203, 2.2866173271813977, 3.193736153619431]}, {"species": [{"element": "Sm", "occu": 1}], "abc": [-0.0, 0.5, -0.0], "properties": {"magmom": 0.374}, "label": "Sm", "xyz": [0.0, 2.2866198, 0.0]}, {"species": [{"element": "Sm", "occu": 1}], "abc": [0.5, -0.0, -0.0], "properties": {"magmom": 0.374}, "label": "Sm", "xyz": [2.28661928, 0.0, 0.0]}, {"species": [{"element": "Bi", "occu": 1}], "abc": [0.13886247000000002, 0.13886247000000002, 0.27772494000000003], "properties": {"magmom": -0.035}, "label": "Bi", "xyz": [0.0, -1.4441696882805388e-07, 2.4770819602902527]}, {"species": [{"element": "Bi", "occu": 1}], "abc": [0.86113753, 0.86113753, 0.72227506], "properties": {"magmom": -0.035}, "label": "Bi", "xyz": [2.28661928, 2.286619424416969, 6.4421096697097475]}]}, "task_ids": null, "uncorrected_energy_per_atom": null, "energy_per_atom": -40.118012021666665, "formation_energy_per_atom": -0.795304560000005, "energy_above_hull": 0.008192151666662, "is_stable": false, "equilibrium_reaction_energy_per_atom": null, "decomposes_to": null, "xas": null, "grain_boundaries": null, "band_gap": 0.0, "cbm": null, "vbm": null, "efermi": 4.52666202, "is_gap_direct": null, "is_metal": null, "es_source_calc_id": null, "bandstructure": null, "dos": null, "dos_energy_up": null, "dos_energy_down": null, "is_magnetic": null, "ordering": null, "total_magnetization": 1.921168199999999, "total_magnetization_normalized_vol": null, "total_magnetization_normalized_formula_units": null, "num_magnetic_sites": null, "num_unique_magnetic_sites": null, "types_of_magnetic_species": null, "bulk_modulus": null, "shear_modulus": null, "universal_anisotropy": null, "homogeneous_poisson": null, "e_total": null, "e_ionic": null, "e_electronic": null, "n": null, "e_ij_max": null, "weighted_surface_energy_EV_PER_ANG2": null, "weighted_surface_energy": null, "weighted_work_function": null, "surface_anisotropy": null, "shape_factor": null, "has_reconstructed": null, "possible_species": null, "has_props": null, "theoretical": null, "database_IDs": null, "fields_not_requested": ["builder_meta", "nsites", "elements", "nelements", "composition", "composition_reduced", "chemsys", "symmetry", "property_name", "deprecated", "deprecation_reasons", "last_updated", "origins", "warnings", "task_ids", "uncorrected_energy_per_atom", "equilibrium_reaction_energy_per_atom", "decomposes_to", "xas", "grain_boundaries", "cbm", "vbm", "is_gap_direct", "is_metal", "es_source_calc_id", "bandstructure", "dos", "dos_energy_up", "dos_energy_down", "is_magnetic", "ordering", "total_magnetization_normalized_vol", "total_magnetization_normalized_formula_units", "num_magnetic_sites", "num_unique_magnetic_sites", "types_of_magnetic_species", "bulk_modulus", "shear_modulus", "universal_anisotropy", "homogeneous_poisson", "e_total", "e_ionic", "e_electronic", "n", "e_ij_max", "weighted_surface_energy_EV_PER_ANG2", "weighted_surface_energy", "weighted_work_function", "surface_anisotropy", "shape_factor", "has_reconstructed", "possible_species", "has_props", "theoretical", "database_IDs"]}