{"builder_meta": null, "nsites": null, "elements": null, "nelements": null, "composition": null, "composition_reduced": null, "formula_pretty": "Sm2C3", "formula_anonymous": "A2B3", "chemsys": null, "volume": 303.0454302496005, "density": 7.38093977987417, "density_atomic": 15.152271512480024, "symmetry": null, "property_name": null, "material_id": "mp-569335", "deprecated": null, "deprecation_reasons": null, "last_updated": null, "origins": null, "warnings": null, "structure": {"@module": "pymatgen.core.structure", "@class": "Structure", "charge": 0, "lattice": {"matrix": [[6.90982323, 0.0, -2.44299219], [-3.45491161, 5.98408193, -2.44299219], [-0.0, -1e-08, 7.32897553]], "pbc": [true, true, true], "a": 7.328974546977812, "b": 7.328974117723866, "c": 7.32897553, "alpha": 109.4712274802294, "beta": 109.47122622607759, "gamma": 109.47121619026242, "volume": 303.0454302496005}, "properties": {}, "sites": [{"species": [{"element": "Sm", "occu": 1}], "abc": [0.39804567, 0.5, -0.0], "properties": {"magmom": -0.0}, "label": "Sm", "xyz": [1.0229694121669142, 2.992040965, -2.1939185580733174]}, {"species": [{"element": "Sm", "occu": 1}], "abc": [-0.0, 0.39804567, 0.5], "properties": {"magmom": -0.0}, "label": "Sm", "xyz": [-1.3752126065932286, 2.3819378961617432, 2.6920653019266827]}, {"species": [{"element": "Sm", "occu": 1}], "abc": [0.5, -0.0, 0.39804567], "properties": {"magmom": -0.0}, "label": "Sm", "xyz": [3.454911615, -3.9804567e-09, 1.6957708802524554]}, {"species": [{"element": "Sm", "occu": 1}], "abc": [0.89804567, 0.5, -0.0], "properties": {"magmom": -0.0}, "label": "Sm", "xyz": [4.477881027166914, 2.992040965, -3.4154146530733174]}, {"species": [{"element": "Sm", "occu": 1}], "abc": [0.10195433, 0.10195433, 0.10195433], "properties": {"magmom": -0.0}, "label": "Sm", "xyz": [0.3522431994263146, 0.6101030628187135, 0.24907352589417953]}, {"species": [{"element": "Sm", "occu": 1}], "abc": [-0.0, 0.89804567, 0.5], "properties": {"magmom": -0.0}, "label": "Sm", "xyz": [-3.102668411593229, 5.373978861161743, 1.4705692069266827]}, {"species": [{"element": "Sm", "occu": 1}], "abc": [0.60195433, 0.60195433, 0.60195433], "properties": {"magmom": -0.0}, "label": "Sm", "xyz": [2.079699009426314, 3.602144022818714, 1.4705691008941795]}, {"species": [{"element": "Sm", "occu": 1}], "abc": [0.5, -0.0, 0.89804567], "properties": {"magmom": -0.0}, "label": "Sm", "xyz": [3.454911615, -8.9804567e-09, 5.360258645252455]}, {"species": [{"element": "C", "occu": 1}], "abc": [0.7033644, 0.4533644, 0.25], "properties": {"magmom": -0.0}, "label": "C", "xyz": [3.2937897411543284, 2.7129697112452917, -0.9936355418480718]}, {"species": [{"element": "C", "occu": 1}], "abc": [0.75, 0.7966356, 0.0466356], "properties": {"magmom": -0.0}, "label": "C", "xyz": [2.430061839120684, 4.767132698288353, -3.436627520349096]}, {"species": [{"element": "C", "occu": 1}], "abc": [0.5466356, 0.2966356, 0.25], "properties": {"magmom": -0.0}, "label": "C", "xyz": [2.7523055888456716, 1.775091731254708, -0.22786107315192816]}, {"species": [{"element": "C", "occu": 1}], "abc": [0.25, 0.5466356, 0.2966356], "properties": {"magmom": -0.0}, "label": "C", "xyz": [-0.16112187337931605, 3.2711122132883523, 0.22786050465090413]}, {"species": [{"element": "C", "occu": 1}], "abc": [0.9533644, 0.2033644, 0.75], "properties": {"magmom": -0.0}, "label": "C", "xyz": [5.884973451154328, 1.2169492237452921, 2.6708522231519276]}, {"species": [{"element": "C", "occu": 1}], "abc": [0.75, 0.9533644, 0.2033644], "properties": {"magmom": -0.0}, "label": "C", "xyz": [1.8885776883793155, 5.705010676711648, -2.6708532146509043]}, {"species": [{"element": "C", "occu": 1}], "abc": [0.7966356, 0.0466356, 0.75], "properties": {"magmom": -0.0}, "label": "C", "xyz": [5.343489298845672, 0.279071243754708, 3.4366266918480717]}, {"species": [{"element": "C", "occu": 1}], "abc": [0.2033644, 0.75, 0.9533644], "properties": {"magmom": -0.0}, "label": "C", "xyz": [-1.185971652224988, 4.488061437966356, 4.658122575349096]}, {"species": [{"element": "C", "occu": 1}], "abc": [0.0466356, 0.75, 0.7966356], "properties": {"magmom": -0.0}, "label": "C", "xyz": [-2.268939955275012, 4.488061439533644, 3.8923482696509035]}, {"species": [{"element": "C", "occu": 1}], "abc": [0.4533644, 0.25, 0.7033644], "properties": {"magmom": -0.0}, "label": "C", "xyz": [2.268939960275012, 1.4960204754663562, 3.436626740349096]}, {"species": [{"element": "C", "occu": 1}], "abc": [0.25, 0.7033644, 0.4533644], "properties": {"magmom": -0.0}, "label": "C", "xyz": [-0.7026060241206842, 4.208990191711648, 0.993634810349096]}, {"species": [{"element": "C", "occu": 1}], "abc": [0.2966356, 0.25, 0.5466356], "properties": {"magmom": -0.0}, "label": "C", "xyz": [1.185971657224988, 1.496020477033644, 2.6708524346509046]}]}, "task_ids": null, "uncorrected_energy_per_atom": null, "energy_per_atom": -7.630302043, "formation_energy_per_atom": -0.20566829350000101, "energy_above_hull": 0.0, "is_stable": true, "equilibrium_reaction_energy_per_atom": null, "decomposes_to": null, "xas": null, "grain_boundaries": null, "band_gap": 0.0, "cbm": null, "vbm": null, "efermi": 4.94781057, "is_gap_direct": null, "is_metal": null, "es_source_calc_id": null, "bandstructure": null, "dos": null, "dos_energy_up": null, "dos_energy_down": null, "is_magnetic": null, "ordering": null, "total_magnetization": 0.0, "total_magnetization_normalized_vol": null, "total_magnetization_normalized_formula_units": null, "num_magnetic_sites": null, "num_unique_magnetic_sites": null, "types_of_magnetic_species": null, "bulk_modulus": null, "shear_modulus": null, "universal_anisotropy": null, "homogeneous_poisson": null, "e_total": null, "e_ionic": null, "e_electronic": null, "n": null, "e_ij_max": null, "weighted_surface_energy_EV_PER_ANG2": null, "weighted_surface_energy": null, "weighted_work_function": null, "surface_anisotropy": null, "shape_factor": null, "has_reconstructed": null, "possible_species": null, "has_props": null, "theoretical": null, "database_IDs": null, "fields_not_requested": ["builder_meta", "nsites", "elements", "nelements", "composition", "composition_reduced", "chemsys", "symmetry", "property_name", "deprecated", "deprecation_reasons", "last_updated", "origins", "warnings", "task_ids", "uncorrected_energy_per_atom", "equilibrium_reaction_energy_per_atom", "decomposes_to", "xas", "grain_boundaries", "cbm", "vbm", "is_gap_direct", "is_metal", "es_source_calc_id", "bandstructure", "dos", "dos_energy_up", "dos_energy_down", "is_magnetic", "ordering", "total_magnetization_normalized_vol", "total_magnetization_normalized_formula_units", "num_magnetic_sites", "num_unique_magnetic_sites", "types_of_magnetic_species", "bulk_modulus", "shear_modulus", "universal_anisotropy", "homogeneous_poisson", "e_total", "e_ionic", "e_electronic", "n", "e_ij_max", "weighted_surface_energy_EV_PER_ANG2", "weighted_surface_energy", "weighted_work_function", "surface_anisotropy", "shape_factor", "has_reconstructed", "possible_species", "has_props", "theoretical", "database_IDs"]}