{"builder_meta": null, "nsites": null, "elements": null, "nelements": null, "composition": null, "composition_reduced": null, "formula_pretty": "Sm2Co7", "formula_anonymous": "A2B7", "chemsys": null, "volume": 529.5709197671086, "density": 8.94598530408885, "density_atomic": 14.710303326864128, "symmetry": null, "property_name": null, "material_id": "mp-540547", "deprecated": null, "deprecation_reasons": null, "last_updated": null, "origins": null, "warnings": null, "structure": {"@module": "pymatgen.core.structure", "@class": "Structure", "charge": 0, "lattice": {"matrix": [[2.508525, -4.344893, 0.0], [2.508525, 4.344893, 0.0], [0.0, 0.0, 24.293865]], "pbc": [true, true, true], "a": 5.017050214725183, "b": 5.017050214725183, "c": 24.293865, "alpha": 90.0, "beta": 90.0, "gamma": 120.00000283156496, "volume": 529.5709197671086}, "properties": {}, "sites": [{"species": [{"element": "Sm", "occu": 1}], "abc": [0.333333, 0.666667, 0.027853], "properties": {"magmom": -0.27}, "label": "Sm", "xyz": [2.508525, 1.448300563262, 0.676657021845]}, {"species": [{"element": "Sm", "occu": 1}], "abc": [0.666667, 0.333333, 0.527853], "properties": {"magmom": -0.27}, "label": "Sm", "xyz": [2.508525, -1.448300563262, 12.823589521845001]}, {"species": [{"element": "Sm", "occu": 1}], "abc": [0.666667, 0.333333, 0.972147], "properties": {"magmom": -0.27}, "label": "Sm", "xyz": [2.508525, -1.448300563262, 23.617207978155]}, {"species": [{"element": "Sm", "occu": 1}], "abc": [0.333333, 0.666667, 0.472147], "properties": {"magmom": -0.27}, "label": "Sm", "xyz": [2.508525, 1.448300563262, 11.470275478155]}, {"species": [{"element": "Sm", "occu": 1}], "abc": [0.333333, 0.666667, 0.173046], "properties": {"magmom": -0.234}, "label": "Sm", "xyz": [2.508525, 1.448300563262, 4.20395616279]}, {"species": [{"element": "Sm", "occu": 1}], "abc": [0.666667, 0.333333, 0.673045999999999], "properties": {"magmom": -0.234}, "label": "Sm", "xyz": [2.508525, -1.448300563262, 16.350888662789977]}, {"species": [{"element": "Sm", "occu": 1}], "abc": [0.666667, 0.333333, 0.826954], "properties": {"magmom": -0.234}, "label": "Sm", "xyz": [2.508525, -1.448300563262, 20.08990883721]}, {"species": [{"element": "Sm", "occu": 1}], "abc": [0.333333, 0.666667, 0.326953999999999], "properties": {"magmom": -0.234}, "label": "Sm", "xyz": [2.508525, 1.448300563262, 7.942976337209976]}, {"species": [{"element": "Co", "occu": 1}], "abc": [0.0, 0.0, 0.0], "properties": {"magmom": 1.201}, "label": "Co", "xyz": [0.0, 0.0, 0.0]}, {"species": [{"element": "Co", "occu": 1}], "abc": [0.0, 0.0, 0.5], "properties": {"magmom": 1.201}, "label": "Co", "xyz": [0.0, 0.0, 12.1469325]}, {"species": [{"element": "Co", "occu": 1}], "abc": [0.0, 0.0, 0.168133], "properties": {"magmom": 1.5190000000000001}, "label": "Co", "xyz": [0.0, 0.0, 4.084600404045]}, {"species": [{"element": "Co", "occu": 1}], "abc": [0.0, 0.0, 0.668133], "properties": {"magmom": 1.5190000000000001}, "label": "Co", "xyz": [0.0, 0.0, 16.231532904045]}, {"species": [{"element": "Co", "occu": 1}], "abc": [0.0, 0.0, 0.831866999999999], "properties": {"magmom": 1.5190000000000001}, "label": "Co", "xyz": [0.0, 0.0, 20.209264595954977]}, {"species": [{"element": "Co", "occu": 1}], "abc": [0.0, 0.0, 0.331866999999999], "properties": {"magmom": 1.5190000000000001}, "label": "Co", "xyz": [0.0, 0.0, 8.062332095954977]}, {"species": [{"element": "Co", "occu": 1}], "abc": [0.333333, 0.666667, 0.831500999999999], "properties": {"magmom": 1.482}, "label": "Co", "xyz": [2.508525, 1.448300563262, 20.200373041364976]}, {"species": [{"element": "Co", "occu": 1}], "abc": [0.666667, 0.333333, 0.331501], "properties": {"magmom": 1.482}, "label": "Co", "xyz": [2.508525, -1.448300563262, 8.053440541365]}, {"species": [{"element": "Co", "occu": 1}], "abc": [0.666667, 0.333333, 0.168498999999999], "properties": {"magmom": 1.482}, "label": "Co", "xyz": [2.508525, -1.448300563262, 4.093491958634976]}, {"species": [{"element": "Co", "occu": 1}], "abc": [0.333333, 0.666667, 0.668499], "properties": {"magmom": 1.482}, "label": "Co", "xyz": [2.508525, 1.448300563262, 16.240424458634998]}, {"species": [{"element": "Co", "occu": 1}], "abc": [0.833923, 0.667845, 0.25], "properties": {"magmom": 1.544}, "label": "Co", "xyz": [3.7672225722, -0.721591139654, 6.07346625]}, {"species": [{"element": "Co", "occu": 1}], "abc": [0.166077, 0.833923, 0.75], "properties": {"magmom": 1.585}, "label": "Co", "xyz": [2.508525, 2.901719410478, 18.22039875]}, {"species": [{"element": "Co", "occu": 1}], "abc": [0.667845, 0.833923, 0.75], "properties": {"magmom": 1.355}, "label": "Co", "xyz": [3.7672225722, 0.721591139654, 18.22039875]}, {"species": [{"element": "Co", "occu": 1}], "abc": [0.332155, 0.166077, 0.25], "properties": {"magmom": 1.355}, "label": "Co", "xyz": [1.2498274278000001, -0.721591139654, 6.07346625]}, {"species": [{"element": "Co", "occu": 1}], "abc": [0.833923, 0.166077, 0.25], "properties": {"magmom": 1.585}, "label": "Co", "xyz": [2.508525, -2.901719410478, 6.07346625]}, {"species": [{"element": "Co", "occu": 1}], "abc": [0.166077, 0.332155, 0.75], "properties": {"magmom": 1.544}, "label": "Co", "xyz": [1.2498274278000001, 0.721591139654, 18.22039875]}, {"species": [{"element": "Co", "occu": 1}], "abc": [0.834136, 0.668272, 0.087751], "properties": {"magmom": 1.328}, "label": "Co", "xyz": [3.7688280281999997, -0.7206613325519999, 2.131810947615]}, {"species": [{"element": "Co", "occu": 1}], "abc": [0.165863999999999, 0.834136, 0.587751], "properties": {"magmom": 1.408}, "label": "Co", "xyz": [2.5085249999999975, 2.9035703348960045, 14.278743447615001]}, {"species": [{"element": "Co", "occu": 1}], "abc": [0.668272, 0.834136, 0.587751], "properties": {"magmom": 1.121999999999999}, "label": "Co", "xyz": [3.7688280281999997, 0.7206613325519999, 14.278743447615001]}, {"species": [{"element": "Co", "occu": 1}], "abc": [0.331727999999999, 0.165863999999999, 0.087751], "properties": {"magmom": 1.121999999999999}, "label": "Co", "xyz": [1.2482219717999952, -0.7206613325519999, 2.131810947615]}, {"species": [{"element": "Co", "occu": 1}], "abc": [0.834136, 0.165863999999999, 0.087751], "properties": {"magmom": 1.408}, "label": "Co", "xyz": [2.5085249999999975, -2.9035703348960045, 2.131810947615]}, {"species": [{"element": "Co", "occu": 1}], "abc": [0.165863999999999, 0.331727999999999, 0.912249], "properties": {"magmom": 1.328}, "label": "Co", "xyz": [1.2482219717999952, 0.7206613325519999, 22.162054052385]}, {"species": [{"element": "Co", "occu": 1}], "abc": [0.165863999999999, 0.834136, 0.912249], "properties": {"magmom": 1.408}, "label": "Co", "xyz": [2.5085249999999975, 2.9035703348960045, 22.162054052385]}, {"species": [{"element": "Co", "occu": 1}], "abc": [0.165863999999999, 0.331727999999999, 0.587751], "properties": {"magmom": 1.328}, "label": "Co", "xyz": [1.2482219717999952, 0.7206613325519999, 14.278743447615001]}, {"species": [{"element": "Co", "occu": 1}], "abc": [0.668272, 0.834136, 0.912249], "properties": {"magmom": 1.121999999999999}, "label": "Co", "xyz": [3.7688280281999997, 0.7206613325519999, 22.162054052385]}, {"species": [{"element": "Co", "occu": 1}], "abc": [0.331727999999999, 0.165863999999999, 0.412249], "properties": {"magmom": 1.121999999999999}, "label": "Co", "xyz": [1.2482219717999952, -0.7206613325519999, 10.015121552384999]}, {"species": [{"element": "Co", "occu": 1}], "abc": [0.834136, 0.668272, 0.412249], "properties": {"magmom": 1.328}, "label": "Co", "xyz": [3.7688280281999997, -0.7206613325519999, 10.015121552384999]}, {"species": [{"element": "Co", "occu": 1}], "abc": [0.834136, 0.165863999999999, 0.412249], "properties": {"magmom": 1.408}, "label": "Co", "xyz": [2.5085249999999975, -2.9035703348960045, 10.015121552384999]}]}, "task_ids": null, "uncorrected_energy_per_atom": null, "energy_per_atom": -6.662067073611111, "formation_energy_per_atom": -0.0652793725, "energy_above_hull": 0.0, "is_stable": true, "equilibrium_reaction_energy_per_atom": null, "decomposes_to": null, "xas": null, "grain_boundaries": null, "band_gap": 0.0, "cbm": null, "vbm": null, "efermi": 4.39086291, "is_gap_direct": null, "is_metal": null, "es_source_calc_id": null, "bandstructure": null, "dos": null, "dos_energy_up": null, "dos_energy_down": null, "is_magnetic": null, "ordering": null, "total_magnetization": 34.7964771, "total_magnetization_normalized_vol": null, "total_magnetization_normalized_formula_units": null, "num_magnetic_sites": null, "num_unique_magnetic_sites": null, "types_of_magnetic_species": null, "bulk_modulus": null, "shear_modulus": null, "universal_anisotropy": null, "homogeneous_poisson": null, "e_total": null, "e_ionic": null, "e_electronic": null, "n": null, "e_ij_max": null, "weighted_surface_energy_EV_PER_ANG2": null, "weighted_surface_energy": null, "weighted_work_function": null, "surface_anisotropy": null, "shape_factor": null, "has_reconstructed": null, "possible_species": null, "has_props": null, "theoretical": null, "database_IDs": null, "fields_not_requested": ["builder_meta", "nsites", "elements", "nelements", "composition", "composition_reduced", "chemsys", "symmetry", "property_name", "deprecated", "deprecation_reasons", "last_updated", "origins", "warnings", "task_ids", "uncorrected_energy_per_atom", "equilibrium_reaction_energy_per_atom", "decomposes_to", "xas", "grain_boundaries", "cbm", "vbm", "is_gap_direct", "is_metal", "es_source_calc_id", "bandstructure", "dos", "dos_energy_up", "dos_energy_down", "is_magnetic", "ordering", "total_magnetization_normalized_vol", "total_magnetization_normalized_formula_units", "num_magnetic_sites", "num_unique_magnetic_sites", "types_of_magnetic_species", "bulk_modulus", "shear_modulus", "universal_anisotropy", "homogeneous_poisson", "e_total", "e_ionic", "e_electronic", "n", "e_ij_max", "weighted_surface_energy_EV_PER_ANG2", "weighted_surface_energy", "weighted_work_function", "surface_anisotropy", "shape_factor", "has_reconstructed", "possible_species", "has_props", "theoretical", "database_IDs"]}