{
  "builder_meta": null,
  "nsites": null,
  "elements": null,
  "nelements": null,
  "composition": null,
  "composition_reduced": null,
  "formula_pretty": "Sm2C",
  "formula_anonymous": "AB2",
  "chemsys": null,
  "volume": 74.80087447111208,
  "density": 6.942452856961151,
  "density_atomic": 24.933624823704026,
  "symmetry": null,
  "property_name": null,
  "material_id": "mp-1219177",
  "deprecated": null,
  "deprecation_reasons": null,
  "last_updated": null,
  "origins": null,
  "warnings": null,
  "structure": {
    "@module": "pymatgen.core.structure",
    "@class": "Structure",
    "charge": 0,
    "lattice": {
      "matrix": [
        [-2.58440909, -2.58440909, 0.0],
        [0.0, 2.58440909, -2.58440909],
        [2.87157251, -2.87157251, -5.45598161]
      ],
      "pbc": [true, true, true],
      "a": 3.654906385798309,
      "b": 3.654906385798309,
      "c": 6.801440486325937,
      "alpha": 74.41389693988579,
      "beta": 90.0,
      "gamma": 119.99999999999999,
      "volume": 74.80087447111208
    },
    "properties": {},
    "sites": [
      {
        "species": [{ "element": "Sm", "occu": 1 }],
        "abc": [0.98828447, 0.97656894, 0.03514558],
        "properties": { "magmom": 0.0 },
        "label": "Sm",
        "xyz": [-2.4532082863978264, -0.13120080360217345, -2.7156072837004483]
      },
      {
        "species": [{ "element": "Sm", "occu": 1 }],
        "abc": [0.51171553, 0.02343106, 0.46485442],
        "properties": { "magmom": 0.0 },
        "label": "Sm",
        "xyz": [0.012380906397826408, -2.5967899963978267, -2.5967926112995516]
      },
      {
        "species": [{ "element": "C", "occu": 1 }],
        "abc": [0.25, 0.5, 0.25],
        "properties": { "magmom": 0.0 },
        "label": "C",
        "xyz": [0.07179085500000004, -0.07179085500000004, -2.6561999475]
      }
    ]
  },
  "task_ids": null,
  "uncorrected_energy_per_atom": null,
  "energy_per_atom": -6.38412618,
  "formation_energy_per_atom": -0.162180259166667,
  "energy_above_hull": 0.0,
  "is_stable": true,
  "equilibrium_reaction_energy_per_atom": null,
  "decomposes_to": null,
  "xas": null,
  "grain_boundaries": null,
  "band_gap": 0.0,
  "cbm": null,
  "vbm": null,
  "efermi": 3.21480881,
  "is_gap_direct": null,
  "is_metal": null,
  "es_source_calc_id": null,
  "bandstructure": null,
  "dos": null,
  "dos_energy_up": null,
  "dos_energy_down": null,
  "is_magnetic": null,
  "ordering": null,
  "total_magnetization": 0.0030489,
  "total_magnetization_normalized_vol": null,
  "total_magnetization_normalized_formula_units": null,
  "num_magnetic_sites": null,
  "num_unique_magnetic_sites": null,
  "types_of_magnetic_species": null,
  "bulk_modulus": null,
  "shear_modulus": null,
  "universal_anisotropy": null,
  "homogeneous_poisson": null,
  "e_total": null,
  "e_ionic": null,
  "e_electronic": null,
  "n": null,
  "e_ij_max": null,
  "weighted_surface_energy_EV_PER_ANG2": null,
  "weighted_surface_energy": null,
  "weighted_work_function": null,
  "surface_anisotropy": null,
  "shape_factor": null,
  "has_reconstructed": null,
  "possible_species": null,
  "has_props": null,
  "theoretical": null,
  "database_IDs": null,
  "fields_not_requested": [
    "builder_meta",
    "nsites",
    "elements",
    "nelements",
    "composition",
    "composition_reduced",
    "chemsys",
    "symmetry",
    "property_name",
    "deprecated",
    "deprecation_reasons",
    "last_updated",
    "origins",
    "warnings",
    "task_ids",
    "uncorrected_energy_per_atom",
    "equilibrium_reaction_energy_per_atom",
    "decomposes_to",
    "xas",
    "grain_boundaries",
    "cbm",
    "vbm",
    "is_gap_direct",
    "is_metal",
    "es_source_calc_id",
    "bandstructure",
    "dos",
    "dos_energy_up",
    "dos_energy_down",
    "is_magnetic",
    "ordering",
    "total_magnetization_normalized_vol",
    "total_magnetization_normalized_formula_units",
    "num_magnetic_sites",
    "num_unique_magnetic_sites",
    "types_of_magnetic_species",
    "bulk_modulus",
    "shear_modulus",
    "universal_anisotropy",
    "homogeneous_poisson",
    "e_total",
    "e_ionic",
    "e_electronic",
    "n",
    "e_ij_max",
    "weighted_surface_energy_EV_PER_ANG2",
    "weighted_surface_energy",
    "weighted_work_function",
    "surface_anisotropy",
    "shape_factor",
    "has_reconstructed",
    "possible_species",
    "has_props",
    "theoretical",
    "database_IDs"
  ]
}
