{"builder_meta": null, "nsites": null, "elements": null, "nelements": null, "composition": null, "composition_reduced": null, "formula_pretty": "Sm2F", "formula_anonymous": "AB2", "chemsys": null, "volume": 404.18050215235826, "density": 6.56767083020302, "density_atomic": 26.945366810157218, "symmetry": null, "property_name": null, "material_id": "mp-32958", "deprecated": null, "deprecation_reasons": null, "last_updated": null, "origins": null, "warnings": null, "structure": {"@module": "pymatgen.core.structure", "@class": "Structure", "charge": 0, "lattice": {"matrix": [[1.943841, 13.751853, 0.0], [-1.943841, 13.751853, 0.0], [0.0, 1.062799, 7.560028]], "pbc": [true, true, true], "a": 13.888555676055377, "b": 13.888555676055377, "c": 7.634367365747145, "alpha": 82.07699672164414, "beta": 82.07699672164414, "gamma": 16.09105281811249, "volume": 404.18050215235826}, "properties": {}, "sites": [{"species": [{"element": "Sm", "occu": 1}], "abc": [0.000332999999999, 0.000332999999999, 0.001201], "properties": {"magmom": 0.077}, "label": "Sm", "xyz": [0.0, 0.010435155696972497, 0.009079593628]}, {"species": [{"element": "Sm", "occu": 1}], "abc": [0.399453, 0.399453, 0.8080400000000001], "properties": {"magmom": 0.07100000000000001}, "label": "Sm", "xyz": [0.0, 11.845221976778, 6.108805025120001]}, {"species": [{"element": "Sm", "occu": 1}], "abc": [0.797627, 0.797627, 0.600614], "properties": {"magmom": 0.026000000000000002}, "label": "Sm", "xyz": [0.0, 22.576030464248, 4.540658657192]}, {"species": [{"element": "Sm", "occu": 1}], "abc": [0.199705, 0.199705, 0.900388], "properties": {"magmom": 0.012}, "label": "Sm", "xyz": [0.0, 6.449559072742, 6.806958490864]}, {"species": [{"element": "Sm", "occu": 1}], "abc": [0.200257, 0.200257, 0.400045999999999], "properties": {"magmom": 0.021}, "label": "Sm", "xyz": [0.0, 5.932978141195999, 3.0243589612879926]}, {"species": [{"element": "Sm", "occu": 1}], "abc": [0.598171999999999, 0.598171999999999, 0.698662], "properties": {"magmom": 0.002}, "label": "Sm", "xyz": [0.0, 17.194484100369976, 5.281904282536]}, {"species": [{"element": "Sm", "occu": 1}], "abc": [0.601883, 0.601883, 0.200872], "properties": {"magmom": -0.006}, "label": "Sm", "xyz": [0.0, 16.767499639126, 1.518597944416]}, {"species": [{"element": "Sm", "occu": 1}], "abc": [0.999891, 0.999891, 0.49986699999999906], "properties": {"magmom": -0.011}, "label": "Sm", "xyz": [0.0, 28.031966243779, 3.7790085162759928]}, {"species": [{"element": "Sm", "occu": 1}], "abc": [0.401057, 0.401057, 0.294363999999999], "properties": {"magmom": 0.047}, "label": "Sm", "xyz": [0.0, 11.343403582077999, 2.2254000821919924]}, {"species": [{"element": "Sm", "occu": 1}], "abc": [0.80142, 0.80142, 0.09914099999999901], "properties": {"magmom": 0.012}, "label": "Sm", "xyz": [0.0, 22.147387018179, 0.7495087359479925]}, {"species": [{"element": "F", "occu": 1}], "abc": [0.148969, 0.148969, 0.675998], "properties": {"magmom": 0.002}, "label": "F", "xyz": [0.0, 4.815649577516, 5.110563807944]}, {"species": [{"element": "F", "occu": 1}], "abc": [0.051212999999999, 0.051212999999999, 0.224157], "properties": {"magmom": -0.001}, "label": "F", "xyz": [0.0, 1.6467811308209725, 1.694633196396]}, {"species": [{"element": "F", "occu": 1}], "abc": [0.948623999999999, 0.948623999999999, 0.774662], "properties": {"magmom": 0.004}, "label": "F", "xyz": [0.0, 26.913985599481975, 5.856466410536]}, {"species": [{"element": "F", "occu": 1}], "abc": [0.349803, 0.349803, 0.573561], "properties": {"magmom": 0.006}, "label": "F", "xyz": [0.0, 10.230458927157, 4.336137219708]}, {"species": [{"element": "F", "occu": 1}], "abc": [0.251592, 0.251592, 0.123427], "properties": {"magmom": 0.001}, "label": "F", "xyz": [0.0, 7.050890492125, 0.9331115759559999]}]}, "task_ids": null, "uncorrected_energy_per_atom": null, "energy_per_atom": -22.650806911722224, "formation_energy_per_atom": -1.7868480483888902, "energy_above_hull": 0.19906764244444303, "is_stable": false, "equilibrium_reaction_energy_per_atom": null, "decomposes_to": null, "xas": null, "grain_boundaries": null, "band_gap": 0.0, "cbm": null, "vbm": null, "efermi": 3.29683562, "is_gap_direct": null, "is_metal": null, "es_source_calc_id": null, "bandstructure": null, "dos": null, "dos_energy_up": null, "dos_energy_down": null, "is_magnetic": null, "ordering": null, "total_magnetization": 0.623644699999999, "total_magnetization_normalized_vol": null, "total_magnetization_normalized_formula_units": null, "num_magnetic_sites": null, "num_unique_magnetic_sites": null, "types_of_magnetic_species": null, "bulk_modulus": null, "shear_modulus": null, "universal_anisotropy": null, "homogeneous_poisson": null, "e_total": null, "e_ionic": null, "e_electronic": null, "n": null, "e_ij_max": null, "weighted_surface_energy_EV_PER_ANG2": null, "weighted_surface_energy": null, "weighted_work_function": null, "surface_anisotropy": null, "shape_factor": null, "has_reconstructed": null, "possible_species": null, "has_props": null, "theoretical": null, "database_IDs": null, "fields_not_requested": ["builder_meta", "nsites", "elements", "nelements", "composition", "composition_reduced", "chemsys", "symmetry", "property_name", "deprecated", "deprecation_reasons", "last_updated", "origins", "warnings", "task_ids", "uncorrected_energy_per_atom", "equilibrium_reaction_energy_per_atom", "decomposes_to", "xas", "grain_boundaries", "cbm", "vbm", "is_gap_direct", "is_metal", "es_source_calc_id", "bandstructure", "dos", "dos_energy_up", "dos_energy_down", "is_magnetic", "ordering", "total_magnetization_normalized_vol", "total_magnetization_normalized_formula_units", "num_magnetic_sites", "num_unique_magnetic_sites", "types_of_magnetic_species", "bulk_modulus", "shear_modulus", "universal_anisotropy", "homogeneous_poisson", "e_total", "e_ionic", "e_electronic", "n", "e_ij_max", "weighted_surface_energy_EV_PER_ANG2", "weighted_surface_energy", "weighted_work_function", "surface_anisotropy", "shape_factor", "has_reconstructed", "possible_species", "has_props", "theoretical", "database_IDs"]}