{"builder_meta": null, "nsites": null, "elements": null, "nelements": null, "composition": null, "composition_reduced": null, "formula_pretty": "Sm2Mg", "formula_anonymous": "AB2", "chemsys": null, "volume": 183.30524320280819, "density": 5.888720919177687, "density_atomic": 30.550873867134698, "symmetry": null, "property_name": null, "material_id": "mp-972454", "deprecated": null, "deprecation_reasons": null, "last_updated": null, "origins": null, "warnings": null, "structure": {"@module": "pymatgen.core.structure", "@class": "Structure", "charge": 0, "lattice": {"matrix": [[3.80036732, 0.0, 0.0], [1.9001841800000001, 8.70417093, 0.0], [0.0, 0.0, 5.54143064]], "pbc": [true, true, true], "a": 3.80036732, "b": 8.909168956562635, "c": 5.54143064, "alpha": 90.0, "beta": 90.0, "gamma": 77.68512069052815, "volume": 183.30524320280819}, "properties": {}, "sites": [{"species": [{"element": "Sm", "occu": 1}], "abc": [0.9777743600000001, 0.04445429, 0.0], "properties": {"magmom": 0.004}, "label": "Sm", "xyz": [3.8003730626690477, 0.3869377387317897, 0.0]}, {"species": [{"element": "Sm", "occu": 1}], "abc": [0.6618351, 0.676331799999999, -0.0], "properties": {"magmom": 0.001}, "label": "Sm", "xyz": [3.800371472059854, 5.886907592594565, 0.0]}, {"species": [{"element": "Sm", "occu": 1}], "abc": [0.80000464, 0.39998971, 0.499998999999999], "properties": {"magmom": 0.004}, "label": "Sm", "xyz": [3.8003656088091526, 3.48157880608113, 2.7707097785693544]}, {"species": [{"element": "Sm", "occu": 1}], "abc": [0.1159419, 0.768112199999999, 0.499998999999999], "properties": {"magmom": 0.001}, "label": "Sm", "xyz": [1.9001764586837022, 6.685779882218338, 2.7707097785693544]}, {"species": [{"element": "Mg", "occu": 1}], "abc": [0.32161906, 0.35675888, -0.0], "properties": {"magmom": 0.0}, "label": "Mg", "xyz": [1.9001781449636375, 3.1052902723153584, 0.0]}, {"species": [{"element": "Mg", "occu": 1}], "abc": [0.45615594, 0.08768612, 0.499998999999999], "properties": {"magmom": 0.0}, "label": "Mg", "xyz": [1.9001799052294621, 0.7632349766684917, 2.7707097785693544]}]}, "task_ids": null, "uncorrected_energy_per_atom": null, "energy_per_atom": -3.7353861116666662, "formation_energy_per_atom": -0.046172016666666, "energy_above_hull": 0.010174733333334001, "is_stable": false, "equilibrium_reaction_energy_per_atom": null, "decomposes_to": null, "xas": null, "grain_boundaries": null, "band_gap": 0.0, "cbm": null, "vbm": null, "efermi": 3.06676146, "is_gap_direct": null, "is_metal": null, "es_source_calc_id": null, "bandstructure": null, "dos": null, "dos_energy_up": null, "dos_energy_down": null, "is_magnetic": null, "ordering": null, "total_magnetization": 0.022699, "total_magnetization_normalized_vol": null, "total_magnetization_normalized_formula_units": null, "num_magnetic_sites": null, "num_unique_magnetic_sites": null, "types_of_magnetic_species": null, "bulk_modulus": null, "shear_modulus": null, "universal_anisotropy": null, "homogeneous_poisson": null, "e_total": null, "e_ionic": null, "e_electronic": null, "n": null, "e_ij_max": null, "weighted_surface_energy_EV_PER_ANG2": null, "weighted_surface_energy": null, "weighted_work_function": null, "surface_anisotropy": null, "shape_factor": null, "has_reconstructed": null, "possible_species": null, "has_props": null, "theoretical": null, "database_IDs": null, "fields_not_requested": ["builder_meta", "nsites", "elements", "nelements", "composition", "composition_reduced", "chemsys", "symmetry", "property_name", "deprecated", "deprecation_reasons", "last_updated", "origins", "warnings", "task_ids", "uncorrected_energy_per_atom", "equilibrium_reaction_energy_per_atom", "decomposes_to", "xas", "grain_boundaries", "cbm", "vbm", "is_gap_direct", "is_metal", "es_source_calc_id", "bandstructure", "dos", "dos_energy_up", "dos_energy_down", "is_magnetic", "ordering", "total_magnetization_normalized_vol", "total_magnetization_normalized_formula_units", "num_magnetic_sites", "num_unique_magnetic_sites", "types_of_magnetic_species", "bulk_modulus", "shear_modulus", "universal_anisotropy", "homogeneous_poisson", "e_total", "e_ionic", "e_electronic", "n", "e_ij_max", "weighted_surface_energy_EV_PER_ANG2", "weighted_surface_energy", "weighted_work_function", "surface_anisotropy", "shape_factor", "has_reconstructed", "possible_species", "has_props", "theoretical", "database_IDs"]}