{"builder_meta": null, "nsites": null, "elements": null, "nelements": null, "composition": null, "composition_reduced": null, "formula_pretty": "Sm2Ni7", "formula_anonymous": "A2B7", "chemsys": null, "volume": 259.7969306441703, "density": 9.096305262261799, "density_atomic": 14.433162813565016, "symmetry": null, "property_name": null, "material_id": "mp-1188478", "deprecated": null, "deprecation_reasons": null, "last_updated": null, "origins": null, "warnings": null, "structure": {"@module": "pymatgen.core.structure", "@class": "Structure", "charge": 0, "lattice": {"matrix": [[-2.477414, -4.291006, 0.0], [-4.954827, 0.0, 0.0], [-2.477414, -1.430335, -12.219302]], "pbc": [true, true, true], "a": 4.954827203791471, "b": 4.954827, "c": 12.54969241482934, "alpha": 78.614553181412, "beta": 78.61455514382956, "gamma": 59.99999468430164, "volume": 259.7969306441703}, "properties": {}, "sites": [{"species": [{"element": "Sm", "occu": 1}], "abc": [0.9492900000000001, 0.9492900000000001, 0.152131], "properties": {"magmom": 0.039}, "label": "Sm", "xyz": [-7.432243528123999, -4.291007379625, -1.858934632562]}, {"species": [{"element": "Sm", "occu": 1}], "abc": [0.050710000000000005, 0.050710000000000005, 0.847869], "properties": {"magmom": 0.039}, "label": "Sm", "xyz": [-2.4774114718759996, -1.430333620375, -10.360367367438]}, {"species": [{"element": "Sm", "occu": 1}], "abc": [0.852629, 0.852629, 0.442114], "properties": {"magmom": 0.025}, "label": "Sm", "xyz": [-7.4322436247849994, -4.291007282964, -5.402324484428]}, {"species": [{"element": "Sm", "occu": 1}], "abc": [0.147371, 0.147371, 0.557886], "properties": {"magmom": 0.025}, "label": "Sm", "xyz": [-2.4774113752149995, -1.430333717036, -6.816977515572001]}, {"species": [{"element": "Ni", "occu": 1}], "abc": [0.5, 0.5, 0.5], "properties": {"magmom": -0.075}, "label": "Ni", "xyz": [-4.9548274999999995, -2.8606705000000003, -6.109651]}, {"species": [{"element": "Ni", "occu": 1}], "abc": [0.721673, 0.721673, 0.834982], "properties": {"magmom": -0.218}, "label": "Ni", "xyz": [-7.432243755741, -4.2910071520079995, -10.202897222564001]}, {"species": [{"element": "Ni", "occu": 1}], "abc": [0.278327, 0.278327, 0.165018], "properties": {"magmom": -0.218}, "label": "Ni", "xyz": [-2.4774112442589997, -1.430333847992, -2.016404777436]}, {"species": [{"element": "Ni", "occu": 1}], "abc": [0.612001999999999, 0.612001999999999, 0.163994], "properties": {"magmom": -0.228}, "label": "Ni", "xyz": [-4.954827387997993, -2.860670612001996, -2.003892212188]}, {"species": [{"element": "Ni", "occu": 1}], "abc": [0.387998, 0.387998, 0.836005999999999], "properties": {"magmom": -0.228}, "label": "Ni", "xyz": [-4.954827612001997, -2.860670387997999, -10.21540978781199]}, {"species": [{"element": "Ni", "occu": 1}], "abc": [0.0, 0.5, 0.0], "properties": {"magmom": -0.341}, "label": "Ni", "xyz": [-2.4774135, 0.0, 0.0]}, {"species": [{"element": "Ni", "occu": 1}], "abc": [0.5, 0.0, 0.0], "properties": {"magmom": -0.341}, "label": "Ni", "xyz": [-1.238707, -2.145503, 0.0]}, {"species": [{"element": "Ni", "occu": 1}], "abc": [0.5, 0.5, 0.0], "properties": {"magmom": -0.341}, "label": "Ni", "xyz": [-3.7161204999999997, -2.145503, 0.0]}, {"species": [{"element": "Ni", "occu": 1}], "abc": [0.39098000000000005, 0.39098000000000005, 0.327814], "properties": {"magmom": -0.157}, "label": "Ni", "xyz": [-3.717988579176, -2.14658136357, -4.005658265828]}, {"species": [{"element": "Ni", "occu": 1}], "abc": [0.890227, 0.39098000000000005, 0.327814], "properties": {"magmom": -0.157}, "label": "Ni", "xyz": [-4.954830086434, -4.288853236052001, -4.005658265828]}, {"species": [{"element": "Ni", "occu": 1}], "abc": [0.39098000000000005, 0.890227, 0.327814], "properties": {"magmom": -0.157}, "label": "Ni", "xyz": [-6.191671094445, -2.14658136357, -4.005658265828]}, {"species": [{"element": "Ni", "occu": 1}], "abc": [0.60902, 0.60902, 0.672186], "properties": {"magmom": -0.157}, "label": "Ni", "xyz": [-6.191666420823999, -3.57475963643, -8.213643734172]}, {"species": [{"element": "Ni", "occu": 1}], "abc": [0.109773, 0.60902, 0.672186], "properties": {"magmom": -0.157}, "label": "Ni", "xyz": [-4.954824913566, -1.4324877639479998, -8.213643734172]}, {"species": [{"element": "Ni", "occu": 1}], "abc": [0.60902, 0.109773, 0.672186], "properties": {"magmom": -0.157}, "label": "Ni", "xyz": [-3.717983905555, -3.57475963643, -8.213643734172]}]}, "task_ids": null, "uncorrected_energy_per_atom": null, "energy_per_atom": -5.883855714999999, "formation_energy_per_atom": -0.33961915611111, "energy_above_hull": 0.0, "is_stable": true, "equilibrium_reaction_energy_per_atom": null, "decomposes_to": null, "xas": null, "grain_boundaries": null, "band_gap": 0.0, "cbm": null, "vbm": null, "efermi": 6.25728757, "is_gap_direct": null, "is_metal": null, "es_source_calc_id": null, "bandstructure": null, "dos": null, "dos_energy_up": null, "dos_energy_down": null, "is_magnetic": null, "ordering": null, "total_magnetization": 2.443973, "total_magnetization_normalized_vol": null, "total_magnetization_normalized_formula_units": null, "num_magnetic_sites": null, "num_unique_magnetic_sites": null, "types_of_magnetic_species": null, "bulk_modulus": null, "shear_modulus": null, "universal_anisotropy": null, "homogeneous_poisson": null, "e_total": null, "e_ionic": null, "e_electronic": null, "n": null, "e_ij_max": null, "weighted_surface_energy_EV_PER_ANG2": null, "weighted_surface_energy": null, "weighted_work_function": null, "surface_anisotropy": null, "shape_factor": null, "has_reconstructed": null, "possible_species": null, "has_props": null, "theoretical": null, "database_IDs": null, "fields_not_requested": ["builder_meta", "nsites", "elements", "nelements", "composition", "composition_reduced", "chemsys", "symmetry", "property_name", "deprecated", "deprecation_reasons", "last_updated", "origins", "warnings", "task_ids", "uncorrected_energy_per_atom", "equilibrium_reaction_energy_per_atom", "decomposes_to", "xas", "grain_boundaries", "cbm", "vbm", "is_gap_direct", "is_metal", "es_source_calc_id", "bandstructure", "dos", "dos_energy_up", "dos_energy_down", "is_magnetic", "ordering", "total_magnetization_normalized_vol", "total_magnetization_normalized_formula_units", "num_magnetic_sites", "num_unique_magnetic_sites", "types_of_magnetic_species", "bulk_modulus", "shear_modulus", "universal_anisotropy", "homogeneous_poisson", "e_total", "e_ionic", "e_electronic", "n", "e_ij_max", "weighted_surface_energy_EV_PER_ANG2", "weighted_surface_energy", "weighted_work_function", "surface_anisotropy", "shape_factor", "has_reconstructed", "possible_species", "has_props", "theoretical", "database_IDs"]}