{"builder_meta": null, "nsites": null, "elements": null, "nelements": null, "composition": null, "composition_reduced": null, "formula_pretty": "Sm2O3", "formula_anonymous": "A2B3", "chemsys": null, "volume": 654.3533566824561, "density": 7.079480081162786, "density_atomic": 16.358833917061403, "symmetry": null, "property_name": null, "material_id": "mp-218", "deprecated": null, "deprecation_reasons": null, "last_updated": null, "origins": null, "warnings": null, "structure": {"@module": "pymatgen.core.structure", "@class": "Structure", "charge": 0, "lattice": {"matrix": [[8.93103536, -0.0, -3.15759747], [-4.46551768, 7.7345038299999995, -3.15759747], [0.0, 0.0, 9.47279343]], "pbc": [true, true, true], "a": 9.472793378097125, "b": 9.472793644391691, "c": 9.47279343, "alpha": 109.47121799480298, "beta": 109.47121856426115, "gamma": 109.47122213526185, "volume": 654.3533566824559}, "properties": {}, "sites": [{"species": [{"element": "Sm", "occu": 1}], "abc": [0.5, 0.5, 0.5], "properties": {"magmom": -0.0}, "label": "Sm", "xyz": [2.23275884, 3.8672519149999998, 1.578799245]}, {"species": [{"element": "Sm", "occu": 1}], "abc": [0.0, -0.0, 0.5], "properties": {"magmom": -0.0}, "label": "Sm", "xyz": [0.0, 0.0, 4.736396715]}, {"species": [{"element": "Sm", "occu": 1}], "abc": [0.5, -0.0, 0.0], "properties": {"magmom": -0.0}, "label": "Sm", "xyz": [4.46551768, 0.0, -1.578798735]}, {"species": [{"element": "Sm", "occu": 1}], "abc": [0.0, 0.5, 0.0], "properties": {"magmom": -0.0}, "label": "Sm", "xyz": [-2.23275884, 3.8672519149999998, -1.578798735]}, {"species": [{"element": "Sm", "occu": 1}], "abc": [0.25, 0.21891861, 0.96891861], "properties": {"magmom": -0.0}, "label": "Sm", "xyz": [1.255173916563975, 1.6932268275032762, 7.6977096264408145]}, {"species": [{"element": "Sm", "occu": 1}], "abc": [0.28108139, 0.53108139, 0.75], "properties": {"magmom": -0.0}, "label": "Sm", "xyz": [0.13879449656397513, 4.107651044996723, 4.540111933143833]}, {"species": [{"element": "Sm", "occu": 1}], "abc": [0.53108139, 0.75, 0.28108139], "properties": {"magmom": -0.0}, "label": "Sm", "xyz": [1.3939684131279502, 5.800877872499999, -1.382513411440816]}, {"species": [{"element": "Sm", "occu": 1}], "abc": [0.21891861, 0.96891861, 0.25], "properties": {"magmom": -0.0}, "label": "Sm", "xyz": [-2.3715533365639754, 7.494104700003276, -1.382513443143833]}, {"species": [{"element": "Sm", "occu": 1}], "abc": [0.96891861, 0.25, 0.21891861], "properties": {"magmom": -0.0}, "label": "Sm", "xyz": [7.53706694687205, 1.9336259574999999, -1.7750835485591843]}, {"species": [{"element": "Sm", "occu": 1}], "abc": [0.75, 0.28108139, 0.53108139], "properties": {"magmom": -0.0}, "label": "Sm", "xyz": [5.443102603436024, 2.1740250874967235, 1.7750843135591836]}, {"species": [{"element": "Sm", "occu": 1}], "abc": [0.75, 0.78108139, 0.03108139], "properties": {"magmom": -0.0}, "label": "Sm", "xyz": [3.2103437634360246, 6.041277002496723, -4.5401111364408155]}, {"species": [{"element": "Sm", "occu": 1}], "abc": [0.71891861, 0.46891861, 0.25], "properties": {"magmom": -0.0}, "label": "Sm", "xyz": [4.326723183436025, 3.626852785003276, -1.3825134431438335]}, {"species": [{"element": "Sm", "occu": 1}], "abc": [0.46891861, 0.25, 0.71891861], "properties": {"magmom": -0.0}, "label": "Sm", "xyz": [3.0715492668720494, 1.9336259574999999, 4.540111901440816]}, {"species": [{"element": "Sm", "occu": 1}], "abc": [0.78108139, 0.03108139, 0.75], "properties": {"magmom": -0.0}, "label": "Sm", "xyz": [6.837071016563974, 0.2403991299967237, 4.540111933143834]}, {"species": [{"element": "Sm", "occu": 1}], "abc": [0.03108139, 0.75, 0.78108139], "properties": {"magmom": -0.0}, "label": "Sm", "xyz": [-3.0715492668720494, 5.800877872499999, 4.932682038559184]}, {"species": [{"element": "Sm", "occu": 1}], "abc": [0.25, 0.71891861, 0.46891861], "properties": {"magmom": -0.0}, "label": "Sm", "xyz": [-0.9775849234360248, 5.5604787425032765, 1.3825141764408153]}, {"species": [{"element": "O", "occu": 1}], "abc": [0.5288434, 0.76969486, 0.54115159], "properties": {"magmom": 0.0}, "label": "O", "xyz": [1.286033099767499, 5.953207842601313, 1.0259561019118522]}, {"species": [{"element": "O", "occu": 1}], "abc": [0.9876918100000001, 0.95884841, 0.72854327], "properties": {"magmom": 0.0}, "label": "O", "xyz": [4.5393559525975125, 7.416216699534409, 0.7549494276014723]}, {"species": [{"element": "O", "occu": 1}], "abc": [0.25914855000000003, 0.77145673, 0.73030514], "properties": {"magmom": 0.0}, "label": "O", "xyz": [-1.1304888036272582, 5.966835032864275, 3.663793107390588]}, {"species": [{"element": "O", "occu": 1}], "abc": [0.51230819, 0.24085145, 0.971156599999999], "properties": {"magmom": 0.0}, "label": "O", "xyz": [3.4999161518789625, 1.8628664624860534, 6.821390886211017]}, {"species": [{"element": "O", "occu": 1}], "abc": [0.95884841, 0.72854327, 0.9876918100000001], "properties": {"magmom": 0.0}, "label": "O", "xyz": [5.3101862017597625, 5.634920712135724, 4.028096788965759]}, {"species": [{"element": "O", "occu": 1}], "abc": [0.73030514, 0.25914855000000003, 0.77145673], "properties": {"magmom": 0.0}, "label": "O", "xyz": [5.365148597158386, 2.004385452513947, 4.183553775247119]}, {"species": [{"element": "O", "occu": 1}], "abc": [0.24085145, 0.971156599999999, 0.51230819], "properties": {"magmom": 0.0}, "label": "O", "xyz": [-2.185664150891411, 7.51141444222977, 1.0259561040675615]}, {"species": [{"element": "O", "occu": 1}], "abc": [0.54115159, 0.5288434, 0.76969486], "properties": {"magmom": 0.0}, "label": "O", "xyz": [2.4714844327589103, 4.090341302770222, 3.912546939576094]}, {"species": [{"element": "O", "occu": 1}], "abc": [0.76969486, 0.54115159, 0.5288434], "properties": {"magmom": 0.0}, "label": "O", "xyz": [4.457650018365138, 4.18553904546559, 0.8704988509403799]}, {"species": [{"element": "O", "occu": 1}], "abc": [0.72854327, 0.9876918100000001, 0.95884841], "properties": {"magmom": 0.0}, "label": "O", "xyz": [2.096090465713826, 7.639306087304632, 3.663793372080698]}, {"species": [{"element": "O", "occu": 1}], "abc": [0.77145673, 0.73030514, 0.25914855000000003], "properties": {"magmom": 0.0}, "label": "O", "xyz": [3.6287168198750974, 5.648547902398686, -2.287098799420442]}, {"species": [{"element": "O", "occu": 1}], "abc": [0.971156599999999, 0.51230819, 0.24085145], "properties": {"magmom": 0.0}, "label": "O", "xyz": [6.385712654643567, 3.962449657695368, -2.402648634572105]}, {"species": [{"element": "O", "occu": 1}], "abc": [0.4711566, 0.23030514, 0.45884841], "properties": {"magmom": 0.0}, "label": "O", "xyz": [3.1794845802325, 1.781295987398686, 2.1316423880881485]}, {"species": [{"element": "O", "occu": 1}], "abc": [0.01230819, 0.04115159, 0.27145673], "properties": {"magmom": 0.0}, "label": "O", "xyz": [-0.07383827259751281, 0.3182871304655897, 2.4026490623985266]}, {"species": [{"element": "O", "occu": 1}], "abc": [0.74085145, 0.22854327, 0.26969486], "properties": {"magmom": 0.0}, "label": "O", "xyz": [5.596006483627257, 1.767668797135724, -0.5061946173905891]}, {"species": [{"element": "O", "occu": 1}], "abc": [0.48769181, 0.75914855, 0.028843399999999002], "properties": {"magmom": 0.0}, "label": "O", "xyz": [0.9656015281210371, 5.871637367513946, -3.6637923962110364]}, {"species": [{"element": "O", "occu": 1}], "abc": [0.04115159, 0.27145673, 0.01230819], "properties": {"magmom": 0.0}, "label": "O", "xyz": [-0.8446685217597638, 2.0995831178642756, -0.8704982989657586]}, {"species": [{"element": "O", "occu": 1}], "abc": [0.26969486, 0.74085145, 0.22854327], "properties": {"magmom": 0.0}, "label": "O", "xyz": [-0.8996309171583863, 5.730118377486053, -1.0259552852471199]}, {"species": [{"element": "O", "occu": 1}], "abc": [0.75914855, 0.028843399999999002, 0.48769181], "properties": {"magmom": 0.0}, "label": "O", "xyz": [6.65118183089142, 0.22308938777021428, 2.1316423859324445]}, {"species": [{"element": "O", "occu": 1}], "abc": [0.45884841, 0.4711566, 0.23030514], "properties": {"magmom": 0.0}, "label": "O", "xyz": [1.9940332472410898, 3.6441625272297777, -0.7549484495760943]}, {"species": [{"element": "O", "occu": 1}], "abc": [0.23030514, 0.45884841, 0.4711566], "properties": {"magmom": 0.0}, "label": "O", "xyz": [0.007867661634861634, 3.54896478453441, 2.28709963905962]}, {"species": [{"element": "O", "occu": 1}], "abc": [0.27145673, 0.01230819, 0.04115159], "properties": {"magmom": 0.0}, "label": "O", "xyz": [2.369427214286173, 0.0951977426953677, -0.5061948820806986]}, {"species": [{"element": "O", "occu": 1}], "abc": [0.22854327, 0.26969486, 0.74085145], "properties": {"magmom": 0.0}, "label": "O", "xyz": [0.8368008601249024, 2.0859559276013133, 5.444697289420442]}, {"species": [{"element": "O", "occu": 1}], "abc": [0.028843399999999002, 0.48769181, 0.75914855], "properties": {"magmom": 0.0}, "label": "O", "xyz": [-1.9201949746435854, 3.772054172304632, 5.560247124572111]}]}, "task_ids": null, "uncorrected_energy_per_atom": null, "energy_per_atom": -8.718163524249999, "formation_energy_per_atom": -3.86195246725, "energy_above_hull": 0.0, "is_stable": true, "equilibrium_reaction_energy_per_atom": null, "decomposes_to": null, "xas": null, "grain_boundaries": null, "band_gap": 3.7823, "cbm": null, "vbm": null, "efermi": 1.27052682, "is_gap_direct": null, "is_metal": null, "es_source_calc_id": null, "bandstructure": null, "dos": null, "dos_energy_up": null, "dos_energy_down": null, "is_magnetic": null, "ordering": null, "total_magnetization": 0.0, "total_magnetization_normalized_vol": null, "total_magnetization_normalized_formula_units": null, "num_magnetic_sites": null, "num_unique_magnetic_sites": null, "types_of_magnetic_species": null, "bulk_modulus": null, "shear_modulus": null, "universal_anisotropy": null, "homogeneous_poisson": null, "e_total": null, "e_ionic": null, "e_electronic": null, "n": null, "e_ij_max": null, "weighted_surface_energy_EV_PER_ANG2": null, "weighted_surface_energy": null, "weighted_work_function": null, "surface_anisotropy": null, "shape_factor": null, "has_reconstructed": null, "possible_species": null, "has_props": null, "theoretical": null, "database_IDs": null, "fields_not_requested": ["builder_meta", "nsites", "elements", "nelements", "composition", "composition_reduced", "chemsys", "symmetry", "property_name", "deprecated", "deprecation_reasons", "last_updated", "origins", "warnings", "task_ids", "uncorrected_energy_per_atom", "equilibrium_reaction_energy_per_atom", "decomposes_to", "xas", "grain_boundaries", "cbm", "vbm", "is_gap_direct", "is_metal", "es_source_calc_id", "bandstructure", "dos", "dos_energy_up", "dos_energy_down", "is_magnetic", "ordering", "total_magnetization_normalized_vol", "total_magnetization_normalized_formula_units", "num_magnetic_sites", "num_unique_magnetic_sites", "types_of_magnetic_species", "bulk_modulus", "shear_modulus", "universal_anisotropy", "homogeneous_poisson", "e_total", "e_ionic", "e_electronic", "n", "e_ij_max", "weighted_surface_energy_EV_PER_ANG2", "weighted_surface_energy", "weighted_work_function", "surface_anisotropy", "shape_factor", "has_reconstructed", "possible_species", "has_props", "theoretical", "database_IDs"]}