{"builder_meta": null, "nsites": null, "elements": null, "nelements": null, "composition": null, "composition_reduced": null, "formula_pretty": "Sm2S3", "formula_anonymous": "A2B3", "chemsys": null, "volume": 458.84211819880477, "density": 5.745705003776228, "density_atomic": 22.94210590994024, "symmetry": null, "property_name": null, "material_id": "mp-1403", "deprecated": null, "deprecation_reasons": null, "last_updated": null, "origins": null, "warnings": null, "structure": {"@module": "pymatgen.core.structure", "@class": "Structure", "charge": 0, "lattice": {"matrix": [[3.98836771, -0.0, 0.0], [-0.0, 7.43455468, 0.0], [0.0, 0.0, 15.47437526]], "pbc": [true, true, true], "a": 3.98836771, "b": 7.43455468, "c": 15.47437526, "alpha": 90.0, "beta": 90.0, "gamma": 90.0, "volume": 458.84211819880477}, "properties": {}, "sites": [{"species": [{"element": "Sm", "occu": 1}], "abc": [0.25, 0.64334165, 0.29565405], "properties": {"magmom": -0.0}, "label": "Sm", "xyz": [0.9970919275, 4.782958674846422, 4.575061716838803]}, {"species": [{"element": "Sm", "occu": 1}], "abc": [0.75, 0.35665835, 0.70434595], "properties": {"magmom": -0.0}, "label": "Sm", "xyz": [2.9912757825, 2.651596005153578, 10.899313543161197]}, {"species": [{"element": "Sm", "occu": 1}], "abc": [0.25, 0.14334165000000001, 0.20434595], "properties": {"magmom": -0.0}, "label": "Sm", "xyz": [0.9970919275, 1.065681334846422, 3.162125913161197]}, {"species": [{"element": "Sm", "occu": 1}], "abc": [0.75, 0.85665835, 0.79565405], "properties": {"magmom": -0.0}, "label": "Sm", "xyz": [2.9912757825, 6.3688733451535775, 12.312249346838803]}, {"species": [{"element": "Sm", "occu": 1}], "abc": [0.25, 0.26546606, 0.95626059], "properties": {"magmom": -0.0}, "label": "Sm", "xyz": [0.9970919275, 1.9736219387541607, 14.797535216009003]}, {"species": [{"element": "Sm", "occu": 1}], "abc": [0.75, 0.73453394, 0.04373941], "properties": {"magmom": -0.0}, "label": "Sm", "xyz": [2.9912757825, 5.4609327412458395, 0.6768400439909966]}, {"species": [{"element": "Sm", "occu": 1}], "abc": [0.25, 0.7654660600000001, 0.54373941], "properties": {"magmom": -0.0}, "label": "Sm", "xyz": [0.9970919275, 5.690899278754161, 8.414027673990997]}, {"species": [{"element": "Sm", "occu": 1}], "abc": [0.75, 0.23453394, 0.45626059], "properties": {"magmom": -0.0}, "label": "Sm", "xyz": [2.9912757825, 1.7436554012458392, 7.060347586009004]}, {"species": [{"element": "S", "occu": 1}], "abc": [0.25, 0.87466108, 0.9326593400000001], "properties": {"magmom": 0.0}, "label": "S", "xyz": [0.9970919275, 6.502715625727854, 14.43232061690393]}, {"species": [{"element": "S", "occu": 1}], "abc": [0.75, 0.12533892, 0.06734066], "properties": {"magmom": 0.0}, "label": "S", "xyz": [2.9912757825, 0.9318390542721455, 1.0420546430960715]}, {"species": [{"element": "S", "occu": 1}], "abc": [0.25, 0.37466108000000004, 0.56734066], "properties": {"magmom": 0.0}, "label": "S", "xyz": [0.9970919275, 2.7854382857278543, 8.779242273096072]}, {"species": [{"element": "S", "occu": 1}], "abc": [0.75, 0.62533892, 0.43265934], "properties": {"magmom": 0.0}, "label": "S", "xyz": [2.9912757825, 4.649116394272146, 6.695132986903928]}, {"species": [{"element": "S", "occu": 1}], "abc": [0.25, 0.64798601, 0.71867229], "properties": {"magmom": 0.0}, "label": "S", "xyz": [0.9970919275, 4.817487423220027, 11.121004704423546]}, {"species": [{"element": "S", "occu": 1}], "abc": [0.75, 0.35201399, 0.28132771], "properties": {"magmom": 0.0}, "label": "S", "xyz": [2.9912757825, 2.6170672567799733, 4.353370555576455]}, {"species": [{"element": "S", "occu": 1}], "abc": [0.25, 0.14798601, 0.78132771], "properties": {"magmom": 0.0}, "label": "S", "xyz": [0.9970919275, 1.1002100832200268, 12.090558185576455]}, {"species": [{"element": "S", "occu": 1}], "abc": [0.75, 0.85201399, 0.21867229], "properties": {"magmom": 0.0}, "label": "S", "xyz": [2.9912757825, 6.334344596779973, 3.383817074423545]}, {"species": [{"element": "S", "occu": 1}], "abc": [0.75, 0.99018991, 0.60856718], "properties": {"magmom": 0.0}, "label": "S", "xyz": [2.9912757825, 7.361621029479279, 9.417196914239966]}, {"species": [{"element": "S", "occu": 1}], "abc": [0.25, 0.00981009, 0.39143282], "properties": {"magmom": 0.0}, "label": "S", "xyz": [0.9970919275, 0.0729336505207212, 6.0571783457600334]}, {"species": [{"element": "S", "occu": 1}], "abc": [0.75, 0.49018991, 0.89143282], "properties": {"magmom": 0.0}, "label": "S", "xyz": [2.9912757825, 3.6443436894792787, 13.794365975760034]}, {"species": [{"element": "S", "occu": 1}], "abc": [0.25, 0.50981009, 0.10856718], "properties": {"magmom": 0.0}, "label": "S", "xyz": [0.9970919275, 3.790210990520721, 1.6800092842399668]}]}, "task_ids": null, "uncorrected_energy_per_atom": null, "energy_per_atom": -6.7366026465000015, "formation_energy_per_atom": -2.366152452, "energy_above_hull": 0.0, "is_stable": true, "equilibrium_reaction_energy_per_atom": null, "decomposes_to": null, "xas": null, "grain_boundaries": null, "band_gap": 0.7441, "cbm": null, "vbm": null, "efermi": 3.89522921, "is_gap_direct": null, "is_metal": null, "es_source_calc_id": null, "bandstructure": null, "dos": null, "dos_energy_up": null, "dos_energy_down": null, "is_magnetic": null, "ordering": null, "total_magnetization": 0.0, "total_magnetization_normalized_vol": null, "total_magnetization_normalized_formula_units": null, "num_magnetic_sites": null, "num_unique_magnetic_sites": null, "types_of_magnetic_species": null, "bulk_modulus": null, "shear_modulus": null, "universal_anisotropy": null, "homogeneous_poisson": null, "e_total": null, "e_ionic": null, "e_electronic": null, "n": null, "e_ij_max": null, "weighted_surface_energy_EV_PER_ANG2": null, "weighted_surface_energy": null, "weighted_work_function": null, "surface_anisotropy": null, "shape_factor": null, "has_reconstructed": null, "possible_species": null, "has_props": null, "theoretical": null, "database_IDs": null, "fields_not_requested": ["builder_meta", "nsites", "elements", "nelements", "composition", "composition_reduced", "chemsys", "symmetry", "property_name", "deprecated", "deprecation_reasons", "last_updated", "origins", "warnings", "task_ids", "uncorrected_energy_per_atom", "equilibrium_reaction_energy_per_atom", "decomposes_to", "xas", "grain_boundaries", "cbm", "vbm", "is_gap_direct", "is_metal", "es_source_calc_id", "bandstructure", "dos", "dos_energy_up", "dos_energy_down", "is_magnetic", "ordering", "total_magnetization_normalized_vol", "total_magnetization_normalized_formula_units", "num_magnetic_sites", "num_unique_magnetic_sites", "types_of_magnetic_species", "bulk_modulus", "shear_modulus", "universal_anisotropy", "homogeneous_poisson", "e_total", "e_ionic", "e_electronic", "n", "e_ij_max", "weighted_surface_energy_EV_PER_ANG2", "weighted_surface_energy", "weighted_work_function", "surface_anisotropy", "shape_factor", "has_reconstructed", "possible_species", "has_props", "theoretical", "database_IDs"]}