{
  "builder_meta": null,
  "nsites": null,
  "elements": null,
  "nelements": null,
  "composition": null,
  "composition_reduced": null,
  "formula_pretty": "Sm2Sb",
  "formula_anonymous": "AB2",
  "chemsys": null,
  "volume": 177.6034059477349,
  "density": 7.9001249003481195,
  "density_atomic": 29.600567657955818,
  "symmetry": null,
  "property_name": null,
  "material_id": "mp-1077018",
  "deprecated": null,
  "deprecation_reasons": null,
  "last_updated": null,
  "origins": null,
  "warnings": null,
  "structure": {
    "@module": "pymatgen.core.structure",
    "@class": "Structure",
    "charge": 0,
    "lattice": {
      "matrix": [
        [-2.25210972, 2.25210972, 8.75411422],
        [2.25210972, -2.25210972, 8.75411422],
        [2.25210972, 2.25210972, -8.75411422]
      ],
      "pbc": [true, true, true],
      "a": 9.315498492224835,
      "b": 9.315498492224835,
      "c": 9.315498492224835,
      "alpha": 152.01918527590772,
      "beta": 152.01918527590772,
      "gamma": 39.98528621504509,
      "volume": 177.6034059477349
    },
    "properties": {},
    "sites": [
      {
        "species": [{ "element": "Sm", "occu": 1 }],
        "abc": [-0.0, 0.5, 0.5],
        "properties": { "magmom": -0.0 },
        "label": "Sm",
        "xyz": [2.25210972, 0.0, 0.0]
      },
      {
        "species": [{ "element": "Sm", "occu": 1 }],
        "abc": [0.5, 0.0, 0.5],
        "properties": { "magmom": -0.0 },
        "label": "Sm",
        "xyz": [0.0, 2.25210972, 0.0]
      },
      {
        "species": [{ "element": "Sm", "occu": 1 }],
        "abc": [0.8213823100000001, 0.8213823100000001, 0.0],
        "properties": { "magmom": -0.0 },
        "label": "Sm",
        "xyz": [0.0, 0.0, 14.380949120054897]
      },
      {
        "species": [{ "element": "Sm", "occu": 1 }],
        "abc": [0.17861769, 0.17861769, -0.0],
        "properties": { "magmom": -0.0 },
        "label": "Sm",
        "xyz": [0.0, 0.0, 3.1272793199451034]
      },
      {
        "species": [{ "element": "Sb", "occu": 1 }],
        "abc": [0.63898239, 0.63898239, -0.0],
        "properties": { "magmom": 0.0 },
        "label": "Sb",
        "xyz": [0.0, 0.0, 11.187449653257172]
      },
      {
        "species": [{ "element": "Sb", "occu": 1 }],
        "abc": [0.36101761, 0.36101761, 0.0],
        "properties": { "magmom": 0.0 },
        "label": "Sb",
        "xyz": [0.0, 0.0, 6.320778786742828]
      }
    ]
  },
  "task_ids": null,
  "uncorrected_energy_per_atom": null,
  "energy_per_atom": -29.382951881666667,
  "formation_energy_per_atom": -0.992230425000002,
  "energy_above_hull": 0.0048565883333360005,
  "is_stable": false,
  "equilibrium_reaction_energy_per_atom": null,
  "decomposes_to": null,
  "xas": null,
  "grain_boundaries": null,
  "band_gap": 0.0,
  "cbm": null,
  "vbm": null,
  "efermi": 4.86749328,
  "is_gap_direct": null,
  "is_metal": null,
  "es_source_calc_id": null,
  "bandstructure": null,
  "dos": null,
  "dos_energy_up": null,
  "dos_energy_down": null,
  "is_magnetic": null,
  "ordering": null,
  "total_magnetization": 3.07e-5,
  "total_magnetization_normalized_vol": null,
  "total_magnetization_normalized_formula_units": null,
  "num_magnetic_sites": null,
  "num_unique_magnetic_sites": null,
  "types_of_magnetic_species": null,
  "bulk_modulus": null,
  "shear_modulus": null,
  "universal_anisotropy": null,
  "homogeneous_poisson": null,
  "e_total": null,
  "e_ionic": null,
  "e_electronic": null,
  "n": null,
  "e_ij_max": null,
  "weighted_surface_energy_EV_PER_ANG2": null,
  "weighted_surface_energy": null,
  "weighted_work_function": null,
  "surface_anisotropy": null,
  "shape_factor": null,
  "has_reconstructed": null,
  "possible_species": null,
  "has_props": null,
  "theoretical": null,
  "database_IDs": null,
  "fields_not_requested": [
    "builder_meta",
    "nsites",
    "elements",
    "nelements",
    "composition",
    "composition_reduced",
    "chemsys",
    "symmetry",
    "property_name",
    "deprecated",
    "deprecation_reasons",
    "last_updated",
    "origins",
    "warnings",
    "task_ids",
    "uncorrected_energy_per_atom",
    "equilibrium_reaction_energy_per_atom",
    "decomposes_to",
    "xas",
    "grain_boundaries",
    "cbm",
    "vbm",
    "is_gap_direct",
    "is_metal",
    "es_source_calc_id",
    "bandstructure",
    "dos",
    "dos_energy_up",
    "dos_energy_down",
    "is_magnetic",
    "ordering",
    "total_magnetization_normalized_vol",
    "total_magnetization_normalized_formula_units",
    "num_magnetic_sites",
    "num_unique_magnetic_sites",
    "types_of_magnetic_species",
    "bulk_modulus",
    "shear_modulus",
    "universal_anisotropy",
    "homogeneous_poisson",
    "e_total",
    "e_ionic",
    "e_electronic",
    "n",
    "e_ij_max",
    "weighted_surface_energy_EV_PER_ANG2",
    "weighted_surface_energy",
    "weighted_work_function",
    "surface_anisotropy",
    "shape_factor",
    "has_reconstructed",
    "possible_species",
    "has_props",
    "theoretical",
    "database_IDs"
  ]
}
