{"builder_meta": null, "nsites": null, "elements": null, "nelements": null, "composition": null, "composition_reduced": null, "formula_pretty": "Sm2Se3", "formula_anonymous": "A2B3", "chemsys": null, "volume": 519.8506654821398, "density": 6.868940343675141, "density_atomic": 25.99253327410699, "symmetry": null, "property_name": null, "material_id": "mp-15081", "deprecated": null, "deprecation_reasons": null, "last_updated": null, "origins": null, "warnings": null, "structure": {"@module": "pymatgen.core.structure", "@class": "Structure", "charge": 0, "lattice": {"matrix": [[4.115172, -0.0, 0.0], [-0.0, 11.11895133, 0.0], [0.0, 0.0, 11.36126744]], "pbc": [true, true, true], "a": 4.115172, "b": 11.11895133, "c": 11.36126744, "alpha": 90.0, "beta": 90.0, "gamma": 90.0, "volume": 519.8506654821398}, "properties": {}, "sites": [{"species": [{"element": "Sm", "occu": 1}], "abc": [0.25, 0.99736344, 0.69345578], "properties": {"magmom": 0.0}, "label": "Sm", "xyz": [1.028793, 11.089635547681375, 7.878536574393803]}, {"species": [{"element": "Sm", "occu": 1}], "abc": [0.75, 0.00263656, 0.30654422000000003], "properties": {"magmom": 0.0}, "label": "Sm", "xyz": [3.086379, 0.0293157823186248, 3.4827308656061975]}, {"species": [{"element": "Sm", "occu": 1}], "abc": [0.75, 0.49736344, 0.80654422], "properties": {"magmom": 0.0}, "label": "Sm", "xyz": [3.086379, 5.530159882681375, 9.163364585606198]}, {"species": [{"element": "Sm", "occu": 1}], "abc": [0.25, 0.50263656, 0.19345578], "properties": {"magmom": 0.0}, "label": "Sm", "xyz": [1.028793, 5.588791447318624, 2.1979028543938033]}, {"species": [{"element": "Sm", "occu": 1}], "abc": [0.25, 0.31310247, 0.51188702], "properties": {"magmom": -0.0}, "label": "Sm", "xyz": [1.028793, 3.4813711252327852, 5.8156853332846286]}, {"species": [{"element": "Sm", "occu": 1}], "abc": [0.75, 0.68689753, 0.48811298000000003], "properties": {"magmom": -0.0}, "label": "Sm", "xyz": [3.086379, 7.6375802047672146, 5.545582106715372]}, {"species": [{"element": "Sm", "occu": 1}], "abc": [0.75, 0.81310247, 0.98811298], "properties": {"magmom": -0.0}, "label": "Sm", "xyz": [3.086379, 9.040846790232786, 11.226215826715372]}, {"species": [{"element": "Sm", "occu": 1}], "abc": [0.25, 0.18689753, 0.01188702], "properties": {"magmom": -0.0}, "label": "Sm", "xyz": [1.028793, 2.078104539767215, 0.1350516132846288]}, {"species": [{"element": "Se", "occu": 1}], "abc": [0.75, 0.05598909, 0.8805209900000001], "properties": {"magmom": 0.0}, "label": "Se", "xyz": [3.086379, 0.6225399667209897, 10.003834453923567]}, {"species": [{"element": "Se", "occu": 1}], "abc": [0.25, 0.94401091, 0.11947901], "properties": {"magmom": 0.0}, "label": "Se", "xyz": [1.028793, 10.49641136327901, 1.3574329860764345]}, {"species": [{"element": "Se", "occu": 1}], "abc": [0.25, 0.55598909, 0.61947901], "properties": {"magmom": 0.0}, "label": "Se", "xyz": [1.028793, 6.182015631720989, 7.038066706076435]}, {"species": [{"element": "Se", "occu": 1}], "abc": [0.75, 0.44401091000000004, 0.38052099], "properties": {"magmom": 0.0}, "label": "Se", "xyz": [3.086379, 4.936935698279011, 4.323200733923566]}, {"species": [{"element": "Se", "occu": 1}], "abc": [0.25, 0.87426616, 0.45501718], "properties": {"magmom": 0.0}, "label": "Se", "xyz": [1.028793, 9.720922882505993, 5.16957187177462]}, {"species": [{"element": "Se", "occu": 1}], "abc": [0.75, 0.12573384, 0.54498282], "properties": {"magmom": 0.0}, "label": "Se", "xyz": [3.086379, 1.3980284474940072, 6.191695568225381]}, {"species": [{"element": "Se", "occu": 1}], "abc": [0.75, 0.37426616, 0.04498282], "properties": {"magmom": 0.0}, "label": "Se", "xyz": [3.086379, 4.161447217505993, 0.5110618482253808]}, {"species": [{"element": "Se", "occu": 1}], "abc": [0.25, 0.62573384, 0.95501718], "properties": {"magmom": 0.0}, "label": "Se", "xyz": [1.028793, 6.957504112494007, 10.85020559177462]}, {"species": [{"element": "Se", "occu": 1}], "abc": [0.25, 0.30242947000000003, 0.7726881800000001], "properties": {"magmom": -0.0}, "label": "Se", "xyz": [1.028793, 3.3626985576876955, 8.77871706070686]}, {"species": [{"element": "Se", "occu": 1}], "abc": [0.75, 0.69757053, 0.22731182], "properties": {"magmom": -0.0}, "label": "Se", "xyz": [3.086379, 7.756252772312305, 2.582550379293141]}, {"species": [{"element": "Se", "occu": 1}], "abc": [0.75, 0.80242947, 0.72731182], "properties": {"magmom": -0.0}, "label": "Se", "xyz": [3.086379, 8.922174222687694, 8.263184099293142]}, {"species": [{"element": "Se", "occu": 1}], "abc": [0.25, 0.19757053, 0.27268818], "properties": {"magmom": -0.0}, "label": "Se", "xyz": [1.028793, 2.196777107312305, 3.0980833407068595]}]}, "task_ids": null, "uncorrected_energy_per_atom": null, "energy_per_atom": -22.678153704, "formation_energy_per_atom": -2.198047837437499, "energy_above_hull": 0.0, "is_stable": true, "equilibrium_reaction_energy_per_atom": null, "decomposes_to": null, "xas": null, "grain_boundaries": null, "band_gap": 0.37369999999999903, "cbm": null, "vbm": null, "efermi": 3.38138944, "is_gap_direct": null, "is_metal": null, "es_source_calc_id": null, "bandstructure": null, "dos": null, "dos_energy_up": null, "dos_energy_down": null, "is_magnetic": null, "ordering": null, "total_magnetization": 0.0, "total_magnetization_normalized_vol": null, "total_magnetization_normalized_formula_units": null, "num_magnetic_sites": null, "num_unique_magnetic_sites": null, "types_of_magnetic_species": null, "bulk_modulus": null, "shear_modulus": null, "universal_anisotropy": null, "homogeneous_poisson": null, "e_total": null, "e_ionic": null, "e_electronic": null, "n": null, "e_ij_max": null, "weighted_surface_energy_EV_PER_ANG2": null, "weighted_surface_energy": null, "weighted_work_function": null, "surface_anisotropy": null, "shape_factor": null, "has_reconstructed": null, "possible_species": null, "has_props": null, "theoretical": null, "database_IDs": null, "fields_not_requested": ["builder_meta", "nsites", "elements", "nelements", "composition", "composition_reduced", "chemsys", "symmetry", "property_name", "deprecated", "deprecation_reasons", "last_updated", "origins", "warnings", "task_ids", "uncorrected_energy_per_atom", "equilibrium_reaction_energy_per_atom", "decomposes_to", "xas", "grain_boundaries", "cbm", "vbm", "is_gap_direct", "is_metal", "es_source_calc_id", "bandstructure", "dos", "dos_energy_up", "dos_energy_down", "is_magnetic", "ordering", "total_magnetization_normalized_vol", "total_magnetization_normalized_formula_units", "num_magnetic_sites", "num_unique_magnetic_sites", "types_of_magnetic_species", "bulk_modulus", "shear_modulus", "universal_anisotropy", "homogeneous_poisson", "e_total", "e_ionic", "e_electronic", "n", "e_ij_max", "weighted_surface_energy_EV_PER_ANG2", "weighted_surface_energy", "weighted_work_function", "surface_anisotropy", "shape_factor", "has_reconstructed", "possible_species", "has_props", "theoretical", "database_IDs"]}