{
  "builder_meta": null,
  "nsites": null,
  "elements": null,
  "nelements": null,
  "composition": null,
  "composition_reduced": null,
  "formula_pretty": "Sm2Te3",
  "formula_anonymous": "A2B3",
  "chemsys": null,
  "volume": 641.5556993944723,
  "density": 7.076621181130209,
  "density_atomic": 32.077784969723616,
  "symmetry": null,
  "property_name": null,
  "material_id": "mp-1106376",
  "deprecated": null,
  "deprecation_reasons": null,
  "last_updated": null,
  "origins": null,
  "warnings": null,
  "structure": {
    "@module": "pymatgen.core.structure",
    "@class": "Structure",
    "charge": 0,
    "lattice": {
      "matrix": [
        [2.299999999999999e-7, 4.37848266, 7e-8],
        [9.23e-6, 2.1e-7, 12.00026808],
        [12.21011587, 6.4e-7, 7.48e-6]
      ],
      "pbc": [true, true, true],
      "a": 4.378482660000007,
      "b": 12.00026808000355,
      "c": 12.210115870002307,
      "alpha": 89.99992083119662,
      "beta": 89.99999398708422,
      "gamma": 89.99999808134065,
      "volume": 641.5556993944723
    },
    "properties": {},
    "sites": [
      {
        "species": [{ "element": "Sm", "occu": 1 }],
        "abc": [0.24999986000000002, 0.1878764, 0.483495399999999],
        "properties": { "magmom": 0.0 },
        "label": "Sm",
        "xyz": [5.903536648211126, 1.0946204009035279, 2.254570799950894]
      },
      {
        "species": [{ "element": "Sm", "occu": 1 }],
        "abc": [0.24999989, 0.312129899999999, 0.9834928900000001],
        "properties": { "magmom": -0.0 },
        "label": "Sm",
        "xyz": [12.008565082680116, 1.094620878349636, 3.7456498498103894]
      },
      {
        "species": [{ "element": "Sm", "occu": 1 }],
        "abc": [0.74999989, 0.8121196900000001, 0.51650583],
        "properties": { "magmom": -0.0 },
        "label": "Sm",
        "xyz": [6.306603700195235, 3.2838620144757735, 9.745657909010095]
      },
      {
        "species": [{ "element": "Sm", "occu": 1 }],
        "abc": [0.74999987, 0.68787361, 0.01649488],
        "properties": { "magmom": -0.0 },
        "label": "Sm",
        "xyz": [0.201410917635136, 3.283861580807436, 8.254667901039062]
      },
      {
        "species": [{ "element": "Sm", "occu": 1 }],
        "abc": [0.75000012, 0.50169917, 0.69583541],
        "properties": { "magmom": -0.0 },
        "label": "Sm",
        "xyz": [8.496235785732324, 3.283863071109408, 6.0205297928623684]
      },
      {
        "species": [{ "element": "Sm", "occu": 1 }],
        "abc": [0.75000004, 0.99828653, 0.19583647],
        "properties": { "magmom": -0.0 },
        "label": "Sm",
        "xyz": [2.39119537695646, 3.283862505114819, 11.97970749800976]
      },
      {
        "species": [{ "element": "Sm", "occu": 1 }],
        "abc": [0.25000009, 0.49830833, 0.30416726],
        "properties": { "magmom": 0.0 },
        "label": "Sm",
        "xyz": [3.7139221453463227, 1.0946213583752353, 5.979835839168217]
      },
      {
        "species": [{ "element": "Sm", "occu": 1 }],
        "abc": [0.24999986000000002, 0.0017088, 0.80417097],
        "properties": { "magmom": 0.0 },
        "label": "Sm",
        "xyz": [9.819020796262485, 1.0946205670406968, 0.0205120907939498]
      },
      {
        "species": [{ "element": "Te", "occu": 1 }],
        "abc": [0.24999997000000002, 0.62412102, 0.54294129],
        "properties": { "magmom": 0.0 },
        "label": "Te",
        "xyz": [6.62938187964428, 1.0946210121933602, 7.489623633063889]
      },
      {
        "species": [{ "element": "Te", "occu": 1 }],
        "abc": [0.24999989, 0.87588625, 0.042945699999999004],
        "properties": { "magmom": 0.0 },
        "label": "Te",
        "xyz": [0.524380115048309, 1.0946203947882682, 10.510870146319728]
      },
      {
        "species": [{ "element": "Te", "occu": 1 }],
        "abc": [0.74999992, 0.37592458, 0.45706317],
        "properties": { "magmom": -0.0 },
        "label": "Te",
        "xyz": [5.580797907893363, 3.2838620161859784, 4.511199209193912]
      },
      {
        "species": [{ "element": "Te", "occu": 1 }],
        "abc": [0.75000027, 0.12406921, 0.95705884],
        "properties": { "magmom": 0.0 },
        "label": "Te",
        "xyz": [11.68580064846666, 3.28386381576251, 1.4888709917739589]
      },
      {
        "species": [{ "element": "Te", "occu": 1 }],
        "abc": [0.74999985, 0.05623805, 0.61807961],
        "properties": { "magmom": -0.0 },
        "label": "Te",
        "xyz": [7.546824346561578, 3.283861745608542, 0.6748763520319162]
      },
      {
        "species": [{ "element": "Te", "occu": 1 }],
        "abc": [0.7499996800000001, 0.44377164, 0.11807534],
        "properties": { "magmom": -0.0 },
        "label": "Te",
        "xyz": [1.4417178513018092, 3.283860762645811, 5.325379582004772]
      },
      {
        "species": [{ "element": "Te", "occu": 1 }],
        "abc": [0.25000033, 0.9437654400000001, 0.38194732000000003],
        "properties": { "magmom": -0.0 },
        "label": "Te",
        "xyz": [4.663629801891056, 1.0946225525363051, 11.325441159105132]
      },
      {
        "species": [{ "element": "Te", "occu": 1 }],
        "abc": [0.2500001, 0.55623292, 0.881925299999999],
        "properties": { "magmom": -0.0 },
        "label": "Te",
        "xyz": [10.768415293214373, 1.0946217840893715, 6.674950769222445]
      },
      {
        "species": [{ "element": "Te", "occu": 1 }],
        "abc": [0.25000017, 0.30428996, 0.7246614],
        "properties": { "magmom": -0.0 },
        "label": "Te",
        "xyz": [8.848202526612788, 1.09462193702624, 3.651566532019761]
      },
      {
        "species": [{ "element": "Te", "occu": 1 }],
        "abc": [0.24999967, 0.19570832, 0.22467199000000002],
        "properties": { "magmom": -0.0 },
        "label": "Te",
        "xyz": [2.7432728945311986, 1.0946194049895432, 2.3485540035328873]
      },
      {
        "species": [{ "element": "Te", "occu": 1 }],
        "abc": [0.75000038, 0.69571814, 0.27530975],
        "properties": { "magmom": -0.0 },
        "label": "Te",
        "xyz": [3.361570541619252, 3.2838639811224604, 8.348806299935928]
      },
      {
        "species": [{ "element": "Te", "occu": 1 }],
        "abc": [0.75000016, 0.80427002, 0.7753232],
        "properties": { "magmom": -0.0 },
        "label": "Te",
        "xyz": [9.466793704611506, 3.2838633606607783, 9.651461700624509]
      }
    ]
  },
  "task_ids": null,
  "uncorrected_energy_per_atom": null,
  "energy_per_atom": -28.8441749665,
  "formation_energy_per_atom": -1.700670652499997,
  "energy_above_hull": 0.0,
  "is_stable": true,
  "equilibrium_reaction_energy_per_atom": null,
  "decomposes_to": null,
  "xas": null,
  "grain_boundaries": null,
  "band_gap": 0.5334000000000001,
  "cbm": null,
  "vbm": null,
  "efermi": 5.46326586,
  "is_gap_direct": null,
  "is_metal": null,
  "es_source_calc_id": null,
  "bandstructure": null,
  "dos": null,
  "dos_energy_up": null,
  "dos_energy_down": null,
  "is_magnetic": null,
  "ordering": null,
  "total_magnetization": 0.0,
  "total_magnetization_normalized_vol": null,
  "total_magnetization_normalized_formula_units": null,
  "num_magnetic_sites": null,
  "num_unique_magnetic_sites": null,
  "types_of_magnetic_species": null,
  "bulk_modulus": null,
  "shear_modulus": null,
  "universal_anisotropy": null,
  "homogeneous_poisson": null,
  "e_total": null,
  "e_ionic": null,
  "e_electronic": null,
  "n": null,
  "e_ij_max": null,
  "weighted_surface_energy_EV_PER_ANG2": null,
  "weighted_surface_energy": null,
  "weighted_work_function": null,
  "surface_anisotropy": null,
  "shape_factor": null,
  "has_reconstructed": null,
  "possible_species": null,
  "has_props": null,
  "theoretical": null,
  "database_IDs": null,
  "fields_not_requested": [
    "builder_meta",
    "nsites",
    "elements",
    "nelements",
    "composition",
    "composition_reduced",
    "chemsys",
    "symmetry",
    "property_name",
    "deprecated",
    "deprecation_reasons",
    "last_updated",
    "origins",
    "warnings",
    "task_ids",
    "uncorrected_energy_per_atom",
    "equilibrium_reaction_energy_per_atom",
    "decomposes_to",
    "xas",
    "grain_boundaries",
    "cbm",
    "vbm",
    "is_gap_direct",
    "is_metal",
    "es_source_calc_id",
    "bandstructure",
    "dos",
    "dos_energy_up",
    "dos_energy_down",
    "is_magnetic",
    "ordering",
    "total_magnetization_normalized_vol",
    "total_magnetization_normalized_formula_units",
    "num_magnetic_sites",
    "num_unique_magnetic_sites",
    "types_of_magnetic_species",
    "bulk_modulus",
    "shear_modulus",
    "universal_anisotropy",
    "homogeneous_poisson",
    "e_total",
    "e_ionic",
    "e_electronic",
    "n",
    "e_ij_max",
    "weighted_surface_energy_EV_PER_ANG2",
    "weighted_surface_energy",
    "weighted_work_function",
    "surface_anisotropy",
    "shape_factor",
    "has_reconstructed",
    "possible_species",
    "has_props",
    "theoretical",
    "database_IDs"
  ]
}
