{"builder_meta": null, "nsites": null, "elements": null, "nelements": null, "composition": null, "composition_reduced": null, "formula_pretty": "Sm2Tl", "formula_anonymous": "AB2", "chemsys": null, "volume": 178.77412528971388, "density": 9.383279162567252, "density_atomic": 29.795687548285645, "symmetry": null, "property_name": null, "material_id": "mp-319", "deprecated": null, "deprecation_reasons": null, "last_updated": null, "origins": null, "warnings": null, "structure": {"@module": "pymatgen.core.structure", "@class": "Structure", "charge": 0, "lattice": {"matrix": [[5.4979087700000004, -1e-08, -0.0], [-2.7489549, 4.76132825, -0.0], [0.0, -0.0, 6.82934433]], "pbc": [true, true, true], "a": 5.4979087700000004, "b": 5.497908670256543, "c": 6.82934433, "alpha": 90.0, "beta": 90.0, "gamma": 120.00000690163733, "volume": 178.7741252897139}, "properties": {}, "sites": [{"species": [{"element": "Sm", "occu": 1}], "abc": [-0.0, -0.0, -0.0], "properties": {"magmom": 0.371}, "label": "Sm", "xyz": [0.0, 0.0, 0.0]}, {"species": [{"element": "Sm", "occu": 1}], "abc": [-0.0, -0.0, 0.5], "properties": {"magmom": 0.371}, "label": "Sm", "xyz": [0.0, 0.0, 3.414672165]}, {"species": [{"element": "Sm", "occu": 1}], "abc": [0.333333, 0.666667, 0.75004983], "properties": {"magmom": 0.197}, "label": "Sm", "xyz": [-3.092287890194001e-06, 3.17422041710942, 5.122348553727964]}, {"species": [{"element": "Sm", "occu": 1}], "abc": [0.666667, 0.333333, 0.24995017], "properties": {"magmom": 0.197}, "label": "Sm", "xyz": [2.7489569622878904, 1.58710782289058, 1.706995776272036]}, {"species": [{"element": "Tl", "occu": 1}], "abc": [0.333333, 0.666667, 0.24998438], "properties": {"magmom": -0.033}, "label": "Tl", "xyz": [-3.092287890194001e-06, 3.17422041710942, 1.7072294081415653]}, {"species": [{"element": "Tl", "occu": 1}], "abc": [0.666667, 0.333333, 0.75001562], "properties": {"magmom": -0.033}, "label": "Tl", "xyz": [2.7489569622878904, 1.58710782289058, 5.122114921858434]}]}, "task_ids": null, "uncorrected_energy_per_atom": null, "energy_per_atom": -4.200699661666671, "formation_energy_per_atom": -0.26448486611111804, "energy_above_hull": 0.013962857777772002, "is_stable": false, "equilibrium_reaction_energy_per_atom": null, "decomposes_to": null, "xas": null, "grain_boundaries": null, "band_gap": 0.0, "cbm": null, "vbm": null, "efermi": 4.48056465, "is_gap_direct": null, "is_metal": null, "es_source_calc_id": null, "bandstructure": null, "dos": null, "dos_energy_up": null, "dos_energy_down": null, "is_magnetic": null, "ordering": null, "total_magnetization": 1.955946599999999, "total_magnetization_normalized_vol": null, "total_magnetization_normalized_formula_units": null, "num_magnetic_sites": null, "num_unique_magnetic_sites": null, "types_of_magnetic_species": null, "bulk_modulus": null, "shear_modulus": null, "universal_anisotropy": null, "homogeneous_poisson": null, "e_total": null, "e_ionic": null, "e_electronic": null, "n": null, "e_ij_max": null, "weighted_surface_energy_EV_PER_ANG2": null, "weighted_surface_energy": null, "weighted_work_function": null, "surface_anisotropy": null, "shape_factor": null, "has_reconstructed": null, "possible_species": null, "has_props": null, "theoretical": null, "database_IDs": null, "fields_not_requested": ["builder_meta", "nsites", "elements", "nelements", "composition", "composition_reduced", "chemsys", "symmetry", "property_name", "deprecated", "deprecation_reasons", "last_updated", "origins", "warnings", "task_ids", "uncorrected_energy_per_atom", "equilibrium_reaction_energy_per_atom", "decomposes_to", "xas", "grain_boundaries", "cbm", "vbm", "is_gap_direct", "is_metal", "es_source_calc_id", "bandstructure", "dos", "dos_energy_up", "dos_energy_down", "is_magnetic", "ordering", "total_magnetization_normalized_vol", "total_magnetization_normalized_formula_units", "num_magnetic_sites", "num_unique_magnetic_sites", "types_of_magnetic_species", "bulk_modulus", "shear_modulus", "universal_anisotropy", "homogeneous_poisson", "e_total", "e_ionic", "e_electronic", "n", "e_ij_max", "weighted_surface_energy_EV_PER_ANG2", "weighted_surface_energy", "weighted_work_function", "surface_anisotropy", "shape_factor", "has_reconstructed", "possible_species", "has_props", "theoretical", "database_IDs"]}