{
  "builder_meta": null,
  "nsites": null,
  "elements": null,
  "nelements": null,
  "composition": null,
  "composition_reduced": null,
  "formula_pretty": "Sm2Te5",
  "formula_anonymous": "A2B5",
  "chemsys": null,
  "volume": 431.5520368766297,
  "density": 7.224070792854906,
  "density_atomic": 30.825145491187836,
  "symmetry": null,
  "property_name": null,
  "material_id": "mp-1104531",
  "deprecated": null,
  "deprecation_reasons": null,
  "last_updated": null,
  "origins": null,
  "warnings": null,
  "structure": {
    "@module": "pymatgen.core.structure",
    "@class": "Structure",
    "charge": 0,
    "lattice": {
      "matrix": [
        [2.20753, -22.130027, 0.0],
        [2.20753, 22.130027, 0.0],
        [0.0, 0.0, 4.41687]
      ],
      "pbc": [true, true, true],
      "a": 22.239857996885434,
      "b": 22.239857996885434,
      "c": 4.41687,
      "alpha": 90.0,
      "beta": 90.0,
      "gamma": 168.60687203941072,
      "volume": 431.5520368766297
    },
    "properties": {},
    "sites": [
      {
        "species": [{ "element": "Sm", "occu": 1 }],
        "abc": [0.098345999999999, 0.901654, 0.75],
        "properties": { "magmom": -0.0 },
        "label": "Sm",
        "xyz": [2.207529999999998, 17.77722772931602, 3.3126525000000004]
      },
      {
        "species": [{ "element": "Sm", "occu": 1 }],
        "abc": [0.901654, 0.098345999999999, 0.25],
        "properties": { "magmom": -0.0 },
        "label": "Sm",
        "xyz": [2.207529999999998, -17.77722772931602, 1.1042175]
      },
      {
        "species": [{ "element": "Sm", "occu": 1 }],
        "abc": [0.306724, 0.693276, 0.75],
        "properties": { "magmom": 0.0 },
        "label": "Sm",
        "xyz": [2.20753, 8.554406196904, 3.3126525000000004]
      },
      {
        "species": [{ "element": "Sm", "occu": 1 }],
        "abc": [0.693276, 0.306724, 0.25],
        "properties": { "magmom": 0.0 },
        "label": "Sm",
        "xyz": [2.20753, -8.554406196904, 1.1042175]
      },
      {
        "species": [{ "element": "Te", "occu": 1 }],
        "abc": [0.957959, 0.042040999999999, 0.75],
        "properties": { "magmom": -0.002 },
        "label": "Te",
        "xyz": [2.207529999999998, -20.26929006978602, 3.3126525000000004]
      },
      {
        "species": [{ "element": "Te", "occu": 1 }],
        "abc": [0.042040999999999, 0.957959, 0.25],
        "properties": { "magmom": -0.002 },
        "label": "Te",
        "xyz": [2.207529999999998, 20.26929006978602, 1.1042175]
      },
      {
        "species": [{ "element": "Te", "occu": 1 }],
        "abc": [0.542491, 0.457509, 0.75],
        "properties": { "magmom": -0.0 },
        "label": "Te",
        "xyz": [2.20753, -1.880653954513999, 3.3126525000000004]
      },
      {
        "species": [{ "element": "Te", "occu": 1 }],
        "abc": [0.457509, 0.542491, 0.25],
        "properties": { "magmom": -0.0 },
        "label": "Te",
        "xyz": [2.20753, 1.880653954513999, 1.1042175]
      },
      {
        "species": [{ "element": "Te", "occu": 1 }],
        "abc": [0.7499300000000001, 0.25007, 0.75],
        "properties": { "magmom": 0.002 },
        "label": "Te",
        "xyz": [2.20753, -11.06191529622, 3.3126525000000004]
      },
      {
        "species": [{ "element": "Te", "occu": 1 }],
        "abc": [0.25007, 0.7499300000000001, 0.25],
        "properties": { "magmom": 0.002 },
        "label": "Te",
        "xyz": [2.20753, 11.06191529622, 1.1042175]
      },
      {
        "species": [{ "element": "Te", "occu": 1 }],
        "abc": [0.172907999999999, 0.827091999999999, 0.75],
        "properties": { "magmom": 0.001 },
        "label": "Te",
        "xyz": [2.2075299999999958, 14.477109582968, 3.3126525000000004]
      },
      {
        "species": [{ "element": "Te", "occu": 1 }],
        "abc": [0.827091999999999, 0.172907999999999, 0.25],
        "properties": { "magmom": 0.001 },
        "label": "Te",
        "xyz": [2.2075299999999958, -14.477109582968, 1.1042175]
      },
      {
        "species": [{ "element": "Te", "occu": 1 }],
        "abc": [0.379768, 0.620232, 0.75],
        "properties": { "magmom": -0.0 },
        "label": "Te",
        "xyz": [2.20753, 5.321474812527999, 3.3126525000000004]
      },
      {
        "species": [{ "element": "Te", "occu": 1 }],
        "abc": [0.620232, 0.379768, 0.25],
        "properties": { "magmom": -0.0 },
        "label": "Te",
        "xyz": [2.20753, -5.321474812527999, 1.1042175]
      }
    ]
  },
  "task_ids": null,
  "uncorrected_energy_per_atom": null,
  "energy_per_atom": -27.865245681428576,
  "formation_energy_per_atom": -1.214964225714291,
  "energy_above_hull": 0.041318263928566,
  "is_stable": false,
  "equilibrium_reaction_energy_per_atom": null,
  "decomposes_to": null,
  "xas": null,
  "grain_boundaries": null,
  "band_gap": 0.0,
  "cbm": null,
  "vbm": null,
  "efermi": 5.74526392,
  "is_gap_direct": null,
  "is_metal": null,
  "es_source_calc_id": null,
  "bandstructure": null,
  "dos": null,
  "dos_energy_up": null,
  "dos_energy_down": null,
  "is_magnetic": null,
  "ordering": null,
  "total_magnetization": 0.0010017,
  "total_magnetization_normalized_vol": null,
  "total_magnetization_normalized_formula_units": null,
  "num_magnetic_sites": null,
  "num_unique_magnetic_sites": null,
  "types_of_magnetic_species": null,
  "bulk_modulus": null,
  "shear_modulus": null,
  "universal_anisotropy": null,
  "homogeneous_poisson": null,
  "e_total": null,
  "e_ionic": null,
  "e_electronic": null,
  "n": null,
  "e_ij_max": null,
  "weighted_surface_energy_EV_PER_ANG2": null,
  "weighted_surface_energy": null,
  "weighted_work_function": null,
  "surface_anisotropy": null,
  "shape_factor": null,
  "has_reconstructed": null,
  "possible_species": null,
  "has_props": null,
  "theoretical": null,
  "database_IDs": null,
  "fields_not_requested": [
    "builder_meta",
    "nsites",
    "elements",
    "nelements",
    "composition",
    "composition_reduced",
    "chemsys",
    "symmetry",
    "property_name",
    "deprecated",
    "deprecation_reasons",
    "last_updated",
    "origins",
    "warnings",
    "task_ids",
    "uncorrected_energy_per_atom",
    "equilibrium_reaction_energy_per_atom",
    "decomposes_to",
    "xas",
    "grain_boundaries",
    "cbm",
    "vbm",
    "is_gap_direct",
    "is_metal",
    "es_source_calc_id",
    "bandstructure",
    "dos",
    "dos_energy_up",
    "dos_energy_down",
    "is_magnetic",
    "ordering",
    "total_magnetization_normalized_vol",
    "total_magnetization_normalized_formula_units",
    "num_magnetic_sites",
    "num_unique_magnetic_sites",
    "types_of_magnetic_species",
    "bulk_modulus",
    "shear_modulus",
    "universal_anisotropy",
    "homogeneous_poisson",
    "e_total",
    "e_ionic",
    "e_electronic",
    "n",
    "e_ij_max",
    "weighted_surface_energy_EV_PER_ANG2",
    "weighted_surface_energy",
    "weighted_work_function",
    "surface_anisotropy",
    "shape_factor",
    "has_reconstructed",
    "possible_species",
    "has_props",
    "theoretical",
    "database_IDs"
  ]
}
