{"builder_meta": null, "nsites": null, "elements": null, "nelements": null, "composition": null, "composition_reduced": null, "formula_pretty": "Sm3Au", "formula_anonymous": "AB3", "chemsys": null, "volume": 224.9970536625741, "density": 9.565517657083806, "density_atomic": 28.124631707821763, "symmetry": null, "property_name": null, "material_id": "mp-1005762", "deprecated": null, "deprecation_reasons": null, "last_updated": null, "origins": null, "warnings": null, "structure": {"@module": "pymatgen.core.structure", "@class": "Structure", "charge": 0, "lattice": {"matrix": [[3.514033, -6.086484, 0.0], [3.514033, 6.086484, 0.0], [0.0, 0.0, 5.259864]], "pbc": [true, true, true], "a": 7.028066263727526, "b": 7.028066263727526, "c": 5.259864, "alpha": 90.0, "beta": 90.0, "gamma": 120.0000024826278, "volume": 224.9970536625741}, "properties": {}, "sites": [{"species": [{"element": "Sm", "occu": 1}], "abc": [0.177237999999999, 0.354475, 0.25], "properties": {"magmom": 0.001}, "label": "Sm", "xyz": [1.8684570285289963, 1.078750164708006, 1.314966]}, {"species": [{"element": "Sm", "occu": 1}], "abc": [0.645525, 0.822762, 0.25], "properties": {"magmom": 0.001}, "label": "Sm", "xyz": [5.159608971471, 1.078750164708, 1.314966]}, {"species": [{"element": "Sm", "occu": 1}], "abc": [0.177237999999999, 0.822762, 0.25], "properties": {"magmom": -0.002}, "label": "Sm", "xyz": [3.5140329999999964, 3.928971497616006, 1.314966]}, {"species": [{"element": "Sm", "occu": 1}], "abc": [0.822762, 0.645525, 0.75], "properties": {"magmom": 0.001}, "label": "Sm", "xyz": [5.159608971471, -1.078750164708, 3.9448980000000002]}, {"species": [{"element": "Sm", "occu": 1}], "abc": [0.354475, 0.177237999999999, 0.75], "properties": {"magmom": 0.001}, "label": "Sm", "xyz": [1.8684570285289963, -1.078750164708006, 3.9448980000000002]}, {"species": [{"element": "Sm", "occu": 1}], "abc": [0.822762, 0.177237999999999, 0.75], "properties": {"magmom": -0.002}, "label": "Sm", "xyz": [3.5140329999999964, -3.928971497616006, 3.9448980000000002]}, {"species": [{"element": "Au", "occu": 1}], "abc": [0.333333, 0.666667, 0.75], "properties": {"magmom": -0.0}, "label": "Au", "xyz": [3.5140330000000004, 2.028832057656, 3.9448980000000002]}, {"species": [{"element": "Au", "occu": 1}], "abc": [0.666667, 0.333333, 0.25], "properties": {"magmom": -0.0}, "label": "Au", "xyz": [3.5140330000000004, -2.028832057656, 1.314966]}]}, "task_ids": null, "uncorrected_energy_per_atom": null, "energy_per_atom": -4.59426170875, "formation_energy_per_atom": -0.236851607500001, "energy_above_hull": 0.19695613812499901, "is_stable": false, "equilibrium_reaction_energy_per_atom": null, "decomposes_to": null, "xas": null, "grain_boundaries": null, "band_gap": 0.0, "cbm": null, "vbm": null, "efermi": 3.82307301, "is_gap_direct": null, "is_metal": null, "es_source_calc_id": null, "bandstructure": null, "dos": null, "dos_energy_up": null, "dos_energy_down": null, "is_magnetic": null, "ordering": null, "total_magnetization": 0.0004009, "total_magnetization_normalized_vol": null, "total_magnetization_normalized_formula_units": null, "num_magnetic_sites": null, "num_unique_magnetic_sites": null, "types_of_magnetic_species": null, "bulk_modulus": null, "shear_modulus": null, "universal_anisotropy": null, "homogeneous_poisson": null, "e_total": null, "e_ionic": null, "e_electronic": null, "n": null, "e_ij_max": null, "weighted_surface_energy_EV_PER_ANG2": null, "weighted_surface_energy": null, "weighted_work_function": null, "surface_anisotropy": null, "shape_factor": null, "has_reconstructed": null, "possible_species": null, "has_props": null, "theoretical": null, "database_IDs": null, "fields_not_requested": ["builder_meta", "nsites", "elements", "nelements", "composition", "composition_reduced", "chemsys", "symmetry", "property_name", "deprecated", "deprecation_reasons", "last_updated", "origins", "warnings", "task_ids", "uncorrected_energy_per_atom", "equilibrium_reaction_energy_per_atom", "decomposes_to", "xas", "grain_boundaries", "cbm", "vbm", "is_gap_direct", "is_metal", "es_source_calc_id", "bandstructure", "dos", "dos_energy_up", "dos_energy_down", "is_magnetic", "ordering", "total_magnetization_normalized_vol", "total_magnetization_normalized_formula_units", "num_magnetic_sites", "num_unique_magnetic_sites", "types_of_magnetic_species", "bulk_modulus", "shear_modulus", "universal_anisotropy", "homogeneous_poisson", "e_total", "e_ionic", "e_electronic", "n", "e_ij_max", "weighted_surface_energy_EV_PER_ANG2", "weighted_surface_energy", "weighted_work_function", "surface_anisotropy", "shape_factor", "has_reconstructed", "possible_species", "has_props", "theoretical", "database_IDs"]}