{
  "builder_meta": null,
  "nsites": null,
  "elements": null,
  "nelements": null,
  "composition": null,
  "composition_reduced": null,
  "formula_pretty": "Sm3Al",
  "formula_anonymous": "AB3",
  "chemsys": null,
  "volume": 226.05672603447374,
  "density": 7.023368647417667,
  "density_atomic": 28.257090754309218,
  "symmetry": null,
  "property_name": null,
  "material_id": "mp-979266",
  "deprecated": null,
  "deprecation_reasons": null,
  "last_updated": null,
  "origins": null,
  "warnings": null,
  "structure": {
    "@module": "pymatgen.core.structure",
    "@class": "Structure",
    "charge": 0,
    "lattice": {
      "matrix": [
        [7.0188055, 6.329999999999999e-6, -0.0],
        [-3.50939594, 6.07845294, 0.0],
        [-0.0, -0.0, 5.29859763]
      ],
      "pbc": [true, true, true],
      "a": 7.018805500002855,
      "b": 7.018792631748222,
      "c": 5.29859763,
      "alpha": 90.0,
      "beta": 90.0,
      "gamma": 119.99994478405758,
      "volume": 226.05672603447374
    },
    "properties": {},
    "sites": [
      {
        "species": [{ "element": "Sm", "occu": 1 }],
        "abc": [0.82186286, 0.17813814, 0.75],
        "properties": { "magmom": -0.001 },
        "label": "Sm",
        "xyz": [5.143338296738578, 1.0828095032010354, 3.9739482225]
      },
      {
        "species": [{ "element": "Sm", "occu": 1 }],
        "abc": [0.35627528, 0.17813814, 0.75],
        "properties": { "magmom": -0.001 },
        "label": "Sm",
        "xyz": [1.8754696295028885, 1.0828065560316542, 3.9739482225]
      },
      {
        "species": [{ "element": "Sm", "occu": 1 }],
        "abc": [0.82186286, 0.64372472, 0.75],
        "properties": { "magmom": -0.001 },
        "label": "Sm",
        "xyz": [3.5094106431680925, 3.912855619226581, 3.9739482225]
      },
      {
        "species": [{ "element": "Sm", "occu": 1 }],
        "abc": [0.17813714, 0.82186186, 0.249998],
        "properties": { "magmom": -0.001 },
        "label": "Sm",
        "xyz": [-1.6339287367385786, 4.995649766798964, 1.32463881030474]
      },
      {
        "species": [{ "element": "Sm", "occu": 1 }],
        "abc": [0.64372372, 0.82186186, 0.249998],
        "properties": { "magmom": -0.001 },
        "label": "Sm",
        "xyz": [1.6339329116916113, 4.9956527139620155, 1.32463881030474]
      },
      {
        "species": [{ "element": "Sm", "occu": 1 }],
        "abc": [0.17813614, 0.35627328, 0.249998],
        "properties": { "magmom": -0.001 },
        "label": "Sm",
        "xyz": [-1.0831817134349109e-6, 2.1655914938612097, 1.32463881030474]
      },
      {
        "species": [{ "element": "Al", "occu": 1 }],
        "abc": [0.666667, 0.333333999999999, 0.249998],
        "properties": { "magmom": 0.0 },
        "label": "Al",
        "xyz": [3.5094050200045435, 2.026159252304064, 1.32463881030474]
      },
      {
        "species": [{ "element": "Al", "occu": 1 }],
        "abc": [0.333333999999999, 0.666667999999999, 0.75],
        "properties": { "magmom": 0.0 },
        "label": "Al",
        "xyz": [4.540009076237084e-6, 4.052312174608135, 3.9739482225]
      }
    ]
  },
  "task_ids": null,
  "uncorrected_energy_per_atom": null,
  "energy_per_atom": -24.2204614125,
  "formation_energy_per_atom": -0.23774359,
  "energy_above_hull": 0.0,
  "is_stable": true,
  "equilibrium_reaction_energy_per_atom": null,
  "decomposes_to": null,
  "xas": null,
  "grain_boundaries": null,
  "band_gap": 0.0,
  "cbm": null,
  "vbm": null,
  "efermi": 3.85768724,
  "is_gap_direct": null,
  "is_metal": null,
  "es_source_calc_id": null,
  "bandstructure": null,
  "dos": null,
  "dos_energy_up": null,
  "dos_energy_down": null,
  "is_magnetic": null,
  "ordering": null,
  "total_magnetization": 0.007735799999999001,
  "total_magnetization_normalized_vol": null,
  "total_magnetization_normalized_formula_units": null,
  "num_magnetic_sites": null,
  "num_unique_magnetic_sites": null,
  "types_of_magnetic_species": null,
  "bulk_modulus": null,
  "shear_modulus": null,
  "universal_anisotropy": null,
  "homogeneous_poisson": null,
  "e_total": null,
  "e_ionic": null,
  "e_electronic": null,
  "n": null,
  "e_ij_max": null,
  "weighted_surface_energy_EV_PER_ANG2": null,
  "weighted_surface_energy": null,
  "weighted_work_function": null,
  "surface_anisotropy": null,
  "shape_factor": null,
  "has_reconstructed": null,
  "possible_species": null,
  "has_props": null,
  "theoretical": null,
  "database_IDs": null,
  "fields_not_requested": [
    "builder_meta",
    "nsites",
    "elements",
    "nelements",
    "composition",
    "composition_reduced",
    "chemsys",
    "symmetry",
    "property_name",
    "deprecated",
    "deprecation_reasons",
    "last_updated",
    "origins",
    "warnings",
    "task_ids",
    "uncorrected_energy_per_atom",
    "equilibrium_reaction_energy_per_atom",
    "decomposes_to",
    "xas",
    "grain_boundaries",
    "cbm",
    "vbm",
    "is_gap_direct",
    "is_metal",
    "es_source_calc_id",
    "bandstructure",
    "dos",
    "dos_energy_up",
    "dos_energy_down",
    "is_magnetic",
    "ordering",
    "total_magnetization_normalized_vol",
    "total_magnetization_normalized_formula_units",
    "num_magnetic_sites",
    "num_unique_magnetic_sites",
    "types_of_magnetic_species",
    "bulk_modulus",
    "shear_modulus",
    "universal_anisotropy",
    "homogeneous_poisson",
    "e_total",
    "e_ionic",
    "e_electronic",
    "n",
    "e_ij_max",
    "weighted_surface_energy_EV_PER_ANG2",
    "weighted_surface_energy",
    "weighted_work_function",
    "surface_anisotropy",
    "shape_factor",
    "has_reconstructed",
    "possible_species",
    "has_props",
    "theoretical",
    "database_IDs"
  ]
}
