{
  "builder_meta": null,
  "nsites": null,
  "elements": null,
  "nelements": null,
  "composition": null,
  "composition_reduced": null,
  "formula_pretty": "Sm3Co",
  "formula_anonymous": "AB3",
  "chemsys": null,
  "volume": 432.39759368866953,
  "density": 7.8344268991354085,
  "density_atomic": 27.024849605541846,
  "symmetry": null,
  "property_name": null,
  "material_id": "mp-980752",
  "deprecated": null,
  "deprecation_reasons": null,
  "last_updated": null,
  "origins": null,
  "warnings": null,
  "structure": {
    "@module": "pymatgen.core.structure",
    "@class": "Structure",
    "charge": 0,
    "lattice": {
      "matrix": [
        [6.95320922, 0.0, -0.0],
        [0.0, 9.74406005, 0.0],
        [-0.0, 0.0, 6.38201792]
      ],
      "pbc": [true, true, true],
      "a": 6.95320922,
      "b": 9.74406005,
      "c": 6.38201792,
      "alpha": 90.0,
      "beta": 90.0,
      "gamma": 90.0,
      "volume": 432.39759368866953
    },
    "properties": {},
    "sites": [
      {
        "species": [{ "element": "Sm", "occu": 1 }],
        "abc": [0.45181001, 0.75, 0.14361627],
        "properties": { "magmom": -0.0 },
        "label": "Sm",
        "xyz": [3.141529527220292, 7.3080450374999995, 0.9165616087435583]
      },
      {
        "species": [{ "element": "Sm", "occu": 1 }],
        "abc": [0.1675934, 0.07011495, 0.18023414000000001],
        "properties": { "magmom": -0.0 },
        "label": "Sm",
        "xyz": [1.165311974091148, 0.6832042832027474, 1.150257511275789]
      },
      {
        "species": [{ "element": "Sm", "occu": 1 }],
        "abc": [0.1675934, 0.42988505, 0.18023414000000001],
        "properties": { "magmom": -0.0 },
        "label": "Sm",
        "xyz": [1.165311974091148, 4.1888257417972525, 1.150257511275789]
      },
      {
        "species": [{ "element": "Sm", "occu": 1 }],
        "abc": [0.6675924, 0.07011495, 0.31976586],
        "properties": { "magmom": -0.0 },
        "label": "Sm",
        "xyz": [4.641909630881928, 0.6832042832027474, 2.0407514487242113]
      },
      {
        "species": [{ "element": "Sm", "occu": 1 }],
        "abc": [0.6675924, 0.42988505, 0.31976586],
        "properties": { "magmom": -0.0 },
        "label": "Sm",
        "xyz": [4.641909630881928, 4.1888257417972525, 2.0407514487242113]
      },
      {
        "species": [{ "element": "Sm", "occu": 1 }],
        "abc": [0.9518090100000001, 0.75, 0.35638373],
        "properties": { "magmom": -0.0 },
        "label": "Sm",
        "xyz": [6.6181271840110725, 7.3080450374999995, 2.2744473512564416]
      },
      {
        "species": [{ "element": "Sm", "occu": 1 }],
        "abc": [0.04819099, 0.25, 0.64361627],
        "properties": { "magmom": -0.0 },
        "label": "Sm",
        "xyz": [0.33508203598892783, 2.4360150125, 4.107570568743558]
      },
      {
        "species": [{ "element": "Sm", "occu": 1 }],
        "abc": [0.332407599999999, 0.57011495, 0.68023514],
        "properties": { "magmom": -0.0 },
        "label": "Sm",
        "xyz": [2.311299589118065, 5.555234308202747, 4.341272853293709]
      },
      {
        "species": [{ "element": "Sm", "occu": 1 }],
        "abc": [0.332407599999999, 0.92988505, 0.68023514],
        "properties": { "magmom": -0.0 },
        "label": "Sm",
        "xyz": [2.311299589118065, 9.060855766797252, 4.341272853293709]
      },
      {
        "species": [{ "element": "Sm", "occu": 1 }],
        "abc": [0.832407599999999, 0.57011495, 0.8197658600000001],
        "properties": { "magmom": -0.0 },
        "label": "Sm",
        "xyz": [5.787904199118065, 5.555234308202747, 5.231760408724211]
      },
      {
        "species": [{ "element": "Sm", "occu": 1 }],
        "abc": [0.832407599999999, 0.92988505, 0.8197658600000001],
        "properties": { "magmom": -0.0 },
        "label": "Sm",
        "xyz": [5.787904199118065, 9.060855766797252, 5.231760408724211]
      },
      {
        "species": [{ "element": "Sm", "occu": 1 }],
        "abc": [0.54819099, 0.25, 0.85638373],
        "properties": { "magmom": -0.0 },
        "label": "Sm",
        "xyz": [3.811686645988928, 2.4360150125, 5.465456311256442]
      },
      {
        "species": [{ "element": "Co", "occu": 1 }],
        "abc": [0.88818891, 0.25, 0.04859303],
        "properties": { "magmom": -0.0 },
        "label": "Co",
        "xyz": [6.17576331811375, 2.4360150125, 0.3101215882470976]
      },
      {
        "species": [{ "element": "Co", "occu": 1 }],
        "abc": [0.38818891, 0.25, 0.45140697],
        "properties": { "magmom": -0.0 },
        "label": "Co",
        "xyz": [2.69915870811375, 2.4360150125, 2.8808873717529027]
      },
      {
        "species": [{ "element": "Co", "occu": 1 }],
        "abc": [0.61181109, 0.75, 0.5485940300000001],
        "properties": { "magmom": -0.0 },
        "label": "Co",
        "xyz": [4.254050511886249, 7.3080450374999995, 3.501136930265018]
      },
      {
        "species": [{ "element": "Co", "occu": 1 }],
        "abc": [0.11181009, 0.75, 0.9514069700000001],
        "properties": { "magmom": -0.0 },
        "label": "Co",
        "xyz": [0.7774389486770298, 7.3080450374999995, 6.071896331752903]
      }
    ]
  },
  "task_ids": null,
  "uncorrected_energy_per_atom": null,
  "energy_per_atom": -5.414662080625,
  "formation_energy_per_atom": -0.092368299375,
  "energy_above_hull": 0.0,
  "is_stable": true,
  "equilibrium_reaction_energy_per_atom": null,
  "decomposes_to": null,
  "xas": null,
  "grain_boundaries": null,
  "band_gap": 0.0,
  "cbm": null,
  "vbm": null,
  "efermi": 3.35577199,
  "is_gap_direct": null,
  "is_metal": null,
  "es_source_calc_id": null,
  "bandstructure": null,
  "dos": null,
  "dos_energy_up": null,
  "dos_energy_down": null,
  "is_magnetic": null,
  "ordering": null,
  "total_magnetization": 0.0009741,
  "total_magnetization_normalized_vol": null,
  "total_magnetization_normalized_formula_units": null,
  "num_magnetic_sites": null,
  "num_unique_magnetic_sites": null,
  "types_of_magnetic_species": null,
  "bulk_modulus": null,
  "shear_modulus": null,
  "universal_anisotropy": null,
  "homogeneous_poisson": null,
  "e_total": null,
  "e_ionic": null,
  "e_electronic": null,
  "n": null,
  "e_ij_max": null,
  "weighted_surface_energy_EV_PER_ANG2": null,
  "weighted_surface_energy": null,
  "weighted_work_function": null,
  "surface_anisotropy": null,
  "shape_factor": null,
  "has_reconstructed": null,
  "possible_species": null,
  "has_props": null,
  "theoretical": null,
  "database_IDs": null,
  "fields_not_requested": [
    "builder_meta",
    "nsites",
    "elements",
    "nelements",
    "composition",
    "composition_reduced",
    "chemsys",
    "symmetry",
    "property_name",
    "deprecated",
    "deprecation_reasons",
    "last_updated",
    "origins",
    "warnings",
    "task_ids",
    "uncorrected_energy_per_atom",
    "equilibrium_reaction_energy_per_atom",
    "decomposes_to",
    "xas",
    "grain_boundaries",
    "cbm",
    "vbm",
    "is_gap_direct",
    "is_metal",
    "es_source_calc_id",
    "bandstructure",
    "dos",
    "dos_energy_up",
    "dos_energy_down",
    "is_magnetic",
    "ordering",
    "total_magnetization_normalized_vol",
    "total_magnetization_normalized_formula_units",
    "num_magnetic_sites",
    "num_unique_magnetic_sites",
    "types_of_magnetic_species",
    "bulk_modulus",
    "shear_modulus",
    "universal_anisotropy",
    "homogeneous_poisson",
    "e_total",
    "e_ionic",
    "e_electronic",
    "n",
    "e_ij_max",
    "weighted_surface_energy_EV_PER_ANG2",
    "weighted_surface_energy",
    "weighted_work_function",
    "surface_anisotropy",
    "shape_factor",
    "has_reconstructed",
    "possible_species",
    "has_props",
    "theoretical",
    "database_IDs"
  ]
}
