{
  "builder_meta": null,
  "nsites": null,
  "elements": null,
  "nelements": null,
  "composition": null,
  "composition_reduced": null,
  "formula_pretty": "Sm3Dy",
  "formula_anonymous": "AB3",
  "chemsys": null,
  "volume": 135.90041150081228,
  "density": 7.497207324337926,
  "density_atomic": 33.97510287520307,
  "symmetry": null,
  "property_name": null,
  "material_id": "mp-972502",
  "deprecated": null,
  "deprecation_reasons": null,
  "last_updated": null,
  "origins": null,
  "warnings": null,
  "structure": {
    "@module": "pymatgen.core.structure",
    "@class": "Structure",
    "charge": 0,
    "lattice": {
      "matrix": [
        [5.14126645, -0.00010046, 0.00010176],
        [-0.00010243000000000001, 5.14152029, 5.579e-5],
        [0.0001008, 5.2850000000000004e-5, 5.14113616]
      ],
      "pbc": [true, true, true],
      "a": 5.141266451988548,
      "b": 5.141520291322997,
      "c": 5.141136161259816,
      "alpha": 89.99878932216261,
      "beta": 89.99774259505882,
      "gamma": 90.00226099693573,
      "volume": 135.90041150081228
    },
    "properties": {},
    "sites": [
      {
        "species": [{ "element": "Sm", "occu": 1 }],
        "abc": [-1.031e-5, 0.50020453, 0.50018535],
        "properties": { "magmom": 0.012 },
        "label": "Sm",
        "xyz": [-5.382372382740001e-5, 2.5718381759764037, 2.5715488949488394]
      },
      {
        "species": [{ "element": "Sm", "occu": 1 }],
        "abc": [0.50008538, 0.99992493, 0.50017044],
        "properties": { "magmom": 0.012 },
        "label": "Sm",
        "xyz": [2.5710201811992732, 5.141110511502309, 2.5715510097472243]
      },
      {
        "species": [{ "element": "Sm", "occu": 1 }],
        "abc": [0.50009119, 0.5001966800000001, -2.699e-5],
        "properties": { "magmom": 0.012 },
        "label": "Sm",
        "xyz": [2.5710508192210506, 2.5717211386232686, -5.996401268680001e-5]
      },
      {
        "species": [{ "element": "Dy", "occu": 1 }],
        "abc": [0.99983575, 0.99967486, 0.99967421],
        "properties": { "magmom": 0.014 },
        "label": "Dy",
        "xyz": [5.140420367450045, 5.139800965375462, 5.139618744396793]
      }
    ]
  },
  "task_ids": null,
  "uncorrected_energy_per_atom": null,
  "energy_per_atom": -30.2922527375,
  "formation_energy_per_atom": 0.002891308750001,
  "energy_above_hull": 0.002891308750001,
  "is_stable": false,
  "equilibrium_reaction_energy_per_atom": null,
  "decomposes_to": null,
  "xas": null,
  "grain_boundaries": null,
  "band_gap": 0.0,
  "cbm": null,
  "vbm": null,
  "efermi": 3.27244537,
  "is_gap_direct": null,
  "is_metal": null,
  "es_source_calc_id": null,
  "bandstructure": null,
  "dos": null,
  "dos_energy_up": null,
  "dos_energy_down": null,
  "is_magnetic": null,
  "ordering": null,
  "total_magnetization": 0.1080728,
  "total_magnetization_normalized_vol": null,
  "total_magnetization_normalized_formula_units": null,
  "num_magnetic_sites": null,
  "num_unique_magnetic_sites": null,
  "types_of_magnetic_species": null,
  "bulk_modulus": null,
  "shear_modulus": null,
  "universal_anisotropy": null,
  "homogeneous_poisson": null,
  "e_total": null,
  "e_ionic": null,
  "e_electronic": null,
  "n": null,
  "e_ij_max": null,
  "weighted_surface_energy_EV_PER_ANG2": null,
  "weighted_surface_energy": null,
  "weighted_work_function": null,
  "surface_anisotropy": null,
  "shape_factor": null,
  "has_reconstructed": null,
  "possible_species": null,
  "has_props": null,
  "theoretical": null,
  "database_IDs": null,
  "fields_not_requested": [
    "builder_meta",
    "nsites",
    "elements",
    "nelements",
    "composition",
    "composition_reduced",
    "chemsys",
    "symmetry",
    "property_name",
    "deprecated",
    "deprecation_reasons",
    "last_updated",
    "origins",
    "warnings",
    "task_ids",
    "uncorrected_energy_per_atom",
    "equilibrium_reaction_energy_per_atom",
    "decomposes_to",
    "xas",
    "grain_boundaries",
    "cbm",
    "vbm",
    "is_gap_direct",
    "is_metal",
    "es_source_calc_id",
    "bandstructure",
    "dos",
    "dos_energy_up",
    "dos_energy_down",
    "is_magnetic",
    "ordering",
    "total_magnetization_normalized_vol",
    "total_magnetization_normalized_formula_units",
    "num_magnetic_sites",
    "num_unique_magnetic_sites",
    "types_of_magnetic_species",
    "bulk_modulus",
    "shear_modulus",
    "universal_anisotropy",
    "homogeneous_poisson",
    "e_total",
    "e_ionic",
    "e_electronic",
    "n",
    "e_ij_max",
    "weighted_surface_energy_EV_PER_ANG2",
    "weighted_surface_energy",
    "weighted_work_function",
    "surface_anisotropy",
    "shape_factor",
    "has_reconstructed",
    "possible_species",
    "has_props",
    "theoretical",
    "database_IDs"
  ]
}
