{
  "builder_meta": null,
  "nsites": null,
  "elements": null,
  "nelements": null,
  "composition": null,
  "composition_reduced": null,
  "formula_pretty": "Sm3Er",
  "formula_anonymous": "AB3",
  "chemsys": null,
  "volume": 272.65505163808416,
  "density": 7.531685620593567,
  "density_atomic": 34.08188145476052,
  "symmetry": null,
  "property_name": null,
  "material_id": "mp-979614",
  "deprecated": null,
  "deprecation_reasons": null,
  "last_updated": null,
  "origins": null,
  "warnings": null,
  "structure": {
    "@module": "pymatgen.core.structure",
    "@class": "Structure",
    "charge": 0,
    "lattice": {
      "matrix": [
        [7.33801769, -4.42e-6, 0.0],
        [-3.66901281, 6.35491559, 0.0],
        [0.0, 0.0, 5.8468931699999995]
      ],
      "pbc": [true, true, true],
      "a": 7.338017690001331,
      "b": 7.338024744845792,
      "c": 5.8468931699999995,
      "alpha": 90.0,
      "beta": 90.0,
      "gamma": 120.00003845686919,
      "volume": 272.6550516380841
    },
    "properties": {},
    "sites": [
      {
        "species": [{ "element": "Sm", "occu": 1 }],
        "abc": [0.169181499999999, 0.33834932, 0.25],
        "properties": { "magmom": 0.289 },
        "label": "Sm",
        "xyz": [4.8850485938611854e-5, 2.150180620751669, 1.4617232924999999]
      },
      {
        "species": [{ "element": "Sm", "occu": 1 }],
        "abc": [0.66165081, 0.83081908, 0.25],
        "properties": { "magmom": 0.289 },
        "label": "Sm",
        "xyz": [1.8069195010704142, 5.2797821994648775, 1.4617232924999999]
      },
      {
        "species": [{ "element": "Sm", "occu": 1 }],
        "abc": [0.16917221000000002, 0.83082904, 0.25],
        "properties": { "magmom": 0.289 },
        "label": "Sm",
        "xyz": [-1.8069337210436074, 5.279847671179565, 1.4617232924999999]
      },
      {
        "species": [{ "element": "Sm", "occu": 1 }],
        "abc": [0.8308373, 0.66165735, 0.75],
        "properties": { "magmom": 0.289 },
        "label": "Sm",
        "xyz": [3.669069511931183, 4.204772936452221, 4.385169877499999]
      },
      {
        "species": [{ "element": "Sm", "occu": 1 }],
        "abc": [0.33834083, 0.16916263, 0.75],
        "properties": { "magmom": 0.289 },
        "label": "Sm",
        "xyz": [1.862091139345992, 1.0750127391659332, 4.385169877499999]
      },
      {
        "species": [{ "element": "Sm", "occu": 1 }],
        "abc": [0.83082677, 0.1691751, 0.75],
        "properties": { "magmom": 0.289 },
        "label": "Sm",
        "xyz": [5.47591592655253, 1.0750898081754856, 4.385169877499999]
      },
      {
        "species": [{ "element": "Er", "occu": 1 }],
        "abc": [0.33332928, 0.66666976, 0.75],
        "properties": { "magmom": 0.425 },
        "label": "Er",
        "xyz": [-4.373624466236237e-5, 4.236628577890142, 4.385169877499999]
      },
      {
        "species": [{ "element": "Er", "occu": 1 }],
        "abc": [0.6666633200000001, 0.33333473, 0.25],
        "properties": { "magmom": 0.425 },
        "label": "Er",
        "xyz": [3.6689778410462397, 2.1183111257135665, 1.4617232924999999]
      }
    ]
  },
  "task_ids": null,
  "uncorrected_energy_per_atom": null,
  "energy_per_atom": -30.76735424875,
  "formation_energy_per_atom": 0.013697782916668,
  "energy_above_hull": 0.013697782916668,
  "is_stable": false,
  "equilibrium_reaction_energy_per_atom": null,
  "decomposes_to": null,
  "xas": null,
  "grain_boundaries": null,
  "band_gap": 0.0,
  "cbm": null,
  "vbm": null,
  "efermi": 2.97739918,
  "is_gap_direct": null,
  "is_metal": null,
  "es_source_calc_id": null,
  "bandstructure": null,
  "dos": null,
  "dos_energy_up": null,
  "dos_energy_down": null,
  "is_magnetic": null,
  "ordering": null,
  "total_magnetization": 4.7383949,
  "total_magnetization_normalized_vol": null,
  "total_magnetization_normalized_formula_units": null,
  "num_magnetic_sites": null,
  "num_unique_magnetic_sites": null,
  "types_of_magnetic_species": null,
  "bulk_modulus": null,
  "shear_modulus": null,
  "universal_anisotropy": null,
  "homogeneous_poisson": null,
  "e_total": null,
  "e_ionic": null,
  "e_electronic": null,
  "n": null,
  "e_ij_max": null,
  "weighted_surface_energy_EV_PER_ANG2": null,
  "weighted_surface_energy": null,
  "weighted_work_function": null,
  "surface_anisotropy": null,
  "shape_factor": null,
  "has_reconstructed": null,
  "possible_species": null,
  "has_props": null,
  "theoretical": null,
  "database_IDs": null,
  "fields_not_requested": [
    "builder_meta",
    "nsites",
    "elements",
    "nelements",
    "composition",
    "composition_reduced",
    "chemsys",
    "symmetry",
    "property_name",
    "deprecated",
    "deprecation_reasons",
    "last_updated",
    "origins",
    "warnings",
    "task_ids",
    "uncorrected_energy_per_atom",
    "equilibrium_reaction_energy_per_atom",
    "decomposes_to",
    "xas",
    "grain_boundaries",
    "cbm",
    "vbm",
    "is_gap_direct",
    "is_metal",
    "es_source_calc_id",
    "bandstructure",
    "dos",
    "dos_energy_up",
    "dos_energy_down",
    "is_magnetic",
    "ordering",
    "total_magnetization_normalized_vol",
    "total_magnetization_normalized_formula_units",
    "num_magnetic_sites",
    "num_unique_magnetic_sites",
    "types_of_magnetic_species",
    "bulk_modulus",
    "shear_modulus",
    "universal_anisotropy",
    "homogeneous_poisson",
    "e_total",
    "e_ionic",
    "e_electronic",
    "n",
    "e_ij_max",
    "weighted_surface_energy_EV_PER_ANG2",
    "weighted_surface_energy",
    "weighted_work_function",
    "surface_anisotropy",
    "shape_factor",
    "has_reconstructed",
    "possible_species",
    "has_props",
    "theoretical",
    "database_IDs"
  ]
}
