{"builder_meta": null, "nsites": null, "elements": null, "nelements": null, "composition": null, "composition_reduced": null, "formula_pretty": "Sm3Gd", "formula_anonymous": "AB3", "chemsys": null, "volume": 274.91994187298786, "density": 7.348726494722356, "density_atomic": 34.36499273412348, "symmetry": null, "property_name": null, "material_id": "mp-1005895", "deprecated": null, "deprecation_reasons": null, "last_updated": null, "origins": null, "warnings": null, "structure": {"@module": "pymatgen.core.structure", "@class": "Structure", "charge": 0, "lattice": {"matrix": [[7.34489959, 0.00255349, 0.0], [-3.6793171, 6.36610815, 0.0], [0.0, 0.0, 5.87839973]], "pbc": [true, true, true], "a": 7.344900033866584, "b": 7.3528706842871125, "c": 5.87839973, "alpha": 90.0, "beta": 90.0, "gamma": 120.00601363954962, "volume": 274.91994187298786}, "properties": {}, "sites": [{"species": [{"element": "Sm", "occu": 1}], "abc": [0.16717963, 0.33368952, 0.250002], "properties": {"magmom": -0.001}, "label": "Sm", "xyz": [0.00016803881655969022, 2.1247304643549967, 1.46961168929946]}, {"species": [{"element": "Sm", "occu": 1}], "abc": [0.6668754, 0.83348959, 0.250002], "properties": {"magmom": -0.004}, "label": "Sm", "xyz": [1.831460350882097, 5.3077877315043045, 1.46961168929946]}, {"species": [{"element": "Sm", "occu": 1}], "abc": [0.16722121, 0.83344807, 0.250002], "properties": {"magmom": 0.004}, "label": "Sm", "xyz": [-1.8382967391446927, 5.306247548716293, 1.46961168929946]}, {"species": [{"element": "Sm", "occu": 1}], "abc": [0.83143698, 0.66314918, 0.750002], "properties": {"magmom": 0.099}, "label": "Sm", "xyz": [3.66688501568786, 4.223802465477877, 4.40881155429946]}, {"species": [{"element": "Sm", "occu": 1}], "abc": [0.33663031, 0.16825868, 0.750002], "properties": {"magmom": 0.101}, "label": "Sm", "xyz": [1.8534387873531448, 1.0720125361865238, 4.40881155429946]}, {"species": [{"element": "Sm", "occu": 1}], "abc": [0.83134029, 0.16814559, 0.750002], "properties": {"magmom": 0.095}, "label": "Sm", "xyz": [5.487450010594892, 1.0725558300026705, 4.40881155429946]}, {"species": [{"element": "Gd", "occu": 1}], "abc": [0.33242318, 0.6663419700000001, 0.750002], "properties": {"magmom": 1.392}, "label": "Gd", "xyz": [-0.01006852618019094, 4.2428538851699535, 4.40881155429946]}, {"species": [{"element": "Gd", "occu": 1}], "abc": [0.666893, 0.3334784, 0.250002], "properties": {"magmom": -7.347}, "label": "Gd", "xyz": [3.671289342673229, 2.12466246469553, 1.46961168929946]}]}, "task_ids": null, "uncorrected_energy_per_atom": null, "energy_per_atom": -32.513471485, "formation_energy_per_atom": 0.635473080000004, "energy_above_hull": 0.635473080000004, "is_stable": false, "equilibrium_reaction_energy_per_atom": null, "decomposes_to": null, "xas": null, "grain_boundaries": null, "band_gap": 0.0, "cbm": null, "vbm": null, "efermi": 3.0263484, "is_gap_direct": null, "is_metal": null, "es_source_calc_id": null, "bandstructure": null, "dos": null, "dos_energy_up": null, "dos_energy_down": null, "is_magnetic": null, "ordering": null, "total_magnetization": 5.711132, "total_magnetization_normalized_vol": null, "total_magnetization_normalized_formula_units": null, "num_magnetic_sites": null, "num_unique_magnetic_sites": null, "types_of_magnetic_species": null, "bulk_modulus": null, "shear_modulus": null, "universal_anisotropy": null, "homogeneous_poisson": null, "e_total": null, "e_ionic": null, "e_electronic": null, "n": null, "e_ij_max": null, "weighted_surface_energy_EV_PER_ANG2": null, "weighted_surface_energy": null, "weighted_work_function": null, "surface_anisotropy": null, "shape_factor": null, "has_reconstructed": null, "possible_species": null, "has_props": null, "theoretical": null, "database_IDs": null, "fields_not_requested": ["builder_meta", "nsites", "elements", "nelements", "composition", "composition_reduced", "chemsys", "symmetry", "property_name", "deprecated", "deprecation_reasons", "last_updated", "origins", "warnings", "task_ids", "uncorrected_energy_per_atom", "equilibrium_reaction_energy_per_atom", "decomposes_to", "xas", "grain_boundaries", "cbm", "vbm", "is_gap_direct", "is_metal", "es_source_calc_id", "bandstructure", "dos", "dos_energy_up", "dos_energy_down", "is_magnetic", "ordering", "total_magnetization_normalized_vol", "total_magnetization_normalized_formula_units", "num_magnetic_sites", "num_unique_magnetic_sites", "types_of_magnetic_species", "bulk_modulus", "shear_modulus", "universal_anisotropy", "homogeneous_poisson", "e_total", "e_ionic", "e_electronic", "n", "e_ij_max", "weighted_surface_energy_EV_PER_ANG2", "weighted_surface_energy", "weighted_work_function", "surface_anisotropy", "shape_factor", "has_reconstructed", "possible_species", "has_props", "theoretical", "database_IDs"]}