{
  "builder_meta": null,
  "nsites": null,
  "elements": null,
  "nelements": null,
  "composition": null,
  "composition_reduced": null,
  "formula_pretty": "Sm3Ge5",
  "formula_anonymous": "A3B5",
  "chemsys": null,
  "volume": 361.05421436630303,
  "density": 7.489976282505028,
  "density_atomic": 22.56588839789394,
  "symmetry": null,
  "property_name": null,
  "material_id": "mp-580126",
  "deprecated": null,
  "deprecation_reasons": null,
  "last_updated": null,
  "origins": null,
  "warnings": null,
  "structure": {
    "@module": "pymatgen.core.structure",
    "@class": "Structure",
    "charge": 0,
    "lattice": {
      "matrix": [
        [5.56956997, -0.00082285, 1.85116737],
        [2.78414464, 6.98933048, 0.92527661],
        [-0.00809442, -0.00067865, 9.27179075]
      ],
      "pbc": [true, true, true],
      "a": 5.869150786916335,
      "b": 7.580127884152803,
      "c": 9.271794308114611,
      "alpha": 83.01105094446653,
      "beta": 71.66467362099495,
      "gamma": 67.23711160587291,
      "volume": 361.05421436630303
    },
    "properties": {},
    "sites": [
      {
        "species": [{ "element": "Sm", "occu": 1 }],
        "abc": [0.25003105000000003, 0.49997316, 0.49996808000000004],
        "properties": { "magmom": 0.0 },
        "label": "Sm",
        "xyz": [2.780516069579318, 3.4939326049829327, 5.561062211261886]
      },
      {
        "species": [{ "element": "Sm", "occu": 1 }],
        "abc": [0.66982282, 0.98775539, 0.6638661],
        "properties": { "magmom": 0.0 },
        "label": "Sm",
        "xyz": [6.475305327155163, 6.902747157675085, 8.309128672052385]
      },
      {
        "species": [{ "element": "Sm", "occu": 1 }],
        "abc": [-1.6890000000000003e-5, 0.00020074, 7.257e-5],
        "properties": { "magmom": -0.0 },
        "label": "Sm",
        "xyz": [
          0.0004642317461809001, 0.0014030028488611998, 0.0008273276645396
        ]
      },
      {
        "species": [{ "element": "Sm", "occu": 1 }],
        "abc": [0.58371842, 0.48763468, 0.836375499999999],
        "properties": { "magmom": -0.0 },
        "label": "Sm",
        "xyz": [4.601936088993252, 3.407192013094074, 9.286456080427406]
      },
      {
        "species": [{ "element": "Sm", "occu": 1 }],
        "abc": [0.34241395, 0.98753785, 0.33620549],
        "properties": { "magmom": 0.0 },
        "label": "Sm",
        "xyz": [4.65382527666134, 6.901718473984122, 4.664838157648717]
      },
      {
        "species": [{ "element": "Sm", "occu": 1 }],
        "abc": [0.92860868, 0.48758491, 0.16354178],
        "properties": { "magmom": -0.0 },
        "label": "Sm",
        "xyz": [6.528134155875854, 3.4070169797697214, 3.6864861635692616]
      },
      {
        "species": [{ "element": "Ge", "occu": 1 }],
        "abc": [0.37745256, 0.68252194, 0.14223148],
        "properties": { "magmom": -0.0 },
        "label": "Ge",
        "xyz": [4.001336962872683, 4.769964286277833, 2.6489899703116]
      },
      {
        "species": [{ "element": "Ge", "occu": 1 }],
        "abc": [0.93991377, 0.68266393, 0.85766062],
        "properties": { "magmom": 0.0 },
        "label": "Ge",
        "xyz": [7.128608364136582, 4.770008354120179, 10.323640471712626]
      },
      {
        "species": [{ "element": "Ge", "occu": 1 }],
        "abc": [0.9116598300000001, 0.82654001, 0.32603565],
        "properties": { "magmom": 0.0 },
        "label": "Ge",
        "xyz": [7.376121081124279, 5.775989861447516, 5.475347392158151]
      },
      {
        "species": [{ "element": "Ge", "occu": 1 }],
        "abc": [0.04693115, 0.18265806, 0.64175114],
        "properties": { "magmom": 0.0 },
        "label": "Ge",
        "xyz": [0.7647381791367253, 1.2761834044677305, 6.206068927716506]
      },
      {
        "species": [{ "element": "Ge", "occu": 1 }],
        "abc": [0.48814838, 0.32654432, 0.17410409000000002],
        "properties": { "magmom": -0.0 },
        "label": "Ge",
        "xyz": [3.6265139047744155, 2.281806340211712, 2.8200448653978833]
      },
      {
        "species": [{ "element": "Ge", "occu": 1 }],
        "abc": [0.44407899, 0.111924699999999, 0.99998579],
        "properties": { "magmom": -0.0 },
        "label": "Ge",
        "xyz": [2.7768492556222437, 0.7812346664215439, 10.197284840835264]
      },
      {
        "species": [{ "element": "Ge", "occu": 1 }],
        "abc": [0.26177337, 0.82645687, 0.67405304],
        "properties": { "magmom": -0.0 },
        "label": "Ge",
        "xyz": [3.753484496891339, 5.775707345583297, 7.498966273145127]
      },
      {
        "species": [{ "element": "Ge", "occu": 1 }],
        "abc": [0.7704656400000001, 0.18272903000000001, 0.35833633],
        "properties": { "magmom": -0.0 },
        "label": "Ge",
        "xyz": [4.797005816151452, 1.276276416357606, 4.917755219784103]
      },
      {
        "species": [{ "element": "Ge", "occu": 1 }],
        "abc": [0.18544287, 0.32663968, 0.82578242],
        "properties": { "magmom": -0.0 },
        "label": "Ge",
        "xyz": [1.9355649244498325, 2.2822796624965336, 8.301999649013652]
      },
      {
        "species": [{ "element": "Ge", "occu": 1 }],
        "abc": [0.69425541, 0.61123072, 0.50002994],
        "properties": { "magmom": -0.0 },
        "label": "Ge",
        "xyz": [5.564411363590444, 4.271182888225446, 6.486913422382486]
      }
    ]
  },
  "task_ids": null,
  "uncorrected_energy_per_atom": null,
  "energy_per_atom": -5.402592229374999,
  "formation_energy_per_atom": -0.743730019374999,
  "energy_above_hull": 0.0,
  "is_stable": true,
  "equilibrium_reaction_energy_per_atom": null,
  "decomposes_to": null,
  "xas": null,
  "grain_boundaries": null,
  "band_gap": 0.0,
  "cbm": null,
  "vbm": null,
  "efermi": 5.10076093,
  "is_gap_direct": null,
  "is_metal": null,
  "es_source_calc_id": null,
  "bandstructure": null,
  "dos": null,
  "dos_energy_up": null,
  "dos_energy_down": null,
  "is_magnetic": null,
  "ordering": null,
  "total_magnetization": 3e-7,
  "total_magnetization_normalized_vol": null,
  "total_magnetization_normalized_formula_units": null,
  "num_magnetic_sites": null,
  "num_unique_magnetic_sites": null,
  "types_of_magnetic_species": null,
  "bulk_modulus": null,
  "shear_modulus": null,
  "universal_anisotropy": null,
  "homogeneous_poisson": null,
  "e_total": null,
  "e_ionic": null,
  "e_electronic": null,
  "n": null,
  "e_ij_max": null,
  "weighted_surface_energy_EV_PER_ANG2": null,
  "weighted_surface_energy": null,
  "weighted_work_function": null,
  "surface_anisotropy": null,
  "shape_factor": null,
  "has_reconstructed": null,
  "possible_species": null,
  "has_props": null,
  "theoretical": null,
  "database_IDs": null,
  "fields_not_requested": [
    "builder_meta",
    "nsites",
    "elements",
    "nelements",
    "composition",
    "composition_reduced",
    "chemsys",
    "symmetry",
    "property_name",
    "deprecated",
    "deprecation_reasons",
    "last_updated",
    "origins",
    "warnings",
    "task_ids",
    "uncorrected_energy_per_atom",
    "equilibrium_reaction_energy_per_atom",
    "decomposes_to",
    "xas",
    "grain_boundaries",
    "cbm",
    "vbm",
    "is_gap_direct",
    "is_metal",
    "es_source_calc_id",
    "bandstructure",
    "dos",
    "dos_energy_up",
    "dos_energy_down",
    "is_magnetic",
    "ordering",
    "total_magnetization_normalized_vol",
    "total_magnetization_normalized_formula_units",
    "num_magnetic_sites",
    "num_unique_magnetic_sites",
    "types_of_magnetic_species",
    "bulk_modulus",
    "shear_modulus",
    "universal_anisotropy",
    "homogeneous_poisson",
    "e_total",
    "e_ionic",
    "e_electronic",
    "n",
    "e_ij_max",
    "weighted_surface_energy_EV_PER_ANG2",
    "weighted_surface_energy",
    "weighted_work_function",
    "surface_anisotropy",
    "shape_factor",
    "has_reconstructed",
    "possible_species",
    "has_props",
    "theoretical",
    "database_IDs"
  ]
}
