{
  "builder_meta": null,
  "nsites": null,
  "elements": null,
  "nelements": null,
  "composition": null,
  "composition_reduced": null,
  "formula_pretty": "Sm3Ho",
  "formula_anonymous": "AB3",
  "chemsys": null,
  "volume": 274.5295610013853,
  "density": 7.452087841160433,
  "density_atomic": 34.31619512517316,
  "symmetry": null,
  "property_name": null,
  "material_id": "mp-979899",
  "deprecated": null,
  "deprecation_reasons": null,
  "last_updated": null,
  "origins": null,
  "warnings": null,
  "structure": {
    "@module": "pymatgen.core.structure",
    "@class": "Structure",
    "charge": 0,
    "lattice": {
      "matrix": [
        [7.3551958, 4e-8, -0.0],
        [-3.67759632, 6.36979285, 0.0],
        [-0.0, -0.0, 5.85962154]
      ],
      "pbc": [true, true, true],
      "a": 7.3551958,
      "b": 7.35520058494591,
      "c": 5.85962154,
      "alpha": 90.0,
      "beta": 90.0,
      "gamma": 119.99996395632213,
      "volume": 274.5295610013853
    },
    "properties": {},
    "sites": [
      {
        "species": [{ "element": "Sm", "occu": 1 }],
        "abc": [0.16913617, 0.33827234, 0.25],
        "properties": { "magmom": 0.291 },
        "label": "Sm",
        "xyz": [5.344702971310511e-7, 2.1547247394502156, 1.464905385]
      },
      {
        "species": [{ "element": "Sm", "occu": 1 }],
        "abc": [0.66172966, 0.83086583, 0.25],
        "properties": { "magmom": 0.291 },
        "label": "Sm",
        "xyz": [1.811562097145682, 5.292443249712502, 1.464905385]
      },
      {
        "species": [{ "element": "Sm", "occu": 1 }],
        "abc": [0.16913517, 0.83086583, 0.25],
        "properties": { "magmom": 0.291 },
        "label": "Sm",
        "xyz": [-1.8115668268054597, 5.292443230008722, 1.464905385]
      },
      {
        "species": [{ "element": "Sm", "occu": 1 }],
        "abc": [0.83086383, 0.66172766, 0.75],
        "properties": { "magmom": 0.291 },
        "label": "Sm",
        "xyz": [3.6775989455297022, 4.215068150549784, 4.394716155]
      },
      {
        "species": [{ "element": "Sm", "occu": 1 }],
        "abc": [0.33827134000000003, 0.16913517, 0.75],
        "properties": { "magmom": 0.291 },
        "label": "Sm",
        "xyz": [1.8660410604537976, 1.077356010080388, 4.394716155]
      },
      {
        "species": [{ "element": "Sm", "occu": 1 }],
        "abc": [0.83086483, 0.16913517, 0.75],
        "properties": { "magmom": 0.291 },
        "label": "Sm",
        "xyz": [5.489162629209139, 1.0773560297841278, 4.394716155]
      },
      {
        "species": [{ "element": "Ho", "occu": 1 }],
        "abc": [0.333333999999999, 0.666667999999999, 0.75],
        "properties": { "magmom": 0.40900000000000003 },
        "label": "Ho",
        "xyz": [1.0533354362074476e-6, 4.246537073057154, 4.394716155]
      },
      {
        "species": [{ "element": "Ho", "occu": 1 }],
        "abc": [0.666666, 0.333333, 0.25],
        "properties": { "magmom": 0.40900000000000003 },
        "label": "Ho",
        "xyz": [3.67759474906824, 2.12326218673569, 1.464905385]
      }
    ]
  },
  "task_ids": null,
  "uncorrected_energy_per_atom": null,
  "energy_per_atom": -30.50910953875,
  "formation_energy_per_atom": 0.010919680000000001,
  "energy_above_hull": 0.012367830000002002,
  "is_stable": false,
  "equilibrium_reaction_energy_per_atom": null,
  "decomposes_to": null,
  "xas": null,
  "grain_boundaries": null,
  "band_gap": 0.0,
  "cbm": null,
  "vbm": null,
  "efermi": 3.06076055,
  "is_gap_direct": null,
  "is_metal": null,
  "es_source_calc_id": null,
  "bandstructure": null,
  "dos": null,
  "dos_energy_up": null,
  "dos_energy_down": null,
  "is_magnetic": null,
  "ordering": null,
  "total_magnetization": 4.7979997,
  "total_magnetization_normalized_vol": null,
  "total_magnetization_normalized_formula_units": null,
  "num_magnetic_sites": null,
  "num_unique_magnetic_sites": null,
  "types_of_magnetic_species": null,
  "bulk_modulus": null,
  "shear_modulus": null,
  "universal_anisotropy": null,
  "homogeneous_poisson": null,
  "e_total": null,
  "e_ionic": null,
  "e_electronic": null,
  "n": null,
  "e_ij_max": null,
  "weighted_surface_energy_EV_PER_ANG2": null,
  "weighted_surface_energy": null,
  "weighted_work_function": null,
  "surface_anisotropy": null,
  "shape_factor": null,
  "has_reconstructed": null,
  "possible_species": null,
  "has_props": null,
  "theoretical": null,
  "database_IDs": null,
  "fields_not_requested": [
    "builder_meta",
    "nsites",
    "elements",
    "nelements",
    "composition",
    "composition_reduced",
    "chemsys",
    "symmetry",
    "property_name",
    "deprecated",
    "deprecation_reasons",
    "last_updated",
    "origins",
    "warnings",
    "task_ids",
    "uncorrected_energy_per_atom",
    "equilibrium_reaction_energy_per_atom",
    "decomposes_to",
    "xas",
    "grain_boundaries",
    "cbm",
    "vbm",
    "is_gap_direct",
    "is_metal",
    "es_source_calc_id",
    "bandstructure",
    "dos",
    "dos_energy_up",
    "dos_energy_down",
    "is_magnetic",
    "ordering",
    "total_magnetization_normalized_vol",
    "total_magnetization_normalized_formula_units",
    "num_magnetic_sites",
    "num_unique_magnetic_sites",
    "types_of_magnetic_species",
    "bulk_modulus",
    "shear_modulus",
    "universal_anisotropy",
    "homogeneous_poisson",
    "e_total",
    "e_ionic",
    "e_electronic",
    "n",
    "e_ij_max",
    "weighted_surface_energy_EV_PER_ANG2",
    "weighted_surface_energy",
    "weighted_work_function",
    "surface_anisotropy",
    "shape_factor",
    "has_reconstructed",
    "possible_species",
    "has_props",
    "theoretical",
    "database_IDs"
  ]
}
