{
  "builder_meta": null,
  "nsites": null,
  "elements": null,
  "nelements": null,
  "composition": null,
  "composition_reduced": null,
  "formula_pretty": "Sm3Hg",
  "formula_anonymous": "AB3",
  "chemsys": null,
  "volume": 232.28471671964022,
  "density": 9.317216464459076,
  "density_atomic": 29.035589589955027,
  "symmetry": null,
  "property_name": null,
  "material_id": "mp-980429",
  "deprecated": null,
  "deprecation_reasons": null,
  "last_updated": null,
  "origins": null,
  "warnings": null,
  "structure": {
    "@module": "pymatgen.core.structure",
    "@class": "Structure",
    "charge": 0,
    "lattice": {
      "matrix": [
        [6.99910353, 6e-6, -2e-7],
        [-3.49954731, 6.0613946, -2e-7],
        [-6e-7, -2.7e-7, 5.47526881]
      ],
      "pbc": [true, true, true],
      "a": 6.999103530002575,
      "b": 6.999095360961832,
      "c": 5.47526881000004,
      "alpha": 90.00000094476752,
      "beta": 90.00000791591563,
      "gamma": 119.99994738104328,
      "volume": 232.2847167196402
    },
    "properties": {},
    "sites": [
      {
        "species": [{ "element": "Sm", "occu": 1 }],
        "abc": [0.17579758, 0.35159385, 0.25000287],
        "properties": { "magmom": 0.231 },
        "label": "Sm",
        "xyz": [6.00076169192573e-6, 2.131150051067915, 1.3688328110431986]
      },
      {
        "species": [{ "element": "Sm", "occu": 1 }],
        "abc": [0.64840317, 0.82420086, 0.25000222],
        "properties": { "magmom": 0.231 },
        "label": "Sm",
        "xyz": [1.6539108634961714, 4.995810465037776, 1.3688290630759523]
      },
      {
        "species": [{ "element": "Sm", "occu": 1 }],
        "abc": [0.17579746000000002, 0.82420251, 0.25000285],
        "properties": { "magmom": 0.231 },
        "label": "Sm",
        "xyz": [-1.6539112039164239, 4.995817630704437, 1.3688326070161148]
      },
      {
        "species": [{ "element": "Sm", "occu": 1 }],
        "abc": [0.82421056, 0.64840168, 0.74999808],
        "properties": { "magmom": 0.231 },
        "label": "Sm",
        "xyz": [3.4996222349169486, 3.9302231845468065, 4.106440800461437]
      },
      {
        "species": [{ "element": "Sm", "occu": 1 }],
        "abc": [0.35159557, 0.17579232, 0.7499987300000001],
        "properties": { "magmom": 0.231 },
        "label": "Sm",
        "xyz": [1.845659804545465, 1.065548526243235, 4.106444548431034]
      },
      {
        "species": [{ "element": "Sm", "occu": 1 }],
        "abc": [0.82420444, 0.17580304, 0.74999806],
        "properties": { "magmom": 0.231 },
        "label": "Sm",
        "xyz": [5.153460699725015, 1.0656163400467475, 4.106440785477012]
      },
      {
        "species": [{ "element": "Hg", "occu": 1 }],
        "abc": [0.33332651, 0.66667056, 0.75001689],
        "properties": { "magmom": -0.011 },
        "label": "Hg",
        "xyz": [-5.886213074730481e-5, 4.040955129817475, 4.106543884790787]
      },
      {
        "species": [{ "element": "Hg", "occu": 1 }],
        "abc": [0.6666617, 0.33333619000000003, 0.24998429],
        "properties": { "magmom": -0.011 },
        "label": "Hg",
        "xyz": [3.4995083407550784, 2.0204861145250157, 1.3687309860274168]
      }
    ]
  },
  "task_ids": null,
  "uncorrected_energy_per_atom": null,
  "energy_per_atom": -34.8637874175,
  "formation_energy_per_atom": -0.22214254687499801,
  "energy_above_hull": 0.0,
  "is_stable": true,
  "equilibrium_reaction_energy_per_atom": null,
  "decomposes_to": null,
  "xas": null,
  "grain_boundaries": null,
  "band_gap": 0.0,
  "cbm": null,
  "vbm": null,
  "efermi": 3.45193318,
  "is_gap_direct": null,
  "is_metal": null,
  "es_source_calc_id": null,
  "bandstructure": null,
  "dos": null,
  "dos_energy_up": null,
  "dos_energy_down": null,
  "is_magnetic": null,
  "ordering": null,
  "total_magnetization": 2.2045786,
  "total_magnetization_normalized_vol": null,
  "total_magnetization_normalized_formula_units": null,
  "num_magnetic_sites": null,
  "num_unique_magnetic_sites": null,
  "types_of_magnetic_species": null,
  "bulk_modulus": null,
  "shear_modulus": null,
  "universal_anisotropy": null,
  "homogeneous_poisson": null,
  "e_total": null,
  "e_ionic": null,
  "e_electronic": null,
  "n": null,
  "e_ij_max": null,
  "weighted_surface_energy_EV_PER_ANG2": null,
  "weighted_surface_energy": null,
  "weighted_work_function": null,
  "surface_anisotropy": null,
  "shape_factor": null,
  "has_reconstructed": null,
  "possible_species": null,
  "has_props": null,
  "theoretical": null,
  "database_IDs": null,
  "fields_not_requested": [
    "builder_meta",
    "nsites",
    "elements",
    "nelements",
    "composition",
    "composition_reduced",
    "chemsys",
    "symmetry",
    "property_name",
    "deprecated",
    "deprecation_reasons",
    "last_updated",
    "origins",
    "warnings",
    "task_ids",
    "uncorrected_energy_per_atom",
    "equilibrium_reaction_energy_per_atom",
    "decomposes_to",
    "xas",
    "grain_boundaries",
    "cbm",
    "vbm",
    "is_gap_direct",
    "is_metal",
    "es_source_calc_id",
    "bandstructure",
    "dos",
    "dos_energy_up",
    "dos_energy_down",
    "is_magnetic",
    "ordering",
    "total_magnetization_normalized_vol",
    "total_magnetization_normalized_formula_units",
    "num_magnetic_sites",
    "num_unique_magnetic_sites",
    "types_of_magnetic_species",
    "bulk_modulus",
    "shear_modulus",
    "universal_anisotropy",
    "homogeneous_poisson",
    "e_total",
    "e_ionic",
    "e_electronic",
    "n",
    "e_ij_max",
    "weighted_surface_energy_EV_PER_ANG2",
    "weighted_surface_energy",
    "weighted_work_function",
    "surface_anisotropy",
    "shape_factor",
    "has_reconstructed",
    "possible_species",
    "has_props",
    "theoretical",
    "database_IDs"
  ]
}
