{"builder_meta": null, "nsites": null, "elements": null, "nelements": null, "composition": null, "composition_reduced": null, "formula_pretty": "Sm3I", "formula_anonymous": "AB3", "chemsys": null, "volume": 128.3413262776452, "density": 7.478228721486027, "density_atomic": 32.0853315694113, "symmetry": null, "property_name": null, "material_id": "mp-978798", "deprecated": null, "deprecation_reasons": null, "last_updated": null, "origins": null, "warnings": null, "structure": {"@module": "pymatgen.core.structure", "@class": "Structure", "charge": 0, "lattice": {"matrix": [[-2.432221, 2.432221, 5.42376], [2.432221, -2.432221, 5.42376], [2.432221, 2.432221, -5.42376]], "pbc": [true, true, true], "a": 6.422505003756867, "b": 6.422505003756867, "c": 6.422505003756867, "alpha": 135.49328437062528, "beta": 135.49328437062528, "gamma": 64.76470596658665, "volume": 128.3413262776452}, "properties": {}, "sites": [{"species": [{"element": "Sm", "occu": 1}], "abc": [0.75, 0.25, 0.5], "properties": {"magmom": 0.024}, "label": "Sm", "xyz": [0.0, 2.432221, 2.71188]}, {"species": [{"element": "Sm", "occu": 1}], "abc": [0.25, 0.75, 0.5], "properties": {"magmom": 0.024}, "label": "Sm", "xyz": [2.432221, 0.0, 2.71188]}, {"species": [{"element": "Sm", "occu": 1}], "abc": [0.5, 0.5, 0.0], "properties": {"magmom": 0.027}, "label": "Sm", "xyz": [0.0, 0.0, 5.42376]}, {"species": [{"element": "I", "occu": 1}], "abc": [0.0, 0.0, 0.0], "properties": {"magmom": 0.002}, "label": "I", "xyz": [0.0, 0.0, 0.0]}]}, "task_ids": null, "uncorrected_energy_per_atom": null, "energy_per_atom": -4.11340341, "formation_energy_per_atom": -0.193460655, "energy_above_hull": 0.366406876249999, "is_stable": false, "equilibrium_reaction_energy_per_atom": null, "decomposes_to": null, "xas": null, "grain_boundaries": null, "band_gap": 0.0, "cbm": null, "vbm": null, "efermi": 4.86593132, "is_gap_direct": null, "is_metal": null, "es_source_calc_id": null, "bandstructure": null, "dos": null, "dos_energy_up": null, "dos_energy_down": null, "is_magnetic": null, "ordering": null, "total_magnetization": 0.1544693, "total_magnetization_normalized_vol": null, "total_magnetization_normalized_formula_units": null, "num_magnetic_sites": null, "num_unique_magnetic_sites": null, "types_of_magnetic_species": null, "bulk_modulus": null, "shear_modulus": null, "universal_anisotropy": null, "homogeneous_poisson": null, "e_total": null, "e_ionic": null, "e_electronic": null, "n": null, "e_ij_max": null, "weighted_surface_energy_EV_PER_ANG2": null, "weighted_surface_energy": null, "weighted_work_function": null, "surface_anisotropy": null, "shape_factor": null, "has_reconstructed": null, "possible_species": null, "has_props": null, "theoretical": null, "database_IDs": null, "fields_not_requested": ["builder_meta", "nsites", "elements", "nelements", "composition", "composition_reduced", "chemsys", "symmetry", "property_name", "deprecated", "deprecation_reasons", "last_updated", "origins", "warnings", "task_ids", "uncorrected_energy_per_atom", "equilibrium_reaction_energy_per_atom", "decomposes_to", "xas", "grain_boundaries", "cbm", "vbm", "is_gap_direct", "is_metal", "es_source_calc_id", "bandstructure", "dos", "dos_energy_up", "dos_energy_down", "is_magnetic", "ordering", "total_magnetization_normalized_vol", "total_magnetization_normalized_formula_units", "num_magnetic_sites", "num_unique_magnetic_sites", "types_of_magnetic_species", "bulk_modulus", "shear_modulus", "universal_anisotropy", "homogeneous_poisson", "e_total", "e_ionic", "e_electronic", "n", "e_ij_max", "weighted_surface_energy_EV_PER_ANG2", "weighted_surface_energy", "weighted_work_function", "surface_anisotropy", "shape_factor", "has_reconstructed", "possible_species", "has_props", "theoretical", "database_IDs"]}