{
  "builder_meta": null,
  "nsites": null,
  "elements": null,
  "nelements": null,
  "composition": null,
  "composition_reduced": null,
  "formula_pretty": "Sm3Ir",
  "formula_anonymous": "AB3",
  "chemsys": null,
  "volume": 458.0416353924936,
  "density": 9.328582533867062,
  "density_atomic": 28.62760221203085,
  "symmetry": null,
  "property_name": null,
  "material_id": "mp-7342",
  "deprecated": null,
  "deprecation_reasons": null,
  "last_updated": null,
  "origins": null,
  "warnings": null,
  "structure": {
    "@module": "pymatgen.core.structure",
    "@class": "Structure",
    "charge": 0,
    "lattice": {
      "matrix": [
        [6.48690091, -0.0, 0.0],
        [0.0, 7.28287484, 0.0],
        [0.0, 0.0, 9.69538024]
      ],
      "pbc": [true, true, true],
      "a": 6.48690091,
      "b": 7.28287484,
      "c": 9.69538024,
      "alpha": 90.0,
      "beta": 90.0,
      "gamma": 90.0,
      "volume": 458.0416353924936
    },
    "properties": {},
    "sites": [
      {
        "species": [{ "element": "Sm", "occu": 1 }],
        "abc": [0.14029114, 0.03813306, 0.25],
        "properties": { "magmom": 0.074 },
        "label": "Sm",
        "xyz": [0.9100547237309374, 0.27771830324621044, 2.42384506]
      },
      {
        "species": [{ "element": "Sm", "occu": 1 }],
        "abc": [0.64029114, 0.46186694, 0.75],
        "properties": { "magmom": 0.074 },
        "label": "Sm",
        "xyz": [4.153505178730938, 3.3637191167537894, 7.271535180000001]
      },
      {
        "species": [{ "element": "Sm", "occu": 1 }],
        "abc": [0.35970886, 0.53813306, 0.25],
        "properties": { "magmom": 0.074 },
        "label": "Sm",
        "xyz": [2.333395731269063, 3.919155723246211, 2.42384506]
      },
      {
        "species": [{ "element": "Sm", "occu": 1 }],
        "abc": [0.85970886, 0.9618669400000001, 0.75],
        "properties": { "magmom": 0.074 },
        "label": "Sm",
        "xyz": [5.576846186269063, 7.00515653675379, 7.271535180000001]
      },
      {
        "species": [{ "element": "Sm", "occu": 1 }],
        "abc": [0.6753908, 0.1712375, 0.06505461],
        "properties": { "magmom": 0.053 },
        "label": "Sm",
        "xyz": [4.381193195125628, 1.2471012804144999, 0.6307291803149064]
      },
      {
        "species": [{ "element": "Sm", "occu": 1 }],
        "abc": [0.17539079999999901, 0.328762499999999, 0.93494539],
        "properties": { "magmom": 0.053 },
        "label": "Sm",
        "xyz": [1.1377427401256217, 2.394336139585493, 9.064651059685094]
      },
      {
        "species": [{ "element": "Sm", "occu": 1 }],
        "abc": [0.824609199999999, 0.671237499999999, 0.43494539],
        "properties": { "magmom": 0.053 },
        "label": "Sm",
        "xyz": [5.349158169874366, 4.888538700414493, 4.216960939685094]
      },
      {
        "species": [{ "element": "Sm", "occu": 1 }],
        "abc": [0.3246092, 0.8287625, 0.56505461],
        "properties": { "magmom": 0.053 },
        "label": "Sm",
        "xyz": [2.105707714874372, 6.0357735595854995, 5.478419300314907]
      },
      {
        "species": [{ "element": "Sm", "occu": 1 }],
        "abc": [0.3246092, 0.8287625, 0.93494539],
        "properties": { "magmom": 0.053 },
        "label": "Sm",
        "xyz": [2.105707714874372, 6.0357735595854995, 9.064651059685094]
      },
      {
        "species": [{ "element": "Sm", "occu": 1 }],
        "abc": [0.824609199999999, 0.671237499999999, 0.06505461],
        "properties": { "magmom": 0.053 },
        "label": "Sm",
        "xyz": [5.349158169874366, 4.888538700414493, 0.6307291803149064]
      },
      {
        "species": [{ "element": "Sm", "occu": 1 }],
        "abc": [0.17539079999999901, 0.328762499999999, 0.56505461],
        "properties": { "magmom": 0.053 },
        "label": "Sm",
        "xyz": [1.1377427401256217, 2.394336139585493, 5.478419300314907]
      },
      {
        "species": [{ "element": "Sm", "occu": 1 }],
        "abc": [0.6753908, 0.1712375, 0.43494539],
        "properties": { "magmom": 0.053 },
        "label": "Sm",
        "xyz": [4.381193195125628, 1.2471012804144999, 4.216960939685094]
      },
      {
        "species": [{ "element": "Ir", "occu": 1 }],
        "abc": [0.94385502, 0.38067013, 0.25],
        "properties": { "magmom": 0.011 },
        "label": "Ir",
        "xyz": [6.122693988146068, 2.7723729121165293, 2.42384506]
      },
      {
        "species": [{ "element": "Ir", "occu": 1 }],
        "abc": [0.44385502, 0.11932987, 0.75],
        "properties": { "magmom": 0.011 },
        "label": "Ir",
        "xyz": [2.8792435331460684, 0.8690645078834708, 7.271535180000001]
      },
      {
        "species": [{ "element": "Ir", "occu": 1 }],
        "abc": [0.55614498, 0.88067013, 0.25],
        "properties": { "magmom": 0.011 },
        "label": "Ir",
        "xyz": [3.6076573768539317, 6.41381033211653, 2.42384506]
      },
      {
        "species": [{ "element": "Ir", "occu": 1 }],
        "abc": [0.056144980000000004, 0.6193298700000001, 0.75],
        "properties": { "magmom": 0.011 },
        "label": "Ir",
        "xyz": [0.36420692185393183, 4.510501927883471, 7.271535180000001]
      }
    ]
  },
  "task_ids": null,
  "uncorrected_energy_per_atom": null,
  "energy_per_atom": -35.95507446375,
  "formation_energy_per_atom": -0.5655428612500011,
  "energy_above_hull": 0.001494981874998,
  "is_stable": false,
  "equilibrium_reaction_energy_per_atom": null,
  "decomposes_to": null,
  "xas": null,
  "grain_boundaries": null,
  "band_gap": 0.0,
  "cbm": null,
  "vbm": null,
  "efermi": 3.87389574,
  "is_gap_direct": null,
  "is_metal": null,
  "es_source_calc_id": null,
  "bandstructure": null,
  "dos": null,
  "dos_energy_up": null,
  "dos_energy_down": null,
  "is_magnetic": null,
  "ordering": null,
  "total_magnetization": 1.736250399999999,
  "total_magnetization_normalized_vol": null,
  "total_magnetization_normalized_formula_units": null,
  "num_magnetic_sites": null,
  "num_unique_magnetic_sites": null,
  "types_of_magnetic_species": null,
  "bulk_modulus": null,
  "shear_modulus": null,
  "universal_anisotropy": null,
  "homogeneous_poisson": null,
  "e_total": null,
  "e_ionic": null,
  "e_electronic": null,
  "n": null,
  "e_ij_max": null,
  "weighted_surface_energy_EV_PER_ANG2": null,
  "weighted_surface_energy": null,
  "weighted_work_function": null,
  "surface_anisotropy": null,
  "shape_factor": null,
  "has_reconstructed": null,
  "possible_species": null,
  "has_props": null,
  "theoretical": null,
  "database_IDs": null,
  "fields_not_requested": [
    "builder_meta",
    "nsites",
    "elements",
    "nelements",
    "composition",
    "composition_reduced",
    "chemsys",
    "symmetry",
    "property_name",
    "deprecated",
    "deprecation_reasons",
    "last_updated",
    "origins",
    "warnings",
    "task_ids",
    "uncorrected_energy_per_atom",
    "equilibrium_reaction_energy_per_atom",
    "decomposes_to",
    "xas",
    "grain_boundaries",
    "cbm",
    "vbm",
    "is_gap_direct",
    "is_metal",
    "es_source_calc_id",
    "bandstructure",
    "dos",
    "dos_energy_up",
    "dos_energy_down",
    "is_magnetic",
    "ordering",
    "total_magnetization_normalized_vol",
    "total_magnetization_normalized_formula_units",
    "num_magnetic_sites",
    "num_unique_magnetic_sites",
    "types_of_magnetic_species",
    "bulk_modulus",
    "shear_modulus",
    "universal_anisotropy",
    "homogeneous_poisson",
    "e_total",
    "e_ionic",
    "e_electronic",
    "n",
    "e_ij_max",
    "weighted_surface_energy_EV_PER_ANG2",
    "weighted_surface_energy",
    "weighted_work_function",
    "surface_anisotropy",
    "shape_factor",
    "has_reconstructed",
    "possible_species",
    "has_props",
    "theoretical",
    "database_IDs"
  ]
}
