{"builder_meta": null, "nsites": null, "elements": null, "nelements": null, "composition": null, "composition_reduced": null, "formula_pretty": "Sm3In5", "formula_anonymous": "A3B5", "chemsys": null, "volume": 430.5697882364589, "density": 7.907358488289657, "density_atomic": 26.910611764778682, "symmetry": null, "property_name": null, "material_id": "mp-1188557", "deprecated": null, "deprecation_reasons": null, "last_updated": null, "origins": null, "warnings": null, "structure": {"@module": "pymatgen.core.structure", "@class": "Structure", "charge": 0, "lattice": {"matrix": [[5.01732376, 4.10046872, -5.219999999999997e-06], [-5.01732375, 4.1004677, -5.219999999999997e-06], [-0.0, -1.356e-05, 10.46424701]], "pbc": [true, true, true], "a": 6.4797670819548925, "b": 6.479766428744528, "c": 10.464247010008785, "alpha": 90.00009314042359, "beta": 90.00009314042589, "gamma": 101.48435018719887, "volume": 430.5697882364589}, "properties": {}, "sites": [{"species": [{"element": "Sm", "occu": 1}], "abc": [0.13086422, 0.13086422, 0.25], "properties": {"magmom": -0.0}, "label": "Sm", "xyz": [1.308642194608467e-09, 1.0732057578728924, 2.616060386277543]}, {"species": [{"element": "Sm", "occu": 1}], "abc": [0.86913478, 0.86913478, 0.75], "properties": {"magmom": -0.0}, "label": "Sm", "xyz": [8.691348085676509e-09, 7.127708901190688, 7.848176183732896]}, {"species": [{"element": "Sm", "occu": 1}], "abc": [0.702149199999999, 0.297850799999999, 0.999997999999999], "properties": {"magmom": -0.0}, "label": "Sm", "xyz": [2.028495971428492, 4.100454856219296, 10.46422086150597]}, {"species": [{"element": "Sm", "occu": 1}], "abc": [0.7021482, 0.297850799999999, 0.500002], "properties": {"magmom": -0.0}, "label": "Sm", "xyz": [2.0284909541047367, 4.10045753569634, 5.232139213499239]}, {"species": [{"element": "Sm", "occu": 1}], "abc": [0.297850799999999, 0.702149199999999, 0.999997999999999], "properties": {"magmom": -0.0}, "label": "Sm", "xyz": [-2.028495961428492, 4.100454443834929, 10.46422086150597]}, {"species": [{"element": "Sm", "occu": 1}], "abc": [0.297850799999999, 0.7021482, 0.500002], "properties": {"magmom": -0.0}, "label": "Sm", "xyz": [-2.028490944104747, 4.100457123312992, 5.232139213499239]}, {"species": [{"element": "In", "occu": 1}], "abc": [0.0055734, 0.57919969, 0.25], "properties": {"magmom": 0.0}, "label": "In", "xyz": [-2.878068808385654, 2.3978397830590614, 2.61605869998447]}, {"species": [{"element": "In", "occu": 1}], "abc": [0.42080131, 0.9944276, 0.75], "properties": {"magmom": 0.0}, "label": "In", "xyz": [-2.8780688042333744, 5.803090692778543, 7.848177870005089]}, {"species": [{"element": "In", "occu": 1}], "abc": [0.9944276, 0.42080131, 0.75], "properties": {"magmom": 0.0}, "label": "In", "xyz": [2.878068818385663, 5.803091277877359, 7.848177870005089]}, {"species": [{"element": "In", "occu": 1}], "abc": [0.57919969, 0.0055734, 0.25], "properties": {"magmom": 0.0}, "label": "In", "xyz": [2.8780688142333846, 2.3978403681578775, 2.61605869998447]}, {"species": [{"element": "In", "occu": 1}], "abc": [0.18936441, 0.18936441, 0.95156889], "properties": {"magmom": -0.0}, "label": "In", "xyz": [1.8936440193684234e-09, 1.552952583346664, 9.957449935027077]}, {"species": [{"element": "In", "occu": 1}], "abc": [0.81063459, 0.81063459, 0.048429110000000004], "properties": {"magmom": -0.0}, "label": "In", "xyz": [8.106345816827343e-09, 6.647962075744037, 0.5067657064893415]}, {"species": [{"element": "In", "occu": 1}], "abc": [0.18936441, 0.18936441, 0.54843211], "properties": {"magmom": -0.0}, "label": "In", "xyz": [1.8936440193684234e-09, 1.5529580498814008, 5.7389270902910505]}, {"species": [{"element": "In", "occu": 1}], "abc": [0.81063459, 0.81063459, 0.45156989000000003], "properties": {"magmom": -0.0}, "label": "In", "xyz": [8.106345816827343e-09, 6.647956609155061, 4.725330408213409]}, {"species": [{"element": "In", "occu": 1}], "abc": [0.51284717, 0.51284717, 0.25], "properties": {"magmom": -0.0}, "label": "In", "xyz": [5.1284714253085895e-09, 4.205823644346932, 2.616056398375545]}, {"species": [{"element": "In", "occu": 1}], "abc": [0.48715283000000004, 0.48715283000000004, 0.75], "properties": {"magmom": -0.0}, "label": "In", "xyz": [4.871528513916701e-09, 3.9950992156530694, 7.8481801716244535]}]}, "task_ids": null, "uncorrected_energy_per_atom": null, "energy_per_atom": -25.91428385125, "formation_energy_per_atom": -0.6528182437500011, "energy_above_hull": 0.0, "is_stable": true, "equilibrium_reaction_energy_per_atom": null, "decomposes_to": null, "xas": null, "grain_boundaries": null, "band_gap": 0.0, "cbm": null, "vbm": null, "efermi": 5.88393435, "is_gap_direct": null, "is_metal": null, "es_source_calc_id": null, "bandstructure": null, "dos": null, "dos_energy_up": null, "dos_energy_down": null, "is_magnetic": null, "ordering": null, "total_magnetization": 1.5e-06, "total_magnetization_normalized_vol": null, "total_magnetization_normalized_formula_units": null, "num_magnetic_sites": null, "num_unique_magnetic_sites": null, "types_of_magnetic_species": null, "bulk_modulus": null, "shear_modulus": null, "universal_anisotropy": null, "homogeneous_poisson": null, "e_total": null, "e_ionic": null, "e_electronic": null, "n": null, "e_ij_max": null, "weighted_surface_energy_EV_PER_ANG2": null, "weighted_surface_energy": null, "weighted_work_function": null, "surface_anisotropy": null, "shape_factor": null, "has_reconstructed": null, "possible_species": null, "has_props": null, "theoretical": null, "database_IDs": null, "fields_not_requested": ["builder_meta", "nsites", "elements", "nelements", "composition", "composition_reduced", "chemsys", "symmetry", "property_name", "deprecated", "deprecation_reasons", "last_updated", "origins", "warnings", "task_ids", "uncorrected_energy_per_atom", "equilibrium_reaction_energy_per_atom", "decomposes_to", "xas", "grain_boundaries", "cbm", "vbm", "is_gap_direct", "is_metal", "es_source_calc_id", "bandstructure", "dos", "dos_energy_up", "dos_energy_down", "is_magnetic", "ordering", "total_magnetization_normalized_vol", "total_magnetization_normalized_formula_units", "num_magnetic_sites", "num_unique_magnetic_sites", "types_of_magnetic_species", "bulk_modulus", "shear_modulus", "universal_anisotropy", "homogeneous_poisson", "e_total", "e_ionic", "e_electronic", "n", "e_ij_max", "weighted_surface_energy_EV_PER_ANG2", "weighted_surface_energy", "weighted_work_function", "surface_anisotropy", "shape_factor", "has_reconstructed", "possible_species", "has_props", "theoretical", "database_IDs"]}