{
  "builder_meta": null,
  "nsites": null,
  "elements": null,
  "nelements": null,
  "composition": null,
  "composition_reduced": null,
  "formula_pretty": "Sm3Ni",
  "formula_anonymous": "AB3",
  "chemsys": null,
  "volume": 438.5028433438221,
  "density": 7.721716368892816,
  "density_atomic": 27.406427708988883,
  "symmetry": null,
  "property_name": null,
  "material_id": "mp-1105945",
  "deprecated": null,
  "deprecation_reasons": null,
  "last_updated": null,
  "origins": null,
  "warnings": null,
  "structure": {
    "@module": "pymatgen.core.structure",
    "@class": "Structure",
    "charge": 0,
    "lattice": {
      "matrix": [
        [2.56e-6, -6.411e-5, 6.4568099],
        [6.90529466, -5.2350000000000005e-5, 4.64e-6],
        [-8.755000000000001e-5, 9.83495095, -9.787000000000001e-5]
      ],
      "pbc": [true, true, true],
      "a": 6.456809900318783,
      "b": 6.905294660199995,
      "c": 9.834950950876646,
      "alpha": 90.0009444104197,
      "beta": 90.00113905726693,
      "gamma": 89.99993877922763,
      "volume": 438.5028433438222
    },
    "properties": {},
    "sites": [
      {
        "species": [{ "element": "Sm", "occu": 1 }],
        "abc": [0.3219748, 0.67431017, 0.06740963],
        "properties": { "magmom": -0.0 },
        "label": "Sm",
        "xyz": [4.656305338627074, 0.662914462665821, 2.0789266076092203]
      },
      {
        "species": [{ "element": "Sm", "occu": 1 }],
        "abc": [0.17804703, 0.1743133, 0.43261862],
        "properties": { "magmom": 0.0 },
        "label": "Sm",
        "xyz": [1.2036472796971938, 4.254762367860341, 1.1495742943989695]
      },
      {
        "species": [{ "element": "Sm", "occu": 1 }],
        "abc": [0.67805804, 0.3256658, 0.56747147],
        "properties": { "magmom": 0.0 },
        "label": "Sm",
        "xyz": [2.248770363386012, 5.580993554068822, 4.378037838103139]
      },
      {
        "species": [{ "element": "Sm", "occu": 1 }],
        "abc": [0.82196438, 0.82566918, 0.93249978],
        "properties": { "magmom": -0.0 },
        "label": "Sm",
        "xyz": [5.701409443453652, 9.170993677267816, 5.307180313582889]
      },
      {
        "species": [{ "element": "Sm", "occu": 1 }],
        "abc": [0.6780282, 0.32567019, 0.93249607],
        "properties": { "magmom": 0.0 },
        "label": "Sm",
        "xyz": [2.2487687196494495, 9.170992592295418, 4.37780944195849]
      },
      {
        "species": [{ "element": "Sm", "occu": 1 }],
        "abc": [0.82194939, 0.82566693, 0.56747503],
        "properties": { "magmom": -0.0 },
        "label": "Sm",
        "xyz": [5.701425864419156, 5.5809931665606, 5.3071192509643295]
      },
      {
        "species": [{ "element": "Sm", "occu": 1 }],
        "abc": [0.32194754000000003, 0.67431447, 0.43262248000000003],
        "properties": { "magmom": -0.0 },
        "label": "Sm",
        "xyz": [4.65630305693931, 4.254764930248062, 2.078714851609669]
      },
      {
        "species": [{ "element": "Sm", "occu": 1 }],
        "abc": [0.17803149000000001, 0.17431111, 0.06740581],
        "properties": { "magmom": 0.0 },
        "label": "Sm",
        "xyz": [1.2036641314436214, 0.662912296309587, 1.1495096989406766]
      },
      {
        "species": [{ "element": "Sm", "occu": 1 }],
        "abc": [0.85838739, 0.53536712, 0.24997994],
        "properties": { "magmom": -0.0 },
        "label": "Sm",
        "xyz": [3.69684802660355, 2.458457390699638, 5.542422216353869]
      },
      {
        "species": [{ "element": "Sm", "occu": 1 }],
        "abc": [0.64161378, 0.035366760000000004, 0.24998532],
        "properties": { "magmom": 0.0 },
        "label": "Sm",
        "xyz": [0.24419765528601242, 2.458550375110732, 4.14275390471892]
      },
      {
        "species": [{ "element": "Sm", "occu": 1 }],
        "abc": [0.14163241000000001, 0.46464598, 0.75001979],
        "properties": { "magmom": -0.0 },
        "label": "Sm",
        "xyz": [3.208452102830822, 7.376374441908442, 0.9144222985693589]
      },
      {
        "species": [{ "element": "Sm", "occu": 1 }],
        "abc": [0.35836704, 0.96464671, 0.75001417],
        "properties": { "magmom": -0.0 },
        "label": "Sm",
        "xyz": [6.661105029028607, 7.376279099588759, 2.313838923779613]
      },
      {
        "species": [{ "element": "Ni", "occu": 1 }],
        "abc": [0.05919664, 0.88976868, 0.25001136],
        "properties": { "magmom": 0.0 },
        "label": "Ni",
        "xyz": [6.144093177688079, 2.4587990880558035, 0.382201111113608]
      },
      {
        "species": [{ "element": "Ni", "occu": 1 }],
        "abc": [0.44080376, 0.38976843, 0.25001873],
        "properties": { "magmom": -0.0 },
        "label": "Ni",
        "xyz": [2.691445097633398, 2.4588732818249293, 2.846163420717634]
      },
      {
        "species": [{ "element": "Ni", "occu": 1 }],
        "abc": [0.94084742, 0.11025999, 0.7499885],
        "properties": { "magmom": -0.0 },
        "label": "Ni",
        "xyz": [0.7613144672348736, 7.376034020725502, 6.074800046077316]
      },
      {
        "species": [{ "element": "Ni", "occu": 1 }],
        "abc": [0.55915269, 0.610260199999999, 0.74998131],
        "properties": { "magmom": 0.0 },
        "label": "Ni",
        "xyz": [4.213962270837722, 7.375961602866319, 3.610272055340149]
      }
    ]
  },
  "task_ids": null,
  "uncorrected_energy_per_atom": null,
  "energy_per_atom": -5.177631946875,
  "formation_energy_per_atom": -0.193658175624999,
  "energy_above_hull": 0.0,
  "is_stable": true,
  "equilibrium_reaction_energy_per_atom": null,
  "decomposes_to": null,
  "xas": null,
  "grain_boundaries": null,
  "band_gap": 0.0,
  "cbm": null,
  "vbm": null,
  "efermi": 3.78800493,
  "is_gap_direct": null,
  "is_metal": null,
  "es_source_calc_id": null,
  "bandstructure": null,
  "dos": null,
  "dos_energy_up": null,
  "dos_energy_down": null,
  "is_magnetic": null,
  "ordering": null,
  "total_magnetization": 2.4200000000000002e-5,
  "total_magnetization_normalized_vol": null,
  "total_magnetization_normalized_formula_units": null,
  "num_magnetic_sites": null,
  "num_unique_magnetic_sites": null,
  "types_of_magnetic_species": null,
  "bulk_modulus": null,
  "shear_modulus": null,
  "universal_anisotropy": null,
  "homogeneous_poisson": null,
  "e_total": null,
  "e_ionic": null,
  "e_electronic": null,
  "n": null,
  "e_ij_max": null,
  "weighted_surface_energy_EV_PER_ANG2": null,
  "weighted_surface_energy": null,
  "weighted_work_function": null,
  "surface_anisotropy": null,
  "shape_factor": null,
  "has_reconstructed": null,
  "possible_species": null,
  "has_props": null,
  "theoretical": null,
  "database_IDs": null,
  "fields_not_requested": [
    "builder_meta",
    "nsites",
    "elements",
    "nelements",
    "composition",
    "composition_reduced",
    "chemsys",
    "symmetry",
    "property_name",
    "deprecated",
    "deprecation_reasons",
    "last_updated",
    "origins",
    "warnings",
    "task_ids",
    "uncorrected_energy_per_atom",
    "equilibrium_reaction_energy_per_atom",
    "decomposes_to",
    "xas",
    "grain_boundaries",
    "cbm",
    "vbm",
    "is_gap_direct",
    "is_metal",
    "es_source_calc_id",
    "bandstructure",
    "dos",
    "dos_energy_up",
    "dos_energy_down",
    "is_magnetic",
    "ordering",
    "total_magnetization_normalized_vol",
    "total_magnetization_normalized_formula_units",
    "num_magnetic_sites",
    "num_unique_magnetic_sites",
    "types_of_magnetic_species",
    "bulk_modulus",
    "shear_modulus",
    "universal_anisotropy",
    "homogeneous_poisson",
    "e_total",
    "e_ionic",
    "e_electronic",
    "n",
    "e_ij_max",
    "weighted_surface_energy_EV_PER_ANG2",
    "weighted_surface_energy",
    "weighted_work_function",
    "surface_anisotropy",
    "shape_factor",
    "has_reconstructed",
    "possible_species",
    "has_props",
    "theoretical",
    "database_IDs"
  ]
}
