{
  "builder_meta": null,
  "nsites": null,
  "elements": null,
  "nelements": null,
  "composition": null,
  "composition_reduced": null,
  "formula_pretty": "Sm3Pd4",
  "formula_anonymous": "A3B4",
  "chemsys": null,
  "volume": 303.1942580591512,
  "density": 9.603705831052912,
  "density_atomic": 21.6567327185108,
  "symmetry": null,
  "property_name": null,
  "material_id": "mp-1104311",
  "deprecated": null,
  "deprecation_reasons": null,
  "last_updated": null,
  "origins": null,
  "warnings": null,
  "structure": {
    "@module": "pymatgen.core.structure",
    "@class": "Structure",
    "charge": 0,
    "lattice": {
      "matrix": [
        [-0.0, 0.0, -5.7765826],
        [0.00017096, -7.7850185, 1.92552753],
        [-6.7421101199999995, 3.89236208, 1.92552753]
      ],
      "pbc": [true, true, true],
      "a": 5.7765826,
      "b": 8.019611545664633,
      "c": 8.01961269019996,
      "alpha": 114.42654762653518,
      "beta": 103.8925788416354,
      "gamma": 103.89258086413535,
      "volume": 303.19425805915114
    },
    "properties": {},
    "sites": [
      {
        "species": [{ "element": "Sm", "occu": 1 }],
        "abc": [0.40550295000000003, 0.12553486, 0.37726635000000003],
        "properties": { "magmom": -0.0 },
        "label": "Sm",
        "xyz": [-2.5435498148307967, 0.49116602730509806, -1.3742637132463589]
      },
      {
        "species": [{ "element": "Sm", "occu": 1 }],
        "abc": [0.0282356, 0.62273365, 0.74826751],
        "properties": { "magmom": -0.0 },
        "label": "Sm",
        "xyz": [-5.0447954890933975, -1.9354649042025036, 2.476795201581375]
      },
      {
        "species": [{ "element": "Sm", "occu": 1 }],
        "abc": [0.27996809, 0.25173249000000003, 0.87446514],
        "properties": { "magmom": -0.0 },
        "label": "Sm",
        "xyz": [-5.895697233794726, 1.443992859516826, 0.5512657435365198]
      },
      {
        "species": [{ "element": "Sm", "occu": 1 }],
        "abc": [0.59449705, 0.87446514, 0.62273365],
        "properties": { "magmom": -0.0 },
        "label": "Sm",
        "xyz": [-4.198389345169203, -4.383822447305097, -0.5512638267536412]
      },
      {
        "species": [{ "element": "Sm", "occu": 1 }],
        "abc": [0.9717644, 0.37726635000000003, 0.25173249000000003],
        "properties": { "magmom": -0.0 },
        "label": "Sm",
        "xyz": [-1.697143670906603, -1.9571915157974957, -4.402322741581375]
      },
      {
        "species": [{ "element": "Sm", "occu": 1 }],
        "abc": [0.72003191, 0.74826751, 0.12553486],
        "properties": { "magmom": -0.0 },
        "label": "Sm",
        "xyz": [-0.8462419262052736, -5.336649279516826, -2.4767932835365194]
      },
      {
        "species": [{ "element": "Pd", "occu": 1 }],
        "abc": [-0.0, 0.0, 0.0],
        "properties": { "magmom": 0.0 },
        "label": "Pd",
        "xyz": [0.0, 0.0, 0.0]
      },
      {
        "species": [{ "element": "Pd", "occu": 1 }],
        "abc": [0.5, 0.0, 0.0],
        "properties": { "magmom": 0.0 },
        "label": "Pd",
        "xyz": [0.0, 0.0, -2.8882913]
      },
      {
        "species": [{ "element": "Pd", "occu": 1 }],
        "abc": [0.22327484, 0.67005791, 0.16467456],
        "properties": { "magmom": -0.0 },
        "label": "Pd",
        "xyz": [-1.1101394643822535, -4.57544021253665, 0.31753479540811536]
      },
      {
        "species": [{ "element": "Pd", "occu": 1 }],
        "abc": [0.05860029, 0.83532544, 0.50538435],
        "properties": { "magmom": -0.0 },
        "label": "Pd",
        "xyz": [-3.4072141333874, -4.535885124155191, 2.243064194816565]
      },
      {
        "species": [{ "element": "Pd", "occu": 1 }],
        "abc": [0.55321693, 0.49461565, 0.32994209],
        "properties": { "magmom": -0.0 },
        "label": "Pd",
        "xyz": [-2.224421344511427, -2.5663379059275773, -1.607994663418836]
      },
      {
        "species": [{ "element": "Pd", "occu": 1 }],
        "abc": [0.77672516, 0.32994209, 0.83532544],
        "properties": { "magmom": -0.0 },
        "label": "Pd",
        "xyz": [-5.631799695617746, 0.6827837925366502, -2.2430623354081147]
      },
      {
        "species": [{ "element": "Pd", "occu": 1 }],
        "abc": [0.94139971, 0.16467456, 0.49461565],
        "properties": { "magmom": -0.0 },
        "label": "Pd",
        "xyz": [-3.3347250266126003, 0.6432287041551921, -4.168591734816565]
      },
      {
        "species": [{ "element": "Pd", "occu": 1 }],
        "abc": [0.44678307, 0.50538435, 0.67005791],
        "properties": { "magmom": -0.0 },
        "label": "Pd",
        "xyz": [-4.517517815488573, -1.3263185140724225, -0.3175328765811638]
      }
    ]
  },
  "task_ids": null,
  "uncorrected_energy_per_atom": null,
  "energy_per_atom": -26.752133539285715,
  "formation_energy_per_atom": -0.8891924821428581,
  "energy_above_hull": 0.0,
  "is_stable": true,
  "equilibrium_reaction_energy_per_atom": null,
  "decomposes_to": null,
  "xas": null,
  "grain_boundaries": null,
  "band_gap": 0.0,
  "cbm": null,
  "vbm": null,
  "efermi": 4.34056081,
  "is_gap_direct": null,
  "is_metal": null,
  "es_source_calc_id": null,
  "bandstructure": null,
  "dos": null,
  "dos_energy_up": null,
  "dos_energy_down": null,
  "is_magnetic": null,
  "ordering": null,
  "total_magnetization": 0.0,
  "total_magnetization_normalized_vol": null,
  "total_magnetization_normalized_formula_units": null,
  "num_magnetic_sites": null,
  "num_unique_magnetic_sites": null,
  "types_of_magnetic_species": null,
  "bulk_modulus": null,
  "shear_modulus": null,
  "universal_anisotropy": null,
  "homogeneous_poisson": null,
  "e_total": null,
  "e_ionic": null,
  "e_electronic": null,
  "n": null,
  "e_ij_max": null,
  "weighted_surface_energy_EV_PER_ANG2": null,
  "weighted_surface_energy": null,
  "weighted_work_function": null,
  "surface_anisotropy": null,
  "shape_factor": null,
  "has_reconstructed": null,
  "possible_species": null,
  "has_props": null,
  "theoretical": null,
  "database_IDs": null,
  "fields_not_requested": [
    "builder_meta",
    "nsites",
    "elements",
    "nelements",
    "composition",
    "composition_reduced",
    "chemsys",
    "symmetry",
    "property_name",
    "deprecated",
    "deprecation_reasons",
    "last_updated",
    "origins",
    "warnings",
    "task_ids",
    "uncorrected_energy_per_atom",
    "equilibrium_reaction_energy_per_atom",
    "decomposes_to",
    "xas",
    "grain_boundaries",
    "cbm",
    "vbm",
    "is_gap_direct",
    "is_metal",
    "es_source_calc_id",
    "bandstructure",
    "dos",
    "dos_energy_up",
    "dos_energy_down",
    "is_magnetic",
    "ordering",
    "total_magnetization_normalized_vol",
    "total_magnetization_normalized_formula_units",
    "num_magnetic_sites",
    "num_unique_magnetic_sites",
    "types_of_magnetic_species",
    "bulk_modulus",
    "shear_modulus",
    "universal_anisotropy",
    "homogeneous_poisson",
    "e_total",
    "e_ionic",
    "e_electronic",
    "n",
    "e_ij_max",
    "weighted_surface_energy_EV_PER_ANG2",
    "weighted_surface_energy",
    "weighted_work_function",
    "surface_anisotropy",
    "shape_factor",
    "has_reconstructed",
    "possible_species",
    "has_props",
    "theoretical",
    "database_IDs"
  ]
}
