{
  "builder_meta": null,
  "nsites": null,
  "elements": null,
  "nelements": null,
  "composition": null,
  "composition_reduced": null,
  "formula_pretty": "Sm3Pt4",
  "formula_anonymous": "A3B4",
  "chemsys": null,
  "volume": 302.34511987503697,
  "density": 13.526359387454,
  "density_atomic": 21.59607999107407,
  "symmetry": null,
  "property_name": null,
  "material_id": "mp-1104800",
  "deprecated": null,
  "deprecation_reasons": null,
  "last_updated": null,
  "origins": null,
  "warnings": null,
  "structure": {
    "@module": "pymatgen.core.structure",
    "@class": "Structure",
    "charge": 0,
    "lattice": {
      "matrix": [
        [-1e-8, -0.0, -5.75928277],
        [0.00017308000000000002, -7.7857764, 1.9197605800000002],
        [-6.74276785, 3.89273996, 1.9197605800000002]
      ],
      "pbc": [true, true, true],
      "a": 5.75928277,
      "b": 8.01896470033854,
      "c": 8.018966477027845,
      "alpha": 114.45822934077357,
      "beta": 103.85127772764615,
      "gamma": 103.85128094392442,
      "volume": 302.34511987503697
    },
    "properties": {},
    "sites": [
      {
        "species": [{ "element": "Sm", "occu": 1 }],
        "abc": [0.404905399999999, 0.12266244, 0.375176399999999],
        "properties": { "magmom": 0.0 },
        "label": "Sm",
        "xyz": [-2.5297061416326723, 0.5054418338105243, -1.3762333134750273]
      },
      {
        "species": [{ "element": "Sm", "occu": 1 }],
        "abc": [0.029727, 0.624823599999999, 0.74748604],
        "properties": { "magmom": 0.0 },
        "label": "Sm",
        "xyz": [-5.040016694664396, -1.954968061592874, 2.4632997515221993]
      },
      {
        "species": [{ "element": "Sm", "occu": 1 }],
        "abc": [0.28224196, 0.25251396, 0.8773375600000001],
        "properties": { "magmom": 0.0 },
        "label": "Sm",
        "xyz": [-5.915639790871669, 1.4492297477823541, 0.5435331521500526]
      },
      {
        "species": [{ "element": "Sm", "occu": 1 }],
        "abc": [0.595094599999999, 0.8773375600000001, 0.624823599999999],
        "properties": { "magmom": 0.0 },
        "label": "Sm",
        "xyz": [-4.212888638367315, -4.3984782738105315, -0.5435282965249653]
      },
      {
        "species": [{ "element": "Sm", "occu": 1 }],
        "abc": [0.970272999999999, 0.375176399999999, 0.25251396],
        "properties": { "magmom": 0.0 },
        "label": "Sm",
        "xyz": [-1.7025780853356038, -1.9380683784071109, -4.383061361522198]
      },
      {
        "species": [{ "element": "Sm", "occu": 1 }],
        "abc": [0.71775804, 0.74748604, 0.12266244],
        "properties": { "magmom": 0.0 },
        "label": "Sm",
        "xyz": [-0.8269549891283311, -5.342266187782353, -2.4632947621500523]
      },
      {
        "species": [{ "element": "Pt", "occu": 1 }],
        "abc": [-0.0, -0.0, -0.0],
        "properties": { "magmom": -0.0 },
        "label": "Pt",
        "xyz": [0.0, 0.0, 0.0]
      },
      {
        "species": [{ "element": "Pt", "occu": 1 }],
        "abc": [0.5, -0.0, -0.0],
        "properties": { "magmom": -0.0 },
        "label": "Pt",
        "xyz": [-5e-9, 0.0, -2.879641385]
      },
      {
        "species": [{ "element": "Pt", "occu": 1 }],
        "abc": [0.22328241000000001, 0.66713141, 0.16437812000000002],
        "properties": { "magmom": -0.0 },
        "label": "Pt",
        "xyz": [-1.1082480379078234, -4.554254711403049, 0.31035268083125167]
      },
      {
        "species": [{ "element": "Pt", "occu": 1 }],
        "abc": [0.05890529, 0.83562188, 0.50275329],
        "properties": { "magmom": -0.0 },
        "label": "Pt",
        "xyz": [-3.3898040914477887, -4.548877290623164, 2.2301076708579455]
      },
      {
        "species": [{ "element": "Pt", "occu": 1 }],
        "abc": [0.556152, 0.49724671000000004, 0.33286859],
        "properties": { "magmom": -0.0 },
        "label": "Pt",
        "xyz": [-2.2443695690277847, -2.5756808379737874, -1.6094140013061664]
      },
      {
        "species": [{ "element": "Pt", "occu": 1 }],
        "abc": [0.7767175900000001, 0.33286859, 0.83562188],
        "properties": { "magmom": -0.0 },
        "label": "Pt",
        "xyz": [-5.634346742092177, 0.6612182714030492, -2.2301142908312523]
      },
      {
        "species": [{ "element": "Pt", "occu": 1 }],
        "abc": [0.94109471, 0.16437812000000002, 0.49724671000000004],
        "properties": { "magmom": -0.0 },
        "label": "Pt",
        "xyz": [-3.352790688552211, 0.6558408506231637, -4.149869280857946]
      },
      {
        "species": [{ "element": "Pt", "occu": 1 }],
        "abc": [0.443847999999999, 0.50275329, 0.66713141],
        "properties": { "magmom": -0.0 },
        "label": "Pt",
        "xyz": [-4.498225210972215, -1.3173556020262125, -0.31034760869382794]
      }
    ]
  },
  "task_ids": null,
  "uncorrected_energy_per_atom": null,
  "energy_per_atom": -6.626866362857137,
  "formation_energy_per_atom": -1.1353961221428501,
  "energy_above_hull": 0.0033836564285770004,
  "is_stable": false,
  "equilibrium_reaction_energy_per_atom": null,
  "decomposes_to": null,
  "xas": null,
  "grain_boundaries": null,
  "band_gap": 0.0,
  "cbm": null,
  "vbm": null,
  "efermi": 5.05874717,
  "is_gap_direct": null,
  "is_metal": null,
  "es_source_calc_id": null,
  "bandstructure": null,
  "dos": null,
  "dos_energy_up": null,
  "dos_energy_down": null,
  "is_magnetic": null,
  "ordering": null,
  "total_magnetization": 0.0,
  "total_magnetization_normalized_vol": null,
  "total_magnetization_normalized_formula_units": null,
  "num_magnetic_sites": null,
  "num_unique_magnetic_sites": null,
  "types_of_magnetic_species": null,
  "bulk_modulus": null,
  "shear_modulus": null,
  "universal_anisotropy": null,
  "homogeneous_poisson": null,
  "e_total": null,
  "e_ionic": null,
  "e_electronic": null,
  "n": null,
  "e_ij_max": null,
  "weighted_surface_energy_EV_PER_ANG2": null,
  "weighted_surface_energy": null,
  "weighted_work_function": null,
  "surface_anisotropy": null,
  "shape_factor": null,
  "has_reconstructed": null,
  "possible_species": null,
  "has_props": null,
  "theoretical": null,
  "database_IDs": null,
  "fields_not_requested": [
    "builder_meta",
    "nsites",
    "elements",
    "nelements",
    "composition",
    "composition_reduced",
    "chemsys",
    "symmetry",
    "property_name",
    "deprecated",
    "deprecation_reasons",
    "last_updated",
    "origins",
    "warnings",
    "task_ids",
    "uncorrected_energy_per_atom",
    "equilibrium_reaction_energy_per_atom",
    "decomposes_to",
    "xas",
    "grain_boundaries",
    "cbm",
    "vbm",
    "is_gap_direct",
    "is_metal",
    "es_source_calc_id",
    "bandstructure",
    "dos",
    "dos_energy_up",
    "dos_energy_down",
    "is_magnetic",
    "ordering",
    "total_magnetization_normalized_vol",
    "total_magnetization_normalized_formula_units",
    "num_magnetic_sites",
    "num_unique_magnetic_sites",
    "types_of_magnetic_species",
    "bulk_modulus",
    "shear_modulus",
    "universal_anisotropy",
    "homogeneous_poisson",
    "e_total",
    "e_ionic",
    "e_electronic",
    "n",
    "e_ij_max",
    "weighted_surface_energy_EV_PER_ANG2",
    "weighted_surface_energy",
    "weighted_work_function",
    "surface_anisotropy",
    "shape_factor",
    "has_reconstructed",
    "possible_species",
    "has_props",
    "theoretical",
    "database_IDs"
  ]
}
