{
  "builder_meta": null,
  "nsites": null,
  "elements": null,
  "nelements": null,
  "composition": null,
  "composition_reduced": null,
  "formula_pretty": "Sm3Ru",
  "formula_anonymous": "AB3",
  "chemsys": null,
  "volume": 450.7719280187982,
  "density": 8.13596933289914,
  "density_atomic": 28.173245501174886,
  "symmetry": null,
  "property_name": null,
  "material_id": "mp-1188125",
  "deprecated": null,
  "deprecation_reasons": null,
  "last_updated": null,
  "origins": null,
  "warnings": null,
  "structure": {
    "@module": "pymatgen.core.structure",
    "@class": "Structure",
    "charge": 0,
    "lattice": {
      "matrix": [
        [-1.71e-6, 3.1e-7, 6.45971151],
        [7.34157149, 4.36e-6, -1.75e-6],
        [3.37e-6, 9.5050566, -5e-8]
      ],
      "pbc": [true, true, true],
      "a": 6.459711510000234,
      "b": 7.3415714900015026,
      "c": 9.505056600000596,
      "alpha": 89.99994565916853,
      "beta": 89.99999755179103,
      "gamma": 90.0000288247194,
      "volume": 450.7719280187982
    },
    "properties": {},
    "sites": [
      {
        "species": [{ "element": "Sm", "occu": 1 }],
        "abc": [0.32704153, 0.67516473, 0.06737639000000001],
        "properties": { "magmom": 0.0 },
        "label": "Sm",
        "xyz": [4.956769800638965, 0.6404194455547711, 2.1125927506819138]
      },
      {
        "species": [{ "element": "Sm", "occu": 1 }],
        "abc": [0.17301005, 0.17511761, 0.43256745],
        "properties": { "magmom": 0.0 },
        "label": "Sm",
        "xyz": [1.28563961487806, 4.111578912713565, 1.1175946832464856]
      },
      {
        "species": [{ "element": "Sm", "occu": 1 }],
        "abc": [0.6729919400000001, 0.32486891, 0.56734244],
        "properties": { "magmom": 0.0 },
        "label": "Sm",
        "xyz": [2.385049088771181, 5.392623628838053, 4.347333184067516]
      },
      {
        "species": [{ "element": "Sm", "occu": 1 }],
        "abc": [0.82705599, 0.82482228, 0.93271474],
        "properties": { "magmom": -0.0 },
        "label": "Sm",
        "xyz": [6.0554934641477285, 8.865510247966782, 5.342541607942718]
      },
      {
        "species": [{ "element": "Sm", "occu": 1 }],
        "abc": [0.67294421, 0.32482242, 0.93271486],
        "properties": { "magmom": 0.0 },
        "label": "Sm",
        "xyz": [2.384709010499285, 8.865509160799531, 4.347024843849879]
      },
      {
        "species": [{ "element": "Sm", "occu": 1 }],
        "abc": [0.82700832, 0.82486884, 0.567342599999999],
        "properties": { "magmom": -0.0 },
        "label": "Sm",
        "xyz": [6.055834056493706, 5.3926273773918725, 5.342233691682163]
      },
      {
        "species": [{ "element": "Sm", "occu": 1 }],
        "abc": [0.32698977, 0.67511801, 0.43256722000000003],
        "properties": { "magmom": -0.0 },
        "label": "Sm",
        "xyz": [4.9564280332005595, 4.111578954286005, 2.1122583778363744]
      },
      {
        "species": [{ "element": "Sm", "occu": 1 }],
        "abc": [0.17295806, 0.17516432, 0.06737612],
        "properties": { "magmom": -0.0 },
        "label": "Sm",
        "xyz": [1.2859813090764787, 0.6404146514218257, 1.1172588610229046]
      },
      {
        "species": [{ "element": "Sm", "occu": 1 }],
        "abc": [0.86093746, 0.54522665, 0.25003568],
        "properties": { "magmom": -0.0 },
        "label": "Sm",
        "xyz": [4.002819799645394, 2.3766059344982944, 5.561406653103744]
      },
      {
        "species": [{ "element": "Sm", "occu": 1 }],
        "abc": [0.63906238, 0.045226499999999004, 0.25003564],
        "properties": { "magmom": 0.0 },
        "label": "Sm",
        "xyz": [0.33203333281591463, 2.376603305514102, 4.1281585200458375]
      },
      {
        "species": [{ "element": "Sm", "occu": 1 }],
        "abc": [0.1390592, 0.45478648, 0.74996577],
        "properties": { "magmom": 0.0 },
        "label": "Sm",
        "xyz": [3.3388497451988677, 7.128469117889986, 0.8982814814367635]
      },
      {
        "species": [{ "element": "Sm", "occu": 1 }],
        "abc": [0.36093968, 0.9547866700000001, 0.74996582],
        "properties": { "magmom": -0.0 },
        "label": "Sm",
        "xyz": [7.009636505681999, 7.128471841926594, 2.331564496936753]
      },
      {
        "species": [{ "element": "Ru", "occu": 1 }],
        "abc": [0.03998681, 0.88783007, 0.24993002],
        "properties": { "magmom": 0.0 },
        "label": "Ru",
        "xyz": [6.518068703763427, 2.375602869474148, 0.25830169060605956]
      },
      {
        "species": [{ "element": "Ru", "occu": 1 }],
        "abc": [0.460013199999999, 0.387830499999999, 0.24992997],
        "properties": { "magmom": -0.0 },
        "label": "Ru",
        "xyz": [2.8472853973938648, 2.375600344431374, 2.971551871592052]
      },
      {
        "species": [{ "element": "Ru", "occu": 1 }],
        "abc": [0.9600175200000001, 0.11218198, 0.75006671],
        "properties": { "magmom": -0.0 },
        "label": "Ru",
        "xyz": [0.8235929121546036, 7.12942731904465, 6.201435989923856]
      },
      {
        "species": [{ "element": "Ru", "occu": 1 }],
        "abc": [0.53998287, 0.61218203, 0.75006656],
        "properties": { "magmom": 0.0 },
        "label": "Ru",
        "xyz": [4.494379742491924, 7.129427943075636, 3.4881324517199532]
      }
    ]
  },
  "task_ids": null,
  "uncorrected_energy_per_atom": null,
  "energy_per_atom": -28.9118492525,
  "formation_energy_per_atom": -0.25602218875000204,
  "energy_above_hull": 0.0,
  "is_stable": true,
  "equilibrium_reaction_energy_per_atom": null,
  "decomposes_to": null,
  "xas": null,
  "grain_boundaries": null,
  "band_gap": 0.0,
  "cbm": null,
  "vbm": null,
  "efermi": 3.75057702,
  "is_gap_direct": null,
  "is_metal": null,
  "es_source_calc_id": null,
  "bandstructure": null,
  "dos": null,
  "dos_energy_up": null,
  "dos_energy_down": null,
  "is_magnetic": null,
  "ordering": null,
  "total_magnetization": 2e-7,
  "total_magnetization_normalized_vol": null,
  "total_magnetization_normalized_formula_units": null,
  "num_magnetic_sites": null,
  "num_unique_magnetic_sites": null,
  "types_of_magnetic_species": null,
  "bulk_modulus": null,
  "shear_modulus": null,
  "universal_anisotropy": null,
  "homogeneous_poisson": null,
  "e_total": null,
  "e_ionic": null,
  "e_electronic": null,
  "n": null,
  "e_ij_max": null,
  "weighted_surface_energy_EV_PER_ANG2": null,
  "weighted_surface_energy": null,
  "weighted_work_function": null,
  "surface_anisotropy": null,
  "shape_factor": null,
  "has_reconstructed": null,
  "possible_species": null,
  "has_props": null,
  "theoretical": null,
  "database_IDs": null,
  "fields_not_requested": [
    "builder_meta",
    "nsites",
    "elements",
    "nelements",
    "composition",
    "composition_reduced",
    "chemsys",
    "symmetry",
    "property_name",
    "deprecated",
    "deprecation_reasons",
    "last_updated",
    "origins",
    "warnings",
    "task_ids",
    "uncorrected_energy_per_atom",
    "equilibrium_reaction_energy_per_atom",
    "decomposes_to",
    "xas",
    "grain_boundaries",
    "cbm",
    "vbm",
    "is_gap_direct",
    "is_metal",
    "es_source_calc_id",
    "bandstructure",
    "dos",
    "dos_energy_up",
    "dos_energy_down",
    "is_magnetic",
    "ordering",
    "total_magnetization_normalized_vol",
    "total_magnetization_normalized_formula_units",
    "num_magnetic_sites",
    "num_unique_magnetic_sites",
    "types_of_magnetic_species",
    "bulk_modulus",
    "shear_modulus",
    "universal_anisotropy",
    "homogeneous_poisson",
    "e_total",
    "e_ionic",
    "e_electronic",
    "n",
    "e_ij_max",
    "weighted_surface_energy_EV_PER_ANG2",
    "weighted_surface_energy",
    "weighted_work_function",
    "surface_anisotropy",
    "shape_factor",
    "has_reconstructed",
    "possible_species",
    "has_props",
    "theoretical",
    "database_IDs"
  ]
}
