{"builder_meta": null, "nsites": null, "elements": null, "nelements": null, "composition": null, "composition_reduced": null, "formula_pretty": "Sm3Rh2", "formula_anonymous": "A2B3", "chemsys": null, "volume": 366.95816114067475, "density": 8.917582031209665, "density_atomic": 24.463877409378316, "symmetry": null, "property_name": null, "material_id": "mp-17391", "deprecated": null, "deprecation_reasons": null, "last_updated": null, "origins": null, "warnings": null, "structure": {"@module": "pymatgen.core.structure", "@class": "Structure", "charge": 0, "lattice": {"matrix": [[7.104462, 0.00441689, 2.39925427], [1.7245816600000001, 6.89263288, 2.39761262], [0.00626985, 0.00661195, 7.49879118]], "pbc": [true, true, true], "a": 7.498654604025611, "b": 7.498740974060159, "c": 7.498796716150372, "alpha": 71.29244549066445, "beta": 71.29168747093227, "gamma": 71.29254230564638, "volume": 366.95816114067475}, "properties": {}, "sites": [{"species": [{"element": "Sm", "occu": 1}], "abc": [0.66014324, 0.16725158, 0.89107209], "properties": {"magmom": -0.0}, "label": "Sm", "xyz": [4.983988458954389, 1.1616112437207495, 8.666819515540741]}, {"species": [{"element": "Sm", "occu": 1}], "abc": [0.89108842, 0.66014099, 0.16724062], "properties": {"magmom": -0.0}, "label": "Sm", "xyz": [7.47021943649959, 4.555151119258574, 4.974812551429579]}, {"species": [{"element": "Sm", "occu": 1}], "abc": [0.16723425, 0.89108003, 0.66014421], "properties": {"magmom": -0.0}, "label": "Sm", "xyz": [2.7289886567288186, 6.146991009285178, 7.487985793236794]}, {"species": [{"element": "Sm", "occu": 1}], "abc": [0.83276161, 0.108928199999999, 0.339854799999999], "properties": {"magmom": -0.0}, "label": "Sm", "xyz": [6.10630962789841, 0.756727412251662, 4.807674652399113]}, {"species": [{"element": "Sm", "occu": 1}], "abc": [0.10890132, 0.33985888000000003, 0.83276053], "properties": {"magmom": -0.0}, "label": "Sm", "xyz": [1.3650209647350011, 2.3485096669856027, 7.320829214141828]}, {"species": [{"element": "Sm", "occu": 1}], "abc": [0.3398599, 0.8327521, 0.10892978], "properties": {"magmom": -0.0}, "label": "Sm", "xyz": [3.8513537172414187, 5.7420758674016295, 3.6288689340716154]}, {"species": [{"element": "Sm", "occu": 1}], "abc": [0.70254116, 0.70253961, 0.702541099999999], "properties": {"magmom": -0.0}, "label": "Sm", "xyz": [6.207168728801307, 4.850095829038715, 8.638201717234121]}, {"species": [{"element": "Sm", "occu": 1}], "abc": [0.29745719, 0.29745537, 0.29746589], "properties": {"magmom": -0.0}, "label": "Sm", "xyz": [2.62812444526271, 2.0535313288738903, 3.657492774531321]}, {"species": [{"element": "Sm", "occu": 1}], "abc": [0.50000118, 0.50000068, 0.49999776], "properties": {"magmom": 0.0}, "label": "Sm", "xyz": [4.4176662969362255, 3.45183553739152, 6.147816699204377]}, {"species": [{"element": "Rh", "occu": 1}], "abc": [0.5455805, 0.91056252, 0.33483079], "properties": {"magmom": -0.0}, "label": "Rh", "xyz": [5.448494691295066, 6.2807968181442435, 6.00298870834917]}, {"species": [{"element": "Rh", "occu": 1}], "abc": [0.91057627, 0.3348426, 0.54557977], "properties": {"magmom": -0.0}, "label": "Rh", "xyz": [7.05003861858439, 2.31557637576614, 7.078715614694213]}, {"species": [{"element": "Rh", "occu": 1}], "abc": [0.33481304, 0.54557941, 0.91058966], "properties": {"magmom": -0.0}, "label": "Rh", "xyz": [3.3252720249238514, 3.7679781856876833, 8.939711405507033]}, {"species": [{"element": "Rh", "occu": 1}], "abc": [0.45441743, 0.0894374, 0.6651558], "properties": {"magmom": -0.0}, "label": "Rh", "xyz": [3.386803890423374, 0.6228642526359146, 6.292563644595758]}, {"species": [{"element": "Rh", "occu": 1}], "abc": [0.08941755, 0.66515734, 0.4544239], "properties": {"magmom": -0.0}, "label": "Rh", "xyz": [1.7852309053758997, 4.5880849276453635, 5.216955004621271]}, {"species": [{"element": "Rh", "occu": 1}], "abc": [0.6652099300000001, 0.45441427, 0.08941329], "properties": {"magmom": -0.0}, "label": "Rh", "xyz": [5.510193793708256, 3.1356400938337305, 3.356008743885771]}]}, "task_ids": null, "uncorrected_energy_per_atom": null, "energy_per_atom": -6.446845887999996, "formation_energy_per_atom": -0.6699710589999951, "energy_above_hull": 0.0, "is_stable": true, "equilibrium_reaction_energy_per_atom": null, "decomposes_to": null, "xas": null, "grain_boundaries": null, "band_gap": 0.0, "cbm": null, "vbm": null, "efermi": 4.14927869, "is_gap_direct": null, "is_metal": null, "es_source_calc_id": null, "bandstructure": null, "dos": null, "dos_energy_up": null, "dos_energy_down": null, "is_magnetic": null, "ordering": null, "total_magnetization": 0.002650999999999, "total_magnetization_normalized_vol": null, "total_magnetization_normalized_formula_units": null, "num_magnetic_sites": null, "num_unique_magnetic_sites": null, "types_of_magnetic_species": null, "bulk_modulus": null, "shear_modulus": null, "universal_anisotropy": null, "homogeneous_poisson": null, "e_total": null, "e_ionic": null, "e_electronic": null, "n": null, "e_ij_max": null, "weighted_surface_energy_EV_PER_ANG2": null, "weighted_surface_energy": null, "weighted_work_function": null, "surface_anisotropy": null, "shape_factor": null, "has_reconstructed": null, "possible_species": null, "has_props": null, "theoretical": null, "database_IDs": null, "fields_not_requested": ["builder_meta", "nsites", "elements", "nelements", "composition", "composition_reduced", "chemsys", "symmetry", "property_name", "deprecated", "deprecation_reasons", "last_updated", "origins", "warnings", "task_ids", "uncorrected_energy_per_atom", "equilibrium_reaction_energy_per_atom", "decomposes_to", "xas", "grain_boundaries", "cbm", "vbm", "is_gap_direct", "is_metal", "es_source_calc_id", "bandstructure", "dos", "dos_energy_up", "dos_energy_down", "is_magnetic", "ordering", "total_magnetization_normalized_vol", "total_magnetization_normalized_formula_units", "num_magnetic_sites", "num_unique_magnetic_sites", "types_of_magnetic_species", "bulk_modulus", "shear_modulus", "universal_anisotropy", "homogeneous_poisson", "e_total", "e_ionic", "e_electronic", "n", "e_ij_max", "weighted_surface_energy_EV_PER_ANG2", "weighted_surface_energy", "weighted_work_function", "surface_anisotropy", "shape_factor", "has_reconstructed", "possible_species", "has_props", "theoretical", "database_IDs"]}