{"builder_meta": null, "nsites": null, "elements": null, "nelements": null, "composition": null, "composition_reduced": null, "formula_pretty": "Sm3Rh", "formula_anonymous": "AB3", "chemsys": null, "volume": 456.5767617174474, "density": 8.059232463952895, "density_atomic": 28.536047607340464, "symmetry": null, "property_name": null, "material_id": "mp-1205407", "deprecated": null, "deprecation_reasons": null, "last_updated": null, "origins": null, "warnings": null, "structure": {"@module": "pymatgen.core.structure", "@class": "Structure", "charge": 0, "lattice": {"matrix": [[0.0, 0.0, 6.42106423], [7.23043228, 0.0, 0.0], [0.0, 9.83427903, 0.0]], "pbc": [true, true, true], "a": 6.42106423, "b": 7.23043228, "c": 9.83427903, "alpha": 90.0, "beta": 90.0, "gamma": 90.0, "volume": 456.5767617174474}, "properties": {}, "sites": [{"species": [{"element": "Sm", "occu": 1}], "abc": [0.32647992000000003, 0.67175343, 0.06622943], "properties": {"magmom": -0.065}, "label": "Sm", "xyz": [4.85706768447272, 0.651318694617853, 2.096348536125262]}, {"species": [{"element": "Sm", "occu": 1}], "abc": [0.17352008, 0.17175443, 0.43377057], "properties": {"magmom": -0.065}, "label": "Sm", "xyz": [1.2418587749050005, 4.265820820382147, 1.1141835788747383]}, {"species": [{"element": "Sm", "occu": 1}], "abc": [0.67352008, 0.32824557, 0.56622943], "properties": {"magmom": -0.065}, "label": "Sm", "xyz": [2.3733573650949995, 5.5684582096178525, 4.324715693874738]}, {"species": [{"element": "Sm", "occu": 1}], "abc": [0.82647992, 0.82824657, 0.93377057], "properties": {"magmom": -0.065}, "label": "Sm", "xyz": [5.98858073552728, 9.182960335382147, 5.306880651125262]}, {"species": [{"element": "Sm", "occu": 1}], "abc": [0.67352008, 0.32824557, 0.93377057], "properties": {"magmom": -0.065}, "label": "Sm", "xyz": [2.3733573650949995, 9.182960335382147, 4.324715693874738]}, {"species": [{"element": "Sm", "occu": 1}], "abc": [0.82647992, 0.82824657, 0.56622943], "properties": {"magmom": -0.065}, "label": "Sm", "xyz": [5.98858073552728, 5.5684582096178525, 5.306880651125262]}, {"species": [{"element": "Sm", "occu": 1}], "abc": [0.32647992000000003, 0.67175343, 0.43377057], "properties": {"magmom": -0.065}, "label": "Sm", "xyz": [4.85706768447272, 4.265820820382147, 2.096348536125262]}, {"species": [{"element": "Sm", "occu": 1}], "abc": [0.17352008, 0.17175443, 0.06622943], "properties": {"magmom": -0.065}, "label": "Sm", "xyz": [1.2418587749050005, 0.651318694617853, 1.1141835788747383]}, {"species": [{"element": "Sm", "occu": 1}], "abc": [0.8562813300000001, 0.5382751100000001, 0.25], "properties": {"magmom": -0.07200000000000001}, "label": "Sm", "xyz": [3.891961730864551, 2.4585697575, 5.498237418879826]}, {"species": [{"element": "Sm", "occu": 1}], "abc": [0.64371867, 0.03827511, 0.25], "properties": {"magmom": -0.07200000000000001}, "label": "Sm", "xyz": [0.2767455908645508, 2.4585697575, 4.133358926120175]}, {"species": [{"element": "Sm", "occu": 1}], "abc": [0.14371867, 0.46172489, 0.75], "properties": {"magmom": -0.07200000000000001}, "label": "Sm", "xyz": [3.338470549135449, 7.3757092725, 0.9228268111201741]}, {"species": [{"element": "Sm", "occu": 1}], "abc": [0.35628133, 0.96172489, 0.75], "properties": {"magmom": -0.07200000000000001}, "label": "Sm", "xyz": [6.953686689135449, 7.3757092725, 2.287705303879826]}, {"species": [{"element": "Rh", "occu": 1}], "abc": [0.06316521, 0.87833653, 0.25], "properties": {"magmom": -0.03}, "label": "Rh", "xyz": [6.350752799215188, 2.4585697575, 0.4055878705114383]}, {"species": [{"element": "Rh", "occu": 1}], "abc": [0.43683479000000003, 0.37833653, 0.25], "properties": {"magmom": -0.03}, "label": "Rh", "xyz": [2.7355366592151884, 2.4585697575, 2.8049442444885617]}, {"species": [{"element": "Rh", "occu": 1}], "abc": [0.93683479, 0.12166347, 0.75], "properties": {"magmom": -0.03}, "label": "Rh", "xyz": [0.8796794807848115, 7.3757092725, 6.015476359488562]}, {"species": [{"element": "Rh", "occu": 1}], "abc": [0.56316521, 0.62166347, 0.75], "properties": {"magmom": -0.03}, "label": "Rh", "xyz": [4.494895620784812, 7.3757092725, 3.616119985511438]}]}, "task_ids": null, "uncorrected_energy_per_atom": null, "energy_per_atom": -5.835086069374999, "formation_energy_per_atom": -0.455069500624999, "energy_above_hull": 0.0, "is_stable": true, "equilibrium_reaction_energy_per_atom": null, "decomposes_to": null, "xas": null, "grain_boundaries": null, "band_gap": 0.0, "cbm": null, "vbm": null, "efermi": 3.64907498, "is_gap_direct": null, "is_metal": null, "es_source_calc_id": null, "bandstructure": null, "dos": null, "dos_energy_up": null, "dos_energy_down": null, "is_magnetic": null, "ordering": null, "total_magnetization": 1.9948443, "total_magnetization_normalized_vol": null, "total_magnetization_normalized_formula_units": null, "num_magnetic_sites": null, "num_unique_magnetic_sites": null, "types_of_magnetic_species": null, "bulk_modulus": null, "shear_modulus": null, "universal_anisotropy": null, "homogeneous_poisson": null, "e_total": null, "e_ionic": null, "e_electronic": null, "n": null, "e_ij_max": null, "weighted_surface_energy_EV_PER_ANG2": null, "weighted_surface_energy": null, "weighted_work_function": null, "surface_anisotropy": null, "shape_factor": null, "has_reconstructed": null, "possible_species": null, "has_props": null, "theoretical": null, "database_IDs": null, "fields_not_requested": ["builder_meta", "nsites", "elements", "nelements", "composition", "composition_reduced", "chemsys", "symmetry", "property_name", "deprecated", "deprecation_reasons", "last_updated", "origins", "warnings", "task_ids", "uncorrected_energy_per_atom", "equilibrium_reaction_energy_per_atom", "decomposes_to", "xas", "grain_boundaries", "cbm", "vbm", "is_gap_direct", "is_metal", "es_source_calc_id", "bandstructure", "dos", "dos_energy_up", "dos_energy_down", "is_magnetic", "ordering", "total_magnetization_normalized_vol", "total_magnetization_normalized_formula_units", "num_magnetic_sites", "num_unique_magnetic_sites", "types_of_magnetic_species", "bulk_modulus", "shear_modulus", "universal_anisotropy", "homogeneous_poisson", "e_total", "e_ionic", "e_electronic", "n", "e_ij_max", "weighted_surface_energy_EV_PER_ANG2", "weighted_surface_energy", "weighted_work_function", "surface_anisotropy", "shape_factor", "has_reconstructed", "possible_species", "has_props", "theoretical", "database_IDs"]}