{
  "builder_meta": null,
  "nsites": null,
  "elements": null,
  "nelements": null,
  "composition": null,
  "composition_reduced": null,
  "formula_pretty": "Sm3Sc",
  "formula_anonymous": "AB3",
  "chemsys": null,
  "volume": 256.7359666603103,
  "density": 6.41660785613562,
  "density_atomic": 32.091995832538785,
  "symmetry": null,
  "property_name": null,
  "material_id": "mp-978845",
  "deprecated": null,
  "deprecation_reasons": null,
  "last_updated": null,
  "origins": null,
  "warnings": null,
  "structure": {
    "@module": "pymatgen.core.structure",
    "@class": "Structure",
    "charge": 0,
    "lattice": {
      "matrix": [
        [7.26248206, -1.129999999999999e-6, -0.0],
        [-3.63124369, 6.28947552, 0.0],
        [0.0, 0.0, 5.62065915]
      ],
      "pbc": [true, true, true],
      "a": 7.262482060000088,
      "b": 7.262467421809483,
      "c": 5.62065915,
      "alpha": 90.0,
      "beta": 90.0,
      "gamma": 120.00009982227647,
      "volume": 256.7359666603103
    },
    "properties": {},
    "sites": [
      {
        "species": [{ "element": "Sm", "occu": 1 }],
        "abc": [0.17048189, 0.34096378, 0.25],
        "properties": { "magmom": 0.088 },
        "label": "Sm",
        "xyz": [-9.069636546232829e-7, 2.1444831548721295, 1.4051647875]
      },
      {
        "species": [{ "element": "Sm", "occu": 1 }],
        "abc": [0.65903722, 0.82951811, 0.25],
        "properties": { "magmom": 0.088 },
        "label": "Sm",
        "xyz": [1.7740635844440473, 5.217233101529609, 1.4051647875]
      },
      {
        "species": [{ "element": "Sm", "occu": 1 }],
        "abc": [0.17048289, 0.82951811, 0.25],
        "properties": { "magmom": 0.088 },
        "label": "Sm",
        "xyz": [-1.7740534725162722, 5.2172336535960016, 1.4051647875]
      },
      {
        "species": [{ "element": "Sm", "occu": 1 }],
        "abc": [0.8295233, 0.170477699999999, 0.750000999999999],
        "properties": { "magmom": 0.088 },
        "label": "Sm",
        "xyz": [5.405352012191289, 1.0722143834945688, 4.215499983159145]
      },
      {
        "species": [{ "element": "Sm", "occu": 1 }],
        "abc": [0.34095441, 0.170478699999999, 0.750000999999999],
        "properties": { "magmom": 0.088 },
        "label": "Sm",
        "xyz": [1.8571255822484851, 1.0722212250529344, 4.215499983159145]
      },
      {
        "species": [{ "element": "Sm", "occu": 1 }],
        "abc": [0.8295233, 0.65904659, 0.750000999999999],
        "properties": { "magmom": 0.088 },
        "label": "Sm",
        "xyz": [3.6312393132484813, 4.145056456983148, 4.215499983159145]
      },
      {
        "species": [{ "element": "Sc", "occu": 1 }],
        "abc": [0.666667, 0.333333, 0.25],
        "properties": { "magmom": 0.14200000000000002 },
        "label": "Sc",
        "xyz": [3.6312437745752506, 2.09648899017445, 1.4051647875]
      },
      {
        "species": [{ "element": "Sc", "occu": 1 }],
        "abc": [0.333333999999999, 0.666667999999999, 0.750000999999999],
        "properties": { "magmom": 0.14200000000000002 },
        "label": "Sc",
        "xyz": [-1.7733368835592955e-6, 4.192991689299934, 4.215499983159145]
      }
    ]
  },
  "task_ids": null,
  "uncorrected_energy_per_atom": null,
  "energy_per_atom": -25.11460802375,
  "formation_energy_per_atom": 0.034707054999998,
  "energy_above_hull": 0.034707054999998,
  "is_stable": false,
  "equilibrium_reaction_energy_per_atom": null,
  "decomposes_to": null,
  "xas": null,
  "grain_boundaries": null,
  "band_gap": 0.0,
  "cbm": null,
  "vbm": null,
  "efermi": 3.15320764,
  "is_gap_direct": null,
  "is_metal": null,
  "es_source_calc_id": null,
  "bandstructure": null,
  "dos": null,
  "dos_energy_up": null,
  "dos_energy_down": null,
  "is_magnetic": null,
  "ordering": null,
  "total_magnetization": 1.5900337,
  "total_magnetization_normalized_vol": null,
  "total_magnetization_normalized_formula_units": null,
  "num_magnetic_sites": null,
  "num_unique_magnetic_sites": null,
  "types_of_magnetic_species": null,
  "bulk_modulus": null,
  "shear_modulus": null,
  "universal_anisotropy": null,
  "homogeneous_poisson": null,
  "e_total": null,
  "e_ionic": null,
  "e_electronic": null,
  "n": null,
  "e_ij_max": null,
  "weighted_surface_energy_EV_PER_ANG2": null,
  "weighted_surface_energy": null,
  "weighted_work_function": null,
  "surface_anisotropy": null,
  "shape_factor": null,
  "has_reconstructed": null,
  "possible_species": null,
  "has_props": null,
  "theoretical": null,
  "database_IDs": null,
  "fields_not_requested": [
    "builder_meta",
    "nsites",
    "elements",
    "nelements",
    "composition",
    "composition_reduced",
    "chemsys",
    "symmetry",
    "property_name",
    "deprecated",
    "deprecation_reasons",
    "last_updated",
    "origins",
    "warnings",
    "task_ids",
    "uncorrected_energy_per_atom",
    "equilibrium_reaction_energy_per_atom",
    "decomposes_to",
    "xas",
    "grain_boundaries",
    "cbm",
    "vbm",
    "is_gap_direct",
    "is_metal",
    "es_source_calc_id",
    "bandstructure",
    "dos",
    "dos_energy_up",
    "dos_energy_down",
    "is_magnetic",
    "ordering",
    "total_magnetization_normalized_vol",
    "total_magnetization_normalized_formula_units",
    "num_magnetic_sites",
    "num_unique_magnetic_sites",
    "types_of_magnetic_species",
    "bulk_modulus",
    "shear_modulus",
    "universal_anisotropy",
    "homogeneous_poisson",
    "e_total",
    "e_ionic",
    "e_electronic",
    "n",
    "e_ij_max",
    "weighted_surface_energy_EV_PER_ANG2",
    "weighted_surface_energy",
    "weighted_work_function",
    "surface_anisotropy",
    "shape_factor",
    "has_reconstructed",
    "possible_species",
    "has_props",
    "theoretical",
    "database_IDs"
  ]
}
