{
  "builder_meta": null,
  "nsites": null,
  "elements": null,
  "nelements": null,
  "composition": null,
  "composition_reduced": null,
  "formula_pretty": "Sm3Se4",
  "formula_anonymous": "A3B4",
  "chemsys": null,
  "volume": 344.47369949349445,
  "density": 7.393891741688237,
  "density_atomic": 24.605264249535317,
  "symmetry": null,
  "property_name": null,
  "material_id": "mp-1344",
  "deprecated": null,
  "deprecation_reasons": null,
  "last_updated": null,
  "origins": null,
  "warnings": null,
  "structure": {
    "@module": "pymatgen.core.structure",
    "@class": "Structure",
    "charge": 0,
    "lattice": {
      "matrix": [
        [7.21134654, 1e-8, -2.549596799999999],
        [-3.60567326, 6.24521022, -2.549596799999999],
        [-1e-8, -2e-8, 7.6487883199999995]
      ],
      "pbc": [true, true, true],
      "a": 7.648788319893564,
      "b": 7.648789067064257,
      "c": 7.6487883199999995,
      "alpha": 109.47122425693978,
      "beta": 109.47122621837094,
      "gamma": 109.47121300692487,
      "volume": 344.4736994934944
    },
    "properties": {},
    "sites": [
      {
        "species": [{ "element": "Sm", "occu": 1 }],
        "abc": [0.75, 0.875, 0.125],
        "properties": { "magmom": 0.0 },
        "label": "Sm",
        "xyz": [2.2535458012499996, 5.4645589475, -3.186996259999998]
      },
      {
        "species": [{ "element": "Sm", "occu": 1 }],
        "abc": [0.625, 0.375, 0.25],
        "properties": { "magmom": 0.0 },
        "label": "Sm",
        "xyz": [3.154964112499999, 2.34195383375, -0.637399719999999]
      },
      {
        "species": [{ "element": "Sm", "occu": 1 }],
        "abc": [0.875, 0.125, 0.75],
        "properties": { "magmom": 0.0 },
        "label": "Sm",
        "xyz": [5.8592190575, 0.7806512712499999, 3.1869944400000003]
      },
      {
        "species": [{ "element": "Sm", "occu": 1 }],
        "abc": [0.125, 0.75, 0.875],
        "properties": { "magmom": 0.0 },
        "label": "Sm",
        "xyz": [-1.8028366362500001, 4.68390764875, 4.461792580000001]
      },
      {
        "species": [{ "element": "Sm", "occu": 1 }],
        "abc": [0.375, 0.25, 0.625],
        "properties": { "magmom": 0.0 },
        "label": "Sm",
        "xyz": [1.80283663125, 1.56130254625, 3.1869947000000005]
      },
      {
        "species": [{ "element": "Sm", "occu": 1 }],
        "abc": [0.25, 0.625, 0.375],
        "properties": { "magmom": 0.0 },
        "label": "Sm",
        "xyz": [-0.4507091562500002, 3.9032563825, 0.6373984200000002]
      },
      {
        "species": [{ "element": "Se", "occu": 1 }],
        "abc": [0.64603921, 0.64603921, 0.64603921],
        "properties": { "magmom": -0.0 },
        "label": "Se",
        "xyz": [2.329406310868916, 4.034650670352334, 1.6471381587289717]
      },
      {
        "species": [{ "element": "Se", "occu": 1 }],
        "abc": [0.35396079, 0.5, -0.0],
        "properties": { "magmom": -0.0 },
        "label": "Se",
        "xyz": [0.7496972882621666, 3.1226051135396076, -2.1772556975094712]
      },
      {
        "species": [{ "element": "Se", "occu": 1 }],
        "abc": [0.5, -0.0, 0.35396079],
        "properties": { "magmom": -0.0 },
        "label": "Se",
        "xyz": [3.6056732664603923, -2.079215800000001e-9, 1.4325727562899733]
      },
      {
        "species": [{ "element": "Se", "occu": 1 }],
        "abc": [0.0, 0.35396079, 0.5],
        "properties": { "magmom": -0.0 },
        "label": "Se",
        "xyz": [-1.2762669605914756, 2.210559533187274, 2.921936862490528]
      },
      {
        "species": [{ "element": "Se", "occu": 1 }],
        "abc": [0.5, -0.0, 0.85396079],
        "properties": { "magmom": -0.0 },
        "label": "Se",
        "xyz": [3.6056732614603924, -1.20792158e-8, 5.256966916289974]
      },
      {
        "species": [{ "element": "Se", "occu": 1 }],
        "abc": [0.0, 0.85396079, 0.5],
        "properties": { "magmom": -0.0 },
        "label": "Se",
        "xyz": [-3.0791035905914756, 5.333164643187274, 1.6471384624905285]
      },
      {
        "species": [{ "element": "Se", "occu": 1 }],
        "abc": [0.14603921, 0.14603921, 0.14603921],
        "properties": { "magmom": -0.0 },
        "label": "Se",
        "xyz": [0.5265696758689166, 0.9120455653523342, 0.3723407987289714]
      },
      {
        "species": [{ "element": "Se", "occu": 1 }],
        "abc": [0.85396079, 0.5, -0.0],
        "properties": { "magmom": -0.0 },
        "label": "Se",
        "xyz": [4.355370558262167, 3.1226051185396075, -3.4520540975094707]
      }
    ]
  },
  "task_ids": null,
  "uncorrected_energy_per_atom": null,
  "energy_per_atom": -23.037930033571428,
  "formation_energy_per_atom": -2.117213764464285,
  "energy_above_hull": 0.047744144999999,
  "is_stable": false,
  "equilibrium_reaction_energy_per_atom": null,
  "decomposes_to": null,
  "xas": null,
  "grain_boundaries": null,
  "band_gap": 0.0,
  "cbm": null,
  "vbm": null,
  "efermi": 5.54256978,
  "is_gap_direct": null,
  "is_metal": null,
  "es_source_calc_id": null,
  "bandstructure": null,
  "dos": null,
  "dos_energy_up": null,
  "dos_energy_down": null,
  "is_magnetic": null,
  "ordering": null,
  "total_magnetization": 1.23e-5,
  "total_magnetization_normalized_vol": null,
  "total_magnetization_normalized_formula_units": null,
  "num_magnetic_sites": null,
  "num_unique_magnetic_sites": null,
  "types_of_magnetic_species": null,
  "bulk_modulus": null,
  "shear_modulus": null,
  "universal_anisotropy": null,
  "homogeneous_poisson": null,
  "e_total": null,
  "e_ionic": null,
  "e_electronic": null,
  "n": null,
  "e_ij_max": null,
  "weighted_surface_energy_EV_PER_ANG2": null,
  "weighted_surface_energy": null,
  "weighted_work_function": null,
  "surface_anisotropy": null,
  "shape_factor": null,
  "has_reconstructed": null,
  "possible_species": null,
  "has_props": null,
  "theoretical": null,
  "database_IDs": null,
  "fields_not_requested": [
    "builder_meta",
    "nsites",
    "elements",
    "nelements",
    "composition",
    "composition_reduced",
    "chemsys",
    "symmetry",
    "property_name",
    "deprecated",
    "deprecation_reasons",
    "last_updated",
    "origins",
    "warnings",
    "task_ids",
    "uncorrected_energy_per_atom",
    "equilibrium_reaction_energy_per_atom",
    "decomposes_to",
    "xas",
    "grain_boundaries",
    "cbm",
    "vbm",
    "is_gap_direct",
    "is_metal",
    "es_source_calc_id",
    "bandstructure",
    "dos",
    "dos_energy_up",
    "dos_energy_down",
    "is_magnetic",
    "ordering",
    "total_magnetization_normalized_vol",
    "total_magnetization_normalized_formula_units",
    "num_magnetic_sites",
    "num_unique_magnetic_sites",
    "types_of_magnetic_species",
    "bulk_modulus",
    "shear_modulus",
    "universal_anisotropy",
    "homogeneous_poisson",
    "e_total",
    "e_ionic",
    "e_electronic",
    "n",
    "e_ij_max",
    "weighted_surface_energy_EV_PER_ANG2",
    "weighted_surface_energy",
    "weighted_work_function",
    "surface_anisotropy",
    "shape_factor",
    "has_reconstructed",
    "possible_species",
    "has_props",
    "theoretical",
    "database_IDs"
  ]
}
