{
  "builder_meta": null,
  "nsites": null,
  "elements": null,
  "nelements": null,
  "composition": null,
  "composition_reduced": null,
  "formula_pretty": "Sm3S4",
  "formula_anonymous": "A3B4",
  "chemsys": null,
  "volume": 303.8066864342339,
  "density": 6.333084463249924,
  "density_atomic": 21.70047760244528,
  "symmetry": null,
  "property_name": null,
  "material_id": "mp-2038",
  "deprecated": null,
  "deprecation_reasons": null,
  "last_updated": null,
  "origins": null,
  "warnings": null,
  "structure": {
    "@module": "pymatgen.core.structure",
    "@class": "Structure",
    "charge": 0,
    "lattice": {
      "matrix": [
        [6.91560363, -2e-8, -2.44503491],
        [-3.45780234, 5.98908937, -2.44503491],
        [1e-8, 2e-8, 7.33510678]
      ],
      "pbc": [true, true, true],
      "a": 7.335105267028407,
      "b": 7.335106285220085,
      "c": 7.33510678,
      "alpha": 109.47121624325398,
      "beta": 109.47121907328541,
      "gamma": 109.47122354183722,
      "volume": 303.8066864342339
    },
    "properties": {},
    "sites": [
      {
        "species": [{ "element": "Sm", "occu": 1 }],
        "abc": [0.75, 0.875, 0.125],
        "properties": { "magmom": 0.0 },
        "label": "Sm",
        "xyz": [2.1611256762499997, 5.24045318625, -3.0562933812499997]
      },
      {
        "species": [{ "element": "Sm", "occu": 1 }],
        "abc": [0.625, 0.375, 0.25],
        "properties": { "magmom": 0.0 },
        "label": "Sm",
        "xyz": [3.0255763937499998, 2.2459085062499997, -0.6112582149999999]
      },
      {
        "species": [{ "element": "Sm", "occu": 1 }],
        "abc": [0.875, 0.125, 0.75],
        "properties": { "magmom": 0.0 },
        "label": "Sm",
        "xyz": [5.618927891249999, 0.74863616875, 3.0562951750000003]
      },
      {
        "species": [{ "element": "Sm", "occu": 1 }],
        "abc": [0.125, 0.75, 0.875],
        "properties": { "magmom": 0.0 },
        "label": "Sm",
        "xyz": [-1.7289012925, 4.491817042499999, 4.27881288625]
      },
      {
        "species": [{ "element": "Sm", "occu": 1 }],
        "abc": [0.375, 0.25, 0.625],
        "properties": { "magmom": 0.0 },
        "label": "Sm",
        "xyz": [1.7289007824999998, 1.4972723475, 3.056294918750001]
      },
      {
        "species": [{ "element": "Sm", "occu": 1 }],
        "abc": [0.25, 0.625, 0.375],
        "properties": { "magmom": 0.0 },
        "label": "Sm",
        "xyz": [-0.43222555125000006, 3.7431808587500006, 0.6112594962500002]
      },
      {
        "species": [{ "element": "S", "occu": 1 }],
        "abc": [0.64645635, 0.64645635, 0.64645635],
        "properties": { "magmom": -0.0 },
        "label": "S",
        "xyz": [2.2353176074232546, 3.8716848539539996, 1.5806096687766962]
      },
      {
        "species": [{ "element": "S", "occu": 1 }],
        "abc": [0.35354365, 0.5, -0.0],
        "properties": { "magmom": -0.0 },
        "label": "S",
        "xyz": [0.7160665793034491, 2.994544677929127, -2.0869440214588213]
      },
      {
        "species": [{ "element": "S", "occu": 1 }],
        "abc": [0.5, 0.0, 0.35354365],
        "properties": { "magmom": -0.0 },
        "label": "S",
        "xyz": [3.4578018185354362, -2.929127e-9, 1.3707629691409469]
      },
      {
        "species": [{ "element": "S", "occu": 1 }],
        "abc": [0.0, 0.35354365, 0.5],
        "properties": { "magmom": -0.0 },
        "label": "S",
        "xyz": [-1.222484055262141, 2.1174045260460006, 2.8031268235411786]
      },
      {
        "species": [{ "element": "S", "occu": 1 }],
        "abc": [0.5, 0.0, 0.85354365],
        "properties": { "magmom": -0.0 },
        "label": "S",
        "xyz": [3.457801823535436, 7.070873e-9, 5.038316359140947]
      },
      {
        "species": [{ "element": "S", "occu": 1 }],
        "abc": [0.0, 0.85354365, 0.5],
        "properties": { "magmom": -0.0 },
        "label": "S",
        "xyz": [-2.951385225262141, 5.111949211046, 1.5806093685411788]
      },
      {
        "species": [{ "element": "S", "occu": 1 }],
        "abc": [0.14645635, 0.14645635, 0.14645635],
        "properties": { "magmom": -0.0 },
        "label": "S",
        "xyz": [0.5064169574232549, 0.8771401689539996, 0.358091188776696]
      },
      {
        "species": [{ "element": "S", "occu": 1 }],
        "abc": [0.85354365, 0.5, -0.0],
        "properties": { "magmom": -0.0 },
        "label": "S",
        "xyz": [4.173868394303449, 2.994544667929127, -3.3094614764588215]
      }
    ]
  },
  "task_ids": null,
  "uncorrected_energy_per_atom": null,
  "energy_per_atom": -6.684115087142855,
  "formation_energy_per_atom": -2.2970869907142832,
  "energy_above_hull": 0.042556057500002006,
  "is_stable": false,
  "equilibrium_reaction_energy_per_atom": null,
  "decomposes_to": null,
  "xas": null,
  "grain_boundaries": null,
  "band_gap": 0.0,
  "cbm": null,
  "vbm": null,
  "efermi": 6.3661121,
  "is_gap_direct": null,
  "is_metal": null,
  "es_source_calc_id": null,
  "bandstructure": null,
  "dos": null,
  "dos_energy_up": null,
  "dos_energy_down": null,
  "is_magnetic": null,
  "ordering": null,
  "total_magnetization": 1.3e-6,
  "total_magnetization_normalized_vol": null,
  "total_magnetization_normalized_formula_units": null,
  "num_magnetic_sites": null,
  "num_unique_magnetic_sites": null,
  "types_of_magnetic_species": null,
  "bulk_modulus": null,
  "shear_modulus": null,
  "universal_anisotropy": null,
  "homogeneous_poisson": null,
  "e_total": null,
  "e_ionic": null,
  "e_electronic": null,
  "n": null,
  "e_ij_max": null,
  "weighted_surface_energy_EV_PER_ANG2": null,
  "weighted_surface_energy": null,
  "weighted_work_function": null,
  "surface_anisotropy": null,
  "shape_factor": null,
  "has_reconstructed": null,
  "possible_species": null,
  "has_props": null,
  "theoretical": null,
  "database_IDs": null,
  "fields_not_requested": [
    "builder_meta",
    "nsites",
    "elements",
    "nelements",
    "composition",
    "composition_reduced",
    "chemsys",
    "symmetry",
    "property_name",
    "deprecated",
    "deprecation_reasons",
    "last_updated",
    "origins",
    "warnings",
    "task_ids",
    "uncorrected_energy_per_atom",
    "equilibrium_reaction_energy_per_atom",
    "decomposes_to",
    "xas",
    "grain_boundaries",
    "cbm",
    "vbm",
    "is_gap_direct",
    "is_metal",
    "es_source_calc_id",
    "bandstructure",
    "dos",
    "dos_energy_up",
    "dos_energy_down",
    "is_magnetic",
    "ordering",
    "total_magnetization_normalized_vol",
    "total_magnetization_normalized_formula_units",
    "num_magnetic_sites",
    "num_unique_magnetic_sites",
    "types_of_magnetic_species",
    "bulk_modulus",
    "shear_modulus",
    "universal_anisotropy",
    "homogeneous_poisson",
    "e_total",
    "e_ionic",
    "e_electronic",
    "n",
    "e_ij_max",
    "weighted_surface_energy_EV_PER_ANG2",
    "weighted_surface_energy",
    "weighted_work_function",
    "surface_anisotropy",
    "shape_factor",
    "has_reconstructed",
    "possible_species",
    "has_props",
    "theoretical",
    "database_IDs"
  ]
}
