{"builder_meta": null, "nsites": null, "elements": null, "nelements": null, "composition": null, "composition_reduced": null, "formula_pretty": "Sm3Tm", "formula_anonymous": "AB3", "chemsys": null, "volume": 271.17039910390235, "density": 7.593438081400974, "density_atomic": 33.896299887987794, "symmetry": null, "property_name": null, "material_id": "mp-979973", "deprecated": null, "deprecation_reasons": null, "last_updated": null, "origins": null, "warnings": null, "structure": {"@module": "pymatgen.core.structure", "@class": "Structure", "charge": 0, "lattice": {"matrix": [[7.32326138, -2.14e-06, -0.0], [-3.6616323, 6.34212206, -0.0], [-0.0, 0.0, 5.8385260500000005]], "pbc": [true, true, true], "a": 7.323261380000313, "b": 7.323254967863808, "c": 5.8385260500000005, "alpha": 90.0, "beta": 90.0, "gamma": 120.00006025209187, "volume": 271.1703991039024}, "properties": {}, "sites": [{"species": [{"element": "Sm", "occu": 1}], "abc": [0.16949245000000002, 0.33898391, 0.250001], "properties": {"magmom": 0.28700000000000003}, "label": "Sm", "xyz": [3.079250288084978e-06, 2.149876970882212, 1.4596373510260499]}, {"species": [{"element": "Sm", "occu": 1}], "abc": [0.66101709, 0.83050755, 0.250001], "properties": {"magmom": 0.28700000000000003}, "label": "Sm", "xyz": [1.7997876562431188, 5.2671788392749805, 1.4596373510260499]}, {"species": [{"element": "Sm", "occu": 1}], "abc": [0.16949245000000002, 0.83050755, 0.250001], "properties": {"magmom": 0.28700000000000003}, "label": "Sm", "xyz": [-1.7997757571872839, 5.26717989113771, 1.4596373510260499]}, {"species": [{"element": "Sm", "occu": 1}], "abc": [0.83050755, 0.6610160900000001, 0.75], "properties": {"magmom": 0.28700000000000003}, "label": "Sm", "xyz": [3.6616260007497115, 4.192242949117789, 4.378894537500001]}, {"species": [{"element": "Sm", "occu": 1}], "abc": [0.33898391, 0.16949245000000002, 0.75], "properties": {"magmom": 0.28700000000000003}, "label": "Sm", "xyz": [1.8618487470182608, 1.0749410807228799, 4.378894537500001]}, {"species": [{"element": "Sm", "occu": 1}], "abc": [0.83050755, 0.16949245000000002, 0.75], "properties": {"magmom": 0.28700000000000003}, "label": "Sm", "xyz": [5.461404837187284, 1.0749400288622903, 4.378894537500001]}, {"species": [{"element": "Tm", "occu": 1}], "abc": [0.333333999999999, 0.666667, 0.75], "properties": {"magmom": 0.419}, "label": "Tm", "xyz": [2.588296812877644e-06, 4.22808277403926, 4.378894537500001]}, {"species": [{"element": "Tm", "occu": 1}], "abc": [0.666667, 0.333333, 0.250001], "properties": {"magmom": 0.419}, "label": "Tm", "xyz": [3.66163381496456, 2.1140371459586005, 1.4596373510260499]}]}, "task_ids": null, "uncorrected_energy_per_atom": null, "energy_per_atom": -31.06984735375, "formation_energy_per_atom": 0.010107958749998001, "energy_above_hull": 0.010107958749998001, "is_stable": false, "equilibrium_reaction_energy_per_atom": null, "decomposes_to": null, "xas": null, "grain_boundaries": null, "band_gap": 0.0, "cbm": null, "vbm": null, "efermi": 3.01675267, "is_gap_direct": null, "is_metal": null, "es_source_calc_id": null, "bandstructure": null, "dos": null, "dos_energy_up": null, "dos_energy_down": null, "is_magnetic": null, "ordering": null, "total_magnetization": 4.6847179, "total_magnetization_normalized_vol": null, "total_magnetization_normalized_formula_units": null, "num_magnetic_sites": null, "num_unique_magnetic_sites": null, "types_of_magnetic_species": null, "bulk_modulus": null, "shear_modulus": null, "universal_anisotropy": null, "homogeneous_poisson": null, "e_total": null, "e_ionic": null, "e_electronic": null, "n": null, "e_ij_max": null, "weighted_surface_energy_EV_PER_ANG2": null, "weighted_surface_energy": null, "weighted_work_function": null, "surface_anisotropy": null, "shape_factor": null, "has_reconstructed": null, "possible_species": null, "has_props": null, "theoretical": null, "database_IDs": null, "fields_not_requested": ["builder_meta", "nsites", "elements", "nelements", "composition", "composition_reduced", "chemsys", "symmetry", "property_name", "deprecated", "deprecation_reasons", "last_updated", "origins", "warnings", "task_ids", "uncorrected_energy_per_atom", "equilibrium_reaction_energy_per_atom", "decomposes_to", "xas", "grain_boundaries", "cbm", "vbm", "is_gap_direct", "is_metal", "es_source_calc_id", "bandstructure", "dos", "dos_energy_up", "dos_energy_down", "is_magnetic", "ordering", "total_magnetization_normalized_vol", "total_magnetization_normalized_formula_units", "num_magnetic_sites", "num_unique_magnetic_sites", "types_of_magnetic_species", "bulk_modulus", "shear_modulus", "universal_anisotropy", "homogeneous_poisson", "e_total", "e_ionic", "e_electronic", "n", "e_ij_max", "weighted_surface_energy_EV_PER_ANG2", "weighted_surface_energy", "weighted_work_function", "surface_anisotropy", "shape_factor", "has_reconstructed", "possible_species", "has_props", "theoretical", "database_IDs"]}