{
  "builder_meta": null,
  "nsites": null,
  "elements": null,
  "nelements": null,
  "composition": null,
  "composition_reduced": null,
  "formula_pretty": "Sm3Te4",
  "formula_anonymous": "A3B4",
  "chemsys": null,
  "volume": 424.25171326752536,
  "density": 7.526546396043882,
  "density_atomic": 30.30369380482324,
  "symmetry": null,
  "property_name": null,
  "material_id": "mp-571144",
  "deprecated": null,
  "deprecation_reasons": null,
  "last_updated": null,
  "origins": null,
  "warnings": null,
  "structure": {
    "@module": "pymatgen.core.structure",
    "@class": "Structure",
    "charge": 0,
    "lattice": {
      "matrix": [
        [7.73014546, -0.00027222, -2.7339495400000002],
        [-3.86530237, 6.69414291, -2.7339297],
        [-0.00072263, -0.00122986, 8.19979956]
      ],
      "pbc": [true, true, true],
      "a": 8.19936759720703,
      "b": 8.19917577050114,
      "c": 8.199799684073138,
      "alpha": 109.48259427307849,
      "beta": 109.48239911086142,
      "gamma": 109.46886489625257,
      "volume": 424.25171326752536
    },
    "properties": {},
    "sites": [
      {
        "species": [{ "element": "Sm", "occu": 1 }],
        "abc": [0.124975999999999, 0.74993758, 0.8749353200000001],
        "properties": { "magmom": 0.0 },
        "label": "Sm",
        "xyz": [-1.9332851008274041, 5.019079265180182, 4.782339551145297]
      },
      {
        "species": [{ "element": "Sm", "occu": 1 }],
        "abc": [0.62499014, 0.37493355, 0.24994591],
        "properties": { "magmom": -0.0 },
        "label": "Sm",
        "xyz": [3.381852535445307, 2.5093812321608473, -0.6842271107871709]
      },
      {
        "species": [{ "element": "Sm", "occu": 1 }],
        "abc": [0.37497176, 0.24996211000000002, 0.62500428],
        "properties": { "magmom": 0.0 },
        "label": "Sm",
        "xyz": [1.9319554651561521, 1.6724113438488324, 3.416377112973459]
      },
      {
        "species": [{ "element": "Sm", "occu": 1 }],
        "abc": [0.74996544, 0.8749648600000001, 0.12500712],
        "properties": { "magmom": -0.0 },
        "label": "Sm",
        "xyz": [2.4152478602530585, 5.856781917219463, -3.4174267593413727]
      },
      {
        "species": [{ "element": "Sm", "occu": 1 }],
        "abc": [0.24995097, 0.62497787, 0.37494606],
        "properties": { "magmom": 0.0 },
        "label": "Sm",
        "xyz": [-0.48384203341179366, 4.183162004552997, 0.682483637721941]
      },
      {
        "species": [{ "element": "Sm", "occu": 1 }],
        "abc": [0.87494191, 0.12501601, 0.74995948],
        "properties": { "magmom": 0.0 },
        "label": "Sm",
        "xyz": [6.279661610390252, 0.8357145151251761, 3.415685399036111]
      },
      {
        "species": [{ "element": "Te", "occu": 1 }],
        "abc": [0.6439297700000001, 0.64397753, 0.64390864],
        "properties": { "magmom": -0.0 },
        "label": "Te",
        "xyz": [2.4880376074880757, 4.309910408606833, 1.7588609890687517]
      },
      {
        "species": [{ "element": "Te", "occu": 1 }],
        "abc": [0.00011605, 0.85607069, 0.50016317],
        "properties": { "magmom": -0.0 },
        "label": "Te",
        "xyz": [-3.3084364164754394, 5.730044377654921, 1.7604833817595957]
      },
      {
        "species": [{ "element": "Te", "occu": 1 }],
        "abc": [0.85598893, 0.50012533, 0.00010874],
        "properties": { "magmom": -0.0 },
        "label": "Te",
        "xyz": [4.683783239124939, 3.3476772808894095, -3.7066463886237386]
      },
      {
        "species": [{ "element": "Te", "occu": 1 }],
        "abc": [5.742e-5, 0.355957099999999, 0.50001483],
        "properties": { "magmom": -0.0 },
        "label": "Te",
        "xyz": [-1.375799283012613, 2.382212733359458, 3.1267027120290214]
      },
      {
        "species": [{ "element": "Te", "occu": 1 }],
        "abc": [0.50009654, 5.709999999999999e-6, 0.85599715],
        "properties": { "magmom": 0.0 },
        "label": "Te",
        "xyz": [3.865178358145672, -0.0011506693790017, 5.651750737704075]
      },
      {
        "species": [{ "element": "Te", "occu": 1 }],
        "abc": [0.49998581000000003, 4.3150000000000005e-5, 0.35597156],
        "properties": { "magmom": 0.0 },
        "label": "Te",
        "xyz": [3.8645390157102546, -0.0002850490534133, 1.5518414967379315]
      },
      {
        "species": [{ "element": "Te", "occu": 1 }],
        "abc": [0.35604092, 0.50010664, 0.00011019],
        "properties": { "magmom": -0.0 },
        "label": "Te",
        "xyz": [0.8191846408408866, 3.347688261422407, -2.3397507698048683]
      },
      {
        "species": [{ "element": "Te", "occu": 1 }],
        "abc": [0.14399034, 0.14392286, 0.14392955],
        "properties": { "magmom": 0.0 },
        "label": "Te",
        "xyz": [0.5566568933689616, 0.9632239826092049, 0.39305615549061246]
      }
    ]
  },
  "task_ids": null,
  "uncorrected_energy_per_atom": null,
  "energy_per_atom": -28.89206558,
  "formation_energy_per_atom": -1.625255551428572,
  "energy_above_hull": 0.05075951035713801,
  "is_stable": false,
  "equilibrium_reaction_energy_per_atom": null,
  "decomposes_to": null,
  "xas": null,
  "grain_boundaries": null,
  "band_gap": 0.0,
  "cbm": null,
  "vbm": null,
  "efermi": 6.61571037,
  "is_gap_direct": null,
  "is_metal": null,
  "es_source_calc_id": null,
  "bandstructure": null,
  "dos": null,
  "dos_energy_up": null,
  "dos_energy_down": null,
  "is_magnetic": null,
  "ordering": null,
  "total_magnetization": 1e-7,
  "total_magnetization_normalized_vol": null,
  "total_magnetization_normalized_formula_units": null,
  "num_magnetic_sites": null,
  "num_unique_magnetic_sites": null,
  "types_of_magnetic_species": null,
  "bulk_modulus": null,
  "shear_modulus": null,
  "universal_anisotropy": null,
  "homogeneous_poisson": null,
  "e_total": null,
  "e_ionic": null,
  "e_electronic": null,
  "n": null,
  "e_ij_max": null,
  "weighted_surface_energy_EV_PER_ANG2": null,
  "weighted_surface_energy": null,
  "weighted_work_function": null,
  "surface_anisotropy": null,
  "shape_factor": null,
  "has_reconstructed": null,
  "possible_species": null,
  "has_props": null,
  "theoretical": null,
  "database_IDs": null,
  "fields_not_requested": [
    "builder_meta",
    "nsites",
    "elements",
    "nelements",
    "composition",
    "composition_reduced",
    "chemsys",
    "symmetry",
    "property_name",
    "deprecated",
    "deprecation_reasons",
    "last_updated",
    "origins",
    "warnings",
    "task_ids",
    "uncorrected_energy_per_atom",
    "equilibrium_reaction_energy_per_atom",
    "decomposes_to",
    "xas",
    "grain_boundaries",
    "cbm",
    "vbm",
    "is_gap_direct",
    "is_metal",
    "es_source_calc_id",
    "bandstructure",
    "dos",
    "dos_energy_up",
    "dos_energy_down",
    "is_magnetic",
    "ordering",
    "total_magnetization_normalized_vol",
    "total_magnetization_normalized_formula_units",
    "num_magnetic_sites",
    "num_unique_magnetic_sites",
    "types_of_magnetic_species",
    "bulk_modulus",
    "shear_modulus",
    "universal_anisotropy",
    "homogeneous_poisson",
    "e_total",
    "e_ionic",
    "e_electronic",
    "n",
    "e_ij_max",
    "weighted_surface_energy_EV_PER_ANG2",
    "weighted_surface_energy",
    "weighted_work_function",
    "surface_anisotropy",
    "shape_factor",
    "has_reconstructed",
    "possible_species",
    "has_props",
    "theoretical",
    "database_IDs"
  ]
}
