{"builder_meta": null, "nsites": null, "elements": null, "nelements": null, "composition": null, "composition_reduced": null, "formula_pretty": "Sm3Tl5", "formula_anonymous": "A3B5", "chemsys": null, "volume": 455.2303296220497, "density": 10.746068853741827, "density_atomic": 28.451895601378105, "symmetry": null, "property_name": null, "material_id": "mp-1106334", "deprecated": null, "deprecation_reasons": null, "last_updated": null, "origins": null, "warnings": null, "structure": {"@module": "pymatgen.core.structure", "@class": "Structure", "charge": 0, "lattice": {"matrix": [[5.207959, 4.142592, 0.0], [-5.207959, 4.142592, 0.0], [0.0, 0.0, 10.550219]], "pbc": [true, true, true], "a": 6.654615347572314, "b": 6.654615347572314, "c": 10.550219, "alpha": 90.0, "beta": 90.0, "gamma": 103.00007602219695, "volume": 455.2303296220497}, "properties": {}, "sites": [{"species": [{"element": "Sm", "occu": 1}], "abc": [0.625289, 0.625289, 0.25], "properties": {"magmom": 0.002}, "label": "Sm", "xyz": [0.0, 5.180634418175999, 2.63755475]}, {"species": [{"element": "Sm", "occu": 1}], "abc": [0.374710999999999, 0.374710999999999, 0.75], "properties": {"magmom": 0.002}, "label": "Sm", "xyz": [0.0, 3.1045495818239917, 7.912664250000001]}, {"species": [{"element": "Sm", "occu": 1}], "abc": [0.797956999999999, 0.202043, 0.5], "properties": {"magmom": 0.0}, "label": "Sm", "xyz": [3.1034956795259943, 4.142591999999995, 5.2751095]}, {"species": [{"element": "Sm", "occu": 1}], "abc": [0.797956999999999, 0.202043, 0.0], "properties": {"magmom": 0.0}, "label": "Sm", "xyz": [3.1034956795259943, 4.142591999999995, 0.0]}, {"species": [{"element": "Sm", "occu": 1}], "abc": [0.202043, 0.797956999999999, 0.5], "properties": {"magmom": 0.0}, "label": "Sm", "xyz": [-3.1034956795259943, 4.142591999999995, 5.2751095]}, {"species": [{"element": "Sm", "occu": 1}], "abc": [0.202043, 0.797956999999999, 0.0], "properties": {"magmom": 0.0}, "label": "Sm", "xyz": [-3.1034956795259943, 4.142591999999995, 0.0]}, {"species": [{"element": "Tl", "occu": 1}], "abc": [0.002695, 0.002695, 0.25], "properties": {"magmom": -0.0}, "label": "Tl", "xyz": [0.0, 0.022328570879999995, 2.63755475]}, {"species": [{"element": "Tl", "occu": 1}], "abc": [0.997305, 0.997305, 0.75], "properties": {"magmom": -0.0}, "label": "Tl", "xyz": [0.0, 8.26285542912, 7.912664250000001]}, {"species": [{"element": "Tl", "occu": 1}], "abc": [0.30583899999999903, 0.30583899999999903, 0.049755999999999], "properties": {"magmom": -0.0}, "label": "Tl", "xyz": [0.0, 2.5339323893759915, 0.5249366965639894]}, {"species": [{"element": "Tl", "occu": 1}], "abc": [0.694160999999999, 0.694160999999999, 0.950244], "properties": {"magmom": -0.0}, "label": "Tl", "xyz": [0.0, 5.751251610623991, 10.025282303436]}, {"species": [{"element": "Tl", "occu": 1}], "abc": [0.30583899999999903, 0.30583899999999903, 0.450244], "properties": {"magmom": -0.0}, "label": "Tl", "xyz": [0.0, 2.5339323893759915, 4.750172803436]}, {"species": [{"element": "Tl", "occu": 1}], "abc": [0.694160999999999, 0.694160999999999, 0.549756], "properties": {"magmom": -0.0}, "label": "Tl", "xyz": [0.0, 5.751251610623991, 5.800046196564001]}, {"species": [{"element": "Tl", "occu": 1}], "abc": [0.058646, 0.51131, 0.25], "properties": {"magmom": -0.0}, "label": "Tl", "xyz": [-2.357455552776, 2.361095165952, 2.63755475]}, {"species": [{"element": "Tl", "occu": 1}], "abc": [0.48869, 0.941353999999999, 0.75], "properties": {"magmom": -0.0}, "label": "Tl", "xyz": [-2.3574555527759946, 5.924088834047995, 7.912664250000001]}, {"species": [{"element": "Tl", "occu": 1}], "abc": [0.941353999999999, 0.48869, 0.75], "properties": {"magmom": -0.0}, "label": "Tl", "xyz": [2.3574555527759946, 5.924088834047995, 7.912664250000001]}, {"species": [{"element": "Tl", "occu": 1}], "abc": [0.51131, 0.058646, 0.25], "properties": {"magmom": -0.0}, "label": "Tl", "xyz": [2.357455552776, 2.361095165952, 2.63755475]}]}, "task_ids": null, "uncorrected_energy_per_atom": null, "energy_per_atom": -3.593624261875, "formation_energy_per_atom": -0.34198438833333805, "energy_above_hull": 0.0, "is_stable": true, "equilibrium_reaction_energy_per_atom": null, "decomposes_to": null, "xas": null, "grain_boundaries": null, "band_gap": 0.0, "cbm": null, "vbm": null, "efermi": 5.73054747, "is_gap_direct": null, "is_metal": null, "es_source_calc_id": null, "bandstructure": null, "dos": null, "dos_energy_up": null, "dos_energy_down": null, "is_magnetic": null, "ordering": null, "total_magnetization": 0.0329642, "total_magnetization_normalized_vol": null, "total_magnetization_normalized_formula_units": null, "num_magnetic_sites": null, "num_unique_magnetic_sites": null, "types_of_magnetic_species": null, "bulk_modulus": null, "shear_modulus": null, "universal_anisotropy": null, "homogeneous_poisson": null, "e_total": null, "e_ionic": null, "e_electronic": null, "n": null, "e_ij_max": null, "weighted_surface_energy_EV_PER_ANG2": null, "weighted_surface_energy": null, "weighted_work_function": null, "surface_anisotropy": null, "shape_factor": null, "has_reconstructed": null, "possible_species": null, "has_props": null, "theoretical": null, "database_IDs": null, "fields_not_requested": ["builder_meta", "nsites", "elements", "nelements", "composition", "composition_reduced", "chemsys", "symmetry", "property_name", "deprecated", "deprecation_reasons", "last_updated", "origins", "warnings", "task_ids", "uncorrected_energy_per_atom", "equilibrium_reaction_energy_per_atom", "decomposes_to", "xas", "grain_boundaries", "cbm", "vbm", "is_gap_direct", "is_metal", "es_source_calc_id", "bandstructure", "dos", "dos_energy_up", "dos_energy_down", "is_magnetic", "ordering", "total_magnetization_normalized_vol", "total_magnetization_normalized_formula_units", "num_magnetic_sites", "num_unique_magnetic_sites", "types_of_magnetic_species", "bulk_modulus", "shear_modulus", "universal_anisotropy", "homogeneous_poisson", "e_total", "e_ionic", "e_electronic", "n", "e_ij_max", "weighted_surface_energy_EV_PER_ANG2", "weighted_surface_energy", "weighted_work_function", "surface_anisotropy", "shape_factor", "has_reconstructed", "possible_species", "has_props", "theoretical", "database_IDs"]}