{"builder_meta": null, "nsites": null, "elements": null, "nelements": null, "composition": null, "composition_reduced": null, "formula_pretty": "Sm3Y", "formula_anonymous": "AB3", "chemsys": null, "volume": 278.55247070015207, "density": 6.438051668200249, "density_atomic": 34.81905883751901, "symmetry": null, "property_name": null, "material_id": "mp-979234", "deprecated": null, "deprecation_reasons": null, "last_updated": null, "origins": null, "warnings": null, "structure": {"@module": "pymatgen.core.structure", "@class": "Structure", "charge": 0, "lattice": {"matrix": [[7.38730347, 1.399999999999999e-07, 0.0], [-3.69365199, 6.39759174, 0.0], [0.0, 0.0, 5.89392422]], "pbc": [true, true, true], "a": 7.387303470000001, "b": 7.387302964881513, "c": 5.89392422, "alpha": 90.0, "beta": 90.0, "gamma": 120.00000345977979, "volume": 278.55247070015207}, "properties": {}, "sites": [{"species": [{"element": "Sm", "occu": 1}], "abc": [0.16846764, 0.33696854, 0.250001], "properties": {"magmom": 0.28700000000000003}, "label": "Sm", "xyz": [-0.00012293678368369143, 2.155787171729329, 1.4734869489242197]}, {"species": [{"element": "Sm", "occu": 1}], "abc": [0.66304439, 0.8315200500000001, 0.250001], "properties": {"magmom": 0.28700000000000003}, "label": "Sm", "xyz": [1.8267644356036334, 5.319725896350602, 1.4734869489242197]}, {"species": [{"element": "Sm", "occu": 1}], "abc": [0.16846465, 0.8314979, 0.250001], "properties": {"magmom": 0.28700000000000003}, "label": "Sm", "xyz": [-1.8267643794984856, 5.319584120452397, 1.4734869489242197]}, {"species": [{"element": "Sm", "occu": 1}], "abc": [0.83152349, 0.66307954, 0.750000999999999], "properties": {"magmom": 0.28700000000000003}, "label": "Sm", "xyz": [3.693531300614226, 4.242112304480289, 4.4204490589242145]}, {"species": [{"element": "Sm", "occu": 1}], "abc": [0.33693324, 0.16846449, 0.750000999999999], "properties": {"magmom": 0.28700000000000003}, "label": "Sm", "xyz": [1.8667788942775076, 1.0777670768779661, 4.4204490589242145]}, {"species": [{"element": "Sm", "occu": 1}], "abc": [0.83152018, 0.16844276, 0.750000999999999], "properties": {"magmom": 0.28700000000000003}, "label": "Sm", "xyz": [5.520522975413932, 1.0776281264516276, 4.4204490589242145]}, {"species": [{"element": "Y", "occu": 1}], "abc": [0.33335491, 0.66667962, 0.750000999999999], "properties": {"magmom": 0.362}, "label": "Y", "xyz": [0.00011137827909335485, 4.265144076808027, 4.4204490589242145]}, {"species": [{"element": "Y", "occu": 1}], "abc": [0.66668749, 0.3333461, 0.250001], "properties": {"magmom": 0.362}, "label": "Y", "xyz": [3.6937583226588515, 2.1326123492574625, 1.4734869489242197]}]}, "task_ids": null, "uncorrected_energy_per_atom": null, "energy_per_atom": -27.36247207375, "formation_energy_per_atom": 0.015621406250001002, "energy_above_hull": 0.015621406250001002, "is_stable": false, "equilibrium_reaction_energy_per_atom": null, "decomposes_to": null, "xas": null, "grain_boundaries": null, "band_gap": 0.0, "cbm": null, "vbm": null, "efermi": 3.08422594, "is_gap_direct": null, "is_metal": null, "es_source_calc_id": null, "bandstructure": null, "dos": null, "dos_energy_up": null, "dos_energy_down": null, "is_magnetic": null, "ordering": null, "total_magnetization": 4.8769931, "total_magnetization_normalized_vol": null, "total_magnetization_normalized_formula_units": null, "num_magnetic_sites": null, "num_unique_magnetic_sites": null, "types_of_magnetic_species": null, "bulk_modulus": null, "shear_modulus": null, "universal_anisotropy": null, "homogeneous_poisson": null, "e_total": null, "e_ionic": null, "e_electronic": null, "n": null, "e_ij_max": null, "weighted_surface_energy_EV_PER_ANG2": null, "weighted_surface_energy": null, "weighted_work_function": null, "surface_anisotropy": null, "shape_factor": null, "has_reconstructed": null, "possible_species": null, "has_props": null, "theoretical": null, "database_IDs": null, "fields_not_requested": ["builder_meta", "nsites", "elements", "nelements", "composition", "composition_reduced", "chemsys", "symmetry", "property_name", "deprecated", "deprecation_reasons", "last_updated", "origins", "warnings", "task_ids", "uncorrected_energy_per_atom", "equilibrium_reaction_energy_per_atom", "decomposes_to", "xas", "grain_boundaries", "cbm", "vbm", "is_gap_direct", "is_metal", "es_source_calc_id", "bandstructure", "dos", "dos_energy_up", "dos_energy_down", "is_magnetic", "ordering", "total_magnetization_normalized_vol", "total_magnetization_normalized_formula_units", "num_magnetic_sites", "num_unique_magnetic_sites", "types_of_magnetic_species", "bulk_modulus", "shear_modulus", "universal_anisotropy", "homogeneous_poisson", "e_total", "e_ionic", "e_electronic", "n", "e_ij_max", "weighted_surface_energy_EV_PER_ANG2", "weighted_surface_energy", "weighted_work_function", "surface_anisotropy", "shape_factor", "has_reconstructed", "possible_species", "has_props", "theoretical", "database_IDs"]}