{
  "builder_meta": null,
  "nsites": null,
  "elements": null,
  "nelements": null,
  "composition": null,
  "composition_reduced": null,
  "formula_pretty": "Sm3Zn",
  "formula_anonymous": "AB3",
  "chemsys": null,
  "volume": 223.72797816304384,
  "density": 7.666901287993108,
  "density_atomic": 27.96599727038048,
  "symmetry": null,
  "property_name": null,
  "material_id": "mp-982044",
  "deprecated": null,
  "deprecation_reasons": null,
  "last_updated": null,
  "origins": null,
  "warnings": null,
  "structure": {
    "@module": "pymatgen.core.structure",
    "@class": "Structure",
    "charge": 0,
    "lattice": {
      "matrix": [
        [3.490715, -6.046095, 0.0],
        [3.490715, 6.046095, 0.0],
        [0.0, 0.0, 5.300306]
      ],
      "pbc": [true, true, true],
      "a": 6.981429363694085,
      "b": 6.981429363694085,
      "c": 5.300306,
      "alpha": 90.0,
      "beta": 90.0,
      "gamma": 119.99999397005129,
      "volume": 223.72797816304384
    },
    "properties": {},
    "sites": [
      {
        "species": [{ "element": "Sm", "occu": 1 }],
        "abc": [0.176658999999999, 0.353317999999999, 0.25],
        "properties": { "magmom": 0.002 },
        "label": "Sm",
        "xyz": [1.849998663554993, 1.0680970966050003, 1.3250765]
      },
      {
        "species": [{ "element": "Sm", "occu": 1 }],
        "abc": [0.646682, 0.823341, 0.25],
        "properties": { "magmom": 0.003 },
        "label": "Sm",
        "xyz": [5.131431336444999, 1.0680970966049999, 1.3250765]
      },
      {
        "species": [{ "element": "Sm", "occu": 1 }],
        "abc": [0.176658999999999, 0.823341, 0.25],
        "properties": { "magmom": 0.002 },
        "label": "Sm",
        "xyz": [3.4907149999999962, 3.909900806790006, 1.3250765]
      },
      {
        "species": [{ "element": "Sm", "occu": 1 }],
        "abc": [0.823341, 0.646682, 0.75],
        "properties": { "magmom": 0.002 },
        "label": "Sm",
        "xyz": [5.131431336444999, -1.0680970966049999, 3.9752295]
      },
      {
        "species": [{ "element": "Sm", "occu": 1 }],
        "abc": [0.353317999999999, 0.176658999999999, 0.75],
        "properties": { "magmom": 0.003 },
        "label": "Sm",
        "xyz": [1.849998663554993, -1.0680970966050003, 3.9752295]
      },
      {
        "species": [{ "element": "Sm", "occu": 1 }],
        "abc": [0.823341, 0.176658999999999, 0.75],
        "properties": { "magmom": 0.002 },
        "label": "Sm",
        "xyz": [3.4907149999999962, -3.909900806790006, 3.9752295]
      },
      {
        "species": [{ "element": "Zn", "occu": 1 }],
        "abc": [0.333333, 0.666667, 0.75],
        "properties": { "magmom": 0.0 },
        "label": "Zn",
        "xyz": [3.490715, 2.0153690307300005, 3.9752295]
      },
      {
        "species": [{ "element": "Zn", "occu": 1 }],
        "abc": [0.666667, 0.333333, 0.25],
        "properties": { "magmom": 0.0 },
        "label": "Zn",
        "xyz": [3.490715, -2.0153690307300005, 1.3250765]
      }
    ]
  },
  "task_ids": null,
  "uncorrected_energy_per_atom": null,
  "energy_per_atom": -3.89609049125,
  "formation_energy_per_atom": -0.0422149875,
  "energy_above_hull": 0.12264438874999802,
  "is_stable": false,
  "equilibrium_reaction_energy_per_atom": null,
  "decomposes_to": null,
  "xas": null,
  "grain_boundaries": null,
  "band_gap": 0.0,
  "cbm": null,
  "vbm": null,
  "efermi": 3.21384739,
  "is_gap_direct": null,
  "is_metal": null,
  "es_source_calc_id": null,
  "bandstructure": null,
  "dos": null,
  "dos_energy_up": null,
  "dos_energy_down": null,
  "is_magnetic": null,
  "ordering": null,
  "total_magnetization": 0.0276315,
  "total_magnetization_normalized_vol": null,
  "total_magnetization_normalized_formula_units": null,
  "num_magnetic_sites": null,
  "num_unique_magnetic_sites": null,
  "types_of_magnetic_species": null,
  "bulk_modulus": null,
  "shear_modulus": null,
  "universal_anisotropy": null,
  "homogeneous_poisson": null,
  "e_total": null,
  "e_ionic": null,
  "e_electronic": null,
  "n": null,
  "e_ij_max": null,
  "weighted_surface_energy_EV_PER_ANG2": null,
  "weighted_surface_energy": null,
  "weighted_work_function": null,
  "surface_anisotropy": null,
  "shape_factor": null,
  "has_reconstructed": null,
  "possible_species": null,
  "has_props": null,
  "theoretical": null,
  "database_IDs": null,
  "fields_not_requested": [
    "builder_meta",
    "nsites",
    "elements",
    "nelements",
    "composition",
    "composition_reduced",
    "chemsys",
    "symmetry",
    "property_name",
    "deprecated",
    "deprecation_reasons",
    "last_updated",
    "origins",
    "warnings",
    "task_ids",
    "uncorrected_energy_per_atom",
    "equilibrium_reaction_energy_per_atom",
    "decomposes_to",
    "xas",
    "grain_boundaries",
    "cbm",
    "vbm",
    "is_gap_direct",
    "is_metal",
    "es_source_calc_id",
    "bandstructure",
    "dos",
    "dos_energy_up",
    "dos_energy_down",
    "is_magnetic",
    "ordering",
    "total_magnetization_normalized_vol",
    "total_magnetization_normalized_formula_units",
    "num_magnetic_sites",
    "num_unique_magnetic_sites",
    "types_of_magnetic_species",
    "bulk_modulus",
    "shear_modulus",
    "universal_anisotropy",
    "homogeneous_poisson",
    "e_total",
    "e_ionic",
    "e_electronic",
    "n",
    "e_ij_max",
    "weighted_surface_energy_EV_PER_ANG2",
    "weighted_surface_energy",
    "weighted_work_function",
    "surface_anisotropy",
    "shape_factor",
    "has_reconstructed",
    "possible_species",
    "has_props",
    "theoretical",
    "database_IDs"
  ]
}
