{
  "builder_meta": null,
  "nsites": null,
  "elements": null,
  "nelements": null,
  "composition": null,
  "composition_reduced": null,
  "formula_pretty": "Sm4Al",
  "formula_anonymous": "AB4",
  "chemsys": null,
  "volume": 366.0921868636982,
  "density": 5.700851056549307,
  "density_atomic": 36.60921868636982,
  "symmetry": null,
  "property_name": null,
  "material_id": "mp-1208890",
  "deprecated": null,
  "deprecation_reasons": null,
  "last_updated": null,
  "origins": null,
  "warnings": null,
  "structure": {
    "@module": "pymatgen.core.structure",
    "@class": "Structure",
    "charge": 0,
    "lattice": {
      "matrix": [
        [-5.677888, -5.677888, 0.0],
        [-5.677888, 0.0, -5.677888],
        [0.0, -5.677888, -5.677888]
      ],
      "pbc": [true, true, true],
      "a": 8.029746215235448,
      "b": 8.029746215235448,
      "c": 8.029746215235448,
      "alpha": 60.00000000000001,
      "beta": 60.00000000000001,
      "gamma": 60.00000000000001,
      "volume": 366.0921868636982
    },
    "properties": {},
    "sites": [
      {
        "species": [{ "element": "Sm", "occu": 1 }],
        "abc": [0.607024999999999, 0.607024999999999, 0.607024999999999],
        "properties": { "magmom": -0.001 },
        "label": "Sm",
        "xyz": [-6.893239926399989, -6.893239926399989, -6.893239926399989]
      },
      {
        "species": [{ "element": "Sm", "occu": 1 }],
        "abc": [0.178925, 0.607024999999999, 0.607024999999999],
        "properties": { "magmom": -0.001 },
        "label": "Sm",
        "xyz": [-4.462536073599995, -4.462536073599995, -6.893239926399989]
      },
      {
        "species": [{ "element": "Sm", "occu": 1 }],
        "abc": [0.607024999999999, 0.178925, 0.607024999999999],
        "properties": { "magmom": -0.001 },
        "label": "Sm",
        "xyz": [-4.462536073599995, -6.893239926399989, -4.462536073599995]
      },
      {
        "species": [{ "element": "Sm", "occu": 1 }],
        "abc": [0.571075, 0.142975, 0.142975],
        "properties": { "magmom": -0.001 },
        "label": "Sm",
        "xyz": [-4.0542959264, -4.0542959264, -1.6235920736]
      },
      {
        "species": [{ "element": "Sm", "occu": 1 }],
        "abc": [0.142975, 0.142975, 0.142975],
        "properties": { "magmom": -0.001 },
        "label": "Sm",
        "xyz": [-1.6235920736, -1.6235920736, -1.6235920736]
      },
      {
        "species": [{ "element": "Sm", "occu": 1 }],
        "abc": [0.607024999999999, 0.607024999999999, 0.178925],
        "properties": { "magmom": -0.001 },
        "label": "Sm",
        "xyz": [-6.893239926399989, -4.462536073599995, -4.462536073599995]
      },
      {
        "species": [{ "element": "Sm", "occu": 1 }],
        "abc": [0.142975, 0.571075, 0.142975],
        "properties": { "magmom": -0.001 },
        "label": "Sm",
        "xyz": [-4.0542959264, -1.6235920736, -4.0542959264]
      },
      {
        "species": [{ "element": "Sm", "occu": 1 }],
        "abc": [0.142975, 0.142975, 0.571075],
        "properties": { "magmom": -0.001 },
        "label": "Sm",
        "xyz": [-1.6235920736, -4.0542959264, -4.0542959264]
      },
      {
        "species": [{ "element": "Al", "occu": 1 }],
        "abc": [0.0, 0.0, 0.0],
        "properties": { "magmom": -0.0 },
        "label": "Al",
        "xyz": [0.0, 0.0, 0.0]
      },
      {
        "species": [{ "element": "Al", "occu": 1 }],
        "abc": [0.75, 0.75, 0.75],
        "properties": { "magmom": -0.0 },
        "label": "Al",
        "xyz": [-8.516832, -8.516832, -8.516832]
      }
    ]
  },
  "task_ids": null,
  "uncorrected_energy_per_atom": null,
  "energy_per_atom": -24.67847220475,
  "formation_energy_per_atom": 0.45428691724999903,
  "energy_above_hull": 0.644481789249997,
  "is_stable": false,
  "equilibrium_reaction_energy_per_atom": null,
  "decomposes_to": null,
  "xas": null,
  "grain_boundaries": null,
  "band_gap": 0.0,
  "cbm": null,
  "vbm": null,
  "efermi": 2.38863044,
  "is_gap_direct": null,
  "is_metal": null,
  "es_source_calc_id": null,
  "bandstructure": null,
  "dos": null,
  "dos_energy_up": null,
  "dos_energy_down": null,
  "is_magnetic": null,
  "ordering": null,
  "total_magnetization": 0.018704,
  "total_magnetization_normalized_vol": null,
  "total_magnetization_normalized_formula_units": null,
  "num_magnetic_sites": null,
  "num_unique_magnetic_sites": null,
  "types_of_magnetic_species": null,
  "bulk_modulus": null,
  "shear_modulus": null,
  "universal_anisotropy": null,
  "homogeneous_poisson": null,
  "e_total": null,
  "e_ionic": null,
  "e_electronic": null,
  "n": null,
  "e_ij_max": null,
  "weighted_surface_energy_EV_PER_ANG2": null,
  "weighted_surface_energy": null,
  "weighted_work_function": null,
  "surface_anisotropy": null,
  "shape_factor": null,
  "has_reconstructed": null,
  "possible_species": null,
  "has_props": null,
  "theoretical": null,
  "database_IDs": null,
  "fields_not_requested": [
    "builder_meta",
    "nsites",
    "elements",
    "nelements",
    "composition",
    "composition_reduced",
    "chemsys",
    "symmetry",
    "property_name",
    "deprecated",
    "deprecation_reasons",
    "last_updated",
    "origins",
    "warnings",
    "task_ids",
    "uncorrected_energy_per_atom",
    "equilibrium_reaction_energy_per_atom",
    "decomposes_to",
    "xas",
    "grain_boundaries",
    "cbm",
    "vbm",
    "is_gap_direct",
    "is_metal",
    "es_source_calc_id",
    "bandstructure",
    "dos",
    "dos_energy_up",
    "dos_energy_down",
    "is_magnetic",
    "ordering",
    "total_magnetization_normalized_vol",
    "total_magnetization_normalized_formula_units",
    "num_magnetic_sites",
    "num_unique_magnetic_sites",
    "types_of_magnetic_species",
    "bulk_modulus",
    "shear_modulus",
    "universal_anisotropy",
    "homogeneous_poisson",
    "e_total",
    "e_ionic",
    "e_electronic",
    "n",
    "e_ij_max",
    "weighted_surface_energy_EV_PER_ANG2",
    "weighted_surface_energy",
    "weighted_work_function",
    "surface_anisotropy",
    "shape_factor",
    "has_reconstructed",
    "possible_species",
    "has_props",
    "theoretical",
    "database_IDs"
  ]
}
