{
  "builder_meta": null,
  "nsites": null,
  "elements": null,
  "nelements": null,
  "composition": null,
  "composition_reduced": null,
  "formula_pretty": "Sm4As3",
  "formula_anonymous": "A3B4",
  "chemsys": null,
  "volume": 351.3339994205714,
  "density": 7.809920757314039,
  "density_atomic": 25.095285672897955,
  "symmetry": null,
  "property_name": null,
  "material_id": "mp-1208911",
  "deprecated": null,
  "deprecation_reasons": null,
  "last_updated": null,
  "origins": null,
  "warnings": null,
  "structure": {
    "@module": "pymatgen.core.structure",
    "@class": "Structure",
    "charge": 0,
    "lattice": {
      "matrix": [
        [-4.44515316, 4.44515316, 4.44515316],
        [4.44515316, -4.44515316, 4.44515316],
        [4.44515316, 4.44515316, -4.44515316]
      ],
      "pbc": [true, true, true],
      "a": 7.699231120545347,
      "b": 7.699231120545347,
      "c": 7.699231120545347,
      "alpha": 109.47122063449069,
      "beta": 109.47122063449069,
      "gamma": 109.47122063449069,
      "volume": 351.3339994205714
    },
    "properties": {},
    "sites": [
      {
        "species": [{ "element": "Sm", "occu": 1 }],
        "abc": [0.36692929, 0.36692929, 0.36692929],
        "properties": { "magmom": 0.0 },
        "label": "Sm",
        "xyz": [1.6310568929400566, 1.6310568929400566, 1.6310568929400566]
      },
      {
        "species": [{ "element": "Sm", "occu": 1 }],
        "abc": [0.13307071, 0.5, -0.0],
        "properties": { "magmom": 0.0 },
        "label": "Sm",
        "xyz": [1.6310568929400566, -1.6310568929400566, 2.8140962670599436]
      },
      {
        "species": [{ "element": "Sm", "occu": 1 }],
        "abc": [-0.0, 0.13307071, 0.5],
        "properties": { "magmom": 0.0 },
        "label": "Sm",
        "xyz": [2.8140962670599436, 1.6310568929400566, -1.6310568929400566]
      },
      {
        "species": [{ "element": "Sm", "occu": 1 }],
        "abc": [0.86692929, 0.86692929, 0.86692929],
        "properties": { "magmom": 0.0 },
        "label": "Sm",
        "xyz": [3.8536334729400563, 3.8536334729400563, 3.8536334729400563]
      },
      {
        "species": [{ "element": "Sm", "occu": 1 }],
        "abc": [0.5, -0.0, 0.13307071],
        "properties": { "magmom": 0.0 },
        "label": "Sm",
        "xyz": [-1.6310568929400566, 2.8140962670599436, 1.6310568929400566]
      },
      {
        "species": [{ "element": "Sm", "occu": 1 }],
        "abc": [0.63307071, 0.5, 0.0],
        "properties": { "magmom": 0.0 },
        "label": "Sm",
        "xyz": [-0.591519687059944, 0.591519687059944, 5.036672847059944]
      },
      {
        "species": [{ "element": "Sm", "occu": 1 }],
        "abc": [0.5, 0.0, 0.63307071],
        "properties": { "magmom": 0.0 },
        "label": "Sm",
        "xyz": [0.591519687059944, 5.036672847059944, -0.591519687059944]
      },
      {
        "species": [{ "element": "Sm", "occu": 1 }],
        "abc": [-0.0, 0.63307071, 0.5],
        "properties": { "magmom": 0.0 },
        "label": "Sm",
        "xyz": [5.036672847059944, -0.591519687059944, 0.591519687059944]
      },
      {
        "species": [{ "element": "As", "occu": 1 }],
        "abc": [0.125, 0.875, 0.25],
        "properties": { "magmom": -0.0 },
        "label": "As",
        "xyz": [4.44515316, -2.22257658, 3.33386487]
      },
      {
        "species": [{ "element": "As", "occu": 1 }],
        "abc": [0.375, 0.625, 0.75],
        "properties": { "magmom": -0.0 },
        "label": "As",
        "xyz": [4.44515316, 2.22257658, 1.11128829]
      },
      {
        "species": [{ "element": "As", "occu": 1 }],
        "abc": [0.875, 0.25, 0.125],
        "properties": { "magmom": -0.0 },
        "label": "As",
        "xyz": [-2.22257658, 3.33386487, 4.44515316]
      },
      {
        "species": [{ "element": "As", "occu": 1 }],
        "abc": [0.625, 0.75, 0.375],
        "properties": { "magmom": -0.0 },
        "label": "As",
        "xyz": [2.22257658, 1.11128829, 4.44515316]
      },
      {
        "species": [{ "element": "As", "occu": 1 }],
        "abc": [0.25, 0.125, 0.875],
        "properties": { "magmom": -0.0 },
        "label": "As",
        "xyz": [3.33386487, 4.44515316, -2.22257658]
      },
      {
        "species": [{ "element": "As", "occu": 1 }],
        "abc": [0.75, 0.375, 0.625],
        "properties": { "magmom": -0.0 },
        "label": "As",
        "xyz": [1.11128829, 4.44515316, 2.2225765800000006]
      }
    ]
  },
  "task_ids": null,
  "uncorrected_energy_per_atom": null,
  "energy_per_atom": -24.768972845,
  "formation_energy_per_atom": -1.475502810357142,
  "energy_above_hull": 0.066348694999998,
  "is_stable": false,
  "equilibrium_reaction_energy_per_atom": null,
  "decomposes_to": null,
  "xas": null,
  "grain_boundaries": null,
  "band_gap": 0.0,
  "cbm": null,
  "vbm": null,
  "efermi": 4.73626042,
  "is_gap_direct": null,
  "is_metal": null,
  "es_source_calc_id": null,
  "bandstructure": null,
  "dos": null,
  "dos_energy_up": null,
  "dos_energy_down": null,
  "is_magnetic": null,
  "ordering": null,
  "total_magnetization": 8.5e-6,
  "total_magnetization_normalized_vol": null,
  "total_magnetization_normalized_formula_units": null,
  "num_magnetic_sites": null,
  "num_unique_magnetic_sites": null,
  "types_of_magnetic_species": null,
  "bulk_modulus": null,
  "shear_modulus": null,
  "universal_anisotropy": null,
  "homogeneous_poisson": null,
  "e_total": null,
  "e_ionic": null,
  "e_electronic": null,
  "n": null,
  "e_ij_max": null,
  "weighted_surface_energy_EV_PER_ANG2": null,
  "weighted_surface_energy": null,
  "weighted_work_function": null,
  "surface_anisotropy": null,
  "shape_factor": null,
  "has_reconstructed": null,
  "possible_species": null,
  "has_props": null,
  "theoretical": null,
  "database_IDs": null,
  "fields_not_requested": [
    "builder_meta",
    "nsites",
    "elements",
    "nelements",
    "composition",
    "composition_reduced",
    "chemsys",
    "symmetry",
    "property_name",
    "deprecated",
    "deprecation_reasons",
    "last_updated",
    "origins",
    "warnings",
    "task_ids",
    "uncorrected_energy_per_atom",
    "equilibrium_reaction_energy_per_atom",
    "decomposes_to",
    "xas",
    "grain_boundaries",
    "cbm",
    "vbm",
    "is_gap_direct",
    "is_metal",
    "es_source_calc_id",
    "bandstructure",
    "dos",
    "dos_energy_up",
    "dos_energy_down",
    "is_magnetic",
    "ordering",
    "total_magnetization_normalized_vol",
    "total_magnetization_normalized_formula_units",
    "num_magnetic_sites",
    "num_unique_magnetic_sites",
    "types_of_magnetic_species",
    "bulk_modulus",
    "shear_modulus",
    "universal_anisotropy",
    "homogeneous_poisson",
    "e_total",
    "e_ionic",
    "e_electronic",
    "n",
    "e_ij_max",
    "weighted_surface_energy_EV_PER_ANG2",
    "weighted_surface_energy",
    "weighted_work_function",
    "surface_anisotropy",
    "shape_factor",
    "has_reconstructed",
    "possible_species",
    "has_props",
    "theoretical",
    "database_IDs"
  ]
}
