{"builder_meta": null, "nsites": null, "elements": null, "nelements": null, "composition": null, "composition_reduced": null, "formula_pretty": "Sm4Bi3", "formula_anonymous": "A3B4", "chemsys": null, "volume": 435.74393933412904, "density": 9.36226433530673, "density_atomic": 31.124567095294932, "symmetry": null, "property_name": null, "material_id": "mp-23283", "deprecated": null, "deprecation_reasons": null, "last_updated": null, "origins": null, "warnings": null, "structure": {"@module": "pymatgen.core.structure", "@class": "Structure", "charge": 0, "lattice": {"matrix": [[7.79904598, 0.0, -2.75737796], [-3.89952197, 6.75417181, -2.75737796], [2e-08, 3.0000000000000004e-08, 8.27213797]], "pbc": [true, true, true], "a": 8.272137052324986, "b": 8.272136462112137, "c": 8.27213797, "alpha": 109.47121420062956, "beta": 109.47121272745623, "gamma": 109.47122278344696, "volume": 435.74393933412904}, "properties": {}, "sites": [{"species": [{"element": "Sm", "occu": 1}], "abc": [0.14341629, 0.14341629, 0.14341629], "properties": {"magmom": -0.0}, "label": "Sm", "xyz": [0.5592552691484488, 0.9686582673152736, 0.39545350372359456]}, {"species": [{"element": "Sm", "occu": 1}], "abc": [0.85658371, 0.5, -0.0], "properties": {"magmom": -0.0}, "label": "Sm", "xyz": [4.730774755008985, 3.377085905, -3.740614022849032]}, {"species": [{"element": "Sm", "occu": 1}], "abc": [0.0, 0.85658371, 0.5], "properties": {"magmom": -0.0}, "label": "Sm", "xyz": [-3.340266986289109, 5.785513561987216, 1.774143942150968]}, {"species": [{"element": "Sm", "occu": 1}], "abc": [0.5, -0.0, 0.85658371], "properties": {"magmom": -0.0}, "label": "Sm", "xyz": [3.899523007131674, 2.5697511300000004e-08, 5.707089651974468]}, {"species": [{"element": "Sm", "occu": 1}], "abc": [0.0, 0.35658371, 0.5], "properties": {"magmom": -0.0}, "label": "Sm", "xyz": [-1.3905060012891086, 2.408427656987215, 3.152832922150968]}, {"species": [{"element": "Sm", "occu": 1}], "abc": [0.5, -0.0, 0.35658371], "properties": {"magmom": -0.0}, "label": "Sm", "xyz": [3.8995229971316743, 1.06975113e-08, 1.5710206669744686]}, {"species": [{"element": "Sm", "occu": 1}], "abc": [0.35658371, 0.5, -0.0], "properties": {"magmom": -0.0}, "label": "Sm", "xyz": [0.8312517650089857, 3.377085905, -2.3619250428490313]}, {"species": [{"element": "Sm", "occu": 1}], "abc": [0.64341629, 0.64341629, 0.64341629], "properties": {"magmom": -0.0}, "label": "Sm", "xyz": [2.5090172841484484, 4.345744187315273, 1.7741445287235944]}, {"species": [{"element": "Bi", "occu": 1}], "abc": [0.25, 0.625, 0.375], "properties": {"magmom": 0.0}, "label": "Bi", "xyz": [-0.48743972875, 4.2213573925, 0.6893460237499998]}, {"species": [{"element": "Bi", "occu": 1}], "abc": [0.375, 0.25, 0.625], "properties": {"magmom": 0.0}, "label": "Bi", "xyz": [1.9497617624999999, 1.68854297125, 3.44672500625]}, {"species": [{"element": "Bi", "occu": 1}], "abc": [0.125, 0.75, 0.875], "properties": {"magmom": 0.0}, "label": "Bi", "xyz": [-1.9497607125, 5.0656288837500005, 4.825415008749999]}, {"species": [{"element": "Bi", "occu": 1}], "abc": [0.875, 0.125, 0.75], "properties": {"magmom": 0.0}, "label": "Bi", "xyz": [6.33672500125, 0.84427149875, 3.4467255174999996]}, {"species": [{"element": "Bi", "occu": 1}], "abc": [0.625, 0.375, 0.25], "properties": {"magmom": 0.0}, "label": "Bi", "xyz": [3.41208300375, 2.5328144362500002, -0.6893434675000001]}, {"species": [{"element": "Bi", "occu": 1}], "abc": [0.75, 0.875, 0.125], "properties": {"magmom": 0.0}, "label": "Bi", "xyz": [2.4372027637500002, 5.9099003375, -3.44672193875]}]}, "task_ids": null, "uncorrected_energy_per_atom": null, "energy_per_atom": -43.028288912142855, "formation_energy_per_atom": -0.9656434100000001, "energy_above_hull": 0.044501497857140006, "is_stable": false, "equilibrium_reaction_energy_per_atom": null, "decomposes_to": null, "xas": null, "grain_boundaries": null, "band_gap": 0.0, "cbm": null, "vbm": null, "efermi": 4.96925259, "is_gap_direct": null, "is_metal": null, "es_source_calc_id": null, "bandstructure": null, "dos": null, "dos_energy_up": null, "dos_energy_down": null, "is_magnetic": null, "ordering": null, "total_magnetization": 0.0006056999999990001, "total_magnetization_normalized_vol": null, "total_magnetization_normalized_formula_units": null, "num_magnetic_sites": null, "num_unique_magnetic_sites": null, "types_of_magnetic_species": null, "bulk_modulus": null, "shear_modulus": null, "universal_anisotropy": null, "homogeneous_poisson": null, "e_total": null, "e_ionic": null, "e_electronic": null, "n": null, "e_ij_max": null, "weighted_surface_energy_EV_PER_ANG2": null, "weighted_surface_energy": null, "weighted_work_function": null, "surface_anisotropy": null, "shape_factor": null, "has_reconstructed": null, "possible_species": null, "has_props": null, "theoretical": null, "database_IDs": null, "fields_not_requested": ["builder_meta", "nsites", "elements", "nelements", "composition", "composition_reduced", "chemsys", "symmetry", "property_name", "deprecated", "deprecation_reasons", "last_updated", "origins", "warnings", "task_ids", "uncorrected_energy_per_atom", "equilibrium_reaction_energy_per_atom", "decomposes_to", "xas", "grain_boundaries", "cbm", "vbm", "is_gap_direct", "is_metal", "es_source_calc_id", "bandstructure", "dos", "dos_energy_up", "dos_energy_down", "is_magnetic", "ordering", "total_magnetization_normalized_vol", "total_magnetization_normalized_formula_units", "num_magnetic_sites", "num_unique_magnetic_sites", "types_of_magnetic_species", "bulk_modulus", "shear_modulus", "universal_anisotropy", "homogeneous_poisson", "e_total", "e_ionic", "e_electronic", "n", "e_ij_max", "weighted_surface_energy_EV_PER_ANG2", "weighted_surface_energy", "weighted_work_function", "surface_anisotropy", "shape_factor", "has_reconstructed", "possible_species", "has_props", "theoretical", "database_IDs"]}