{"builder_meta": null, "nsites": null, "elements": null, "nelements": null, "composition": null, "composition_reduced": null, "formula_pretty": "Sm4Co", "formula_anonymous": "AB4", "chemsys": null, "volume": 312.7660863790637, "density": 7.012112480148764, "density_atomic": 31.27660863790637, "symmetry": null, "property_name": null, "material_id": "mp-1211328", "deprecated": null, "deprecation_reasons": null, "last_updated": null, "origins": null, "warnings": null, "structure": {"@module": "pymatgen.core.structure", "@class": "Structure", "charge": 0, "lattice": {"matrix": [[0.0, 5.387615, 5.387615], [5.387615, 0.0, 5.387615], [5.387615, 5.387615, 0.0]], "pbc": [true, true, true], "a": 7.6192382018447224, "b": 7.6192382018447224, "c": 7.6192382018447224, "alpha": 59.99999999999999, "beta": 59.99999999999999, "gamma": 59.99999999999999, "volume": 312.7660863790637}, "properties": {}, "sites": [{"species": [{"element": "Sm", "occu": 1}], "abc": [0.385218, 0.385218, 0.385218], "properties": {"magmom": 0.061}, "label": "Sm", "xyz": [4.15081255014, 4.15081255014, 4.15081255014]}, {"species": [{"element": "Sm", "occu": 1}], "abc": [0.385218, 0.385218, 0.844345999999999], "properties": {"magmom": 0.061}, "label": "Sm", "xyz": [6.624417449859996, 6.624417449859996, 4.15081255014]}, {"species": [{"element": "Sm", "occu": 1}], "abc": [0.385218, 0.844345999999999, 0.385218], "properties": {"magmom": 0.061}, "label": "Sm", "xyz": [6.624417449859996, 4.15081255014, 6.624417449859996]}, {"species": [{"element": "Sm", "occu": 1}], "abc": [0.864781999999999, 0.864781999999999, 0.405653999999999], "properties": {"magmom": 0.061}, "label": "Sm", "xyz": [6.84462005013999, 6.84462005013999, 9.31822494985999]}, {"species": [{"element": "Sm", "occu": 1}], "abc": [0.864781999999999, 0.864781999999999, 0.864781999999999], "properties": {"magmom": 0.061}, "label": "Sm", "xyz": [9.31822494985999, 9.31822494985999, 9.31822494985999]}, {"species": [{"element": "Sm", "occu": 1}], "abc": [0.844345999999999, 0.385218, 0.385218], "properties": {"magmom": 0.061}, "label": "Sm", "xyz": [4.15081255014, 6.624417449859996, 6.624417449859996]}, {"species": [{"element": "Sm", "occu": 1}], "abc": [0.864781999999999, 0.405653999999999, 0.864781999999999], "properties": {"magmom": 0.061}, "label": "Sm", "xyz": [6.84462005013999, 9.31822494985999, 6.84462005013999]}, {"species": [{"element": "Sm", "occu": 1}], "abc": [0.405653999999999, 0.864781999999999, 0.864781999999999], "properties": {"magmom": 0.061}, "label": "Sm", "xyz": [9.31822494985999, 6.84462005013999, 6.84462005013999]}, {"species": [{"element": "Co", "occu": 1}], "abc": [0.0, 0.0, 0.0], "properties": {"magmom": 0.17300000000000001}, "label": "Co", "xyz": [0.0, 0.0, 0.0]}, {"species": [{"element": "Co", "occu": 1}], "abc": [0.25, 0.25, 0.25], "properties": {"magmom": 0.17300000000000001}, "label": "Co", "xyz": [2.6938075, 2.6938075, 2.6938075]}]}, "task_ids": null, "uncorrected_energy_per_atom": null, "energy_per_atom": -4.8961396, "formation_energy_per_atom": 0.305412651999999, "energy_above_hull": 0.37930729150000003, "is_stable": false, "equilibrium_reaction_energy_per_atom": null, "decomposes_to": null, "xas": null, "grain_boundaries": null, "band_gap": 0.0, "cbm": null, "vbm": null, "efermi": 2.82279103, "is_gap_direct": null, "is_metal": null, "es_source_calc_id": null, "bandstructure": null, "dos": null, "dos_energy_up": null, "dos_energy_down": null, "is_magnetic": null, "ordering": null, "total_magnetization": 1.3667272, "total_magnetization_normalized_vol": null, "total_magnetization_normalized_formula_units": null, "num_magnetic_sites": null, "num_unique_magnetic_sites": null, "types_of_magnetic_species": null, "bulk_modulus": null, "shear_modulus": null, "universal_anisotropy": null, "homogeneous_poisson": null, "e_total": null, "e_ionic": null, "e_electronic": null, "n": null, "e_ij_max": null, "weighted_surface_energy_EV_PER_ANG2": null, "weighted_surface_energy": null, "weighted_work_function": null, "surface_anisotropy": null, "shape_factor": null, "has_reconstructed": null, "possible_species": null, "has_props": null, "theoretical": null, "database_IDs": null, "fields_not_requested": ["builder_meta", "nsites", "elements", "nelements", "composition", "composition_reduced", "chemsys", "symmetry", "property_name", "deprecated", "deprecation_reasons", "last_updated", "origins", "warnings", "task_ids", "uncorrected_energy_per_atom", "equilibrium_reaction_energy_per_atom", "decomposes_to", "xas", "grain_boundaries", "cbm", "vbm", "is_gap_direct", "is_metal", "es_source_calc_id", "bandstructure", "dos", "dos_energy_up", "dos_energy_down", "is_magnetic", "ordering", "total_magnetization_normalized_vol", "total_magnetization_normalized_formula_units", "num_magnetic_sites", "num_unique_magnetic_sites", "types_of_magnetic_species", "bulk_modulus", "shear_modulus", "universal_anisotropy", "homogeneous_poisson", "e_total", "e_ionic", "e_electronic", "n", "e_ij_max", "weighted_surface_energy_EV_PER_ANG2", "weighted_surface_energy", "weighted_work_function", "surface_anisotropy", "shape_factor", "has_reconstructed", "possible_species", "has_props", "theoretical", "database_IDs"]}