{"builder_meta": null, "nsites": null, "elements": null, "nelements": null, "composition": null, "composition_reduced": null, "formula_pretty": "Sm4Ge7", "formula_anonymous": "A4B7", "chemsys": null, "volume": 490.11080162431125, "density": 7.521015716007224, "density_atomic": 22.277763710195966, "symmetry": null, "property_name": null, "material_id": "mp-1191192", "deprecated": null, "deprecation_reasons": null, "last_updated": null, "origins": null, "warnings": null, "structure": {"@module": "pymatgen.core.structure", "@class": "Structure", "charge": 0, "lattice": {"matrix": [[2.9778325900000002, -6.90415333, 0.0], [2.9778325900000002, 6.90415333, 0.0], [0.0, 0.0, 11.91937743]], "pbc": [true, true, true], "a": 7.518964033576447, "b": 7.518964033576447, "c": 11.91937743, "alpha": 90.0, "beta": 90.0, "gamma": 133.33792963530897, "volume": 490.1108016243113}, "properties": {}, "sites": [{"species": [{"element": "Sm", "occu": 1}], "abc": [0.49205424000000003, 0.98200917, 0.38079007], "properties": {"magmom": -0.0}, "label": "Sm", "xyz": [4.389514062024532, 3.382723961509417, 4.53878056592612]}, {"species": [{"element": "Sm", "occu": 1}], "abc": [0.98200917, 0.49205424000000003, 0.61920993], "properties": {"magmom": -0.0}, "label": "Sm", "xyz": [4.389514062024532, -3.382723961509417, 7.380596864073881]}, {"species": [{"element": "Sm", "occu": 1}], "abc": [0.50794576, 0.01799083, 0.88079007], "properties": {"magmom": -0.0}, "label": "Sm", "xyz": [1.5661511179754681, -3.382723961509417, 10.49846928092612]}, {"species": [{"element": "Sm", "occu": 1}], "abc": [0.01799083, 0.50794576, 0.11920993], "properties": {"magmom": -0.0}, "label": "Sm", "xyz": [1.5661511179754681, 3.382723961509417, 1.42090814907388]}, {"species": [{"element": "Sm", "occu": 1}], "abc": [0.9961722999999991, 0.0038277, 0.25], "properties": {"magmom": 0.0}, "label": "Sm", "xyz": [2.9778325899999976, -6.851299274597511, 2.9798443575]}, {"species": [{"element": "Sm", "occu": 1}], "abc": [0.0038277, 0.9961722999999991, 0.75], "properties": {"magmom": 0.0}, "label": "Sm", "xyz": [2.9778325899999976, 6.851299274597511, 8.939533072500002]}, {"species": [{"element": "Sm", "occu": 1}], "abc": [0.48816167, 0.48816167, 0.5], "properties": {"magmom": -0.0}, "label": "Sm", "xyz": [2.907327460229651, 0.0, 5.959688715]}, {"species": [{"element": "Sm", "occu": 1}], "abc": [0.51183833, 0.51183833, 0.0], "properties": {"magmom": -0.0}, "label": "Sm", "xyz": [3.0483377197703496, 0.0, 0.0]}, {"species": [{"element": "Ge", "occu": 1}], "abc": [0.92855057, 0.1056444, 0.98974547], "properties": {"magmom": 0.0}, "label": "Ge", "xyz": [3.0796594860800726, -5.681470373883046, 11.797149816562744]}, {"species": [{"element": "Ge", "occu": 1}], "abc": [0.1056444, 0.92855057, 0.01025453], "properties": {"magmom": 0.0}, "label": "Ge", "xyz": [3.0796594860800726, 5.681470373883046, 0.12222761343725791]}, {"species": [{"element": "Ge", "occu": 1}], "abc": [0.07144943000000001, 0.894355599999999, 0.48974547], "properties": {"magmom": 0.0}, "label": "Ge", "xyz": [2.876005693919925, 5.681470373883039, 5.8374611015627424]}, {"species": [{"element": "Ge", "occu": 1}], "abc": [0.894355599999999, 0.07144943000000001, 0.51025453], "properties": {"magmom": 0.0}, "label": "Ge", "xyz": [2.876005693919925, -5.681470373883039, 6.081916328437258]}, {"species": [{"element": "Ge", "occu": 1}], "abc": [0.57382675, 0.91800452, 0.12873878], "properties": {"magmom": 0.0}, "label": "Ge", "xyz": [4.442423774587089, 2.3762560968574737, 1.5344861086977355]}, {"species": [{"element": "Ge", "occu": 1}], "abc": [0.91800452, 0.57382675, 0.8712612200000001], "properties": {"magmom": 0.0}, "label": "Ge", "xyz": [4.442423774587089, -2.3762560968574737, 10.384891321302266]}, {"species": [{"element": "Ge", "occu": 1}], "abc": [0.42617325, 0.08199548, 0.62873878], "properties": {"magmom": 0.0}, "label": "Ge", "xyz": [1.5132414054129109, -2.376256096857474, 7.494174823697737]}, {"species": [{"element": "Ge", "occu": 1}], "abc": [0.08199548, 0.42617325, 0.37126122], "properties": {"magmom": 0.0}, "label": "Ge", "xyz": [1.5132414054129109, 2.376256096857474, 4.425202606302265]}, {"species": [{"element": "Ge", "occu": 1}], "abc": [0.47701042, 0.18097383, 0.16440091], "properties": {"magmom": 0.0}, "label": "Ge", "xyz": [1.9593669433567076, -2.0438820086503444, 1.9595564961254617]}, {"species": [{"element": "Ge", "occu": 1}], "abc": [0.18097383, 0.47701042, 0.83559909], "properties": {"magmom": 0.0}, "label": "Ge", "xyz": [1.9593669433567076, 2.0438820086503444, 9.95982093387454]}, {"species": [{"element": "Ge", "occu": 1}], "abc": [0.5229895800000001, 0.81902617, 0.66440091], "properties": {"magmom": 0.0}, "label": "Ge", "xyz": [3.996298236643293, 2.0438820086503444, 7.919245211125462]}, {"species": [{"element": "Ge", "occu": 1}], "abc": [0.81902617, 0.5229895800000001, 0.33559909], "properties": {"magmom": 0.0}, "label": "Ge", "xyz": [3.996298236643293, -2.0438820086503444, 4.000132218874539]}, {"species": [{"element": "Ge", "occu": 1}], "abc": [0.43791601, 0.56208399, 0.25], "properties": {"magmom": 0.0}, "label": "Ge", "xyz": [2.9778325900000002, 0.857274772596373, 2.9798443575]}, {"species": [{"element": "Ge", "occu": 1}], "abc": [0.56208399, 0.43791601, 0.75], "properties": {"magmom": 0.0}, "label": "Ge", "xyz": [2.9778325900000002, -0.857274772596373, 8.939533072500002]}]}, "task_ids": null, "uncorrected_energy_per_atom": null, "energy_per_atom": -5.376319627727275, "formation_energy_per_atom": -0.7185433072727301, "energy_above_hull": 0.002649438787876, "is_stable": false, "equilibrium_reaction_energy_per_atom": null, "decomposes_to": null, "xas": null, "grain_boundaries": null, "band_gap": 0.0, "cbm": null, "vbm": null, "efermi": 5.24809831, "is_gap_direct": null, "is_metal": null, "es_source_calc_id": null, "bandstructure": null, "dos": null, "dos_energy_up": null, "dos_energy_down": null, "is_magnetic": null, "ordering": null, "total_magnetization": 0.0, "total_magnetization_normalized_vol": null, "total_magnetization_normalized_formula_units": null, "num_magnetic_sites": null, "num_unique_magnetic_sites": null, "types_of_magnetic_species": null, "bulk_modulus": null, "shear_modulus": null, "universal_anisotropy": null, "homogeneous_poisson": null, "e_total": null, "e_ionic": null, "e_electronic": null, "n": null, "e_ij_max": null, "weighted_surface_energy_EV_PER_ANG2": null, "weighted_surface_energy": null, "weighted_work_function": null, "surface_anisotropy": null, "shape_factor": null, "has_reconstructed": null, "possible_species": null, "has_props": null, "theoretical": null, "database_IDs": null, "fields_not_requested": ["builder_meta", "nsites", "elements", "nelements", "composition", "composition_reduced", "chemsys", "symmetry", "property_name", "deprecated", "deprecation_reasons", "last_updated", "origins", "warnings", "task_ids", "uncorrected_energy_per_atom", "equilibrium_reaction_energy_per_atom", "decomposes_to", "xas", "grain_boundaries", "cbm", "vbm", "is_gap_direct", "is_metal", "es_source_calc_id", "bandstructure", "dos", "dos_energy_up", "dos_energy_down", "is_magnetic", "ordering", "total_magnetization_normalized_vol", "total_magnetization_normalized_formula_units", "num_magnetic_sites", "num_unique_magnetic_sites", "types_of_magnetic_species", "bulk_modulus", "shear_modulus", "universal_anisotropy", "homogeneous_poisson", "e_total", "e_ionic", "e_electronic", "n", "e_ij_max", "weighted_surface_energy_EV_PER_ANG2", "weighted_surface_energy", "weighted_work_function", "surface_anisotropy", "shape_factor", "has_reconstructed", "possible_species", "has_props", "theoretical", "database_IDs"]}