{
  "builder_meta": null,
  "nsites": null,
  "elements": null,
  "nelements": null,
  "composition": null,
  "composition_reduced": null,
  "formula_pretty": "Sm4Rh",
  "formula_anonymous": "AB4",
  "chemsys": null,
  "volume": 331.1620482297525,
  "density": 7.063570390303141,
  "density_atomic": 33.11620482297525,
  "symmetry": null,
  "property_name": null,
  "material_id": "mp-1208944",
  "deprecated": null,
  "deprecation_reasons": null,
  "last_updated": null,
  "origins": null,
  "warnings": null,
  "structure": {
    "@module": "pymatgen.core.structure",
    "@class": "Structure",
    "charge": 0,
    "lattice": {
      "matrix": [
        [-5.491237, -5.491237, 0.0],
        [-5.491237, 0.0, -5.491237],
        [0.0, -5.491237, -5.491237]
      ],
      "pbc": [true, true, true],
      "a": 7.765781839604947,
      "b": 7.765781839604947,
      "c": 7.765781839604947,
      "alpha": 59.99999999999999,
      "beta": 59.99999999999999,
      "gamma": 59.99999999999999,
      "volume": 331.1620482297525
    },
    "properties": {},
    "sites": [
      {
        "species": [{ "element": "Sm", "occu": 1 }],
        "abc": [0.611298999999999, 0.611298999999999, 0.611298999999999],
        "properties": { "magmom": 0.057 },
        "label": "Sm",
        "xyz": [-6.713575373725989, -6.713575373725989, -6.713575373725989]
      },
      {
        "species": [{ "element": "Sm", "occu": 1 }],
        "abc": [0.166102, 0.611298999999999, 0.611298999999999],
        "properties": { "magmom": 0.058 },
        "label": "Sm",
        "xyz": [-4.268893135036994, -4.268893135036994, -6.713575373725989]
      },
      {
        "species": [{ "element": "Sm", "occu": 1 }],
        "abc": [0.611298999999999, 0.166102, 0.611298999999999],
        "properties": { "magmom": 0.057 },
        "label": "Sm",
        "xyz": [-4.268893135036994, -6.713575373725989, -4.268893135036994]
      },
      {
        "species": [{ "element": "Sm", "occu": 1 }],
        "abc": [0.583898, 0.138701, 0.138701],
        "properties": { "magmom": 0.058 },
        "label": "Sm",
        "xyz": [-3.9679623649630003, -3.9679623649630003, -1.523280126274]
      },
      {
        "species": [{ "element": "Sm", "occu": 1 }],
        "abc": [0.138701, 0.138701, 0.138701],
        "properties": { "magmom": 0.057 },
        "label": "Sm",
        "xyz": [-1.523280126274, -1.523280126274, -1.523280126274]
      },
      {
        "species": [{ "element": "Sm", "occu": 1 }],
        "abc": [0.611298999999999, 0.611298999999999, 0.166102],
        "properties": { "magmom": 0.057 },
        "label": "Sm",
        "xyz": [-6.713575373725989, -4.268893135036994, -4.268893135036994]
      },
      {
        "species": [{ "element": "Sm", "occu": 1 }],
        "abc": [0.138701, 0.583898, 0.138701],
        "properties": { "magmom": 0.057 },
        "label": "Sm",
        "xyz": [-3.9679623649630003, -1.523280126274, -3.9679623649630003]
      },
      {
        "species": [{ "element": "Sm", "occu": 1 }],
        "abc": [0.138701, 0.138701, 0.583898],
        "properties": { "magmom": 0.057 },
        "label": "Sm",
        "xyz": [-1.523280126274, -3.9679623649630003, -3.9679623649630003]
      },
      {
        "species": [{ "element": "Rh", "occu": 1 }],
        "abc": [0.0, 0.0, 0.0],
        "properties": { "magmom": 0.049 },
        "label": "Rh",
        "xyz": [0.0, 0.0, 0.0]
      },
      {
        "species": [{ "element": "Rh", "occu": 1 }],
        "abc": [0.75, 0.75, 0.75],
        "properties": { "magmom": 0.049 },
        "label": "Rh",
        "xyz": [-8.2368555, -8.2368555, -8.2368555]
      }
    ]
  },
  "task_ids": null,
  "uncorrected_energy_per_atom": null,
  "energy_per_atom": -5.161357392,
  "formation_energy_per_atom": 0.086373089999999,
  "energy_above_hull": 0.450428690499998,
  "is_stable": false,
  "equilibrium_reaction_energy_per_atom": null,
  "decomposes_to": null,
  "xas": null,
  "grain_boundaries": null,
  "band_gap": 0.0,
  "cbm": null,
  "vbm": null,
  "efermi": 2.94688362,
  "is_gap_direct": null,
  "is_metal": null,
  "es_source_calc_id": null,
  "bandstructure": null,
  "dos": null,
  "dos_energy_up": null,
  "dos_energy_down": null,
  "is_magnetic": null,
  "ordering": null,
  "total_magnetization": 1.0783768,
  "total_magnetization_normalized_vol": null,
  "total_magnetization_normalized_formula_units": null,
  "num_magnetic_sites": null,
  "num_unique_magnetic_sites": null,
  "types_of_magnetic_species": null,
  "bulk_modulus": null,
  "shear_modulus": null,
  "universal_anisotropy": null,
  "homogeneous_poisson": null,
  "e_total": null,
  "e_ionic": null,
  "e_electronic": null,
  "n": null,
  "e_ij_max": null,
  "weighted_surface_energy_EV_PER_ANG2": null,
  "weighted_surface_energy": null,
  "weighted_work_function": null,
  "surface_anisotropy": null,
  "shape_factor": null,
  "has_reconstructed": null,
  "possible_species": null,
  "has_props": null,
  "theoretical": null,
  "database_IDs": null,
  "fields_not_requested": [
    "builder_meta",
    "nsites",
    "elements",
    "nelements",
    "composition",
    "composition_reduced",
    "chemsys",
    "symmetry",
    "property_name",
    "deprecated",
    "deprecation_reasons",
    "last_updated",
    "origins",
    "warnings",
    "task_ids",
    "uncorrected_energy_per_atom",
    "equilibrium_reaction_energy_per_atom",
    "decomposes_to",
    "xas",
    "grain_boundaries",
    "cbm",
    "vbm",
    "is_gap_direct",
    "is_metal",
    "es_source_calc_id",
    "bandstructure",
    "dos",
    "dos_energy_up",
    "dos_energy_down",
    "is_magnetic",
    "ordering",
    "total_magnetization_normalized_vol",
    "total_magnetization_normalized_formula_units",
    "num_magnetic_sites",
    "num_unique_magnetic_sites",
    "types_of_magnetic_species",
    "bulk_modulus",
    "shear_modulus",
    "universal_anisotropy",
    "homogeneous_poisson",
    "e_total",
    "e_ionic",
    "e_electronic",
    "n",
    "e_ij_max",
    "weighted_surface_energy_EV_PER_ANG2",
    "weighted_surface_energy",
    "weighted_work_function",
    "surface_anisotropy",
    "shape_factor",
    "has_reconstructed",
    "possible_species",
    "has_props",
    "theoretical",
    "database_IDs"
  ]
}
