{"builder_meta": null, "nsites": null, "elements": null, "nelements": null, "composition": null, "composition_reduced": null, "formula_pretty": "Sm4Sn3", "formula_anonymous": "A3B4", "chemsys": null, "volume": 426.4606171434383, "density": 7.457112474558673, "density_atomic": 30.461472653102735, "symmetry": null, "property_name": null, "material_id": "mp-571474", "deprecated": null, "deprecation_reasons": null, "last_updated": null, "origins": null, "warnings": null, "structure": {"@module": "pymatgen.core.structure", "@class": "Structure", "charge": 0, "lattice": {"matrix": [[7.74326406, 1e-08, -2.73765561], [-3.871631009999999, 6.70586224, -2.73765561], [2e-08, 3.0000000000000004e-08, 8.21296992]], "pbc": [true, true, true], "a": 8.212971237125585, "b": 8.212969822081163, "c": 8.21296992, "alpha": 109.47121314309977, "beta": 109.47120962488536, "gamma": 109.47122781854995, "volume": 426.46061714343836}, "properties": {}, "sites": [{"species": [{"element": "Sm", "occu": 1}], "abc": [0.36138697000000003, 0.5, -0.0], "properties": {"magmom": 0.0}, "label": "Sm", "xyz": [0.8624992315532989, 3.3529311236138697, -2.3581808708014016]}, {"species": [{"element": "Sm", "occu": 1}], "abc": [0.86138697, 0.5, -0.0], "properties": {"magmom": 0.0}, "label": "Sm", "xyz": [4.734131261553298, 3.3529311286138697, -3.7270086758014016]}, {"species": [{"element": "Sm", "occu": 1}], "abc": [0.63861303, 0.63861303, 0.63861303], "properties": {"magmom": 0.0}, "label": "Sm", "xyz": [2.4724753258809025, 4.28245102939351, 1.748304517512861]}, {"species": [{"element": "Sm", "occu": 1}], "abc": [0.5, -0.0, 0.36138697000000003], "properties": {"magmom": 0.0}, "label": "Sm", "xyz": [3.871632037227739, 1.5841609100000003e-08, 1.5992325090899429]}, {"species": [{"element": "Sm", "occu": 1}], "abc": [0.13861303, 0.13861303, 0.13861303], "properties": {"magmom": 0.0}, "label": "Sm", "xyz": [0.5366587908809022, 0.9295198893935084, 0.37947516751286114]}, {"species": [{"element": "Sm", "occu": 1}], "abc": [0.0, 0.86138697, 0.5], "properties": {"magmom": 0.0}, "label": "Sm", "xyz": [-3.3349724946619386, 5.776342371151013, 1.7483040891985988]}, {"species": [{"element": "Sm", "occu": 1}], "abc": [0.5, -0.0, 0.86138697], "properties": {"magmom": 0.0}, "label": "Sm", "xyz": [3.871632047227739, 3.0841609100000005e-08, 5.705717469089944]}, {"species": [{"element": "Sm", "occu": 1}], "abc": [0.0, 0.36138697000000003, 0.5], "properties": {"magmom": 0.0}, "label": "Sm", "xyz": [-1.3991569896619396, 2.423411251151013, 3.1171318941985984]}, {"species": [{"element": "Sn", "occu": 1}], "abc": [0.875, 0.125, 0.75], "properties": {"magmom": -0.0}, "label": "Sn", "xyz": [6.2914021912499996, 0.8382328112499999, 3.422071830000001]}, {"species": [{"element": "Sn", "occu": 1}], "abc": [0.75, 0.875, 0.125], "properties": {"magmom": -0.0}, "label": "Sn", "xyz": [2.4197709137500003, 5.86762947125, -3.4220691262500003]}, {"species": [{"element": "Sn", "occu": 1}], "abc": [0.25, 0.625, 0.375], "properties": {"magmom": -0.0}, "label": "Sn", "xyz": [-0.4839533587499993, 4.1911639137500005, 0.6844150612500002]}, {"species": [{"element": "Sn", "occu": 1}], "abc": [0.625, 0.375, 0.25], "properties": {"magmom": -0.0}, "label": "Sn", "xyz": [3.3876784137500002, 2.51469835375, -0.6844131299999998]}, {"species": [{"element": "Sn", "occu": 1}], "abc": [0.125, 0.75, 0.875], "properties": {"magmom": -0.0}, "label": "Sn", "xyz": [-1.9358152324999995, 5.0293967075, 4.7909000212500015]}, {"species": [{"element": "Sn", "occu": 1}], "abc": [0.375, 0.25, 0.625], "properties": {"magmom": -0.0}, "label": "Sn", "xyz": [1.9358162824999998, 1.6764655825, 3.42207144375]}]}, "task_ids": null, "uncorrected_energy_per_atom": null, "energy_per_atom": -5.158991186428575, "formation_energy_per_atom": -0.744268314285718, "energy_above_hull": 0.0, "is_stable": true, "equilibrium_reaction_energy_per_atom": null, "decomposes_to": null, "xas": null, "grain_boundaries": null, "band_gap": 0.0, "cbm": null, "vbm": null, "efermi": 4.8752197299999995, "is_gap_direct": null, "is_metal": null, "es_source_calc_id": null, "bandstructure": null, "dos": null, "dos_energy_up": null, "dos_energy_down": null, "is_magnetic": null, "ordering": null, "total_magnetization": 1e-06, "total_magnetization_normalized_vol": null, "total_magnetization_normalized_formula_units": null, "num_magnetic_sites": null, "num_unique_magnetic_sites": null, "types_of_magnetic_species": null, "bulk_modulus": null, "shear_modulus": null, "universal_anisotropy": null, "homogeneous_poisson": null, "e_total": null, "e_ionic": null, "e_electronic": null, "n": null, "e_ij_max": null, "weighted_surface_energy_EV_PER_ANG2": null, "weighted_surface_energy": null, "weighted_work_function": null, "surface_anisotropy": null, "shape_factor": null, "has_reconstructed": null, "possible_species": null, "has_props": null, "theoretical": null, "database_IDs": null, "fields_not_requested": ["builder_meta", "nsites", "elements", "nelements", "composition", "composition_reduced", "chemsys", "symmetry", "property_name", "deprecated", "deprecation_reasons", "last_updated", "origins", "warnings", "task_ids", "uncorrected_energy_per_atom", "equilibrium_reaction_energy_per_atom", "decomposes_to", "xas", "grain_boundaries", "cbm", "vbm", "is_gap_direct", "is_metal", "es_source_calc_id", "bandstructure", "dos", "dos_energy_up", "dos_energy_down", "is_magnetic", "ordering", "total_magnetization_normalized_vol", "total_magnetization_normalized_formula_units", "num_magnetic_sites", "num_unique_magnetic_sites", "types_of_magnetic_species", "bulk_modulus", "shear_modulus", "universal_anisotropy", "homogeneous_poisson", "e_total", "e_ionic", "e_electronic", "n", "e_ij_max", "weighted_surface_energy_EV_PER_ANG2", "weighted_surface_energy", "weighted_work_function", "surface_anisotropy", "shape_factor", "has_reconstructed", "possible_species", "has_props", "theoretical", "database_IDs"]}