{
  "builder_meta": null,
  "nsites": null,
  "elements": null,
  "nelements": null,
  "composition": null,
  "composition_reduced": null,
  "formula_pretty": "Sm4Sb3",
  "formula_anonymous": "A3B4",
  "chemsys": null,
  "volume": 412.66325370675634,
  "density": 7.780078851432123,
  "density_atomic": 29.47594669333974,
  "symmetry": null,
  "property_name": null,
  "material_id": "mp-367",
  "deprecated": null,
  "deprecation_reasons": null,
  "last_updated": null,
  "origins": null,
  "warnings": null,
  "structure": {
    "@module": "pymatgen.core.structure",
    "@class": "Structure",
    "charge": 0,
    "lattice": {
      "matrix": [
        [7.65883927, 1e-8, -2.70780924],
        [-3.82941912, 6.63275006, -2.70780924],
        [-1e-8, -2e-8, 8.12342567]
      ],
      "pbc": [true, true, true],
      "a": 8.123425991779792,
      "b": 8.123426311309839,
      "c": 8.12342567,
      "alpha": 109.47122423419285,
      "beta": 109.47122501462754,
      "gamma": 109.47121183462751,
      "volume": 412.66325370675634
    },
    "properties": {},
    "sites": [
      {
        "species": [{ "element": "Sm", "occu": 1 }],
        "abc": [0.35818956, 0.5, 1.0],
        "properties": { "magmom": -0.0 },
        "label": "Sm",
        "xyz": [0.8286066982320212, 3.316375013581896, 5.799612049760466]
      },
      {
        "species": [{ "element": "Sm", "occu": 1 }],
        "abc": [0.64181044, 0.64181044, 0.64181044],
        "properties": { "magmom": -0.0 },
        "label": "Sm",
        "xyz": [2.4577618249982613, 4.256968228000522, 1.7378989240490634]
      },
      {
        "species": [{ "element": "Sm", "occu": 1 }],
        "abc": [0.5, 0.0, 0.35818956],
        "properties": { "magmom": -0.0 },
        "label": "Sm",
        "xyz": [3.829419631418104, -2.1637912e-9, 1.5558216464300052]
      },
      {
        "species": [{ "element": "Sm", "occu": 1 }],
        "abc": [1.0, 0.35818956, 0.5],
        "properties": { "magmom": -0.0 },
        "label": "Sm",
        "xyz": [6.287181315351612, 2.375781825581374, 0.38399459476046527]
      },
      {
        "species": [{ "element": "Sm", "occu": 1 }],
        "abc": [0.5, 0.0, 0.85818956],
        "properties": { "magmom": -0.0 },
        "label": "Sm",
        "xyz": [3.829419626418104, -1.21637912e-8, 5.617534481430005]
      },
      {
        "species": [{ "element": "Sm", "occu": 1 }],
        "abc": [1.0, 0.85818956, 0.5],
        "properties": { "magmom": -0.0 },
        "label": "Sm",
        "xyz": [4.3724717553516115, 5.6921568555813735, -0.9699100252395345]
      },
      {
        "species": [{ "element": "Sm", "occu": 1 }],
        "abc": [0.85818956, 0.5, 1.0],
        "properties": { "magmom": -0.0 },
        "label": "Sm",
        "xyz": [4.658026333232022, 3.316375018581896, 4.445707429760465]
      },
      {
        "species": [{ "element": "Sm", "occu": 1 }],
        "abc": [0.14181044, 0.14181044, 0.14181044],
        "properties": { "magmom": -0.0 },
        "label": "Sm",
        "xyz": [0.5430517549982616, 0.9405932030005221, 0.3839953290490635]
      },
      {
        "species": [{ "element": "Sb", "occu": 1 }],
        "abc": [0.75, 0.875, 0.125],
        "properties": { "magmom": 0.0 },
        "label": "Sb",
        "xyz": [2.3933877212499994, 5.8036563075, -3.38476180625]
      },
      {
        "species": [{ "element": "Sb", "occu": 1 }],
        "abc": [0.625, 0.375, 0.25],
        "properties": { "magmom": 0.0 },
        "label": "Sb",
        "xyz": [3.35074237125, 2.4872812737500003, -0.6769528225000001]
      },
      {
        "species": [{ "element": "Sb", "occu": 1 }],
        "abc": [0.875, 0.125, 0.75],
        "properties": { "magmom": 0.0 },
        "label": "Sb",
        "xyz": [6.22280696375, 0.82909375125, 3.3847600124999997]
      },
      {
        "species": [{ "element": "Sb", "occu": 1 }],
        "abc": [0.125, 0.75, 0.875],
        "properties": { "magmom": 0.0 },
        "label": "Sb",
        "xyz": [-1.9147094399999998, 4.974562528750001, 4.738664376249999]
      },
      {
        "species": [{ "element": "Sb", "occu": 1 }],
        "abc": [0.375, 0.25, 0.625],
        "properties": { "magmom": 0.0 },
        "label": "Sb",
        "xyz": [1.9147099399999996, 1.6581875062500002, 3.38476026875]
      },
      {
        "species": [{ "element": "Sb", "occu": 1 }],
        "abc": [0.25, 0.625, 0.375],
        "properties": { "magmom": 0.0 },
        "label": "Sb",
        "xyz": [-0.4786771362500001, 4.145468782500001, 0.6769515412499998]
      }
    ]
  },
  "task_ids": null,
  "uncorrected_energy_per_atom": null,
  "energy_per_atom": -29.233282869285716,
  "formation_energy_per_atom": -1.226047945,
  "energy_above_hull": 0.022754683571427,
  "is_stable": false,
  "equilibrium_reaction_energy_per_atom": null,
  "decomposes_to": null,
  "xas": null,
  "grain_boundaries": null,
  "band_gap": 0.0,
  "cbm": null,
  "vbm": null,
  "efermi": 5.40129302,
  "is_gap_direct": null,
  "is_metal": null,
  "es_source_calc_id": null,
  "bandstructure": null,
  "dos": null,
  "dos_energy_up": null,
  "dos_energy_down": null,
  "is_magnetic": null,
  "ordering": null,
  "total_magnetization": 1e-5,
  "total_magnetization_normalized_vol": null,
  "total_magnetization_normalized_formula_units": null,
  "num_magnetic_sites": null,
  "num_unique_magnetic_sites": null,
  "types_of_magnetic_species": null,
  "bulk_modulus": null,
  "shear_modulus": null,
  "universal_anisotropy": null,
  "homogeneous_poisson": null,
  "e_total": null,
  "e_ionic": null,
  "e_electronic": null,
  "n": null,
  "e_ij_max": null,
  "weighted_surface_energy_EV_PER_ANG2": null,
  "weighted_surface_energy": null,
  "weighted_work_function": null,
  "surface_anisotropy": null,
  "shape_factor": null,
  "has_reconstructed": null,
  "possible_species": null,
  "has_props": null,
  "theoretical": null,
  "database_IDs": null,
  "fields_not_requested": [
    "builder_meta",
    "nsites",
    "elements",
    "nelements",
    "composition",
    "composition_reduced",
    "chemsys",
    "symmetry",
    "property_name",
    "deprecated",
    "deprecation_reasons",
    "last_updated",
    "origins",
    "warnings",
    "task_ids",
    "uncorrected_energy_per_atom",
    "equilibrium_reaction_energy_per_atom",
    "decomposes_to",
    "xas",
    "grain_boundaries",
    "cbm",
    "vbm",
    "is_gap_direct",
    "is_metal",
    "es_source_calc_id",
    "bandstructure",
    "dos",
    "dos_energy_up",
    "dos_energy_down",
    "is_magnetic",
    "ordering",
    "total_magnetization_normalized_vol",
    "total_magnetization_normalized_formula_units",
    "num_magnetic_sites",
    "num_unique_magnetic_sites",
    "types_of_magnetic_species",
    "bulk_modulus",
    "shear_modulus",
    "universal_anisotropy",
    "homogeneous_poisson",
    "e_total",
    "e_ionic",
    "e_electronic",
    "n",
    "e_ij_max",
    "weighted_surface_energy_EV_PER_ANG2",
    "weighted_surface_energy",
    "weighted_work_function",
    "surface_anisotropy",
    "shape_factor",
    "has_reconstructed",
    "possible_species",
    "has_props",
    "theoretical",
    "database_IDs"
  ]
}
