{"builder_meta": null, "nsites": null, "elements": null, "nelements": null, "composition": null, "composition_reduced": null, "formula_pretty": "Sm5Bi3", "formula_anonymous": "A3B5", "chemsys": null, "volume": 494.7601547958278, "density": 9.254801960662132, "density_atomic": 30.92250967473924, "symmetry": null, "property_name": null, "material_id": "mp-1188575", "deprecated": null, "deprecation_reasons": null, "last_updated": null, "origins": null, "warnings": null, "structure": {"@module": "pymatgen.core.structure", "@class": "Structure", "charge": 0.0, "lattice": {"matrix": [[0.0, 0.0, -6.51271781], [-4.68300935, -8.11121072, 0.0], [-4.68287623, 8.11113317, 0.0]], "pbc": [true, true, true], "a": 6.51271781, "b": 9.366019213968672, "c": 9.36588549401354, "alpha": 120.00047168215258, "beta": 90.0, "gamma": 90.0, "volume": 494.7601547958278}, "properties": {}, "sites": [{"species": [{"element": "Sm", "occu": 1}], "abc": [0.50000096, 0.33333176000000003, 0.66666423], "properties": {"magmom": 0.261}, "label": "Sm", "xyz": [-4.682901824790209, 2.7036782041770415, -3.256365157209098]}, {"species": [{"element": "Sm", "occu": 1}], "abc": [0.50000096, 0.66666753, 0.33333577000000003], "properties": {"magmom": 0.261}, "label": "Sm", "xyz": [-4.682980430273153, -2.7037499952174313, -3.256365157209098]}, {"species": [{"element": "Sm", "occu": 1}], "abc": [9.6e-07, 0.66666824, 0.33333577000000003], "properties": {"magmom": 0.261}, "label": "Sm", "xyz": [-4.682983755209792, -2.703755754177042, -6.2522090975999995e-06]}, {"species": [{"element": "Sm", "occu": 1}], "abc": [9.6e-07, 0.33333247, 0.66666423], "properties": {"magmom": 0.261}, "label": "Sm", "xyz": [-4.682905149726847, 2.7036724452174306, -6.2522090975999995e-06]}, {"species": [{"element": "Sm", "occu": 1}], "abc": [0.74999941, 0.2474181, 1.0], "properties": {"magmom": 0.081}, "label": "Sm", "xyz": [-5.841537505659234, 6.1042728249579685, -4.884534514996492]}, {"species": [{"element": "Sm", "occu": 1}], "abc": [0.75000153, 0.75265002, 0.75263462], "properties": {"magmom": 0.081}, "label": "Sm", "xyz": [-7.049161852810769, -0.00018327945986928995, -4.884548321958249]}, {"species": [{"element": "Sm", "occu": 1}], "abc": [0.75000153, 1.541e-05, 0.24736538], "properties": {"magmom": 0.081}, "label": "Sm", "xyz": [-1.158453623301001, 2.0062885450704595, -4.884548321958249]}, {"species": [{"element": "Sm", "occu": 1}], "abc": [0.24999941, 0.752581899999999, 0.0], "properties": {"magmom": 0.081}, "label": "Sm", "xyz": [-3.5243480743407605, -6.104350374957961, -1.6281756099964921]}, {"species": [{"element": "Sm", "occu": 1}], "abc": [0.25000153, 0.24734998, 0.24736538], "properties": {"magmom": 0.081}, "label": "Sm", "xyz": [-2.3167237271892303, 0.00010572945986897508, -1.6281894169582494]}, {"species": [{"element": "Sm", "occu": 1}], "abc": [0.25000153, 0.9999845900000001, 0.75263462], "properties": {"magmom": 0.081}, "label": "Sm", "xyz": [-8.207431956698999, -2.00636609507046, -1.6281894169582494]}, {"species": [{"element": "Bi", "occu": 1}], "abc": [0.74999675, 0.61305944, 0.0], "properties": {"magmom": -0.03}, "label": "Bi", "xyz": [-2.870963089625764, -4.972654301725197, -4.8845171911671175]}, {"species": [{"element": "Bi", "occu": 1}], "abc": [0.74999943, 0.38697018, 0.38696636], "properties": {"magmom": -0.03}, "label": "Bi", "xyz": [-3.6243005401648056, -6.09940661684405e-05, -4.884534645250849]}, {"species": [{"element": "Bi", "occu": 1}], "abc": [0.74999943, 3.82e-06, 0.61303364], "properties": {"magmom": -0.03}, "label": "Bi", "xyz": [-2.8707785500420946, 4.972366506904889, -4.884534645250849]}, {"species": [{"element": "Bi", "occu": 1}], "abc": [0.24999675000000002, 0.38694056, -0.0], "properties": {"magmom": -0.03}, "label": "Bi", "xyz": [-1.812046260374236, -3.1385564182748036, -1.6281582861671176]}, {"species": [{"element": "Bi", "occu": 1}], "abc": [0.24999943, 0.6130298200000001, 0.61303364], "properties": {"magmom": -0.03}, "label": "Bi", "xyz": [-5.741585039835194, -1.655593383187437e-05, -1.6281757402508483]}, {"species": [{"element": "Bi", "occu": 1}], "abc": [0.24999943, 0.99999618, 0.38696636], "properties": {"magmom": -0.03}, "label": "Bi", "xyz": [-6.4951070299579055, -4.972444056904888, -1.6281757402508483]}]}, "task_ids": null, "uncorrected_energy_per_atom": null, "energy_per_atom": -41.425364155, "formation_energy_per_atom": -0.9039338006249971, "energy_above_hull": 0.0, "is_stable": true, "equilibrium_reaction_energy_per_atom": null, "decomposes_to": null, "xas": null, "grain_boundaries": null, "band_gap": 0.0, "cbm": null, "vbm": null, "efermi": 4.91222129, "is_gap_direct": null, "is_metal": null, "es_source_calc_id": null, "bandstructure": null, "dos": null, "dos_energy_up": null, "dos_energy_down": null, "is_magnetic": null, "ordering": null, "total_magnetization": 2.6429003, "total_magnetization_normalized_vol": null, "total_magnetization_normalized_formula_units": null, "num_magnetic_sites": null, "num_unique_magnetic_sites": null, "types_of_magnetic_species": null, "bulk_modulus": null, "shear_modulus": null, "universal_anisotropy": null, "homogeneous_poisson": null, "e_total": null, "e_ionic": null, "e_electronic": null, "n": null, "e_ij_max": null, "weighted_surface_energy_EV_PER_ANG2": null, "weighted_surface_energy": null, "weighted_work_function": null, "surface_anisotropy": null, "shape_factor": null, "has_reconstructed": null, "possible_species": null, "has_props": null, "theoretical": null, "database_IDs": null, "fields_not_requested": ["builder_meta", "nsites", "elements", "nelements", "composition", "composition_reduced", "chemsys", "symmetry", "property_name", "deprecated", "deprecation_reasons", "last_updated", "origins", "warnings", "task_ids", "uncorrected_energy_per_atom", "equilibrium_reaction_energy_per_atom", "decomposes_to", "xas", "grain_boundaries", "cbm", "vbm", "is_gap_direct", "is_metal", "es_source_calc_id", "bandstructure", "dos", "dos_energy_up", "dos_energy_down", "is_magnetic", "ordering", "total_magnetization_normalized_vol", "total_magnetization_normalized_formula_units", "num_magnetic_sites", "num_unique_magnetic_sites", "types_of_magnetic_species", "bulk_modulus", "shear_modulus", "universal_anisotropy", "homogeneous_poisson", "e_total", "e_ionic", "e_electronic", "n", "e_ij_max", "weighted_surface_energy_EV_PER_ANG2", "weighted_surface_energy", "weighted_work_function", "surface_anisotropy", "shape_factor", "has_reconstructed", "possible_species", "has_props", "theoretical", "database_IDs"]}