{
  "builder_meta": null,
  "nsites": null,
  "elements": null,
  "nelements": null,
  "composition": null,
  "composition_reduced": null,
  "formula_pretty": "Sm5Co2",
  "formula_anonymous": "A2B5",
  "chemsys": null,
  "volume": 363.78811440143335,
  "density": 7.939319391344588,
  "density_atomic": 25.984865314388095,
  "symmetry": null,
  "property_name": null,
  "material_id": "mp-7317",
  "deprecated": null,
  "deprecation_reasons": null,
  "last_updated": null,
  "origins": null,
  "warnings": null,
  "structure": {
    "@module": "pymatgen.core.structure",
    "@class": "Structure",
    "charge": 0,
    "lattice": {
      "matrix": [
        [6.0119298, 2e-8, -2.36016755],
        [-0.27097786, 6.88663056, -0.69025009],
        [-0.0206724, 0.09075244, 8.78435842]
      ],
      "pbc": [true, true, true],
      "a": 6.4586136890358326,
      "b": 6.9264388149525375,
      "c": 8.784851518637787,
      "alpha": 95.12250691117788,
      "beta": 111.56763966940252,
      "gamma": 89.99999214901865,
      "volume": 363.78811440143335
    },
    "properties": {},
    "sites": [
      {
        "species": [{ "element": "Sm", "occu": 1 }],
        "abc": [0.35276571, 0.67893276, 0.57207734],
        "properties": { "magmom": 0.0 },
        "label": "Sm",
        "xyz": [1.9250007263750482, 4.727476514730171, 3.724112818331544]
      },
      {
        "species": [{ "element": "Sm", "occu": 1 }],
        "abc": [0.7806883800000001, 0.82106724, 0.42792266],
        "properties": { "magmom": 0.0 },
        "label": "Sm",
        "xyz": [4.462106504227834, 5.693221787938912, 1.3497289040356768]
      },
      {
        "species": [{ "element": "Sm", "occu": 1 }],
        "abc": [0.64723429, 0.32106724000000003, 0.42792266],
        "properties": { "magmom": 0.0 },
        "label": "Sm",
        "xyz": [3.7952788136249516, 2.249906505269831, 2.0098279616684565]
      },
      {
        "species": [{ "element": "Sm", "occu": 1 }],
        "abc": [0.21931262, 0.17893276, 0.57207734],
        "properties": { "magmom": 0.0 },
        "label": "Sm",
        "xyz": [1.2581790477019665, 1.2841612320611078, 4.3842095157967735]
      },
      {
        "species": [{ "element": "Sm", "occu": 1 }],
        "abc": [0.56721548, 0.75, 0.0],
        "properties": { "magmom": 0.0 },
        "label": "Sm",
        "xyz": [3.206826252233304, 5.16497293134431, -1.8564111372536738]
      },
      {
        "species": [{ "element": "Sm", "occu": 1 }],
        "abc": [0.43278452, 0.25, -0.0],
        "properties": { "magmom": 0.0 },
        "label": "Sm",
        "xyz": [2.534125687766696, 1.7216576486556905, -1.194006502746326]
      },
      {
        "species": [{ "element": "Sm", "occu": 1 }],
        "abc": [0.79673572, 0.09043315, 0.81056798],
        "properties": { "magmom": 0.0 },
        "label": "Sm",
        "xyz": [4.748657450822646, 0.6963407323326497, 5.177468377899022]
      },
      {
        "species": [{ "element": "Sm", "occu": 1 }],
        "abc": [0.98616674, 0.40956685, 0.18943202],
        "properties": { "magmom": 0.0 },
        "label": "Sm",
        "xyz": [5.813865648944663, 2.8377270233253995, -0.946183533806195]
      },
      {
        "species": [{ "element": "Sm", "occu": 1 }],
        "abc": [0.20326428, 0.90956685, 0.18943202],
        "properties": { "magmom": 0.0 },
        "label": "Sm",
        "xyz": [0.9716220891773549, 6.2810422876673515, 0.5564724021009779]
      },
      {
        "species": [{ "element": "Sm", "occu": 1 }],
        "abc": [0.01383326, 0.59043315, 0.81056798],
        "properties": { "magmom": 0.0 },
        "label": "Sm",
        "xyz": [-0.093586108944663, 4.1396559966746, 6.6801243138061945]
      },
      {
        "species": [{ "element": "Co", "occu": 1 }],
        "abc": [0.60556013, 0.42870759, 0.77702243],
        "properties": { "magmom": -0.0 },
        "label": "Co",
        "xyz": [3.5083518074529843, 3.0228674841663827, 5.100504704518396]
      },
      {
        "species": [{ "element": "Co", "occu": 1 }],
        "abc": [0.8285367, 0.07129241, 0.22297757],
        "properties": { "magmom": -0.0 },
        "label": "Co",
        "xyz": [4.957176330909549, 0.5112002645155544, -0.0459801312422623]
      },
      {
        "species": [{ "element": "Co", "occu": 1 }],
        "abc": [0.39443987, 0.57129241, 0.22297757],
        "properties": { "magmom": -0.0 },
        "label": "Co",
        "xyz": [2.2119277325470157, 3.954515535833618, 0.6334360754816042]
      },
      {
        "species": [{ "element": "Co", "occu": 1 }],
        "abc": [0.171463299999999, 0.92870759, 0.77702243],
        "properties": { "magmom": -0.0 },
        "label": "Co",
        "xyz": [0.7631032090904446, 6.4661827554844455, 5.7799209112422645]
      }
    ]
  },
  "task_ids": null,
  "uncorrected_energy_per_atom": null,
  "energy_per_atom": -5.505327954285714,
  "formation_energy_per_atom": -0.09679022357142901,
  "energy_above_hull": 0.0,
  "is_stable": true,
  "equilibrium_reaction_energy_per_atom": null,
  "decomposes_to": null,
  "xas": null,
  "grain_boundaries": null,
  "band_gap": 0.0,
  "cbm": null,
  "vbm": null,
  "efermi": 3.42810699,
  "is_gap_direct": null,
  "is_metal": null,
  "es_source_calc_id": null,
  "bandstructure": null,
  "dos": null,
  "dos_energy_up": null,
  "dos_energy_down": null,
  "is_magnetic": null,
  "ordering": null,
  "total_magnetization": 9e-7,
  "total_magnetization_normalized_vol": null,
  "total_magnetization_normalized_formula_units": null,
  "num_magnetic_sites": null,
  "num_unique_magnetic_sites": null,
  "types_of_magnetic_species": null,
  "bulk_modulus": null,
  "shear_modulus": null,
  "universal_anisotropy": null,
  "homogeneous_poisson": null,
  "e_total": null,
  "e_ionic": null,
  "e_electronic": null,
  "n": null,
  "e_ij_max": null,
  "weighted_surface_energy_EV_PER_ANG2": null,
  "weighted_surface_energy": null,
  "weighted_work_function": null,
  "surface_anisotropy": null,
  "shape_factor": null,
  "has_reconstructed": null,
  "possible_species": null,
  "has_props": null,
  "theoretical": null,
  "database_IDs": null,
  "fields_not_requested": [
    "builder_meta",
    "nsites",
    "elements",
    "nelements",
    "composition",
    "composition_reduced",
    "chemsys",
    "symmetry",
    "property_name",
    "deprecated",
    "deprecation_reasons",
    "last_updated",
    "origins",
    "warnings",
    "task_ids",
    "uncorrected_energy_per_atom",
    "equilibrium_reaction_energy_per_atom",
    "decomposes_to",
    "xas",
    "grain_boundaries",
    "cbm",
    "vbm",
    "is_gap_direct",
    "is_metal",
    "es_source_calc_id",
    "bandstructure",
    "dos",
    "dos_energy_up",
    "dos_energy_down",
    "is_magnetic",
    "ordering",
    "total_magnetization_normalized_vol",
    "total_magnetization_normalized_formula_units",
    "num_magnetic_sites",
    "num_unique_magnetic_sites",
    "types_of_magnetic_species",
    "bulk_modulus",
    "shear_modulus",
    "universal_anisotropy",
    "homogeneous_poisson",
    "e_total",
    "e_ionic",
    "e_electronic",
    "n",
    "e_ij_max",
    "weighted_surface_energy_EV_PER_ANG2",
    "weighted_surface_energy",
    "weighted_work_function",
    "surface_anisotropy",
    "shape_factor",
    "has_reconstructed",
    "possible_species",
    "has_props",
    "theoretical",
    "database_IDs"
  ]
}
