{"builder_meta": null, "nsites": null, "elements": null, "nelements": null, "composition": null, "composition_reduced": null, "formula_pretty": "Sm5Ga3", "formula_anonymous": "A3B5", "chemsys": null, "volume": 869.8397878710575, "density": 7.338025179083122, "density_atomic": 27.182493370970548, "symmetry": null, "property_name": null, "material_id": "mp-21658", "deprecated": null, "deprecation_reasons": null, "last_updated": null, "origins": null, "warnings": null, "structure": {"@module": "pymatgen.core.structure", "@class": "Structure", "charge": 0, "lattice": {"matrix": [[7.77006024, -1.05e-06, 0.0], [-1.05e-06, 7.77006024, 0.0], [0.0, -0.0, 14.40756201]], "pbc": [true, true, true], "a": 7.770060240000071, "b": 7.770060240000071, "c": 14.40756201, "alpha": 90.0, "beta": 90.0, "gamma": 90.00001548522577, "volume": 869.8397878710575}, "properties": {}, "sites": [{"species": [{"element": "Sm", "occu": 1}], "abc": [0.09259931, 0.56434598, 0.89644836], "properties": {"magmom": -0.0}, "label": "Sm", "xyz": [0.7195016243191554, 4.38500216357256, 12.915635335462804]}, {"species": [{"element": "Sm", "occu": 1}], "abc": [0.59259931, 0.43565402000000003, 0.6035516400000001], "properties": {"magmom": -0.0}, "label": "Sm", "xyz": [4.604531879445713, 3.3850573569688893, 8.695707679537197]}, {"species": [{"element": "Sm", "occu": 1}], "abc": [0.56434598, 0.40740069, 0.89644836], "properties": {"magmom": -0.0}, "label": "Sm", "xyz": [4.385001833031111, 3.1655273105542867, 12.915635335462804]}, {"species": [{"element": "Sm", "occu": 1}], "abc": [0.93565402, 0.09259931, 0.89644836], "properties": {"magmom": -0.0}, "label": "Sm", "xyz": [7.270088001968889, 0.7195012344457135, 12.915635335462804]}, {"species": [{"element": "Sm", "occu": 1}], "abc": [0.25, 0.25, 0.22058218000000002], "properties": {"magmom": 0.0}, "label": "Sm", "xyz": [1.9425147975000001, 1.9425147975000001, 3.178051436650982]}, {"species": [{"element": "Sm", "occu": 1}], "abc": [0.75, 0.75, 0.27941782], "properties": {"magmom": 0.0}, "label": "Sm", "xyz": [5.8275443925, 5.8275443925, 4.025729568349018]}, {"species": [{"element": "Sm", "occu": 1}], "abc": [0.75, 0.75, 0.77941782], "properties": {"magmom": 0.0}, "label": "Sm", "xyz": [5.8275443925, 5.8275443925, 11.229510573349017]}, {"species": [{"element": "Sm", "occu": 1}], "abc": [0.25, 0.25, 0.72058218], "properties": {"magmom": 0.0}, "label": "Sm", "xyz": [1.9425147975000001, 1.9425147975000001, 10.381832441650982]}, {"species": [{"element": "Sm", "occu": 1}], "abc": [0.40740069, 0.93565402, 0.89644836], "properties": {"magmom": -0.0}, "label": "Sm", "xyz": [3.1655269206808447, 7.27008767142744, 12.915635335462804]}, {"species": [{"element": "Sm", "occu": 1}], "abc": [0.06434598, 0.59259931, 0.6035516400000001], "properties": {"magmom": -0.0}, "label": "Sm", "xyz": [0.4999715185725597, 4.604532269319155, 8.695707679537197]}, {"species": [{"element": "Sm", "occu": 1}], "abc": [0.43565402000000003, 0.90740069, 0.6035516400000001], "properties": {"magmom": -0.0}, "label": "Sm", "xyz": [3.3850570264274404, 7.050557565680845, 8.695707679537197]}, {"species": [{"element": "Sm", "occu": 1}], "abc": [0.90740069, 0.06434598, 0.6035516400000001], "properties": {"magmom": -0.0}, "label": "Sm", "xyz": [7.050557955554287, 0.49997118803111074, 8.695707679537197]}, {"species": [{"element": "Sm", "occu": 1}], "abc": [0.06434598, 0.90740069, 0.10355164], "properties": {"magmom": -0.0}, "label": "Sm", "xyz": [0.49997118803111074, 7.050557955554287, 1.4919266745371964]}, {"species": [{"element": "Sm", "occu": 1}], "abc": [0.43565402000000003, 0.59259931, 0.10355164], "properties": {"magmom": -0.0}, "label": "Sm", "xyz": [3.3850573569688893, 4.604531879445713, 1.4919266745371964]}, {"species": [{"element": "Sm", "occu": 1}], "abc": [0.40740069, 0.56434598, 0.39644836], "properties": {"magmom": -0.0}, "label": "Sm", "xyz": [3.1655273105542867, 4.385001833031111, 5.7118543304628036]}, {"species": [{"element": "Sm", "occu": 1}], "abc": [0.90740069, 0.43565402000000003, 0.10355164], "properties": {"magmom": -0.0}, "label": "Sm", "xyz": [7.050557565680845, 3.3850570264274404, 1.4919266745371964]}, {"species": [{"element": "Sm", "occu": 1}], "abc": [0.59259931, 0.06434598, 0.10355164], "properties": {"magmom": -0.0}, "label": "Sm", "xyz": [4.604532269319155, 0.4999715185725597, 1.4919266745371964]}, {"species": [{"element": "Sm", "occu": 1}], "abc": [0.93565402, 0.40740069, 0.39644836], "properties": {"magmom": -0.0}, "label": "Sm", "xyz": [7.27008767142744, 3.1655269206808447, 5.7118543304628036]}, {"species": [{"element": "Sm", "occu": 1}], "abc": [0.56434598, 0.09259931, 0.39644836], "properties": {"magmom": -0.0}, "label": "Sm", "xyz": [4.38500216357256, 0.7195016243191554, 5.7118543304628036]}, {"species": [{"element": "Sm", "occu": 1}], "abc": [0.09259931, 0.93565402, 0.39644836], "properties": {"magmom": -0.0}, "label": "Sm", "xyz": [0.7195012344457135, 7.270088001968889, 5.7118543304628036]}, {"species": [{"element": "Ga", "occu": 1}], "abc": [0.63069045, 0.13069045, 0.75], "properties": {"magmom": 0.0}, "label": "Ga", "xyz": [4.900502652067735, 1.0154720070677357, 10.8056715075]}, {"species": [{"element": "Ga", "occu": 1}], "abc": [0.36930955, 0.63069045, 0.75], "properties": {"magmom": 0.0}, "label": "Ga", "xyz": [2.869556788482319, 4.900502401517681, 10.8056715075]}, {"species": [{"element": "Ga", "occu": 1}], "abc": [0.13069045, 0.86930955, 0.75], "properties": {"magmom": 0.0}, "label": "Ga", "xyz": [1.0154717565176805, 6.754587433482319, 10.8056715075]}, {"species": [{"element": "Ga", "occu": 1}], "abc": [0.86930955, 0.36930955, 0.75], "properties": {"magmom": 0.0}, "label": "Ga", "xyz": [6.754587182932265, 2.8695565379322643, 10.8056715075]}, {"species": [{"element": "Ga", "occu": 1}], "abc": [0.36930955, 0.86930955, 0.25], "properties": {"magmom": 0.0}, "label": "Ga", "xyz": [2.8695565379322643, 6.754587182932265, 3.6018905025]}, {"species": [{"element": "Ga", "occu": 1}], "abc": [0.63069045, 0.36930955, 0.25], "properties": {"magmom": 0.0}, "label": "Ga", "xyz": [4.900502401517681, 2.869556788482319, 3.6018905025]}, {"species": [{"element": "Ga", "occu": 1}], "abc": [0.86930955, 0.13069045, 0.25], "properties": {"magmom": 0.0}, "label": "Ga", "xyz": [6.754587433482319, 1.0154717565176805, 3.6018905025]}, {"species": [{"element": "Ga", "occu": 1}], "abc": [0.13069045, 0.63069045, 0.25], "properties": {"magmom": 0.0}, "label": "Ga", "xyz": [1.0154720070677357, 4.900502652067735, 3.6018905025]}, {"species": [{"element": "Ga", "occu": 1}], "abc": [0.75, 0.75, 0.99372205], "properties": {"magmom": -0.0}, "label": "Ga", "xyz": [5.8275443925, 5.8275443925, 14.31711205607932]}, {"species": [{"element": "Ga", "occu": 1}], "abc": [0.25, 0.25, 0.50627795], "properties": {"magmom": -0.0}, "label": "Ga", "xyz": [1.9425147975000001, 1.9425147975000001, 7.294230958920679]}, {"species": [{"element": "Ga", "occu": 1}], "abc": [0.25, 0.25, 0.00627795], "properties": {"magmom": -0.0}, "label": "Ga", "xyz": [1.9425147975000001, 1.9425147975000001, 0.09044995392067949]}, {"species": [{"element": "Ga", "occu": 1}], "abc": [0.75, 0.75, 0.49372205], "properties": {"magmom": -0.0}, "label": "Ga", "xyz": [5.8275443925, 5.8275443925, 7.113331051079321]}]}, "task_ids": null, "uncorrected_energy_per_atom": null, "energy_per_atom": -23.436410475, "formation_energy_per_atom": -0.562291793749999, "energy_above_hull": 0.00025652804687500004, "is_stable": false, "equilibrium_reaction_energy_per_atom": null, "decomposes_to": null, "xas": null, "grain_boundaries": null, "band_gap": 0.0, "cbm": null, "vbm": null, "efermi": 3.21070548, "is_gap_direct": null, "is_metal": null, "es_source_calc_id": null, "bandstructure": null, "dos": null, "dos_energy_up": null, "dos_energy_down": null, "is_magnetic": null, "ordering": null, "total_magnetization": 7.44e-05, "total_magnetization_normalized_vol": null, "total_magnetization_normalized_formula_units": null, "num_magnetic_sites": null, "num_unique_magnetic_sites": null, "types_of_magnetic_species": null, "bulk_modulus": null, "shear_modulus": null, "universal_anisotropy": null, "homogeneous_poisson": null, "e_total": null, "e_ionic": null, "e_electronic": null, "n": null, "e_ij_max": null, "weighted_surface_energy_EV_PER_ANG2": null, "weighted_surface_energy": null, "weighted_work_function": null, "surface_anisotropy": null, "shape_factor": null, "has_reconstructed": null, "possible_species": null, "has_props": null, "theoretical": null, "database_IDs": null, "fields_not_requested": ["builder_meta", "nsites", "elements", "nelements", "composition", "composition_reduced", "chemsys", "symmetry", "property_name", "deprecated", "deprecation_reasons", "last_updated", "origins", "warnings", "task_ids", "uncorrected_energy_per_atom", "equilibrium_reaction_energy_per_atom", "decomposes_to", "xas", "grain_boundaries", "cbm", "vbm", "is_gap_direct", "is_metal", "es_source_calc_id", "bandstructure", "dos", "dos_energy_up", "dos_energy_down", "is_magnetic", "ordering", "total_magnetization_normalized_vol", "total_magnetization_normalized_formula_units", "num_magnetic_sites", "num_unique_magnetic_sites", "types_of_magnetic_species", "bulk_modulus", "shear_modulus", "universal_anisotropy", "homogeneous_poisson", "e_total", "e_ionic", "e_electronic", "n", "e_ij_max", "weighted_surface_energy_EV_PER_ANG2", "weighted_surface_energy", "weighted_work_function", "surface_anisotropy", "shape_factor", "has_reconstructed", "possible_species", "has_props", "theoretical", "database_IDs"]}