{"builder_meta": null, "nsites": null, "elements": null, "nelements": null, "composition": null, "composition_reduced": null, "formula_pretty": "Sm5Ge4", "formula_anonymous": "A4B5", "chemsys": null, "volume": 929.1479235147077, "density": 7.451470137989401, "density_atomic": 25.809664542075215, "symmetry": null, "property_name": null, "material_id": "mp-1506", "deprecated": null, "deprecation_reasons": null, "last_updated": null, "origins": null, "warnings": null, "structure": {"@module": "pymatgen.core.structure", "@class": "Structure", "charge": 0, "lattice": {"matrix": [[7.83523179, 0.0, 0.0], [0.0, 7.90782459, 0.0], [0.0, 0.0, 14.99601909]], "pbc": [true, true, true], "a": 7.83523179, "b": 7.90782459, "c": 14.99601909, "alpha": 90.0, "beta": 90.0, "gamma": 90.0, "volume": 929.1479235147077}, "properties": {}, "sites": [{"species": [{"element": "Sm", "occu": 1}], "abc": [0.39017825, 0.16132756, 0.88634816], "properties": {"magmom": 0.056}, "label": "Sm", "xyz": [3.0571370281665673, 1.2757500460127005, 13.291693927746376]}, {"species": [{"element": "Sm", "occu": 1}], "abc": [0.89017725, 0.33867244, 0.6136518400000001], "properties": {"magmom": 0.056}, "label": "Sm", "xyz": [6.974745087934778, 2.6781622489872996, 9.202334707253627]}, {"species": [{"element": "Sm", "occu": 1}], "abc": [0.10982275, 0.66132756, 0.11365184], "properties": {"magmom": 0.056}, "label": "Sm", "xyz": [0.8604867020652225, 5.2296623410127, 1.7043251622536257]}, {"species": [{"element": "Sm", "occu": 1}], "abc": [0.60982175, 0.83867244, 0.38634816], "properties": {"magmom": 0.056}, "label": "Sm", "xyz": [4.778094761833433, 6.632074543987299, 5.793684382746375]}, {"species": [{"element": "Sm", "occu": 1}], "abc": [0.39017825, 0.16132756, 0.6136518400000001], "properties": {"magmom": 0.056}, "label": "Sm", "xyz": [3.0571370281665673, 1.2757500460127005, 9.202334707253627]}, {"species": [{"element": "Sm", "occu": 1}], "abc": [0.89017725, 0.33867244, 0.88634816], "properties": {"magmom": 0.056}, "label": "Sm", "xyz": [6.974745087934778, 2.6781622489872996, 13.291693927746376]}, {"species": [{"element": "Sm", "occu": 1}], "abc": [0.10982275, 0.66132756, 0.38634816], "properties": {"magmom": 0.056}, "label": "Sm", "xyz": [0.8604867020652225, 5.2296623410127, 5.793684382746375]}, {"species": [{"element": "Sm", "occu": 1}], "abc": [0.60982175, 0.83867244, 0.11365184], "properties": {"magmom": 0.056}, "label": "Sm", "xyz": [4.778094761833433, 6.632074543987299, 1.7043251622536257]}, {"species": [{"element": "Sm", "occu": 1}], "abc": [0.0394138, 0.82552728, 0.6047279600000001], "properties": {"magmom": 0.051000000000000004}, "label": "Sm", "xyz": [0.308816258724702, 6.5281249244998145, 9.068512032416757]}, {"species": [{"element": "Sm", "occu": 1}], "abc": [0.539413799999999, 0.67447272, 0.89527204], "properties": {"magmom": 0.051000000000000004}, "label": "Sm", "xyz": [4.226432153724694, 5.333611960500185, 13.425516602583246]}, {"species": [{"element": "Sm", "occu": 1}], "abc": [0.4605862, 0.32552728000000003, 0.39527204], "properties": {"magmom": 0.051000000000000004}, "label": "Sm", "xyz": [3.608799636275298, 2.5742126294998156, 5.927507057583243]}, {"species": [{"element": "Sm", "occu": 1}], "abc": [0.9605862, 0.17447272, 0.10472796000000001], "properties": {"magmom": 0.051000000000000004}, "label": "Sm", "xyz": [7.526415531275298, 1.3796996655001847, 1.5705024874167566]}, {"species": [{"element": "Sm", "occu": 1}], "abc": [0.9605862, 0.17447272, 0.39527204], "properties": {"magmom": 0.051000000000000004}, "label": "Sm", "xyz": [7.526415531275298, 1.3796996655001847, 5.927507057583243]}, {"species": [{"element": "Sm", "occu": 1}], "abc": [0.4605862, 0.32552728000000003, 0.10472796000000001], "properties": {"magmom": 0.051000000000000004}, "label": "Sm", "xyz": [3.608799636275298, 2.5742126294998156, 1.5705024874167566]}, {"species": [{"element": "Sm", "occu": 1}], "abc": [0.539413799999999, 0.67447272, 0.6047279600000001], "properties": {"magmom": 0.051000000000000004}, "label": "Sm", "xyz": [4.226432153724694, 5.333611960500185, 9.068512032416757]}, {"species": [{"element": "Sm", "occu": 1}], "abc": [0.0394138, 0.82552728, 0.89527204], "properties": {"magmom": 0.051000000000000004}, "label": "Sm", "xyz": [0.308816258724702, 6.5281249244998145, 13.425516602583246]}, {"species": [{"element": "Sm", "occu": 1}], "abc": [0.27776626, 0.99760766, 0.25], "properties": {"magmom": 0.137}, "label": "Sm", "xyz": [2.1763630305414052, 7.888906384920359, 3.7490047725]}, {"species": [{"element": "Sm", "occu": 1}], "abc": [0.77776626, 0.50239234, 0.25], "properties": {"magmom": 0.137}, "label": "Sm", "xyz": [6.093978925541406, 3.9728305000796404, 3.7490047725]}, {"species": [{"element": "Sm", "occu": 1}], "abc": [0.22223374, 0.49760766, 0.75], "properties": {"magmom": 0.137}, "label": "Sm", "xyz": [1.7412528644585947, 3.9349940899203593, 11.2470143175]}, {"species": [{"element": "Sm", "occu": 1}], "abc": [0.7222337400000001, 0.00239234, 0.75], "properties": {"magmom": 0.137}, "label": "Sm", "xyz": [5.658868759458595, 0.0189182050796406, 11.2470143175]}, {"species": [{"element": "Ge", "occu": 1}], "abc": [0.76965189, 0.5248885600000001, 0.45366007], "properties": {"magmom": -0.008}, "label": "Ge", "xyz": [6.030400955761583, 4.150726661777691, 6.803095070090737]}, {"species": [{"element": "Ge", "occu": 1}], "abc": [0.26965189, 0.97511144, 0.04633993], "properties": {"magmom": -0.008}, "label": "Ge", "xyz": [2.112785060761583, 7.71101022322231, 0.6949144749092637]}, {"species": [{"element": "Ge", "occu": 1}], "abc": [0.73034811, 0.02488856, 0.54633993], "properties": {"magmom": -0.008}, "label": "Ge", "xyz": [5.722446729238417, 0.1968143667776904, 8.192924019909265]}, {"species": [{"element": "Ge", "occu": 1}], "abc": [0.23034811, 0.47511144, 0.95366007], "properties": {"magmom": -0.008}, "label": "Ge", "xyz": [1.804830834238417, 3.7570979282223096, 14.301104615090736]}, {"species": [{"element": "Ge", "occu": 1}], "abc": [0.23034811, 0.47511144, 0.54633993], "properties": {"magmom": -0.008}, "label": "Ge", "xyz": [1.804830834238417, 3.7570979282223096, 8.192924019909265]}, {"species": [{"element": "Ge", "occu": 1}], "abc": [0.73034811, 0.02488856, 0.95366007], "properties": {"magmom": -0.008}, "label": "Ge", "xyz": [5.722446729238417, 0.1968143667776904, 14.301104615090736]}, {"species": [{"element": "Ge", "occu": 1}], "abc": [0.26965189, 0.97511144, 0.45366007], "properties": {"magmom": -0.008}, "label": "Ge", "xyz": [2.112785060761583, 7.71101022322231, 6.803095070090737]}, {"species": [{"element": "Ge", "occu": 1}], "abc": [0.76965189, 0.5248885600000001, 0.04633993], "properties": {"magmom": -0.008}, "label": "Ge", "xyz": [6.030400955761583, 4.150726661777691, 0.6949144749092637]}, {"species": [{"element": "Ge", "occu": 1}], "abc": [0.90175571, 0.886649399999999, 0.25], "properties": {"magmom": 0.018000000000000002}, "label": "Ge", "xyz": [7.065465005806021, 7.011467928028738, 3.7490047725]}, {"species": [{"element": "Ge", "occu": 1}], "abc": [0.40175571, 0.6133506, 0.25], "properties": {"magmom": 0.018000000000000002}, "label": "Ge", "xyz": [3.1478491108060207, 4.850268956971253, 3.7490047725]}, {"species": [{"element": "Ge", "occu": 1}], "abc": [0.59824429, 0.3866494, 0.75], "properties": {"magmom": 0.018000000000000002}, "label": "Ge", "xyz": [4.687382679193979, 3.0575556330287457, 11.2470143175]}, {"species": [{"element": "Ge", "occu": 1}], "abc": [0.09824429, 0.1133506, 0.75], "properties": {"magmom": 0.018000000000000002}, "label": "Ge", "xyz": [0.769766784193979, 0.896356661971254, 11.2470143175]}, {"species": [{"element": "Ge", "occu": 1}], "abc": [0.16162649, 0.36969152, 0.25], "properties": {"magmom": 0.009000000000000001}, "label": "Ge", "xyz": [1.2663810125541173, 2.9234556925704767, 3.7490047725]}, {"species": [{"element": "Ge", "occu": 1}], "abc": [0.6616264900000001, 0.13030848, 0.25], "properties": {"magmom": 0.009000000000000001}, "label": "Ge", "xyz": [5.183996907554118, 1.0304566024295232, 3.7490047725]}, {"species": [{"element": "Ge", "occu": 1}], "abc": [0.33837351, 0.86969152, 0.75], "properties": {"magmom": 0.009000000000000001}, "label": "Ge", "xyz": [2.6512348824458827, 6.8773679875704765, 11.2470143175]}, {"species": [{"element": "Ge", "occu": 1}], "abc": [0.83837351, 0.6303084800000001, 0.75], "properties": {"magmom": 0.009000000000000001}, "label": "Ge", "xyz": [6.568850777445883, 4.9843688974295235, 11.2470143175]}]}, "task_ids": null, "uncorrected_energy_per_atom": null, "energy_per_atom": -5.5010558447222255, "formation_energy_per_atom": -0.8249400563888921, "energy_above_hull": 0.0, "is_stable": true, "equilibrium_reaction_energy_per_atom": null, "decomposes_to": null, "xas": null, "grain_boundaries": null, "band_gap": 0.0, "cbm": null, "vbm": null, "efermi": 3.41094577, "is_gap_direct": null, "is_metal": null, "es_source_calc_id": null, "bandstructure": null, "dos": null, "dos_energy_up": null, "dos_energy_down": null, "is_magnetic": null, "ordering": null, "total_magnetization": 2.9640903, "total_magnetization_normalized_vol": null, "total_magnetization_normalized_formula_units": null, "num_magnetic_sites": null, "num_unique_magnetic_sites": null, "types_of_magnetic_species": null, "bulk_modulus": null, "shear_modulus": null, "universal_anisotropy": null, "homogeneous_poisson": null, "e_total": null, "e_ionic": null, "e_electronic": null, "n": null, "e_ij_max": null, "weighted_surface_energy_EV_PER_ANG2": null, "weighted_surface_energy": null, "weighted_work_function": null, "surface_anisotropy": null, "shape_factor": null, "has_reconstructed": null, "possible_species": null, "has_props": null, "theoretical": null, "database_IDs": null, "fields_not_requested": ["builder_meta", "nsites", "elements", "nelements", "composition", "composition_reduced", "chemsys", "symmetry", "property_name", "deprecated", "deprecation_reasons", "last_updated", "origins", "warnings", "task_ids", "uncorrected_energy_per_atom", "equilibrium_reaction_energy_per_atom", "decomposes_to", "xas", "grain_boundaries", "cbm", "vbm", "is_gap_direct", "is_metal", "es_source_calc_id", "bandstructure", "dos", "dos_energy_up", "dos_energy_down", "is_magnetic", "ordering", "total_magnetization_normalized_vol", "total_magnetization_normalized_formula_units", "num_magnetic_sites", "num_unique_magnetic_sites", "types_of_magnetic_species", "bulk_modulus", "shear_modulus", "universal_anisotropy", "homogeneous_poisson", "e_total", "e_ionic", "e_electronic", "n", "e_ij_max", "weighted_surface_energy_EV_PER_ANG2", "weighted_surface_energy", "weighted_work_function", "surface_anisotropy", "shape_factor", "has_reconstructed", "possible_species", "has_props", "theoretical", "database_IDs"]}