{
  "builder_meta": null,
  "nsites": null,
  "elements": null,
  "nelements": null,
  "composition": null,
  "composition_reduced": null,
  "formula_pretty": "Sm5Ir2",
  "formula_anonymous": "A2B5",
  "chemsys": null,
  "volume": 388.1168103313992,
  "density": 9.722644809886724,
  "density_atomic": 27.72262930938566,
  "symmetry": null,
  "property_name": null,
  "material_id": "mp-1104500",
  "deprecated": null,
  "deprecation_reasons": null,
  "last_updated": null,
  "origins": null,
  "warnings": null,
  "structure": {
    "@module": "pymatgen.core.structure",
    "@class": "Structure",
    "charge": 0,
    "lattice": {
      "matrix": [
        [-1e-8, 6.64323795, -0.0],
        [0.00308398, -0.0, 7.22195321],
        [8.0892195, -3.32161949, -0.9314804]
      ],
      "pbc": [true, true, true],
      "a": 6.64323795,
      "b": 7.221953868473679,
      "c": 8.794105064821109,
      "alpha": 96.05759867547529,
      "beta": 112.19189321105955,
      "gamma": 90.00000000003682,
      "volume": 388.1168103313992
    },
    "properties": {},
    "sites": [
      {
        "species": [{ "element": "Sm", "occu": 1 }],
        "abc": [0.9770403400000001, 0.91752358, 0.18476443],
        "properties": { "magmom": 0.0 },
        "label": "Sm",
        "xyz": [1.4974296446622302, 5.876994333622162, 6.454207918669519]
      },
      {
        "species": [{ "element": "Sm", "occu": 1 }],
        "abc": [0.792275899999999, 0.58247642, 0.81523557],
        "properties": { "magmom": 0.0 },
        "label": "Sm",
        "xyz": [6.596415807644608, 2.5553749674971393, 3.44724149633048]
      },
      {
        "species": [{ "element": "Sm", "occu": 1 }],
        "abc": [0.02295966, 0.08247642000000001, 0.81523557],
        "properties": { "magmom": 0.0 },
        "label": "Sm",
        "xyz": [6.59487382533777, -2.5553758736221623, -0.1637351086695198]
      },
      {
        "species": [{ "element": "Sm", "occu": 1 }],
        "abc": [0.2077241, 0.41752358, 0.18476443],
        "properties": { "magmom": 0.0 },
        "label": "Sm",
        "xyz": [1.4958876623553925, 0.7662434925028543, 2.8432313136695195]
      },
      {
        "species": [{ "element": "Sm", "occu": 1 }],
        "abc": [0.65178306, 0.81805718, 0.43668059000000004],
        "properties": { "magmom": 0.0 },
        "label": "Sm",
        "xyz": [3.534928009363651, 2.8794632007104273, 5.501211266419112]
      },
      {
        "species": [{ "element": "Sm", "occu": 1 }],
        "abc": [0.21510246, 0.6819428200000001, 0.56331941],
        "properties": { "magmom": 0.0 },
        "label": "Sm",
        "xyz": [4.558917451967494, -0.44215590594094367, 4.400238148580889]
      },
      {
        "species": [{ "element": "Sm", "occu": 1 }],
        "abc": [0.34821694000000003, 0.18194282, 0.56331941],
        "properties": { "magmom": 0.0 },
        "label": "Sm",
        "xyz": [4.557375460636349, 0.44215525928957256, 0.7892615435808883]
      },
      {
        "species": [{ "element": "Sm", "occu": 1 }],
        "abc": [0.78489754, 0.31805718, 0.43668059000000004],
        "properties": { "magmom": 0.0 },
        "label": "Sm",
        "xyz": [3.5333860180325063, 3.763774365940944, 1.890234661419112]
      },
      {
        "species": [{ "element": "Sm", "occu": 1 }],
        "abc": [0.43294316, 0.75, -0.0],
        "properties": { "magmom": 0.0 },
        "label": "Sm",
        "xyz": [0.0023129806705684, 2.876144430704922, 5.4164649075]
      },
      {
        "species": [{ "element": "Sm", "occu": 1 }],
        "abc": [0.56705684, 0.25, 0.0],
        "properties": { "magmom": 0.0 },
        "label": "Sm",
        "xyz": [0.0007709893294316, 3.7670935192950776, 1.8054883025]
      },
      {
        "species": [{ "element": "Ir", "occu": 1 }],
        "abc": [0.8254433800000001, 0.57250873, 0.22193429],
        "properties": { "magmom": 0.0 },
        "label": "Ir",
        "xyz": [1.7970407836053668, 4.746435524428959, 3.9279038191536078]
      },
      {
        "species": [{ "element": "Ir", "occu": 1 }],
        "abc": [0.60350808, 0.92749127, 0.77806571],
        "properties": { "magmom": 0.0 },
        "label": "Ir",
        "xyz": [6.29680467210512, 1.424809553350948, 5.973545595846392]
      },
      {
        "species": [{ "element": "Ir", "occu": 1 }],
        "abc": [0.17455662, 0.42749127000000003, 0.77806571],
        "properties": { "magmom": 0.0 },
        "label": "Ir",
        "xyz": [6.295262686394634, -1.4248170644289588, 2.362568990846393]
      },
      {
        "species": [{ "element": "Ir", "occu": 1 }],
        "abc": [0.39649192, 0.07250873000000001, 0.22193429],
        "properties": { "magmom": 0.0 },
        "label": "Ir",
        "xyz": [1.7954987978948813, 1.8968089066490519, 0.31692721415360736]
      }
    ]
  },
  "task_ids": null,
  "uncorrected_energy_per_atom": null,
  "energy_per_atom": -36.84566160642857,
  "formation_energy_per_atom": -0.648043249285714,
  "energy_above_hull": 0.0,
  "is_stable": true,
  "equilibrium_reaction_energy_per_atom": null,
  "decomposes_to": null,
  "xas": null,
  "grain_boundaries": null,
  "band_gap": 0.0,
  "cbm": null,
  "vbm": null,
  "efermi": 4.05208753,
  "is_gap_direct": null,
  "is_metal": null,
  "es_source_calc_id": null,
  "bandstructure": null,
  "dos": null,
  "dos_energy_up": null,
  "dos_energy_down": null,
  "is_magnetic": null,
  "ordering": null,
  "total_magnetization": 1.67e-5,
  "total_magnetization_normalized_vol": null,
  "total_magnetization_normalized_formula_units": null,
  "num_magnetic_sites": null,
  "num_unique_magnetic_sites": null,
  "types_of_magnetic_species": null,
  "bulk_modulus": null,
  "shear_modulus": null,
  "universal_anisotropy": null,
  "homogeneous_poisson": null,
  "e_total": null,
  "e_ionic": null,
  "e_electronic": null,
  "n": null,
  "e_ij_max": null,
  "weighted_surface_energy_EV_PER_ANG2": null,
  "weighted_surface_energy": null,
  "weighted_work_function": null,
  "surface_anisotropy": null,
  "shape_factor": null,
  "has_reconstructed": null,
  "possible_species": null,
  "has_props": null,
  "theoretical": null,
  "database_IDs": null,
  "fields_not_requested": [
    "builder_meta",
    "nsites",
    "elements",
    "nelements",
    "composition",
    "composition_reduced",
    "chemsys",
    "symmetry",
    "property_name",
    "deprecated",
    "deprecation_reasons",
    "last_updated",
    "origins",
    "warnings",
    "task_ids",
    "uncorrected_energy_per_atom",
    "equilibrium_reaction_energy_per_atom",
    "decomposes_to",
    "xas",
    "grain_boundaries",
    "cbm",
    "vbm",
    "is_gap_direct",
    "is_metal",
    "es_source_calc_id",
    "bandstructure",
    "dos",
    "dos_energy_up",
    "dos_energy_down",
    "is_magnetic",
    "ordering",
    "total_magnetization_normalized_vol",
    "total_magnetization_normalized_formula_units",
    "num_magnetic_sites",
    "num_unique_magnetic_sites",
    "types_of_magnetic_species",
    "bulk_modulus",
    "shear_modulus",
    "universal_anisotropy",
    "homogeneous_poisson",
    "e_total",
    "e_ionic",
    "e_electronic",
    "n",
    "e_ij_max",
    "weighted_surface_energy_EV_PER_ANG2",
    "weighted_surface_energy",
    "weighted_work_function",
    "surface_anisotropy",
    "shape_factor",
    "has_reconstructed",
    "possible_species",
    "has_props",
    "theoretical",
    "database_IDs"
  ]
}
