{
  "builder_meta": null,
  "nsites": null,
  "elements": null,
  "nelements": null,
  "composition": null,
  "composition_reduced": null,
  "formula_pretty": "Sm5Ir3",
  "formula_anonymous": "A3B5",
  "chemsys": null,
  "volume": 795.2481167616265,
  "density": 11.095630342624563,
  "density_atomic": 24.85150364880083,
  "symmetry": null,
  "property_name": null,
  "material_id": "mp-1199558",
  "deprecated": null,
  "deprecation_reasons": null,
  "last_updated": null,
  "origins": null,
  "warnings": null,
  "structure": {
    "@module": "pymatgen.core.structure",
    "@class": "Structure",
    "charge": 0,
    "lattice": {
      "matrix": [
        [-1.58e-6, -1.965e-5, 6.48148756],
        [11.07656112, -8.199999999999999e-7, -2.98e-6],
        [-8.9e-7, 11.07702177, -3.5620000000000015e-5]
      ],
      "pbc": [true, true, true],
      "a": 6.481487560029979,
      "b": 11.07656112000043,
      "c": 11.077021770057307,
      "alpha": 90.000008845084,
      "beta": 90.00035794834754,
      "gamma": 90.000029381708,
      "volume": 795.2481167616265
    },
    "properties": {},
    "sites": [
      {
        "species": [{ "element": "Sm", "occu": 1 }],
        "abc": [0.38645107, 0.83993384, 0.5424565100000001],
        "properties": { "magmom": -0.0 },
        "label": "Sm",
        "xyz": [9.303577422137314, 6.008794288038949, 2.5047559774499595]
      },
      {
        "species": [{ "element": "Sm", "occu": 1 }],
        "abc": [0.88644839, 0.6600671, 0.54246056],
        "properties": { "magmom": 0.0 },
        "label": "Sm",
        "xyz": [7.311271693072797, 6.008829472520506, 5.745482922921924]
      },
      {
        "species": [{ "element": "Sm", "occu": 1 }],
        "abc": [0.8864545500000001, 0.83993166, 0.95753547],
        "properties": { "magmom": 0.0 },
        "label": "Sm",
        "xyz": [9.303552115808301, 10.606623139161314, 5.74550752792061]
      },
      {
        "species": [{ "element": "Sm", "occu": 1 }],
        "abc": [0.38645223, 0.66007, 0.95753155],
        "properties": { "magmom": -0.0 },
        "label": "Sm",
        "xyz": [7.3113042356807965, 10.606589689768125, 2.5047492469968478]
      },
      {
        "species": [{ "element": "Sm", "occu": 1 }],
        "abc": [0.8864788100000001, 0.54243839, 0.8398968],
        "properties": { "magmom": -0.0 },
        "label": "Sm",
        "xyz": [6.008349832524725, 9.303537274045238, 5.745669845628185]
      },
      {
        "species": [{ "element": "Sm", "occu": 1 }],
        "abc": [0.3864768, 0.95756578, 0.8399017400000001],
        "properties": { "magmom": 0.0 },
        "label": "Sm",
        "xyz": [10.60653453044458, 9.30360147916782, 2.504911800582605]
      },
      {
        "species": [{ "element": "Sm", "occu": 1 }],
        "abc": [0.38647938, 0.54243551, 0.66010086],
        "properties": { "magmom": 0.0 },
        "label": "Sm",
        "xyz": [6.008318882046185, 7.311943557498788, 2.5049361644160597]
      },
      {
        "species": [{ "element": "Sm", "occu": 1 }],
        "abc": [0.88647701, 0.95756811, 0.66009574],
        "properties": { "magmom": -0.0 },
        "label": "Sm",
        "xyz": [10.606559708858997, 7.311876677785164, 5.745663346377769]
      },
      {
        "species": [{ "element": "Sm", "occu": 1 }],
        "abc": [0.6135462700000001, 0.16013401, 0.45762342],
        "properties": { "magmom": 0.0 },
        "label": "Sm",
        "xyz": [1.7737327724677405, 5.06909239830776, 3.976675738743831]
      },
      {
        "species": [{ "element": "Sm", "occu": 1 }],
        "abc": [0.11354769, 0.33986249, 0.45761935000000004],
        "properties": { "magmom": 0.0 },
        "label": "Sm",
        "xyz": [3.7645070561938168, 5.069056992423899, 0.7359406270102692]
      },
      {
        "species": [{ "element": "Sm", "occu": 1 }],
        "abc": [0.11354174, 0.16013983, 0.04238563],
        "properties": { "magmom": 0.0 },
        "label": "Sm",
        "xyz": [1.7737983976222496, 0.4695041838353135, 0.7359173883579204]
      },
      {
        "species": [{ "element": "Sm", "occu": 1 }],
        "abc": [0.6135431100000001, 0.33985904, 0.04238837],
        "properties": { "magmom": 0.0 },
        "label": "Sm",
        "xyz": [3.7644684216207613, 0.4695245624782906, 3.9766695123350333]
      },
      {
        "species": [{ "element": "Sm", "occu": 1 }],
        "abc": [0.11356719, 0.45758712, 0.16010907],
        "properties": { "magmom": -0.0 },
        "label": "Sm",
        "xyz": [5.068491380471542, 1.773529047147732, 0.7360772625144654]
      },
      {
        "species": [{ "element": "Sm", "occu": 1 }],
        "abc": [0.61356749, 0.04240813, 0.16010437],
        "properties": { "magmom": -0.0 },
        "label": "Sm",
        "xyz": [0.4697351320003821, 1.7734675005862899, 3.9768242243615375]
      },
      {
        "species": [{ "element": "Sm", "occu": 1 }],
        "abc": [0.61356885, 0.45759303, 0.33989098],
        "properties": { "magmom": 0.0 },
        "label": "Sm",
        "xyz": [5.068555892939239, 3.7649673530324477, 3.9768253979345696]
      },
      {
        "species": [{ "element": "Sm", "occu": 1 }],
        "abc": [0.1135698, 0.04240442, 0.33989489],
        "properties": { "magmom": 0.0 },
        "label": "Sm",
        "xyz": [0.46969466794141423, 3.7650208296235608, 0.7360890124705346]
      },
      {
        "species": [{ "element": "Sm", "occu": 1 }],
        "abc": [0.50002758, 0.7500009200000001, 0.24999747],
        "properties": { "magmom": -0.0 },
        "label": "Sm",
        "xyz": [8.307430017894905, 2.7692169770922206, 3.2409113995142818]
      },
      {
        "species": [{ "element": "Sm", "occu": 1 }],
        "abc": [2.7620000000000003e-5, 0.7500005, 0.24999968],
        "properties": { "magmom": 0.0 },
        "label": "Sm",
        "xyz": [8.307426155737204, 2.7692512823098907, 0.0001678786963156]
      },
      {
        "species": [{ "element": "Sm", "occu": 1 }],
        "abc": [3.2130000000000006e-5, 0.2499986, 0.74999859],
        "properties": { "magmom": 0.0 },
        "label": "Sm",
        "xyz": [2.769124105264921, 8.307750503269098, 0.000180790249699]
      },
      {
        "species": [{ "element": "Sm", "occu": 1 }],
        "abc": [0.50003191, 0.24999865000000002, 0.75000076],
        "properties": { "magmom": 0.0 },
        "label": "Sm",
        "xyz": [2.7691238690913935, 8.307764715410622, 3.2409231442449915]
      },
      {
        "species": [{ "element": "Ir", "occu": 1 }],
        "abc": [0.24996952, 0.9036249900000001, 0.0963125],
        "properties": { "magmom": -0.0 },
        "label": "Ir",
        "xyz": [10.009056950624423, 1.0668500063495652, 1.6201682108054511]
      },
      {
        "species": [{ "element": "Ir", "occu": 1 }],
        "abc": [0.74996848, 0.59637304, 0.09630643],
        "properties": { "magmom": 0.0 },
        "label": "Ir",
        "xyz": [6.605761157217283, 1.0667731957944564, 4.860906165885413]
      },
      {
        "species": [{ "element": "Ir", "occu": 1 }],
        "abc": [0.7499680200000001, 0.90362073, 0.40368134],
        "properties": { "magmom": 0.0 },
        "label": "Ir",
        "xyz": [10.009008700918153, 4.47157151348218, 4.860891320108726]
      },
      {
        "species": [{ "element": "Ir", "occu": 1 }],
        "abc": [0.24996688, 0.59637575, 0.4036861],
        "properties": { "magmom": -0.0 },
        "label": "Ir",
        "xyz": [6.60579169113254, 4.47163431706909, 1.6201410666333957]
      },
      {
        "species": [{ "element": "Ir", "occu": 1 }],
        "abc": [0.74997682, 0.09638189999999901, 0.90357454],
        "properties": { "magmom": -0.0 },
        "label": "Ir",
        "xyz": [1.0675780170670006, 10.008900034320066, 4.860932956575183]
      },
      {
        "species": [{ "element": "Ir", "occu": 1 }],
        "abc": [0.24997841, 0.40362098, 0.90357805],
        "properties": { "magmom": -0.0 },
        "label": "Ir",
        "xyz": [4.470731255133945, 10.008948487699188, 1.6201985664429182]
      },
      {
        "species": [{ "element": "Ir", "occu": 1 }],
        "abc": [0.24997892, 0.09637762, 0.5964339],
        "properties": { "magmom": 0.0 },
        "label": "Ir",
        "xyz": [1.0675316727372697, 6.606706303550576, 1.6202137280614097]
      },
      {
        "species": [{ "element": "Ir", "occu": 1 }],
        "abc": [0.74997927, 0.40362355, 0.59642923],
        "properties": { "magmom": -0.0 },
        "label": "Ir",
        "xyz": [4.470759205257114, 6.606644496910371, 4.860958861155529]
      },
      {
        "species": [{ "element": "Ir", "occu": 1 }],
        "abc": [0.12755666000000002, 0.75001049, 0.74999002],
        "properties": { "magmom": 0.0 },
        "label": "Ir",
        "xyz": [8.307536164095506, 8.307652657325766, 0.826727955309377]
      },
      {
        "species": [{ "element": "Ir", "occu": 1 }],
        "abc": [0.627557199999999, 0.75001034, 0.7499890300000001],
        "properties": { "magmom": -0.0 },
        "label": "Ir",
        "xyz": [8.307533712611368, 8.307631866063725, 4.067475235348365]
      },
      {
        "species": [{ "element": "Ir", "occu": 1 }],
        "abc": [0.8724014, 0.24998983, 0.25001262],
        "properties": { "magmom": 0.0 },
        "label": "Ir",
        "xyz": [2.7690260304679657, 2.769377886835567, 5.654449171007366]
      },
      {
        "species": [{ "element": "Ir", "occu": 1 }],
        "abc": [0.3724088, 0.24999264000000002, 0.25001646],
        "properties": { "magmom": 0.0 },
        "label": "Ir",
        "xyz": [2.7690579455896036, 2.769430247451449, 2.413753353870155]
      }
    ]
  },
  "task_ids": null,
  "uncorrected_energy_per_atom": null,
  "energy_per_atom": -39.00511473125,
  "formation_energy_per_atom": -0.7872794875000011,
  "energy_above_hull": 0.0,
  "is_stable": true,
  "equilibrium_reaction_energy_per_atom": null,
  "decomposes_to": null,
  "xas": null,
  "grain_boundaries": null,
  "band_gap": 0.0,
  "cbm": null,
  "vbm": null,
  "efermi": 4.71542952,
  "is_gap_direct": null,
  "is_metal": null,
  "es_source_calc_id": null,
  "bandstructure": null,
  "dos": null,
  "dos_energy_up": null,
  "dos_energy_down": null,
  "is_magnetic": null,
  "ordering": null,
  "total_magnetization": 2.499999999999999e-6,
  "total_magnetization_normalized_vol": null,
  "total_magnetization_normalized_formula_units": null,
  "num_magnetic_sites": null,
  "num_unique_magnetic_sites": null,
  "types_of_magnetic_species": null,
  "bulk_modulus": null,
  "shear_modulus": null,
  "universal_anisotropy": null,
  "homogeneous_poisson": null,
  "e_total": null,
  "e_ionic": null,
  "e_electronic": null,
  "n": null,
  "e_ij_max": null,
  "weighted_surface_energy_EV_PER_ANG2": null,
  "weighted_surface_energy": null,
  "weighted_work_function": null,
  "surface_anisotropy": null,
  "shape_factor": null,
  "has_reconstructed": null,
  "possible_species": null,
  "has_props": null,
  "theoretical": null,
  "database_IDs": null,
  "fields_not_requested": [
    "builder_meta",
    "nsites",
    "elements",
    "nelements",
    "composition",
    "composition_reduced",
    "chemsys",
    "symmetry",
    "property_name",
    "deprecated",
    "deprecation_reasons",
    "last_updated",
    "origins",
    "warnings",
    "task_ids",
    "uncorrected_energy_per_atom",
    "equilibrium_reaction_energy_per_atom",
    "decomposes_to",
    "xas",
    "grain_boundaries",
    "cbm",
    "vbm",
    "is_gap_direct",
    "is_metal",
    "es_source_calc_id",
    "bandstructure",
    "dos",
    "dos_energy_up",
    "dos_energy_down",
    "is_magnetic",
    "ordering",
    "total_magnetization_normalized_vol",
    "total_magnetization_normalized_formula_units",
    "num_magnetic_sites",
    "num_unique_magnetic_sites",
    "types_of_magnetic_species",
    "bulk_modulus",
    "shear_modulus",
    "universal_anisotropy",
    "homogeneous_poisson",
    "e_total",
    "e_ionic",
    "e_electronic",
    "n",
    "e_ij_max",
    "weighted_surface_energy_EV_PER_ANG2",
    "weighted_surface_energy",
    "weighted_work_function",
    "surface_anisotropy",
    "shape_factor",
    "has_reconstructed",
    "possible_species",
    "has_props",
    "theoretical",
    "database_IDs"
  ]
}
