{"builder_meta": null, "nsites": null, "elements": null, "nelements": null, "composition": null, "composition_reduced": null, "formula_pretty": "Sm5Mg", "formula_anonymous": "AB5", "chemsys": null, "volume": 190.72597597753153, "density": 6.757090457544253, "density_atomic": 31.78766266292192, "symmetry": null, "property_name": null, "material_id": "mp-979459", "deprecated": null, "deprecation_reasons": null, "last_updated": null, "origins": null, "warnings": null, "structure": {"@module": "pymatgen.core.structure", "@class": "Structure", "charge": 0, "lattice": {"matrix": [[-5.42783771, 3.13478914, 0.00023941], [0.00079269, -6.26820603, -0.00026341], [-1.809640299999999, 3.13452302, 5.6064045700000005]], "pbc": [true, true, true], "a": 6.2680399819781885, "b": 6.268206085657253, "c": 6.673215475376986, "alpha": 118.02044743535836, "beta": 61.98014502014363, "gamma": 120.01536455439819, "volume": 190.72597597753156}, "properties": {}, "sites": [{"species": [{"element": "Sm", "occu": 1}], "abc": [0.70891615, 0.37560137, 1.00001104], "properties": {"magmom": 0.0}, "label": "Sm", "xyz": [-5.6572443551769425, 3.0025135010144908, 5.6065372491650525]}, {"species": [{"element": "Sm", "occu": 1}], "abc": [0.95738319, 7.290000000000001e-05, 1.00019692], "properties": {"magmom": 0.0}, "label": "Sm", "xyz": [-7.00651717818287, 6.135877744884068, 5.607737771094854]}, {"species": [{"element": "Sm", "occu": 1}], "abc": [0.33338314, 0.62404314, -0.00020564000000000002], "properties": {"magmom": 0.0}, "label": "Sm", "xyz": [-1.8086827719822711, -2.8671897097108676, -0.0012374649817348002]}, {"species": [{"element": "Sm", "occu": 1}], "abc": [0.48843509, 0.84501604, 0.53453054], "properties": {"magmom": -0.0}, "label": "Sm", "xyz": [-3.617784571389258, -2.090095339124767, 2.9966888128303686]}, {"species": [{"element": "Sm", "occu": 1}], "abc": [0.17835369, 0.15508484, 0.46545713], "properties": {"magmom": -0.0}, "label": "Sm", "xyz": [-1.8102619304681689, 1.045983570049474, 2.609542829530303]}, {"species": [{"element": "Mg", "occu": 1}], "abc": [0.83352674, 0.50018171, 0.50001002], "properties": {"magmom": 0.0}, "label": "Mg", "xyz": [-5.428689665221471, 1.044981479654553, 2.8033262629463844]}]}, "task_ids": null, "uncorrected_energy_per_atom": null, "energy_per_atom": -4.186909431666666, "formation_energy_per_atom": 0.016990683333333003, "energy_above_hull": 0.045164058333333, "is_stable": false, "equilibrium_reaction_energy_per_atom": null, "decomposes_to": null, "xas": null, "grain_boundaries": null, "band_gap": 0.0, "cbm": null, "vbm": null, "efermi": 3.12711715, "is_gap_direct": null, "is_metal": null, "es_source_calc_id": null, "bandstructure": null, "dos": null, "dos_energy_up": null, "dos_energy_down": null, "is_magnetic": null, "ordering": null, "total_magnetization": 0.000298, "total_magnetization_normalized_vol": null, "total_magnetization_normalized_formula_units": null, "num_magnetic_sites": null, "num_unique_magnetic_sites": null, "types_of_magnetic_species": null, "bulk_modulus": null, "shear_modulus": null, "universal_anisotropy": null, "homogeneous_poisson": null, "e_total": null, "e_ionic": null, "e_electronic": null, "n": null, "e_ij_max": null, "weighted_surface_energy_EV_PER_ANG2": null, "weighted_surface_energy": null, "weighted_work_function": null, "surface_anisotropy": null, "shape_factor": null, "has_reconstructed": null, "possible_species": null, "has_props": null, "theoretical": null, "database_IDs": null, "fields_not_requested": ["builder_meta", "nsites", "elements", "nelements", "composition", "composition_reduced", "chemsys", "symmetry", "property_name", "deprecated", "deprecation_reasons", "last_updated", "origins", "warnings", "task_ids", "uncorrected_energy_per_atom", "equilibrium_reaction_energy_per_atom", "decomposes_to", "xas", "grain_boundaries", "cbm", "vbm", "is_gap_direct", "is_metal", "es_source_calc_id", "bandstructure", "dos", "dos_energy_up", "dos_energy_down", "is_magnetic", "ordering", "total_magnetization_normalized_vol", "total_magnetization_normalized_formula_units", "num_magnetic_sites", "num_unique_magnetic_sites", "types_of_magnetic_species", "bulk_modulus", "shear_modulus", "universal_anisotropy", "homogeneous_poisson", "e_total", "e_ionic", "e_electronic", "n", "e_ij_max", "weighted_surface_energy_EV_PER_ANG2", "weighted_surface_energy", "weighted_work_function", "surface_anisotropy", "shape_factor", "has_reconstructed", "possible_species", "has_props", "theoretical", "database_IDs"]}