{
  "builder_meta": null,
  "nsites": null,
  "elements": null,
  "nelements": null,
  "composition": null,
  "composition_reduced": null,
  "formula_pretty": "Sm5Pb4",
  "formula_anonymous": "A4B5",
  "chemsys": null,
  "volume": 1121.1413420799438,
  "density": 9.364200391714062,
  "density_atomic": 31.142815057776218,
  "symmetry": null,
  "property_name": null,
  "material_id": "mp-1200672",
  "deprecated": null,
  "deprecation_reasons": null,
  "last_updated": null,
  "origins": null,
  "warnings": null,
  "structure": {
    "@module": "pymatgen.core.structure",
    "@class": "Structure",
    "charge": 0,
    "lattice": {
      "matrix": [
        [-8.35146236, 0.0, 0.0],
        [0.0, 0.0, -8.43415739],
        [0.0, -15.91681389, 0.0]
      ],
      "pbc": [true, true, true],
      "a": 8.35146236,
      "b": 8.43415739,
      "c": 15.91681389,
      "alpha": 90.0,
      "beta": 90.0,
      "gamma": 90.0,
      "volume": 1121.1413420799438
    },
    "properties": {},
    "sites": [
      {
        "species": [{ "element": "Sm", "occu": 1 }],
        "abc": [0.38440282000000003, 0.84254742, 0.88221845],
        "properties": { "magmom": -0.0 },
        "label": "Sm",
        "xyz": [-3.210325682307855, -14.04210687897427, -7.106177548818434]
      },
      {
        "species": [{ "element": "Sm", "occu": 1 }],
        "abc": [0.88440282, 0.6574525800000001, 0.61778155],
        "properties": { "magmom": -0.0 },
        "label": "Sm",
        "xyz": [-7.386056862307855, -9.83311395602573, -5.545058536181566]
      },
      {
        "species": [{ "element": "Sm", "occu": 1 }],
        "abc": [0.61559718, 0.15745258, 0.38221845],
        "properties": { "magmom": -0.0 },
        "label": "Sm",
        "xyz": [-5.141136677692144, -6.083699933974271, -1.3279798411815662]
      },
      {
        "species": [{ "element": "Sm", "occu": 1 }],
        "abc": [0.11559718000000001, 0.34254742, 0.11778155],
        "properties": { "magmom": -0.0 },
        "label": "Sm",
        "xyz": [-0.9654054976921448, -1.8747070110257296, -2.8890988538184335]
      },
      {
        "species": [{ "element": "Sm", "occu": 1 }],
        "abc": [0.61559718, 0.15745258, 0.11778155],
        "properties": { "magmom": -0.0 },
        "label": "Sm",
        "xyz": [-5.141136677692144, -1.8747070110257296, -1.3279798411815662]
      },
      {
        "species": [{ "element": "Sm", "occu": 1 }],
        "abc": [0.11559718000000001, 0.34254742, 0.38221845],
        "properties": { "magmom": -0.0 },
        "label": "Sm",
        "xyz": [-0.9654054976921448, -6.083699933974271, -2.8890988538184335]
      },
      {
        "species": [{ "element": "Sm", "occu": 1 }],
        "abc": [0.38440282000000003, 0.84254742, 0.61778155],
        "properties": { "magmom": -0.0 },
        "label": "Sm",
        "xyz": [-3.210325682307855, -9.83311395602573, -7.106177548818434]
      },
      {
        "species": [{ "element": "Sm", "occu": 1 }],
        "abc": [0.88440282, 0.6574525800000001, 0.88221845],
        "properties": { "magmom": -0.0 },
        "label": "Sm",
        "xyz": [-7.386056862307855, -14.04210687897427, -5.545058536181566]
      },
      {
        "species": [{ "element": "Sm", "occu": 1 }],
        "abc": [0.54059986, 0.32541865000000003, 0.89707486],
        "properties": { "magmom": -0.0 },
        "label": "Sm",
        "xyz": [-4.51479938261127, -14.278573592017807, -2.7446321117413235]
      },
      {
        "species": [{ "element": "Sm", "occu": 1 }],
        "abc": [0.04059986, 0.17458135, 0.60292514],
        "properties": { "magmom": -0.0 },
        "label": "Sm",
        "xyz": [-0.3390682026112696, -9.596647242982193, -1.4724465832586764]
      },
      {
        "species": [{ "element": "Sm", "occu": 1 }],
        "abc": [0.45940014, 0.67458135, 0.39707486000000003],
        "properties": { "magmom": -0.0 },
        "label": "Sm",
        "xyz": [-3.83666297738873, -6.320166647017806, -5.689525278258675]
      },
      {
        "species": [{ "element": "Sm", "occu": 1 }],
        "abc": [0.9594001400000001, 0.82541865, 0.10292514],
        "properties": { "magmom": -0.0 },
        "label": "Sm",
        "xyz": [-8.01239415738873, -1.6382402979821946, -6.961710806741324]
      },
      {
        "species": [{ "element": "Sm", "occu": 1 }],
        "abc": [0.45940014, 0.67458135, 0.10292514],
        "properties": { "magmom": -0.0 },
        "label": "Sm",
        "xyz": [-3.83666297738873, -1.6382402979821946, -5.689525278258675]
      },
      {
        "species": [{ "element": "Sm", "occu": 1 }],
        "abc": [0.9594001400000001, 0.82541865, 0.39707486000000003],
        "properties": { "magmom": -0.0 },
        "label": "Sm",
        "xyz": [-8.01239415738873, -6.320166647017806, -6.961710806741324]
      },
      {
        "species": [{ "element": "Sm", "occu": 1 }],
        "abc": [0.54059986, 0.32541865000000003, 0.60292514],
        "properties": { "magmom": -0.0 },
        "label": "Sm",
        "xyz": [-4.51479938261127, -9.596647242982193, -2.7446321117413235]
      },
      {
        "species": [{ "element": "Sm", "occu": 1 }],
        "abc": [0.04059986, 0.17458135, 0.89707486],
        "properties": { "magmom": -0.0 },
        "label": "Sm",
        "xyz": [-0.3390682026112696, -14.278573592017807, -1.4724465832586764]
      },
      {
        "species": [{ "element": "Sm", "occu": 1 }],
        "abc": [0.21813774, 0.5031613500000001, 0.75],
        "properties": { "magmom": -0.0 },
        "label": "Sm",
        "xyz": [-1.8217691249054662, -11.9376104175, -4.243742018464877]
      },
      {
        "species": [{ "element": "Sm", "occu": 1 }],
        "abc": [0.71813774, 0.99683865, 0.75],
        "properties": { "magmom": -0.0 },
        "label": "Sm",
        "xyz": [-5.997500304905466, -11.9376104175, -8.407494066535124]
      },
      {
        "species": [{ "element": "Sm", "occu": 1 }],
        "abc": [0.78186226, 0.49683865, 0.25],
        "properties": { "magmom": -0.0 },
        "label": "Sm",
        "xyz": [-6.529693235094533, -3.9792034725, -4.190415371535123]
      },
      {
        "species": [{ "element": "Sm", "occu": 1 }],
        "abc": [0.28186226000000003, 0.0031613500000000003, 0.25],
        "properties": { "magmom": -0.0 },
        "label": "Sm",
        "xyz": [-2.3539620550945335, -3.9792034725, -0.0266633234648765]
      },
      {
        "species": [{ "element": "Pb", "occu": 1 }],
        "abc": [0.27368769, 0.02925588, 0.04408707],
        "properties": { "magmom": 0.0 },
        "label": "Pb",
        "xyz": [-2.285692441430348, -0.7017256881454023, -0.2467486965029532]
      },
      {
        "species": [{ "element": "Pb", "occu": 1 }],
        "abc": [0.77368769, 0.47074412, 0.45591193],
        "properties": { "magmom": 0.0 },
        "label": "Pb",
        "xyz": [-6.461423621430348, -7.256665340040708, -3.9703299984970464]
      },
      {
        "species": [{ "element": "Pb", "occu": 1 }],
        "abc": [0.72631231, 0.97074412, 0.54408807],
        "properties": { "magmom": 0.0 },
        "label": "Pb",
        "xyz": [-6.065769918569651, -8.660148549959294, -8.187408693497046]
      },
      {
        "species": [{ "element": "Pb", "occu": 1 }],
        "abc": [0.22631231000000002, 0.52925588, 0.95591293],
        "properties": { "magmom": 0.0 },
        "label": "Pb",
        "xyz": [-1.8900387385696515, -15.215088201854599, -4.463827391502953]
      },
      {
        "species": [{ "element": "Pb", "occu": 1 }],
        "abc": [0.72631231, 0.97074412, 0.95591193],
        "properties": { "magmom": 0.0 },
        "label": "Pb",
        "xyz": [-6.065769918569651, -15.215072285040707, -8.187408693497046]
      },
      {
        "species": [{ "element": "Pb", "occu": 1 }],
        "abc": [0.22631231000000002, 0.52925588, 0.54408707],
        "properties": { "magmom": 0.0 },
        "label": "Pb",
        "xyz": [-1.8900387385696515, -8.660132633145402, -4.463827391502953]
      },
      {
        "species": [{ "element": "Pb", "occu": 1 }],
        "abc": [0.27368769, 0.02925588, 0.45591293],
        "properties": { "magmom": 0.0 },
        "label": "Pb",
        "xyz": [-2.285692441430348, -7.2566812568545975, -0.2467486965029532]
      },
      {
        "species": [{ "element": "Pb", "occu": 1 }],
        "abc": [0.77368769, 0.47074412, 0.04408807],
        "properties": { "magmom": 0.0 },
        "label": "Pb",
        "xyz": [-6.461423621430348, -0.7017416049592923, -3.9703299984970464]
      },
      {
        "species": [{ "element": "Pb", "occu": 1 }],
        "abc": [0.58077526, 0.6263145, 0.75],
        "properties": { "magmom": -0.0 },
        "label": "Pb",
        "xyz": [-4.850322723509214, -11.9376104175, -5.282435068639154]
      },
      {
        "species": [{ "element": "Pb", "occu": 1 }],
        "abc": [0.08077526, 0.873686499999999, 0.75],
        "properties": { "magmom": -0.0 },
        "label": "Pb",
        "xyz": [-0.6745915435092136, -11.9376104175, -7.368809450518226]
      },
      {
        "species": [{ "element": "Pb", "occu": 1 }],
        "abc": [0.41922474, 0.3736865, 0.25],
        "properties": { "magmom": -0.0 },
        "label": "Pb",
        "xyz": [-3.501139636490786, -3.9792034725, -3.1517307555182343]
      },
      {
        "species": [{ "element": "Pb", "occu": 1 }],
        "abc": [0.91922474, 0.1263145, 0.25],
        "properties": { "magmom": -0.0 },
        "label": "Pb",
        "xyz": [-7.676870816490785, -3.9792034725, -1.065356373639155]
      },
      {
        "species": [{ "element": "Pb", "occu": 1 }],
        "abc": [0.35028416, 0.14686366, 0.75],
        "properties": { "magmom": -0.0 },
        "label": "Pb",
        "xyz": [-2.9253849775442173, -11.9376104175, -1.2386712233114474]
      },
      {
        "species": [{ "element": "Pb", "occu": 1 }],
        "abc": [0.8502841600000001, 0.35313534, 0.75],
        "properties": { "magmom": -0.0 },
        "label": "Pb",
        "xyz": [-7.101116157544218, -11.9376104175, -2.9783990375311626]
      },
      {
        "species": [{ "element": "Pb", "occu": 1 }],
        "abc": [0.64971584, 0.85313534, 0.25],
        "properties": { "magmom": -0.0 },
        "label": "Pb",
        "xyz": [-5.426077382455782, -3.9792034725, -7.195477732531162]
      },
      {
        "species": [{ "element": "Pb", "occu": 1 }],
        "abc": [0.14971584000000002, 0.6468636600000001, 0.25],
        "properties": { "magmom": -0.0 },
        "label": "Pb",
        "xyz": [-1.2503462024557825, -3.9792034725, -5.455749918311447]
      }
    ]
  },
  "task_ids": null,
  "uncorrected_energy_per_atom": null,
  "energy_per_atom": -42.30563221333333,
  "formation_energy_per_atom": -0.7717257644444411,
  "energy_above_hull": 0.0,
  "is_stable": true,
  "equilibrium_reaction_energy_per_atom": null,
  "decomposes_to": null,
  "xas": null,
  "grain_boundaries": null,
  "band_gap": 0.0,
  "cbm": null,
  "vbm": null,
  "efermi": 4.83170398,
  "is_gap_direct": null,
  "is_metal": null,
  "es_source_calc_id": null,
  "bandstructure": null,
  "dos": null,
  "dos_energy_up": null,
  "dos_energy_down": null,
  "is_magnetic": null,
  "ordering": null,
  "total_magnetization": 0.000110499999999,
  "total_magnetization_normalized_vol": null,
  "total_magnetization_normalized_formula_units": null,
  "num_magnetic_sites": null,
  "num_unique_magnetic_sites": null,
  "types_of_magnetic_species": null,
  "bulk_modulus": null,
  "shear_modulus": null,
  "universal_anisotropy": null,
  "homogeneous_poisson": null,
  "e_total": null,
  "e_ionic": null,
  "e_electronic": null,
  "n": null,
  "e_ij_max": null,
  "weighted_surface_energy_EV_PER_ANG2": null,
  "weighted_surface_energy": null,
  "weighted_work_function": null,
  "surface_anisotropy": null,
  "shape_factor": null,
  "has_reconstructed": null,
  "possible_species": null,
  "has_props": null,
  "theoretical": null,
  "database_IDs": null,
  "fields_not_requested": [
    "builder_meta",
    "nsites",
    "elements",
    "nelements",
    "composition",
    "composition_reduced",
    "chemsys",
    "symmetry",
    "property_name",
    "deprecated",
    "deprecation_reasons",
    "last_updated",
    "origins",
    "warnings",
    "task_ids",
    "uncorrected_energy_per_atom",
    "equilibrium_reaction_energy_per_atom",
    "decomposes_to",
    "xas",
    "grain_boundaries",
    "cbm",
    "vbm",
    "is_gap_direct",
    "is_metal",
    "es_source_calc_id",
    "bandstructure",
    "dos",
    "dos_energy_up",
    "dos_energy_down",
    "is_magnetic",
    "ordering",
    "total_magnetization_normalized_vol",
    "total_magnetization_normalized_formula_units",
    "num_magnetic_sites",
    "num_unique_magnetic_sites",
    "types_of_magnetic_species",
    "bulk_modulus",
    "shear_modulus",
    "universal_anisotropy",
    "homogeneous_poisson",
    "e_total",
    "e_ionic",
    "e_electronic",
    "n",
    "e_ij_max",
    "weighted_surface_energy_EV_PER_ANG2",
    "weighted_surface_energy",
    "weighted_work_function",
    "surface_anisotropy",
    "shape_factor",
    "has_reconstructed",
    "possible_species",
    "has_props",
    "theoretical",
    "database_IDs"
  ]
}
