{
  "builder_meta": null,
  "nsites": null,
  "elements": null,
  "nelements": null,
  "composition": null,
  "composition_reduced": null,
  "formula_pretty": "Sm5Pb3",
  "formula_anonymous": "A3B5",
  "chemsys": null,
  "volume": 502.46387835743894,
  "density": 9.077605186361655,
  "density_atomic": 31.403992397339934,
  "symmetry": null,
  "property_name": null,
  "material_id": "mp-1179514",
  "deprecated": null,
  "deprecation_reasons": null,
  "last_updated": null,
  "origins": null,
  "warnings": null,
  "structure": {
    "@module": "pymatgen.core.structure",
    "@class": "Structure",
    "charge": 0,
    "lattice": {
      "matrix": [
        [9.22681541, 1.7810000000000004e-5, -1.703e-5],
        [-4.61339267, 7.99066314, 1.675e-5],
        [-1.247e-5, 7.429999999999997e-6, 6.81506037]
      ],
      "pbc": [true, true, true],
      "a": 9.226815410032906,
      "b": 9.226813607353566,
      "c": 6.815060370015459,
      "alpha": 89.99978947158912,
      "beta": 90.00021058927167,
      "gamma": 119.99978806202844,
      "volume": 502.46387835743894
    },
    "properties": {},
    "sites": [
      {
        "species": [{ "element": "Sm", "occu": 1 }],
        "abc": [0.66666983, 0.333349499999999, 0.50000029],
        "properties": { "magmom": -0.0 },
        "label": "Sm",
        "xyz": [4.6133610859743035, 2.6636991507792493, 3.407526391584428]
      },
      {
        "species": [{ "element": "Sm", "occu": 1 }],
        "abc": [0.33335066, 0.66667019, 0.50000018],
        "properties": { "magmom": -0.0 },
        "label": "Sm",
        "xyz": [0.0001474037659191663, 5.327146565746389, 3.4075369014748094]
      },
      {
        "species": [{ "element": "Sm", "occu": 1 }],
        "abc": [0.33333072, 0.66665026, 2.5e-7],
        "properties": { "magmom": -0.0 },
        "label": "Sm",
        "xyz": [6.160098168406861e-5, 5.326983596475397, 7.1935347859e-6]
      },
      {
        "species": [{ "element": "Sm", "occu": 1 }],
        "abc": [0.6666498200000001, 0.33332948, 1.7000000000000001e-7],
        "properties": { "magmom": -0.0 },
        "label": "Sm",
        "xyz": [4.613275052520696, 2.6635354623459246, -4.611217381700002e-6]
      },
      {
        "species": [{ "element": "Sm", "occu": 1 }],
        "abc": [0.76110004, 0.76109819, 0.24999731],
        "properties": { "magmom": -0.0 },
        "label": "Sm",
        "xyz": [3.5112816492608934, 6.081694665425442, 1.7037465468486062]
      },
      {
        "species": [{ "element": "Sm", "occu": 1 }],
        "abc": [0.2388989, 0.99999573, 0.25000125],
        "properties": { "magmom": -0.0 },
        "label": "Sm",
        "xyz": [-2.4091000363768367, 7.990635132167088, 1.7037862928056733]
      },
      {
        "species": [{ "element": "Sm", "occu": 1 }],
        "abc": [-7.25e-6, 0.23889557, 0.25000122],
        "properties": { "magmom": -0.0 },
        "label": "Sm",
        "xyz": [-1.1021890834604078, 1.908935882888232, 1.7037774084979167]
      },
      {
        "species": [{ "element": "Sm", "occu": 1 }],
        "abc": [0.23890154, 0.23889978, 0.74999732],
        "properties": { "magmom": -0.0 },
        "label": "Sm",
        "xyz": [1.1021525643615386, 1.9089774935166242, 5.111276946216297]
      },
      {
        "species": [{ "element": "Sm", "occu": 1 }],
        "abc": [0.76110329, 7.509999999999997e-6, 0.75000123],
        "properties": { "magmom": -0.0 },
        "label": "Sm",
        "xyz": [7.022515565679409, 7.913763891519997e-5, 5.111290698561019]
      },
      {
        "species": [{ "element": "Sm", "occu": 1 }],
        "abc": [4.059999999999997e-6, 0.76110254, 0.75000123],
        "properties": { "magmom": -0.0 },
        "label": "Sm",
        "xyz": [-3.511236770799155, 6.081719584719822, 5.111316408422659]
      },
      {
        "species": [{ "element": "Pb", "occu": 1 }],
        "abc": [0.39382528, 0.39381334, 0.25000547],
        "properties": { "magmom": 0.0 },
        "label": "Pb",
        "xyz": [1.8169344686791364, 3.1468386115471665, 1.7038022604091507]
      },
      {
        "species": [{ "element": "Pb", "occu": 1 }],
        "abc": [0.606179799999999, 1.622e-5, 0.24999401000000002],
        "properties": { "magmom": 0.0 },
        "label": "Pb",
        "xyz": [5.593031173216297, 0.00014226207386309998, 1.703713947318075]
      },
      {
        "species": [{ "element": "Pb", "occu": 1 }],
        "abc": [-9.1e-6, 0.6061672100000001, 0.24999731],
        "properties": { "magmom": 0.0 },
        "label": "Pb",
        "xyz": [-2.7965744448950374, 4.843679838941582, 1.7037569134433452]
      },
      {
        "species": [{ "element": "Pb", "occu": 1 }],
        "abc": [0.60618692, 0.60617493, 0.75000546],
        "properties": { "magmom": 0.0 },
        "label": "Pb",
        "xyz": [2.7966424834285877, 4.8437560382726925, 5.1113323177964505]
      },
      {
        "species": [{ "element": "Pb", "occu": 1 }],
        "abc": [0.3938325, 8.789999999999999e-6, 0.7499973],
        "properties": { "magmom": 0.0 },
        "label": "Pb",
        "xyz": [3.6337698757709247, 8.282456576459998e-5, 5.111270170016759]
      },
      {
        "species": [{ "element": "Pb", "occu": 1 }],
        "abc": [-1.603e-5, 0.39382078, 0.74999399],
        "properties": { "magmom": 0.0 },
        "label": "Pb",
        "xyz": [-1.81700715802176, 3.1468947626819004, 5.1112609157582325]
      }
    ]
  },
  "task_ids": null,
  "uncorrected_energy_per_atom": null,
  "energy_per_atom": -40.416940399375,
  "formation_energy_per_atom": -0.7269374081250031,
  "energy_above_hull": 0.0,
  "is_stable": true,
  "equilibrium_reaction_energy_per_atom": null,
  "decomposes_to": null,
  "xas": null,
  "grain_boundaries": null,
  "band_gap": 0.0,
  "cbm": null,
  "vbm": null,
  "efermi": 4.59931453,
  "is_gap_direct": null,
  "is_metal": null,
  "es_source_calc_id": null,
  "bandstructure": null,
  "dos": null,
  "dos_energy_up": null,
  "dos_energy_down": null,
  "is_magnetic": null,
  "ordering": null,
  "total_magnetization": 8.37e-5,
  "total_magnetization_normalized_vol": null,
  "total_magnetization_normalized_formula_units": null,
  "num_magnetic_sites": null,
  "num_unique_magnetic_sites": null,
  "types_of_magnetic_species": null,
  "bulk_modulus": null,
  "shear_modulus": null,
  "universal_anisotropy": null,
  "homogeneous_poisson": null,
  "e_total": null,
  "e_ionic": null,
  "e_electronic": null,
  "n": null,
  "e_ij_max": null,
  "weighted_surface_energy_EV_PER_ANG2": null,
  "weighted_surface_energy": null,
  "weighted_work_function": null,
  "surface_anisotropy": null,
  "shape_factor": null,
  "has_reconstructed": null,
  "possible_species": null,
  "has_props": null,
  "theoretical": null,
  "database_IDs": null,
  "fields_not_requested": [
    "builder_meta",
    "nsites",
    "elements",
    "nelements",
    "composition",
    "composition_reduced",
    "chemsys",
    "symmetry",
    "property_name",
    "deprecated",
    "deprecation_reasons",
    "last_updated",
    "origins",
    "warnings",
    "task_ids",
    "uncorrected_energy_per_atom",
    "equilibrium_reaction_energy_per_atom",
    "decomposes_to",
    "xas",
    "grain_boundaries",
    "cbm",
    "vbm",
    "is_gap_direct",
    "is_metal",
    "es_source_calc_id",
    "bandstructure",
    "dos",
    "dos_energy_up",
    "dos_energy_down",
    "is_magnetic",
    "ordering",
    "total_magnetization_normalized_vol",
    "total_magnetization_normalized_formula_units",
    "num_magnetic_sites",
    "num_unique_magnetic_sites",
    "types_of_magnetic_species",
    "bulk_modulus",
    "shear_modulus",
    "universal_anisotropy",
    "homogeneous_poisson",
    "e_total",
    "e_ionic",
    "e_electronic",
    "n",
    "e_ij_max",
    "weighted_surface_energy_EV_PER_ANG2",
    "weighted_surface_energy",
    "weighted_work_function",
    "surface_anisotropy",
    "shape_factor",
    "has_reconstructed",
    "possible_species",
    "has_props",
    "theoretical",
    "database_IDs"
  ]
}
