{"builder_meta": null, "nsites": null, "elements": null, "nelements": null, "composition": null, "composition_reduced": null, "formula_pretty": "Sm5Rh4", "formula_anonymous": "A4B5", "chemsys": null, "volume": 829.2678700837364, "density": 9.318618273474545, "density_atomic": 23.035218613437124, "symmetry": null, "property_name": null, "material_id": "mp-1196525", "deprecated": null, "deprecation_reasons": null, "last_updated": null, "origins": null, "warnings": null, "structure": {"@module": "pymatgen.core.structure", "@class": "Structure", "charge": 0, "lattice": {"matrix": [[-7.43086532, 0.0, -0.0], [-0.0, 0.0, -7.58279641], [0.0, -14.71722919, 0.0]], "pbc": [true, true, true], "a": 7.43086532, "b": 7.58279641, "c": 14.71722919, "alpha": 90.0, "beta": 90.0, "gamma": 90.0, "volume": 829.2678700837364}, "properties": {}, "sites": [{"species": [{"element": "Sm", "occu": 1}], "abc": [0.33900862, 0.83132909, 0.87803213], "properties": {"magmom": -0.0}, "label": "Sm", "xyz": [-2.5191273975390582, -12.922200093393874, -6.3037992391805675]}, {"species": [{"element": "Sm", "occu": 1}], "abc": [0.83900862, 0.66867091, 0.62196787], "properties": {"magmom": -0.0}, "label": "Sm", "xyz": [-6.234560057539058, -9.153643691606124, -5.070395375819433]}, {"species": [{"element": "Sm", "occu": 1}], "abc": [0.66099138, 0.16867091, 0.37803213], "properties": {"magmom": -0.0}, "label": "Sm", "xyz": [-4.911737922460942, -5.563585498393874, -1.2789971708194332]}, {"species": [{"element": "Sm", "occu": 1}], "abc": [0.16099138, 0.33132909, 0.12196787], "properties": {"magmom": -0.0}, "label": "Sm", "xyz": [-1.1963052624609414, -1.7950290966061253, -2.512401034180567]}, {"species": [{"element": "Sm", "occu": 1}], "abc": [0.66099138, 0.16867091, 0.12196787], "properties": {"magmom": -0.0}, "label": "Sm", "xyz": [-4.911737922460942, -1.7950290966061253, -1.2789971708194332]}, {"species": [{"element": "Sm", "occu": 1}], "abc": [0.16099138, 0.33132909, 0.37803213], "properties": {"magmom": -0.0}, "label": "Sm", "xyz": [-1.1963052624609414, -5.563585498393874, -2.512401034180567]}, {"species": [{"element": "Sm", "occu": 1}], "abc": [0.33900862, 0.83132909, 0.62196787], "properties": {"magmom": -0.0}, "label": "Sm", "xyz": [-2.5191273975390582, -9.153643691606124, -6.3037992391805675]}, {"species": [{"element": "Sm", "occu": 1}], "abc": [0.83900862, 0.66867091, 0.87803213], "properties": {"magmom": -0.0}, "label": "Sm", "xyz": [-6.234560057539058, -12.922200093393874, -5.070395375819433]}, {"species": [{"element": "Sm", "occu": 1}], "abc": [0.49011967, 0.31990681, 0.90758712], "properties": {"magmom": 0.0}, "label": "Sm", "xyz": [-3.6420132584528444, -13.357167654932033, -2.425788210402552]}, {"species": [{"element": "Sm", "occu": 1}], "abc": [0.99011967, 0.18009319000000001, 0.59241288], "properties": {"magmom": 0.0}, "label": "Sm", "xyz": [-7.357445918452844, -8.718676130067967, -1.365609994597448]}, {"species": [{"element": "Sm", "occu": 1}], "abc": [0.50988033, 0.68009319, 0.40758712], "properties": {"magmom": 0.0}, "label": "Sm", "xyz": [-3.7888520615471553, -5.998553059932033, -5.157008199597448]}, {"species": [{"element": "Sm", "occu": 1}], "abc": [0.00988033, 0.81990681, 0.09241288], "properties": {"magmom": 0.0}, "label": "Sm", "xyz": [-0.0734194015471556, -1.3600615350679672, -6.217186415402552]}, {"species": [{"element": "Sm", "occu": 1}], "abc": [0.50988033, 0.68009319, 0.09241288], "properties": {"magmom": 0.0}, "label": "Sm", "xyz": [-3.7888520615471553, -1.3600615350679672, -5.157008199597448]}, {"species": [{"element": "Sm", "occu": 1}], "abc": [0.00988033, 0.81990681, 0.40758712], "properties": {"magmom": 0.0}, "label": "Sm", "xyz": [-0.0734194015471556, -5.998553059932033, -6.217186415402552]}, {"species": [{"element": "Sm", "occu": 1}], "abc": [0.49011967, 0.31990681, 0.59241288], "properties": {"magmom": 0.0}, "label": "Sm", "xyz": [-3.6420132584528444, -8.718676130067967, -2.425788210402552]}, {"species": [{"element": "Sm", "occu": 1}], "abc": [0.99011967, 0.18009319000000001, 0.90758712], "properties": {"magmom": 0.0}, "label": "Sm", "xyz": [-7.357445918452844, -13.357167654932033, -1.365609994597448]}, {"species": [{"element": "Sm", "occu": 1}], "abc": [0.17744725, 0.48699058, 0.75], "properties": {"magmom": 0.0}, "label": "Sm", "xyz": [-1.31858661615437, -11.0379218925, -3.6927504217278178]}, {"species": [{"element": "Sm", "occu": 1}], "abc": [0.6774472500000001, 0.01300942, 0.75], "properties": {"magmom": 0.0}, "label": "Sm", "xyz": [-5.03401927615437, -11.0379218925, -0.09864778327218221]}, {"species": [{"element": "Sm", "occu": 1}], "abc": [0.82255275, 0.51300942, 0.25], "properties": {"magmom": 0.0}, "label": "Sm", "xyz": [-6.1122787038456305, -3.6793072975, -3.8900459882721825]}, {"species": [{"element": "Sm", "occu": 1}], "abc": [0.32255275, 0.9869905800000001, 0.25], "properties": {"magmom": 0.0}, "label": "Sm", "xyz": [-2.39684604384563, -3.6793072975, -7.484148626727818]}, {"species": [{"element": "Rh", "occu": 1}], "abc": [0.32051897, 0.033105670000000004, 0.03896406], "properties": {"magmom": 0.0}, "label": "Rh", "xyz": [-2.3817332985751203, -0.5734430011929114, -0.25103355562664476]}, {"species": [{"element": "Rh", "occu": 1}], "abc": [0.8205189700000001, 0.46689433, 0.46103594000000003], "properties": {"magmom": 0.0}, "label": "Rh", "xyz": [-6.097165958575121, -6.785171593807089, -3.540364649373356]}, {"species": [{"element": "Rh", "occu": 1}], "abc": [0.67948103, 0.96689433, 0.53896406], "properties": {"magmom": 0.0}, "label": "Rh", "xyz": [-5.04913202142488, -7.9320575961929105, -7.3317628543733555]}, {"species": [{"element": "Rh", "occu": 1}], "abc": [0.17948103, 0.53310567, 0.96103594], "properties": {"magmom": 0.0}, "label": "Rh", "xyz": [-1.3336993614248795, -14.143786188807088, -4.042431760626645]}, {"species": [{"element": "Rh", "occu": 1}], "abc": [0.67948103, 0.96689433, 0.96103594], "properties": {"magmom": 0.0}, "label": "Rh", "xyz": [-5.04913202142488, -14.143786188807088, -7.3317628543733555]}, {"species": [{"element": "Rh", "occu": 1}], "abc": [0.17948103, 0.53310567, 0.53896406], "properties": {"magmom": 0.0}, "label": "Rh", "xyz": [-1.3336993614248795, -7.9320575961929105, -4.042431760626645]}, {"species": [{"element": "Rh", "occu": 1}], "abc": [0.32051897, 0.033105670000000004, 0.46103594000000003], "properties": {"magmom": 0.0}, "label": "Rh", "xyz": [-2.3817332985751203, -6.785171593807089, -0.25103355562664476]}, {"species": [{"element": "Rh", "occu": 1}], "abc": [0.8205189700000001, 0.46689433, 0.03896406], "properties": {"magmom": 0.0}, "label": "Rh", "xyz": [-6.097165958575121, -0.5734430011929114, -3.540364649373356]}, {"species": [{"element": "Rh", "occu": 1}], "abc": [0.5441493900000001, 0.59977021, 0.75], "properties": {"magmom": -0.0}, "label": "Rh", "xyz": [-4.043500831050155, -11.0379218925, -4.547935395212946]}, {"species": [{"element": "Rh", "occu": 1}], "abc": [0.044149390000000004, 0.90022979, 0.75], "properties": {"magmom": -0.0}, "label": "Rh", "xyz": [-0.3280681710501548, -11.0379218925, -6.826259219787055]}, {"species": [{"element": "Rh", "occu": 1}], "abc": [0.45585061, 0.40022979000000003, 0.25], "properties": {"magmom": -0.0}, "label": "Rh", "xyz": [-3.387364488949845, -3.6793072975, -3.034861014787054]}, {"species": [{"element": "Rh", "occu": 1}], "abc": [0.95585061, 0.09977021, 0.25], "properties": {"magmom": -0.0}, "label": "Rh", "xyz": [-7.102797148949845, -3.6793072975, -0.7565371902129461]}, {"species": [{"element": "Rh", "occu": 1}], "abc": [0.30427443, 0.14584498, 0.75], "properties": {"magmom": -0.0}, "label": "Rh", "xyz": [-2.2610223096497672, -11.0379218925, -1.105912790760522]}, {"species": [{"element": "Rh", "occu": 1}], "abc": [0.80427443, 0.35415502, 0.75], "properties": {"magmom": -0.0}, "label": "Rh", "xyz": [-5.976454969649767, -11.0379218925, -2.685485414239478]}, {"species": [{"element": "Rh", "occu": 1}], "abc": [0.69572557, 0.85415502, 0.25], "properties": {"magmom": -0.0}, "label": "Rh", "xyz": [-5.169843010350232, -3.6793072975, -6.476883619239478]}, {"species": [{"element": "Rh", "occu": 1}], "abc": [0.19572557000000002, 0.64584498, 0.25], "properties": {"magmom": -0.0}, "label": "Rh", "xyz": [-1.4544103503502324, -3.6793072975, -4.897310995760522]}]}, "task_ids": null, "uncorrected_energy_per_atom": null, "energy_per_atom": -6.596864906111114, "formation_energy_per_atom": -0.7024024444444481, "energy_above_hull": 0.0, "is_stable": true, "equilibrium_reaction_energy_per_atom": null, "decomposes_to": null, "xas": null, "grain_boundaries": null, "band_gap": 0.001, "cbm": null, "vbm": null, "efermi": 4.19535052, "is_gap_direct": null, "is_metal": null, "es_source_calc_id": null, "bandstructure": null, "dos": null, "dos_energy_up": null, "dos_energy_down": null, "is_magnetic": null, "ordering": null, "total_magnetization": 1.899999999999999e-06, "total_magnetization_normalized_vol": null, "total_magnetization_normalized_formula_units": null, "num_magnetic_sites": null, "num_unique_magnetic_sites": null, "types_of_magnetic_species": null, "bulk_modulus": null, "shear_modulus": null, "universal_anisotropy": null, "homogeneous_poisson": null, "e_total": null, "e_ionic": null, "e_electronic": null, "n": null, "e_ij_max": null, "weighted_surface_energy_EV_PER_ANG2": null, "weighted_surface_energy": null, "weighted_work_function": null, "surface_anisotropy": null, "shape_factor": null, "has_reconstructed": null, "possible_species": null, "has_props": null, "theoretical": null, "database_IDs": null, "fields_not_requested": ["builder_meta", "nsites", "elements", "nelements", "composition", "composition_reduced", "chemsys", "symmetry", "property_name", "deprecated", "deprecation_reasons", "last_updated", "origins", "warnings", "task_ids", "uncorrected_energy_per_atom", "equilibrium_reaction_energy_per_atom", "decomposes_to", "xas", "grain_boundaries", "cbm", "vbm", "is_gap_direct", "is_metal", "es_source_calc_id", "bandstructure", "dos", "dos_energy_up", "dos_energy_down", "is_magnetic", "ordering", "total_magnetization_normalized_vol", "total_magnetization_normalized_formula_units", "num_magnetic_sites", "num_unique_magnetic_sites", "types_of_magnetic_species", "bulk_modulus", "shear_modulus", "universal_anisotropy", "homogeneous_poisson", "e_total", "e_ionic", "e_electronic", "n", "e_ij_max", "weighted_surface_energy_EV_PER_ANG2", "weighted_surface_energy", "weighted_work_function", "surface_anisotropy", "shape_factor", "has_reconstructed", "possible_species", "has_props", "theoretical", "database_IDs"]}