{"builder_meta": null, "nsites": null, "elements": null, "nelements": null, "composition": null, "composition_reduced": null, "formula_pretty": "Sm5Ru2", "formula_anonymous": "A2B5", "chemsys": null, "volume": 381.354666931305, "density": 8.30751410459464, "density_atomic": 27.239619066521787, "symmetry": null, "property_name": null, "material_id": "mp-1104159", "deprecated": null, "deprecation_reasons": null, "last_updated": null, "origins": null, "warnings": null, "structure": {"@module": "pymatgen.core.structure", "@class": "Structure", "charge": 0, "lattice": {"matrix": [[-1e-08, 6.51137666, -0.0], [0.002275, -0.0, 7.28968317], [8.0339922, -3.25568937, -0.9595992400000001]], "pbc": [true, true, true], "a": 6.51137666, "b": 7.289683524996558, "c": 8.721546574146148, "alpha": 96.30025777078409, "beta": 111.91882848779537, "gamma": 90.00000000002747, "volume": 381.354666931305}, "properties": {}, "sites": [{"species": [{"element": "Sm", "occu": 1}], "abc": [0.9812064300000001, 0.91086391, 0.18654288], "properties": {"magmom": -0.0}, "label": "Sm", "xyz": [1.5007562484687216, 5.781678975478739, 6.460902909011984]}, {"species": [{"element": "Sm", "occu": 1}], "abc": [0.79466256, 0.58913609, 0.81345712], "properties": {"magmom": -0.0}, "label": "Sm", "xyz": [6.536648433772589, 2.5259835472250356, 3.5140226059880164]}, {"species": [{"element": "Sm", "occu": 1}], "abc": [0.01879357, 0.08913609, 0.81345712], "properties": {"magmom": -0.0}, "label": "Sm", "xyz": [6.535510941531278, -2.525991685478738, -0.13081897901198358]}, {"species": [{"element": "Sm", "occu": 1}], "abc": [0.20533744, 0.41086391, 0.18654288], "properties": {"magmom": -0.0}, "label": "Sm", "xyz": [1.4996187562274115, 0.7297037427749649, 2.8160613240119834]}, {"species": [{"element": "Sm", "occu": 1}], "abc": [0.64189769, 0.8135188, 0.43167448], "properties": {"magmom": -0.0}, "label": "Sm", "xyz": [3.4699201541100795, 2.7742396209376374, 5.516059801903201]}, {"species": [{"element": "Sm", "occu": 1}], "abc": [0.21022321, 0.6864812, 0.56832552], "properties": {"magmom": -0.0}, "label": "Sm", "xyz": [4.5674845373687125, -0.4814488511794439, 4.458865713096799]}, {"species": [{"element": "Sm", "occu": 1}], "abc": [0.35810231000000003, 0.18648119999999901, 0.56832552], "properties": {"magmom": -0.0}, "label": "Sm", "xyz": [4.566347035889922, 0.48144766906236236, 0.8140241280967919]}, {"species": [{"element": "Sm", "occu": 1}], "abc": [0.78977679, 0.3135188, 0.43167448], "properties": {"magmom": -0.0}, "label": "Sm", "xyz": [3.4687826526312886, 3.737136141179444, 1.8712182169032008]}, {"species": [{"element": "Sm", "occu": 1}], "abc": [0.42393698, 0.75, 0.0], "properties": {"magmom": -0.0}, "label": "Sm", "xyz": [0.0017062457606302, 2.760413356882887, 5.4672623775]}, {"species": [{"element": "Sm", "occu": 1}], "abc": [0.57606302, 0.25, -0.0], "properties": {"magmom": -0.0}, "label": "Sm", "xyz": [0.0005687442393698001, 3.750963303117113, 1.8224207925]}, {"species": [{"element": "Ru", "occu": 1}], "abc": [0.82859531, 0.57362283, 0.22186684], "properties": {"magmom": 0.0}, "label": "Ru", "xyz": [1.783781445650945, 4.672966649575974, 3.9686254387335693]}, {"species": [{"element": "Ru", "occu": 1}], "abc": [0.60672847, 0.92637717, 0.77813316], "properties": {"magmom": 0.0}, "label": "Ru", "xyz": [6.253623239995817, 1.4172777410590012, 6.00630007626643]}, {"species": [{"element": "Ru", "occu": 1}], "abc": [0.17140469, 0.42637717, 0.77813316], "properties": {"magmom": 0.0}, "label": "Ru", "xyz": [6.252485744349055, -1.4172793595759734, 2.361458491266431]}, {"species": [{"element": "Ru", "occu": 1}], "abc": [0.39327153000000004, 0.07362283, 0.22186684], "properties": {"magmom": 0.0}, "label": "Ru", "xyz": [1.7826439500041829, 1.838409548940999, 0.3237838537335695]}]}, "task_ids": null, "uncorrected_energy_per_atom": null, "energy_per_atom": -28.792296432142855, "formation_energy_per_atom": -0.290340404999998, "energy_above_hull": 0.0, "is_stable": true, "equilibrium_reaction_energy_per_atom": null, "decomposes_to": null, "xas": null, "grain_boundaries": null, "band_gap": 0.0, "cbm": null, "vbm": null, "efermi": 3.81778329, "is_gap_direct": null, "is_metal": null, "es_source_calc_id": null, "bandstructure": null, "dos": null, "dos_energy_up": null, "dos_energy_down": null, "is_magnetic": null, "ordering": null, "total_magnetization": 3e-07, "total_magnetization_normalized_vol": null, "total_magnetization_normalized_formula_units": null, "num_magnetic_sites": null, "num_unique_magnetic_sites": null, "types_of_magnetic_species": null, "bulk_modulus": null, "shear_modulus": null, "universal_anisotropy": null, "homogeneous_poisson": null, "e_total": null, "e_ionic": null, "e_electronic": null, "n": null, "e_ij_max": null, "weighted_surface_energy_EV_PER_ANG2": null, "weighted_surface_energy": null, "weighted_work_function": null, "surface_anisotropy": null, "shape_factor": null, "has_reconstructed": null, "possible_species": null, "has_props": null, "theoretical": null, "database_IDs": null, "fields_not_requested": ["builder_meta", "nsites", "elements", "nelements", "composition", "composition_reduced", "chemsys", "symmetry", "property_name", "deprecated", "deprecation_reasons", "last_updated", "origins", "warnings", "task_ids", "uncorrected_energy_per_atom", "equilibrium_reaction_energy_per_atom", "decomposes_to", "xas", "grain_boundaries", "cbm", "vbm", "is_gap_direct", "is_metal", "es_source_calc_id", "bandstructure", "dos", "dos_energy_up", "dos_energy_down", "is_magnetic", "ordering", "total_magnetization_normalized_vol", "total_magnetization_normalized_formula_units", "num_magnetic_sites", "num_unique_magnetic_sites", "types_of_magnetic_species", "bulk_modulus", "shear_modulus", "universal_anisotropy", "homogeneous_poisson", "e_total", "e_ionic", "e_electronic", "n", "e_ij_max", "weighted_surface_energy_EV_PER_ANG2", "weighted_surface_energy", "weighted_work_function", "surface_anisotropy", "shape_factor", "has_reconstructed", "possible_species", "has_props", "theoretical", "database_IDs"]}