{"builder_meta": null, "nsites": null, "elements": null, "nelements": null, "composition": null, "composition_reduced": null, "formula_pretty": "Sm5Sb3", "formula_anonymous": "A3B5", "chemsys": null, "volume": 471.92103575530723, "density": 7.861293902903404, "density_atomic": 29.495064734706702, "symmetry": null, "property_name": null, "material_id": "mp-980757", "deprecated": null, "deprecation_reasons": null, "last_updated": null, "origins": null, "warnings": null, "structure": {"@module": "pymatgen.core.structure", "@class": "Structure", "charge": 0, "lattice": {"matrix": [[9.20091514, -0.0007313700000000001, -1.05e-06], [-4.60113078, 7.969567, 1.04e-06], [-1.04e-06, 0.0, 6.43611086]], "pbc": [true, true, true], "a": 9.200915169067933, "b": 9.202412869576841, "c": 6.436110860000085, "alpha": 89.99998889569729, "beta": 90.00001579686749, "gamma": 120.00401046650798, "volume": 471.92103575530723}, "properties": {}, "sites": [{"species": [{"element": "Sm", "occu": 1}], "abc": [0.25009765, 0.00013662, 0.25], "properties": {"magmom": 0.066}, "label": "Sm", "xyz": [2.300498387876257, 0.0009058883252595, 1.6090274525395525]}, {"species": [{"element": "Sm", "occu": 1}], "abc": [0.74999613, 6.028e-05, 0.75], "properties": {"magmom": 0.066}, "label": "Sm", "xyz": [6.90037261129499, -6.811917083810007e-05, 4.827082357566755]}, {"species": [{"element": "Sm", "occu": 1}], "abc": [0.9999184, 0.25009991, 0.25], "properties": {"magmom": 0.067}, "label": "Sm", "xyz": [8.049421691348345, 1.9924566791187617, 1.6090269251895866]}, {"species": [{"element": "Sm", "occu": 1}], "abc": [0.7499672, 0.7499055, 0.25], "properties": {"magmom": 0.066}, "label": "Sm", "xyz": [3.449971026842116, 5.975873622407436, 1.60902770743616]}, {"species": [{"element": "Sm", "occu": 1}], "abc": [0.25010427, 0.2500029, 0.75], "properties": {"magmom": 0.066}, "label": "Sm", "xyz": [1.1508913461423858, 1.9922319429843498, 4.8270831423935325]}, {"species": [{"element": "Sm", "occu": 1}], "abc": [-5.89e-05, 0.74983059, 0.75], "properties": {"magmom": 0.067}, "label": "Sm", "xyz": [-3.450611321336306, 5.975825168732223, 4.827083924885659]}, {"species": [{"element": "Sm", "occu": 1}], "abc": [0.33332298, 0.66667286, -1.4110000000000002e-05], "properties": {"magmom": 0.28200000000000003}, "label": "Sm", "xyz": [-0.0005725631300395889, 5.312850242423737, -9.047017358920003e-05]}, {"species": [{"element": "Sm", "occu": 1}], "abc": [0.66667641, 0.33332011, 0.49999472], "properties": {"magmom": -0.137}, "label": "Sm", "xyz": [4.600383136541352, 2.655929361966388, 3.218021093977343]}, {"species": [{"element": "Sm", "occu": 1}], "abc": [0.66667641, 0.33332011, 5.28e-06], "properties": {"magmom": -0.137}, "label": "Sm", "xyz": [4.6003836565303695, 2.655929361966388, 3.3629308024700004e-05]}, {"species": [{"element": "Sm", "occu": 1}], "abc": [0.33332298, 0.66667286, 0.50001411], "properties": {"magmom": 0.28200000000000003}, "label": "Sm", "xyz": [-0.0005730831593883889, 5.312850242423737, 3.2181465868748798]}, {"species": [{"element": "Sb", "occu": 1}], "abc": [0.61430405, -0.00019868000000000002, 0.25], "properties": {"magmom": -0.015}, "label": "Sb", "xyz": [5.653073326871687, -0.0020326771246085003, 1.6090270697741205]}, {"species": [{"element": "Sb", "occu": 1}], "abc": [0.38571771, 7.999e-05, 0.75], "properties": {"magmom": -0.015}, "label": "Sb", "xyz": [3.548587093254037, 0.00035538330276729997, 4.827082740079595]}, {"species": [{"element": "Sb", "occu": 1}], "abc": [3.919e-05, 0.61464114, 0.25], "properties": {"magmom": -0.015}, "label": "Sb", "xyz": [-2.827683944043953, 4.89842371752399, 1.6090283541856363]}, {"species": [{"element": "Sb", "occu": 1}], "abc": [0.38562053, 0.38559677000000003, 0.25], "properties": {"magmom": -0.015}, "label": "Sb", "xyz": [1.7738803456562433, 3.0727572622115638, 1.6090277111190843]}, {"species": [{"element": "Sb", "occu": 1}], "abc": [0.61427368, 0.61441629, 0.75], "properties": {"magmom": -0.015}, "label": "Sb", "xyz": [2.824869518763109, 4.896182527705088, 4.827083139005578]}, {"species": [{"element": "Sb", "occu": 1}], "abc": [1.7290000000000002e-05, 0.38544675, 0.75], "properties": {"magmom": -0.015}, "label": "Sb", "xyz": [-1.7733326016531945, 3.0718436864118623, 4.827083545846466]}]}, "task_ids": null, "uncorrected_energy_per_atom": null, "energy_per_atom": -29.34466898875, "formation_energy_per_atom": -1.121722890000001, "energy_above_hull": 0.0, "is_stable": true, "equilibrium_reaction_energy_per_atom": null, "decomposes_to": null, "xas": null, "grain_boundaries": null, "band_gap": 0.0, "cbm": null, "vbm": null, "efermi": 5.121168, "is_gap_direct": null, "is_metal": null, "es_source_calc_id": null, "bandstructure": null, "dos": null, "dos_energy_up": null, "dos_energy_down": null, "is_magnetic": null, "ordering": null, "total_magnetization": 1.316361699999999, "total_magnetization_normalized_vol": null, "total_magnetization_normalized_formula_units": null, "num_magnetic_sites": null, "num_unique_magnetic_sites": null, "types_of_magnetic_species": null, "bulk_modulus": null, "shear_modulus": null, "universal_anisotropy": null, "homogeneous_poisson": null, "e_total": null, "e_ionic": null, "e_electronic": null, "n": null, "e_ij_max": null, "weighted_surface_energy_EV_PER_ANG2": null, "weighted_surface_energy": null, "weighted_work_function": null, "surface_anisotropy": null, "shape_factor": null, "has_reconstructed": null, "possible_species": null, "has_props": null, "theoretical": null, "database_IDs": null, "fields_not_requested": ["builder_meta", "nsites", "elements", "nelements", "composition", "composition_reduced", "chemsys", "symmetry", "property_name", "deprecated", "deprecation_reasons", "last_updated", "origins", "warnings", "task_ids", "uncorrected_energy_per_atom", "equilibrium_reaction_energy_per_atom", "decomposes_to", "xas", "grain_boundaries", "cbm", "vbm", "is_gap_direct", "is_metal", "es_source_calc_id", "bandstructure", "dos", "dos_energy_up", "dos_energy_down", "is_magnetic", "ordering", "total_magnetization_normalized_vol", "total_magnetization_normalized_formula_units", "num_magnetic_sites", "num_unique_magnetic_sites", "types_of_magnetic_species", "bulk_modulus", "shear_modulus", "universal_anisotropy", "homogeneous_poisson", "e_total", "e_ionic", "e_electronic", "n", "e_ij_max", "weighted_surface_energy_EV_PER_ANG2", "weighted_surface_energy", "weighted_work_function", "surface_anisotropy", "shape_factor", "has_reconstructed", "possible_species", "has_props", "theoretical", "database_IDs"]}