{
  "builder_meta": null,
  "nsites": null,
  "elements": null,
  "nelements": null,
  "composition": null,
  "composition_reduced": null,
  "formula_pretty": "Sm5Sn4",
  "formula_anonymous": "A4B5",
  "chemsys": null,
  "volume": 1087.9946801735707,
  "density": 7.488579412279018,
  "density_atomic": 30.222074449265854,
  "symmetry": null,
  "property_name": null,
  "material_id": "mp-1198128",
  "deprecated": null,
  "deprecation_reasons": null,
  "last_updated": null,
  "origins": null,
  "warnings": null,
  "structure": {
    "@module": "pymatgen.core.structure",
    "@class": "Structure",
    "charge": 0,
    "lattice": {
      "matrix": [
        [-8.18922, 0.0, 0.0],
        [0.0, 0.0, -8.364556],
        [0.0, -15.883322, 0.0]
      ],
      "pbc": [true, true, true],
      "a": 8.18922,
      "b": 8.364556,
      "c": 15.883322,
      "alpha": 90.0,
      "beta": 90.0,
      "gamma": 90.0,
      "volume": 1087.9946801735707
    },
    "properties": {},
    "sites": [
      {
        "species": [{ "element": "Sm", "occu": 1 }],
        "abc": [0.367255, 0.834276, 0.879123999999999],
        "properties": { "magmom": -0.0 },
        "label": "Sm",
        "xyz": [-3.0075319911, -13.963409569927984, -6.978348321456]
      },
      {
        "species": [{ "element": "Sm", "occu": 1 }],
        "abc": [0.867255, 0.665724, 0.620876],
        "properties": { "magmom": -0.0 },
        "label": "Sm",
        "xyz": [-7.102141991100001, -9.861573430072, -5.5684856785440005]
      },
      {
        "species": [{ "element": "Sm", "occu": 1 }],
        "abc": [0.632745, 0.165723999999999, 0.379123999999999],
        "properties": { "magmom": -0.0 },
        "label": "Sm",
        "xyz": [-5.1816880089, -6.0217485699279845, -1.3862076785439919]
      },
      {
        "species": [{ "element": "Sm", "occu": 1 }],
        "abc": [0.132745, 0.334275999999999, 0.120876],
        "properties": { "magmom": -0.0 },
        "label": "Sm",
        "xyz": [-1.0870780089, -1.9199124300719999, -2.796070321455992]
      },
      {
        "species": [{ "element": "Sm", "occu": 1 }],
        "abc": [0.632745, 0.165723999999999, 0.120876],
        "properties": { "magmom": -0.0 },
        "label": "Sm",
        "xyz": [-5.1816880089, -1.9199124300719999, -1.3862076785439919]
      },
      {
        "species": [{ "element": "Sm", "occu": 1 }],
        "abc": [0.132745, 0.334275999999999, 0.379123999999999],
        "properties": { "magmom": -0.0 },
        "label": "Sm",
        "xyz": [-1.0870780089, -6.0217485699279845, -2.796070321455992]
      },
      {
        "species": [{ "element": "Sm", "occu": 1 }],
        "abc": [0.367255, 0.834276, 0.620876],
        "properties": { "magmom": -0.0 },
        "label": "Sm",
        "xyz": [-3.0075319911, -9.861573430072, -6.978348321456]
      },
      {
        "species": [{ "element": "Sm", "occu": 1 }],
        "abc": [0.867255, 0.665724, 0.879123999999999],
        "properties": { "magmom": -0.0 },
        "label": "Sm",
        "xyz": [-7.102141991100001, -13.963409569927984, -5.5684856785440005]
      },
      {
        "species": [{ "element": "Sm", "occu": 1 }],
        "abc": [0.520382999999999, 0.319463999999999, 0.900490999999999],
        "properties": { "magmom": 0.0 },
        "label": "Sm",
        "xyz": [-4.261530871259993, -14.302788511101985, -2.6721745179839917]
      },
      {
        "species": [{ "element": "Sm", "occu": 1 }],
        "abc": [0.020383, 0.180536, 0.599509],
        "properties": { "magmom": 0.0 },
        "label": "Sm",
        "xyz": [-0.16692087126, -9.522194488897998, -1.510103482016]
      },
      {
        "species": [{ "element": "Sm", "occu": 1 }],
        "abc": [0.479616999999999, 0.680535999999999, 0.400491],
        "properties": { "magmom": 0.0 },
        "label": "Sm",
        "xyz": [-3.9276891287399924, -6.361127511102, -5.692381482015992]
      },
      {
        "species": [{ "element": "Sm", "occu": 1 }],
        "abc": [0.979617, 0.819464, 0.099509],
        "properties": { "magmom": 0.0 },
        "label": "Sm",
        "xyz": [-8.02229912874, -1.580533488898, -6.854452517984]
      },
      {
        "species": [{ "element": "Sm", "occu": 1 }],
        "abc": [0.479616999999999, 0.680535999999999, 0.099509],
        "properties": { "magmom": 0.0 },
        "label": "Sm",
        "xyz": [-3.9276891287399924, -1.580533488898, -5.692381482015992]
      },
      {
        "species": [{ "element": "Sm", "occu": 1 }],
        "abc": [0.979617, 0.819464, 0.400491],
        "properties": { "magmom": 0.0 },
        "label": "Sm",
        "xyz": [-8.02229912874, -6.361127511102, -6.854452517984]
      },
      {
        "species": [{ "element": "Sm", "occu": 1 }],
        "abc": [0.520382999999999, 0.319463999999999, 0.599509],
        "properties": { "magmom": 0.0 },
        "label": "Sm",
        "xyz": [-4.261530871259993, -9.522194488897998, -2.6721745179839917]
      },
      {
        "species": [{ "element": "Sm", "occu": 1 }],
        "abc": [0.020383, 0.180536, 0.900490999999999],
        "properties": { "magmom": 0.0 },
        "label": "Sm",
        "xyz": [-0.16692087126, -14.302788511101985, -1.510103482016]
      },
      {
        "species": [{ "element": "Sm", "occu": 1 }],
        "abc": [0.197215, 0.502046, 0.75],
        "properties": { "magmom": 0.0 },
        "label": "Sm",
        "xyz": [-1.6150370223000001, -11.9124915, -4.199391881576]
      },
      {
        "species": [{ "element": "Sm", "occu": 1 }],
        "abc": [0.697214999999999, 0.997954, 0.75],
        "properties": { "magmom": 0.0 },
        "label": "Sm",
        "xyz": [-5.709647022299992, -11.9124915, -8.347442118424]
      },
      {
        "species": [{ "element": "Sm", "occu": 1 }],
        "abc": [0.802785, 0.49795399999999906, 0.25],
        "properties": { "magmom": 0.0 },
        "label": "Sm",
        "xyz": [-6.5741829777000005, -3.9708305, -4.165164118423992]
      },
      {
        "species": [{ "element": "Sm", "occu": 1 }],
        "abc": [0.302784999999999, 0.002046, 0.25],
        "properties": { "magmom": 0.0 },
        "label": "Sm",
        "xyz": [-2.479572977699992, -3.9708305, -0.017113881576000002]
      },
      {
        "species": [{ "element": "Sn", "occu": 1 }],
        "abc": [0.293296, 0.033350000000000005, 0.041394],
        "properties": { "magmom": -0.0 },
        "label": "Sn",
        "xyz": [-2.40186546912, -0.6574742308679999, -0.27895794260000006]
      },
      {
        "species": [{ "element": "Sn", "occu": 1 }],
        "abc": [0.793296, 0.46665000000000006, 0.458605999999999],
        "properties": { "magmom": -0.0 },
        "label": "Sn",
        "xyz": [-6.496475469120001, -7.284186769131984, -3.9033200574000007]
      },
      {
        "species": [{ "element": "Sn", "occu": 1 }],
        "abc": [0.706704, 0.9666500000000001, 0.541393999999999],
        "properties": { "magmom": -0.0 },
        "label": "Sn",
        "xyz": [-5.78735453088, -8.599135230867985, -8.085598057400002]
      },
      {
        "species": [{ "element": "Sn", "occu": 1 }],
        "abc": [0.206704, 0.53335, 0.958606],
        "properties": { "magmom": -0.0 },
        "label": "Sn",
        "xyz": [-1.6927445308800002, -15.225847769131999, -4.4612359426]
      },
      {
        "species": [{ "element": "Sn", "occu": 1 }],
        "abc": [0.706704, 0.9666500000000001, 0.958606],
        "properties": { "magmom": -0.0 },
        "label": "Sn",
        "xyz": [-5.78735453088, -15.225847769131999, -8.085598057400002]
      },
      {
        "species": [{ "element": "Sn", "occu": 1 }],
        "abc": [0.206704, 0.53335, 0.541393999999999],
        "properties": { "magmom": -0.0 },
        "label": "Sn",
        "xyz": [-1.6927445308800002, -8.599135230867985, -4.4612359426]
      },
      {
        "species": [{ "element": "Sn", "occu": 1 }],
        "abc": [0.293296, 0.033350000000000005, 0.458605999999999],
        "properties": { "magmom": -0.0 },
        "label": "Sn",
        "xyz": [-2.40186546912, -7.284186769131984, -0.27895794260000006]
      },
      {
        "species": [{ "element": "Sn", "occu": 1 }],
        "abc": [0.793296, 0.46665000000000006, 0.041394],
        "properties": { "magmom": -0.0 },
        "label": "Sn",
        "xyz": [-6.496475469120001, -0.6574742308679999, -3.9033200574000007]
      },
      {
        "species": [{ "element": "Sn", "occu": 1 }],
        "abc": [0.566031, 0.618916, 0.75],
        "properties": { "magmom": -0.0 },
        "label": "Sn",
        "xyz": [-4.63535238582, -11.9124915, -5.176957541296001]
      },
      {
        "species": [{ "element": "Sn", "occu": 1 }],
        "abc": [0.06603099999999901, 0.881084, 0.75],
        "properties": { "magmom": -0.0 },
        "label": "Sn",
        "xyz": [-0.5407423858199919, -11.9124915, -7.369876458704]
      },
      {
        "species": [{ "element": "Sn", "occu": 1 }],
        "abc": [0.433969, 0.381084, 0.25],
        "properties": { "magmom": -0.0 },
        "label": "Sn",
        "xyz": [-3.55386761418, -3.9708305, -3.187598458704]
      },
      {
        "species": [{ "element": "Sn", "occu": 1 }],
        "abc": [0.933968999999999, 0.118916, 0.25],
        "properties": { "magmom": -0.0 },
        "label": "Sn",
        "xyz": [-7.648477614179993, -3.9708305, -0.994679541296]
      },
      {
        "species": [{ "element": "Sn", "occu": 1 }],
        "abc": [0.325706999999999, 0.144309, 0.75],
        "properties": { "magmom": 0.0 },
        "label": "Sn",
        "xyz": [-2.6672862785399922, -11.9124915, -1.207080711804]
      },
      {
        "species": [{ "element": "Sn", "occu": 1 }],
        "abc": [0.825707, 0.355691, 0.75],
        "properties": { "magmom": 0.0 },
        "label": "Sn",
        "xyz": [-6.76189627854, -11.9124915, -2.975197288196]
      },
      {
        "species": [{ "element": "Sn", "occu": 1 }],
        "abc": [0.674292999999999, 0.855691, 0.25],
        "properties": { "magmom": 0.0 },
        "label": "Sn",
        "xyz": [-5.521933721459993, -3.9708305, -7.157475288196]
      },
      {
        "species": [{ "element": "Sn", "occu": 1 }],
        "abc": [0.174293, 0.644309, 0.25],
        "properties": { "magmom": 0.0 },
        "label": "Sn",
        "xyz": [-1.42732372146, -3.9708305, -5.389358711804]
      }
    ]
  },
  "task_ids": null,
  "uncorrected_energy_per_atom": null,
  "energy_per_atom": -5.157903792777778,
  "formation_energy_per_atom": -0.7544351155555561,
  "energy_above_hull": 0.0,
  "is_stable": true,
  "equilibrium_reaction_energy_per_atom": null,
  "decomposes_to": null,
  "xas": null,
  "grain_boundaries": null,
  "band_gap": 0.0,
  "cbm": null,
  "vbm": null,
  "efermi": 4.99573867,
  "is_gap_direct": null,
  "is_metal": null,
  "es_source_calc_id": null,
  "bandstructure": null,
  "dos": null,
  "dos_energy_up": null,
  "dos_energy_down": null,
  "is_magnetic": null,
  "ordering": null,
  "total_magnetization": 0.00040419999999900005,
  "total_magnetization_normalized_vol": null,
  "total_magnetization_normalized_formula_units": null,
  "num_magnetic_sites": null,
  "num_unique_magnetic_sites": null,
  "types_of_magnetic_species": null,
  "bulk_modulus": null,
  "shear_modulus": null,
  "universal_anisotropy": null,
  "homogeneous_poisson": null,
  "e_total": null,
  "e_ionic": null,
  "e_electronic": null,
  "n": null,
  "e_ij_max": null,
  "weighted_surface_energy_EV_PER_ANG2": null,
  "weighted_surface_energy": null,
  "weighted_work_function": null,
  "surface_anisotropy": null,
  "shape_factor": null,
  "has_reconstructed": null,
  "possible_species": null,
  "has_props": null,
  "theoretical": null,
  "database_IDs": null,
  "fields_not_requested": [
    "builder_meta",
    "nsites",
    "elements",
    "nelements",
    "composition",
    "composition_reduced",
    "chemsys",
    "symmetry",
    "property_name",
    "deprecated",
    "deprecation_reasons",
    "last_updated",
    "origins",
    "warnings",
    "task_ids",
    "uncorrected_energy_per_atom",
    "equilibrium_reaction_energy_per_atom",
    "decomposes_to",
    "xas",
    "grain_boundaries",
    "cbm",
    "vbm",
    "is_gap_direct",
    "is_metal",
    "es_source_calc_id",
    "bandstructure",
    "dos",
    "dos_energy_up",
    "dos_energy_down",
    "is_magnetic",
    "ordering",
    "total_magnetization_normalized_vol",
    "total_magnetization_normalized_formula_units",
    "num_magnetic_sites",
    "num_unique_magnetic_sites",
    "types_of_magnetic_species",
    "bulk_modulus",
    "shear_modulus",
    "universal_anisotropy",
    "homogeneous_poisson",
    "e_total",
    "e_ionic",
    "e_electronic",
    "n",
    "e_ij_max",
    "weighted_surface_energy_EV_PER_ANG2",
    "weighted_surface_energy",
    "weighted_work_function",
    "surface_anisotropy",
    "shape_factor",
    "has_reconstructed",
    "possible_species",
    "has_props",
    "theoretical",
    "database_IDs"
  ]
}
