{
  "builder_meta": null,
  "nsites": null,
  "elements": null,
  "nelements": null,
  "composition": null,
  "composition_reduced": null,
  "formula_pretty": "Sm5Si3",
  "formula_anonymous": "A3B5",
  "chemsys": null,
  "volume": 427.041712127868,
  "density": 6.5019619428612945,
  "density_atomic": 26.69010700799175,
  "symmetry": null,
  "property_name": null,
  "material_id": "mp-1106373",
  "deprecated": null,
  "deprecation_reasons": null,
  "last_updated": null,
  "origins": null,
  "warnings": null,
  "structure": {
    "@module": "pymatgen.core.structure",
    "@class": "Structure",
    "charge": 0,
    "lattice": {
      "matrix": [
        [0.0, 0.0, -6.58312429],
        [-4.32735751, -7.49522551, 0.0],
        [-4.32736898, 7.49523211, -0.0]
      ],
      "pbc": [true, true, true],
      "a": 6.58312429,
      "b": 8.65473445376045,
      "c": 8.654745904522056,
      "alpha": 120.00010464395777,
      "beta": 90.0,
      "gamma": 90.0,
      "volume": 427.041712127868
    },
    "properties": {},
    "sites": [
      {
        "species": [{ "element": "Sm", "occu": 1 }],
        "abc": [0.49999996, 0.333332099999999, 0.66666848],
        "properties": { "magmom": 0.0 },
        "label": "Sm",
        "xyz": [-4.327367666554817, 2.498435738799029, -3.2915618816750283]
      },
      {
        "species": [{ "element": "Sm", "occu": 1 }],
        "abc": [0.49999996, 0.66666362, 0.33333152],
        "properties": { "magmom": 0.0 },
        "label": "Sm",
        "xyz": [-4.327340302355036, -2.4983970592338394, -3.2915618816750283]
      },
      {
        "species": [{ "element": "Sm", "occu": 1 }],
        "abc": [-4e-8, 0.6666679, 0.33333152],
        "properties": { "magmom": 0.0 },
        "label": "Sm",
        "xyz": [-4.327358823445178, -2.4984291387990214, 2.633249716e-7]
      },
      {
        "species": [{ "element": "Sm", "occu": 1 }],
        "abc": [-4e-8, 0.33333638, 0.66666848],
        "properties": { "magmom": 0.0 },
        "label": "Sm",
        "xyz": [-4.327386187644964, 2.498403659233839, 2.633249716e-7]
      },
      {
        "species": [{ "element": "Sm", "occu": 1 }],
        "abc": [0.75000212, 0.24462491, 0.0],
        "properties": { "magmom": 0.0 },
        "label": "Sm",
        "xyz": [-1.0585794414215741, -1.833518865813454, -4.937357173723495]
      },
      {
        "species": [{ "element": "Sm", "occu": 1 }],
        "abc": [0.7499985100000001, 0.75536726, 0.75536699],
        "properties": { "magmom": -0.0 },
        "label": "Sm",
        "xyz": [-6.537495866411092, 2.961711246030063e-6, -4.937333408644808]
      },
      {
        "species": [{ "element": "Sm", "occu": 1 }],
        "abc": [0.7499985100000001, 2.799999999999998e-7, 0.24463401],
        "properties": { "magmom": -0.0 },
        "label": "Sm",
        "xyz": [-1.0586228379871125, 1.8335865882869185, -4.937333408644808]
      },
      {
        "species": [{ "element": "Sm", "occu": 1 }],
        "abc": [0.25000212, 0.75537509, -0.0],
        "properties": { "magmom": 0.0 },
        "label": "Sm",
        "xyz": [-3.268778068578426, -5.6617066441865465, -1.6457950287234948]
      },
      {
        "species": [{ "element": "Sm", "occu": 1 }],
        "abc": [0.24999851, 0.24463274000000002, 0.24463301],
        "properties": { "magmom": -0.0 },
        "label": "Sm",
        "xyz": [-2.117230623588907, 3.6382887536046127e-6, -1.6457712636448079]
      },
      {
        "species": [{ "element": "Sm", "occu": 1 }],
        "abc": [0.24999851, 0.99999972, 0.75536599],
        "properties": { "magmom": -0.0 },
        "label": "Sm",
        "xyz": [-7.5961036520128875, -1.8335799882869184, -1.6457712636448079]
      },
      {
        "species": [{ "element": "Si", "occu": 1 }],
        "abc": [0.74999704, 0.60685683, -0.0],
        "properties": { "magmom": -0.0 },
        "label": "Si",
        "xyz": [-2.626086460795293, -4.548528793133733, -4.937323731452102]
      },
      {
        "species": [{ "element": "Si", "occu": 1 }],
        "abc": [0.75000144, 0.39314421, 0.39314209],
        "properties": { "magmom": 0.0 },
        "label": "Si",
        "xyz": [-3.4025464346548855, -1.3295140286917473e-5, -4.937352697198977]
      },
      {
        "species": [{ "element": "Si", "occu": 1 }],
        "abc": [0.75000144, 1.129999999999999e-6, 0.60685791],
        "properties": { "magmom": 0.0 },
        "label": "Si",
        "xyz": [-2.626102984915618, 4.548532423634664, -4.937352697198977]
      },
      {
        "species": [{ "element": "Si", "occu": 1 }],
        "abc": [0.24999704, 0.39314317, 0.0],
        "properties": { "magmom": -0.0 },
        "label": "Si",
        "xyz": [-1.7012710492047065, -2.9466967168662666, -1.6457615864521016]
      },
      {
        "species": [{ "element": "Si", "occu": 1 }],
        "abc": [0.25000144, 0.60685579, 0.60685791],
        "properties": { "magmom": 0.0 },
        "label": "Si",
        "xyz": [-5.252180055345114, 1.9895140287218283e-5, -1.6457905521989777]
      },
      {
        "species": [{ "element": "Si", "occu": 1 }],
        "abc": [0.25000144, 0.99999887, 0.39314209],
        "properties": { "magmom": 0.0 },
        "label": "Si",
        "xyz": [-6.028623505084381, -4.548525823634664, -1.6457905521989777]
      }
    ]
  },
  "task_ids": null,
  "uncorrected_energy_per_atom": null,
  "energy_per_atom": -22.572993890625,
  "formation_energy_per_atom": -0.6997544675,
  "energy_above_hull": 0.0,
  "is_stable": true,
  "equilibrium_reaction_energy_per_atom": null,
  "decomposes_to": null,
  "xas": null,
  "grain_boundaries": null,
  "band_gap": 0.0,
  "cbm": null,
  "vbm": null,
  "efermi": 4.07952156,
  "is_gap_direct": null,
  "is_metal": null,
  "es_source_calc_id": null,
  "bandstructure": null,
  "dos": null,
  "dos_energy_up": null,
  "dos_energy_down": null,
  "is_magnetic": null,
  "ordering": null,
  "total_magnetization": 5.5e-6,
  "total_magnetization_normalized_vol": null,
  "total_magnetization_normalized_formula_units": null,
  "num_magnetic_sites": null,
  "num_unique_magnetic_sites": null,
  "types_of_magnetic_species": null,
  "bulk_modulus": null,
  "shear_modulus": null,
  "universal_anisotropy": null,
  "homogeneous_poisson": null,
  "e_total": null,
  "e_ionic": null,
  "e_electronic": null,
  "n": null,
  "e_ij_max": null,
  "weighted_surface_energy_EV_PER_ANG2": null,
  "weighted_surface_energy": null,
  "weighted_work_function": null,
  "surface_anisotropy": null,
  "shape_factor": null,
  "has_reconstructed": null,
  "possible_species": null,
  "has_props": null,
  "theoretical": null,
  "database_IDs": null,
  "fields_not_requested": [
    "builder_meta",
    "nsites",
    "elements",
    "nelements",
    "composition",
    "composition_reduced",
    "chemsys",
    "symmetry",
    "property_name",
    "deprecated",
    "deprecation_reasons",
    "last_updated",
    "origins",
    "warnings",
    "task_ids",
    "uncorrected_energy_per_atom",
    "equilibrium_reaction_energy_per_atom",
    "decomposes_to",
    "xas",
    "grain_boundaries",
    "cbm",
    "vbm",
    "is_gap_direct",
    "is_metal",
    "es_source_calc_id",
    "bandstructure",
    "dos",
    "dos_energy_up",
    "dos_energy_down",
    "is_magnetic",
    "ordering",
    "total_magnetization_normalized_vol",
    "total_magnetization_normalized_formula_units",
    "num_magnetic_sites",
    "num_unique_magnetic_sites",
    "types_of_magnetic_species",
    "bulk_modulus",
    "shear_modulus",
    "universal_anisotropy",
    "homogeneous_poisson",
    "e_total",
    "e_ionic",
    "e_electronic",
    "n",
    "e_ij_max",
    "weighted_surface_energy_EV_PER_ANG2",
    "weighted_surface_energy",
    "weighted_work_function",
    "surface_anisotropy",
    "shape_factor",
    "has_reconstructed",
    "possible_species",
    "has_props",
    "theoretical",
    "database_IDs"
  ]
}
