{
  "builder_meta": null,
  "nsites": null,
  "elements": null,
  "nelements": null,
  "composition": null,
  "composition_reduced": null,
  "formula_pretty": "Sm5Sn3",
  "formula_anonymous": "A3B5",
  "chemsys": null,
  "volume": 490.9945395033779,
  "density": 7.4940183649251395,
  "density_atomic": 30.68715871896112,
  "symmetry": null,
  "property_name": null,
  "material_id": "mp-1189874",
  "deprecated": null,
  "deprecation_reasons": null,
  "last_updated": null,
  "origins": null,
  "warnings": null,
  "structure": {
    "@module": "pymatgen.core.structure",
    "@class": "Structure",
    "charge": 0,
    "lattice": {
      "matrix": [
        [3e-7, -2.299999999999999e-7, -6.76376749],
        [-4.57773109, -7.92887346, 4.599999999999998e-7],
        [-4.57767151, 7.92883909, -4.099999999999998e-7]
      ],
      "pbc": [true, true, true],
      "a": 6.763767490000011,
      "b": 9.155471384753772,
      "c": 9.155411829545292,
      "alpha": 120.00028187561686,
      "beta": 90.00000039210876,
      "gamma": 90.00000246206777,
      "volume": 490.9945395033779
    },
    "properties": {},
    "sites": [
      {
        "species": [{ "element": "Sm", "occu": 1 }],
        "abc": [0.50000057, 0.33333904000000003, 0.66668305],
        "properties": { "magmom": 0.07200000000000001 },
        "label": "Sm",
        "xyz": [-4.577792341103489, 2.643019445042415, -3.3818877203515614]
      },
      {
        "species": [{ "element": "Sm", "occu": 1 }],
        "abc": [0.50000067, 0.66665732, 0.33331571],
        "properties": { "magmom": 0.07200000000000001 },
        "label": "Sm",
        "xyz": [-4.5775876196422995, -2.643035015703778, -3.3818881067212927]
      },
      {
        "species": [{ "element": "Sm", "occu": 1 }],
        "abc": [6.3e-7, 0.66666007, 0.33331599],
        "properties": { "magmom": 0.07200000000000001 },
        "label": "Sm",
        "xyz": [-4.577601640150832, -2.643054485030839, -4.091169442400001e-6]
      },
      {
        "species": [{ "element": "Sm", "occu": 1 }],
        "abc": [7.1e-7, 0.33334176, 0.6666827200000001],
        "properties": { "magmom": 0.07200000000000001 },
        "label": "Sm",
        "xyz": [-4.5778034319004135, 2.642995376989673, -4.9222776235e-6]
      },
      {
        "species": [{ "element": "Sm", "occu": 1 }],
        "abc": [0.7499973600000001, 0.24036262, 1.07e-6],
        "properties": { "magmom": 0.053 },
        "label": "Sm",
        "xyz": [-1.1003201115571637, -1.9057964871356317, -5.07280765058746]
      },
      {
        "species": [{ "element": "Sm", "occu": 1 }],
        "abc": [0.74999858, 0.75966018, 0.75963939],
        "properties": { "magmom": 0.053 },
        "label": "Sm",
        "xyz": [
          -6.954899392298202, -0.00019112258474063282, -5.0728159749586315
        ]
      },
      {
        "species": [{ "element": "Sm", "occu": 1 }],
        "abc": [0.74999856, 2.6170000000000002e-5, 0.24036256],
        "properties": { "magmom": 0.053 },
        "label": "Sm",
        "xyz": [-1.100420417205723, 1.9055883903823536, -5.072815976211425]
      },
      {
        "species": [{ "element": "Sm", "occu": 1 }],
        "abc": [0.249997299999999, 0.75963746, -1.22e-6],
        "properties": { "magmom": 0.053 },
        "label": "Sm",
        "xyz": [-3.4774103580121993, -6.02307902649888, -1.6909232608940383]
      },
      {
        "species": [{ "element": "Sm", "occu": 1 }],
        "abc": [0.24999857, 0.24033831, 0.24036226],
        "properties": { "magmom": 0.053 },
        "label": "Sm",
        "xyz": [
          -2.2005035484866995, 0.00018157776881966292, -1.6909321883053934
        ]
      },
      {
        "species": [{ "element": "Sm", "occu": 1 }],
        "abc": [0.24999862, 0.99997936, 0.7596398400000001],
        "properties": { "magmom": 0.053 },
        "label": "Sm",
        "xyz": [-8.055018184059675, -1.9056478078381218, -1.6909323899626925]
      },
      {
        "species": [{ "element": "Sn", "occu": 1 }],
        "abc": [0.7499993500000001, 0.60573121, 0.99996023],
        "properties": { "magmom": -0.022 },
        "label": "Sn",
        "xyz": [-7.350363823204562, 3.1257574727068533, -5.07282135239847]
      },
      {
        "species": [{ "element": "Sn", "occu": 1 }],
        "abc": [0.75000032, 0.39425709999999903, 0.39429683],
        "properties": { "magmom": -0.022 },
        "label": "Sn",
        "xyz": [-3.6097641242974516, 0.00030128966045239736, -5.072827762209031]
      },
      {
        "species": [{ "element": "Sn", "occu": 1 }],
        "abc": [0.75000057, 4.4710000000000004e-5, 0.60574447],
        "properties": { "magmom": -0.022 },
        "label": "Sn",
        "xyz": [-2.773103648015913, 4.802495759854804, -5.072829721182135]
      },
      {
        "species": [{ "element": "Sn", "occu": 1 }],
        "abc": [0.24999906, 0.394226199999999, 0.99996019],
        "properties": { "magmom": -0.022 },
        "label": "Sn",
        "xyz": [-6.382150730130023, 4.8027537309994, -1.6909357431981853]
      },
      {
        "species": [{ "element": "Sn", "occu": 1 }],
        "abc": [0.25000059, 0.6056983, 0.60574152],
        "properties": { "magmom": -0.022 },
        "label": "Sn",
        "xyz": [-5.545609562598066, 0.00032180907476409004, -1.6909458328556244]
      },
      {
        "species": [{ "element": "Sn", "occu": 1 }],
        "abc": [0.25000056, 3.919e-5, 0.39429439],
        "properties": { "magmom": -0.022 },
        "label": "Sn",
        "xyz": [-1.805129521937078, 3.125985982348679, -1.690945821852467]
      }
    ]
  },
  "task_ids": null,
  "uncorrected_energy_per_atom": null,
  "energy_per_atom": -5.160710318125002,
  "formation_energy_per_atom": -0.7080045381250021,
  "energy_above_hull": 0.0,
  "is_stable": true,
  "equilibrium_reaction_energy_per_atom": null,
  "decomposes_to": null,
  "xas": null,
  "grain_boundaries": null,
  "band_gap": 0.0,
  "cbm": null,
  "vbm": null,
  "efermi": 4.57925569,
  "is_gap_direct": null,
  "is_metal": null,
  "es_source_calc_id": null,
  "bandstructure": null,
  "dos": null,
  "dos_energy_up": null,
  "dos_energy_down": null,
  "is_magnetic": null,
  "ordering": null,
  "total_magnetization": 1.1046054,
  "total_magnetization_normalized_vol": null,
  "total_magnetization_normalized_formula_units": null,
  "num_magnetic_sites": null,
  "num_unique_magnetic_sites": null,
  "types_of_magnetic_species": null,
  "bulk_modulus": null,
  "shear_modulus": null,
  "universal_anisotropy": null,
  "homogeneous_poisson": null,
  "e_total": null,
  "e_ionic": null,
  "e_electronic": null,
  "n": null,
  "e_ij_max": null,
  "weighted_surface_energy_EV_PER_ANG2": null,
  "weighted_surface_energy": null,
  "weighted_work_function": null,
  "surface_anisotropy": null,
  "shape_factor": null,
  "has_reconstructed": null,
  "possible_species": null,
  "has_props": null,
  "theoretical": null,
  "database_IDs": null,
  "fields_not_requested": [
    "builder_meta",
    "nsites",
    "elements",
    "nelements",
    "composition",
    "composition_reduced",
    "chemsys",
    "symmetry",
    "property_name",
    "deprecated",
    "deprecation_reasons",
    "last_updated",
    "origins",
    "warnings",
    "task_ids",
    "uncorrected_energy_per_atom",
    "equilibrium_reaction_energy_per_atom",
    "decomposes_to",
    "xas",
    "grain_boundaries",
    "cbm",
    "vbm",
    "is_gap_direct",
    "is_metal",
    "es_source_calc_id",
    "bandstructure",
    "dos",
    "dos_energy_up",
    "dos_energy_down",
    "is_magnetic",
    "ordering",
    "total_magnetization_normalized_vol",
    "total_magnetization_normalized_formula_units",
    "num_magnetic_sites",
    "num_unique_magnetic_sites",
    "types_of_magnetic_species",
    "bulk_modulus",
    "shear_modulus",
    "universal_anisotropy",
    "homogeneous_poisson",
    "e_total",
    "e_ionic",
    "e_electronic",
    "n",
    "e_ij_max",
    "weighted_surface_energy_EV_PER_ANG2",
    "weighted_surface_energy",
    "weighted_work_function",
    "surface_anisotropy",
    "shape_factor",
    "has_reconstructed",
    "possible_species",
    "has_props",
    "theoretical",
    "database_IDs"
  ]
}
