{
  "builder_meta": null,
  "nsites": null,
  "elements": null,
  "nelements": null,
  "composition": null,
  "composition_reduced": null,
  "formula_pretty": "Sm5Si4",
  "formula_anonymous": "A4B5",
  "chemsys": null,
  "volume": 901.1577189576712,
  "density": 6.369324791445341,
  "density_atomic": 25.03215885993531,
  "symmetry": null,
  "property_name": null,
  "material_id": "mp-567800",
  "deprecated": null,
  "deprecation_reasons": null,
  "last_updated": null,
  "origins": null,
  "warnings": null,
  "structure": {
    "@module": "pymatgen.core.structure",
    "@class": "Structure",
    "charge": 0,
    "lattice": {
      "matrix": [
        [7.6670162, -2.7930000000000005e-5, 0.0],
        [-2.907e-5, 7.85082837, 0.0],
        [0.0, 0.0, 14.97128035]
      ],
      "pbc": [true, true, true],
      "a": 7.667016200050873,
      "b": 7.85082837005382,
      "c": 14.97128035,
      "alpha": 90.0,
      "beta": 90.0,
      "gamma": 90.00042087596727,
      "volume": 901.1577189576712
    },
    "properties": {},
    "sites": [
      {
        "species": [{ "element": "Sm", "occu": 1 }],
        "abc": [0.8613329, 0.49044455000000003, 0.25],
        "properties": { "magmom": 0.378 },
        "label": "Sm",
        "xyz": [6.603839040669911, 3.850371930023987, 3.7428200875]
      },
      {
        "species": [{ "element": "Sm", "occu": 1 }],
        "abc": [0.31230261, 0.18092216, 0.87812128],
        "properties": { "magmom": 0.199 },
        "label": "Sm",
        "xyz": [2.3944239107650906, 1.4203801038777821, 13.146599864180848]
      },
      {
        "species": [{ "element": "Sm", "occu": 1 }],
        "abc": [0.1386671, 0.50955545, 0.75],
        "properties": { "magmom": 0.378 },
        "label": "Sm",
        "xyz": [1.0631480893300884, 4.000428509976014, 11.2284602625]
      },
      {
        "species": [{ "element": "Sm", "occu": 1 }],
        "abc": [0.81230419, 0.31908402, 0.62188135],
        "properties": { "magmom": 0.199 },
        "label": "Sm",
        "xyz": [6.227940108285416, 2.505051188973621, 9.310360035286473]
      },
      {
        "species": [{ "element": "Sm", "occu": 1 }],
        "abc": [0.462853299999999, 0.68585151, 0.59968128],
        "properties": { "magmom": 0.228 },
        "label": "Sm",
        "xyz": [3.5486838116200565, 5.38448956482267, 8.977996563526847]
      },
      {
        "species": [{ "element": "Sm", "occu": 1 }],
        "abc": [0.68769739, 0.8190778400000001, 0.12187872],
        "properties": { "magmom": 0.199 },
        "label": "Sm",
        "xyz": [5.272563219234909, 6.430420336122219, 1.824680485819152]
      },
      {
        "species": [{ "element": "Sm", "occu": 1 }],
        "abc": [0.5371467, 0.31414849, 0.09968128],
        "properties": { "magmom": 0.228 },
        "label": "Sm",
        "xyz": [4.118303318379936, 2.46631087517733, 1.492356388526848]
      },
      {
        "species": [{ "element": "Sm", "occu": 1 }],
        "abc": [0.96286063, 0.81414726, 0.90032046],
        "properties": { "magmom": 0.228 },
        "label": "Sm",
        "xyz": [7.382244381291358, 6.391703513468371, 13.478950011500961]
      },
      {
        "species": [{ "element": "Sm", "occu": 1 }],
        "abc": [0.6386729, 0.990445399999999, 0.75],
        "properties": { "magmom": 0.378 },
        "label": "Sm",
        "xyz": [4.896686678553202, 7.775799007121893, 11.2284602625]
      },
      {
        "species": [{ "element": "Sm", "occu": 1 }],
        "abc": [0.361327099999999, 0.0095546, 0.25],
        "properties": { "magmom": 0.378 },
        "label": "Sm",
        "xyz": [2.7703004514467904, 0.075001432878099, 3.7428200875]
      },
      {
        "species": [{ "element": "Sm", "occu": 1 }],
        "abc": [0.5371467, 0.31414849, 0.40031872],
        "properties": { "magmom": 0.228 },
        "label": "Sm",
        "xyz": [4.118303318379936, 2.46631087517733, 5.993283786473152]
      },
      {
        "species": [{ "element": "Sm", "occu": 1 }],
        "abc": [0.03713937, 0.18585274000000002, 0.09967954],
        "properties": { "magmom": 0.228 },
        "label": "Sm",
        "xyz": [0.2847427487086422, 1.45909692653163, 1.492330338499039]
      },
      {
        "species": [{ "element": "Sm", "occu": 1 }],
        "abc": [0.96286063, 0.81414726, 0.59967954],
        "properties": { "magmom": 0.228 },
        "label": "Sm",
        "xyz": [7.382244381291358, 6.391703513468371, 8.97797051349904]
      },
      {
        "species": [{ "element": "Sm", "occu": 1 }],
        "abc": [0.18769581, 0.68091598, 0.12188135],
        "properties": { "magmom": 0.199 },
        "label": "Sm",
        "xyz": [1.4390470217145832, 5.34574925102638, 1.8247198602864725]
      },
      {
        "species": [{ "element": "Sm", "occu": 1 }],
        "abc": [0.68769739, 0.8190778400000001, 0.37812128],
        "properties": { "magmom": 0.199 },
        "label": "Sm",
        "xyz": [5.272563219234909, 6.430420336122219, 5.6609596891808485]
      },
      {
        "species": [{ "element": "Sm", "occu": 1 }],
        "abc": [0.31230261, 0.18092216, 0.62187872],
        "properties": { "magmom": 0.199 },
        "label": "Sm",
        "xyz": [2.3944239107650906, 1.4203801038777821, 9.310320660819153]
      },
      {
        "species": [{ "element": "Sm", "occu": 1 }],
        "abc": [0.462853299999999, 0.68585151, 0.90031872],
        "properties": { "magmom": 0.228 },
        "label": "Sm",
        "xyz": [3.5486838116200565, 5.38448956482267, 13.478923961473154]
      },
      {
        "species": [{ "element": "Sm", "occu": 1 }],
        "abc": [0.03713937, 0.18585274000000002, 0.40032046],
        "properties": { "magmom": 0.228 },
        "label": "Sm",
        "xyz": [0.2847427487086422, 1.45909692653163, 5.993309836500961]
      },
      {
        "species": [{ "element": "Sm", "occu": 1 }],
        "abc": [0.18769581, 0.68091598, 0.37811865],
        "properties": { "magmom": 0.199 },
        "label": "Sm",
        "xyz": [1.4390470217145832, 5.34574925102638, 5.660920314713528]
      },
      {
        "species": [{ "element": "Sm", "occu": 1 }],
        "abc": [0.81230419, 0.31908402, 0.87811865],
        "properties": { "magmom": 0.199 },
        "label": "Sm",
        "xyz": [6.227940108285416, 2.505051188973621, 13.146560489713528]
      },
      {
        "species": [{ "element": "Si", "occu": 1 }],
        "abc": [0.51801509, 0.40291965, 0.75],
        "properties": { "magmom": -0.022 },
        "label": "Si",
        "xyz": [3.9716183740002324, 3.163238550889007, 11.2284602625]
      },
      {
        "species": [{ "element": "Si", "occu": 1 }],
        "abc": [0.13597394000000002, 0.47515728, 0.95904702],
        "properties": { "magmom": -0.022 },
        "label": "Si",
        "xyz": [1.0425005879356986, 3.7303744562838896, 14.358161805252058]
      },
      {
        "species": [{ "element": "Si", "occu": 1 }],
        "abc": [0.63597916, 0.024845640000000002, 0.9590484100000001],
        "properties": { "magmom": -0.022 },
        "label": "Si",
        "xyz": [4.876061800319637, 0.195041092484868, 14.358182615331746]
      },
      {
        "species": [{ "element": "Si", "occu": 1 }],
        "abc": [0.24972217, 0.87723177, 0.75],
        "properties": { "magmom": -0.024 },
        "label": "Si",
        "xyz": [1.9145984217616001, 6.886989092241106, 11.2284602625]
      },
      {
        "species": [{ "element": "Si", "occu": 1 }],
        "abc": [0.25027683, 0.37722998, 0.25],
        "properties": { "magmom": -0.024 },
        "label": "Si",
        "xyz": [1.9188655440191276, 2.961560838766671, 3.7428200875]
      },
      {
        "species": [{ "element": "Si", "occu": 1 }],
        "abc": [0.86402606, 0.52484272, 0.04095298],
        "properties": { "magmom": -0.022 },
        "label": "Si",
        "xyz": [6.624486542064302, 4.12042598371611, 0.613118544747943]
      },
      {
        "species": [{ "element": "Si", "occu": 1 }],
        "abc": [0.75027783, 0.12276823, 0.25],
        "properties": { "magmom": -0.024 },
        "label": "Si",
        "xyz": [5.7523887082384, 0.9638113477588932, 3.7428200875]
      },
      {
        "species": [{ "element": "Si", "occu": 1 }],
        "abc": [0.48198491, 0.59708035, 0.25],
        "properties": { "magmom": -0.022 },
        "label": "Si",
        "xyz": [3.6953687559997674, 4.687561889110993, 3.7428200875]
      },
      {
        "species": [{ "element": "Si", "occu": 1 }],
        "abc": [0.36402084, 0.97515436, 0.04095159],
        "properties": { "magmom": -0.022 },
        "label": "Si",
        "xyz": [2.790925329680363, 7.655759347515132, 0.6130977346682566]
      },
      {
        "species": [{ "element": "Si", "occu": 1 }],
        "abc": [0.98198304, 0.90291589, 0.25],
        "properties": { "magmom": -0.022 },
        "label": "Si",
        "xyz": [7.528853628040325, 7.088610258149493, 3.7428200875]
      },
      {
        "species": [{ "element": "Si", "occu": 1 }],
        "abc": [0.86402606, 0.52484272, 0.45904702000000003],
        "properties": { "magmom": -0.022 },
        "label": "Si",
        "xyz": [6.624486542064302, 4.12042598371611, 6.8725216302520575]
      },
      {
        "species": [{ "element": "Si", "occu": 1 }],
        "abc": [0.36402084, 0.97515436, 0.45904841],
        "properties": { "magmom": -0.022 },
        "label": "Si",
        "xyz": [2.790925329680363, 7.655759347515132, 6.872542440331744]
      },
      {
        "species": [{ "element": "Si", "occu": 1 }],
        "abc": [0.74972317, 0.62277002, 0.75],
        "properties": { "magmom": -0.024 },
        "label": "Si",
        "xyz": [5.748121585980873, 4.88923960123333, 11.2284602625]
      },
      {
        "species": [{ "element": "Si", "occu": 1 }],
        "abc": [0.13597394000000002, 0.47515728, 0.54095298],
        "properties": { "magmom": -0.022 },
        "label": "Si",
        "xyz": [1.0425005879356986, 3.7303744562838896, 8.098758719747943]
      },
      {
        "species": [{ "element": "Si", "occu": 1 }],
        "abc": [0.018016960000000002, 0.09708411, 0.75],
        "properties": { "magmom": -0.022 },
        "label": "Si",
        "xyz": [0.13813350195967433, 0.7621901818505079, 11.2284602625]
      },
      {
        "species": [{ "element": "Si", "occu": 1 }],
        "abc": [0.63597916, 0.024845640000000002, 0.54095159],
        "properties": { "magmom": -0.022 },
        "label": "Si",
        "xyz": [4.876061800319637, 0.195041092484868, 8.098737909668257]
      }
    ]
  },
  "task_ids": null,
  "uncorrected_energy_per_atom": null,
  "energy_per_atom": -21.212083526944443,
  "formation_energy_per_atom": -0.794341306944444,
  "energy_above_hull": 0.0,
  "is_stable": true,
  "equilibrium_reaction_energy_per_atom": null,
  "decomposes_to": null,
  "xas": null,
  "grain_boundaries": null,
  "band_gap": 0.0,
  "cbm": null,
  "vbm": null,
  "efermi": 4.63903312,
  "is_gap_direct": null,
  "is_metal": null,
  "es_source_calc_id": null,
  "bandstructure": null,
  "dos": null,
  "dos_energy_up": null,
  "dos_energy_down": null,
  "is_magnetic": null,
  "ordering": null,
  "total_magnetization": 10.1238758,
  "total_magnetization_normalized_vol": null,
  "total_magnetization_normalized_formula_units": null,
  "num_magnetic_sites": null,
  "num_unique_magnetic_sites": null,
  "types_of_magnetic_species": null,
  "bulk_modulus": null,
  "shear_modulus": null,
  "universal_anisotropy": null,
  "homogeneous_poisson": null,
  "e_total": null,
  "e_ionic": null,
  "e_electronic": null,
  "n": null,
  "e_ij_max": null,
  "weighted_surface_energy_EV_PER_ANG2": null,
  "weighted_surface_energy": null,
  "weighted_work_function": null,
  "surface_anisotropy": null,
  "shape_factor": null,
  "has_reconstructed": null,
  "possible_species": null,
  "has_props": null,
  "theoretical": null,
  "database_IDs": null,
  "fields_not_requested": [
    "builder_meta",
    "nsites",
    "elements",
    "nelements",
    "composition",
    "composition_reduced",
    "chemsys",
    "symmetry",
    "property_name",
    "deprecated",
    "deprecation_reasons",
    "last_updated",
    "origins",
    "warnings",
    "task_ids",
    "uncorrected_energy_per_atom",
    "equilibrium_reaction_energy_per_atom",
    "decomposes_to",
    "xas",
    "grain_boundaries",
    "cbm",
    "vbm",
    "is_gap_direct",
    "is_metal",
    "es_source_calc_id",
    "bandstructure",
    "dos",
    "dos_energy_up",
    "dos_energy_down",
    "is_magnetic",
    "ordering",
    "total_magnetization_normalized_vol",
    "total_magnetization_normalized_formula_units",
    "num_magnetic_sites",
    "num_unique_magnetic_sites",
    "types_of_magnetic_species",
    "bulk_modulus",
    "shear_modulus",
    "universal_anisotropy",
    "homogeneous_poisson",
    "e_total",
    "e_ionic",
    "e_electronic",
    "n",
    "e_ij_max",
    "weighted_surface_energy_EV_PER_ANG2",
    "weighted_surface_energy",
    "weighted_work_function",
    "surface_anisotropy",
    "shape_factor",
    "has_reconstructed",
    "possible_species",
    "has_props",
    "theoretical",
    "database_IDs"
  ]
}
