{
  "builder_meta": null,
  "nsites": null,
  "elements": null,
  "nelements": null,
  "composition": null,
  "composition_reduced": null,
  "formula_pretty": "Sm5Tl3",
  "formula_anonymous": "A3B5",
  "chemsys": null,
  "volume": 488.85186183780155,
  "density": 9.272963078756947,
  "density_atomic": 30.553241364862597,
  "symmetry": null,
  "property_name": null,
  "material_id": "mp-1188446",
  "deprecated": null,
  "deprecation_reasons": null,
  "last_updated": null,
  "origins": null,
  "warnings": null,
  "structure": {
    "@module": "pymatgen.core.structure",
    "@class": "Structure",
    "charge": 0,
    "lattice": {
      "matrix": [
        [0.0, 0.0, -6.298318],
        [-6.229617, -6.229617, -3.149159],
        [-6.229617, 6.229617, -3.149159]
      ],
      "pbc": [true, true, true],
      "a": 6.298318,
      "b": 9.355931719538091,
      "c": 9.355931719538091,
      "alpha": 83.49464160196288,
      "beta": 70.33044715249065,
      "gamma": 70.33044715249065,
      "volume": 488.85186183780155
    },
    "properties": {},
    "sites": [
      {
        "species": [{ "element": "Sm", "occu": 1 }],
        "abc": [0.218193, 0.697241999999999, 0.866373],
        "properties": { "magmom": 0.044 },
        "label": "Sm",
        "xyz": [-9.740722585454993, 1.0536213528270055, -6.298321149158997]
      },
      {
        "species": [{ "element": "Sm", "occu": 1 }],
        "abc": [0.781806999999999, 0.30275799999999903, 0.133627],
        "properties": { "magmom": 0.044 },
        "label": "Sm",
        "xyz": [-2.7185114145449942, -1.053621352826994, -6.298314850840991]
      },
      {
        "species": [{ "element": "Sm", "occu": 1 }],
        "abc": [0.281807, 0.133627, 0.30275799999999903],
        "properties": { "magmom": 0.044 },
        "label": "Sm",
        "xyz": [-2.7185114145449942, 1.053621352826994, -3.149155850840997]
      },
      {
        "species": [{ "element": "Sm", "occu": 1 }],
        "abc": [0.718193, 0.866373, 0.697241999999999],
        "properties": { "magmom": 0.044 },
        "label": "Sm",
        "xyz": [-9.740722585454993, -1.0536213528270055, -9.447480149158997]
      },
      {
        "species": [{ "element": "Sm", "occu": 1 }],
        "abc": [0.084566, 0.133627, 0.697241999999999],
        "properties": { "magmom": 0.044 },
        "label": "Sm",
        "xyz": [-5.175995647172994, 3.511105585454994, -3.1491621491589967]
      },
      {
        "species": [{ "element": "Sm", "occu": 1 }],
        "abc": [0.915434, 0.866373, 0.30275799999999903],
        "properties": { "magmom": 0.044 },
        "label": "Sm",
        "xyz": [-7.283238352826993, -3.5111055854550055, -9.447473850840996]
      },
      {
        "species": [{ "element": "Sm", "occu": 1 }],
        "abc": [0.584565999999999, 0.697241999999999, 0.133627],
        "properties": { "magmom": 0.044 },
        "label": "Sm",
        "xyz": [-5.175995647172994, -3.511105585454994, -6.298321149158991]
      },
      {
        "species": [{ "element": "Sm", "occu": 1 }],
        "abc": [0.415433999999999, 0.30275799999999903, 0.866373],
        "properties": { "magmom": 0.044 },
        "label": "Sm",
        "xyz": [-7.283238352826993, 3.5111055854550055, -6.29831485084099]
      },
      {
        "species": [{ "element": "Sm", "occu": 1 }],
        "abc": [0.75, 0.5, 0.5],
        "properties": { "magmom": 0.059000000000000004 },
        "label": "Sm",
        "xyz": [-6.229617, 0.0, -7.8728975000000005]
      },
      {
        "species": [{ "element": "Sm", "occu": 1 }],
        "abc": [0.25, 0.5, 0.5],
        "properties": { "magmom": 0.059000000000000004 },
        "label": "Sm",
        "xyz": [-6.229617, 0.0, -4.7237385]
      },
      {
        "species": [{ "element": "Tl", "occu": 1 }],
        "abc": [0.660651, 0.178699, 0.5],
        "properties": { "magmom": -0.004 },
        "label": "Tl",
        "xyz": [-4.2280348282830005, 2.001582171717, -6.298321149158999]
      },
      {
        "species": [{ "element": "Tl", "occu": 1 }],
        "abc": [0.339349, 0.821301, 0.5],
        "properties": { "magmom": -0.004 },
        "label": "Tl",
        "xyz": [-8.231199171717, -2.001582171717, -6.298314850841001]
      },
      {
        "species": [{ "element": "Tl", "occu": 1 }],
        "abc": [0.839349, 0.5, 0.821301],
        "properties": { "magmom": -0.004 },
        "label": "Tl",
        "xyz": [-8.231199171717, 2.001582171717, -9.447473850841]
      },
      {
        "species": [{ "element": "Tl", "occu": 1 }],
        "abc": [0.160651, 0.5, 0.178699],
        "properties": { "magmom": -0.004 },
        "label": "Tl",
        "xyz": [-4.2280348282830005, -2.001582171717, -3.1491621491590003]
      },
      {
        "species": [{ "element": "Tl", "occu": 1 }],
        "abc": [0.25, 0.0, 0.0],
        "properties": { "magmom": 0.004 },
        "label": "Tl",
        "xyz": [0.0, 0.0, -1.5745795]
      },
      {
        "species": [{ "element": "Tl", "occu": 1 }],
        "abc": [0.75, 0.0, 0.0],
        "properties": { "magmom": 0.004 },
        "label": "Tl",
        "xyz": [0.0, 0.0, -4.7237385]
      }
    ]
  },
  "task_ids": null,
  "uncorrected_energy_per_atom": null,
  "energy_per_atom": -4.1516720675,
  "formation_energy_per_atom": -0.31325368937500303,
  "energy_above_hull": 0.0,
  "is_stable": true,
  "equilibrium_reaction_energy_per_atom": null,
  "decomposes_to": null,
  "xas": null,
  "grain_boundaries": null,
  "band_gap": 0.0,
  "cbm": null,
  "vbm": null,
  "efermi": 4.56602857,
  "is_gap_direct": null,
  "is_metal": null,
  "es_source_calc_id": null,
  "bandstructure": null,
  "dos": null,
  "dos_energy_up": null,
  "dos_energy_down": null,
  "is_magnetic": null,
  "ordering": null,
  "total_magnetization": 1.0635778,
  "total_magnetization_normalized_vol": null,
  "total_magnetization_normalized_formula_units": null,
  "num_magnetic_sites": null,
  "num_unique_magnetic_sites": null,
  "types_of_magnetic_species": null,
  "bulk_modulus": null,
  "shear_modulus": null,
  "universal_anisotropy": null,
  "homogeneous_poisson": null,
  "e_total": null,
  "e_ionic": null,
  "e_electronic": null,
  "n": null,
  "e_ij_max": null,
  "weighted_surface_energy_EV_PER_ANG2": null,
  "weighted_surface_energy": null,
  "weighted_work_function": null,
  "surface_anisotropy": null,
  "shape_factor": null,
  "has_reconstructed": null,
  "possible_species": null,
  "has_props": null,
  "theoretical": null,
  "database_IDs": null,
  "fields_not_requested": [
    "builder_meta",
    "nsites",
    "elements",
    "nelements",
    "composition",
    "composition_reduced",
    "chemsys",
    "symmetry",
    "property_name",
    "deprecated",
    "deprecation_reasons",
    "last_updated",
    "origins",
    "warnings",
    "task_ids",
    "uncorrected_energy_per_atom",
    "equilibrium_reaction_energy_per_atom",
    "decomposes_to",
    "xas",
    "grain_boundaries",
    "cbm",
    "vbm",
    "is_gap_direct",
    "is_metal",
    "es_source_calc_id",
    "bandstructure",
    "dos",
    "dos_energy_up",
    "dos_energy_down",
    "is_magnetic",
    "ordering",
    "total_magnetization_normalized_vol",
    "total_magnetization_normalized_formula_units",
    "num_magnetic_sites",
    "num_unique_magnetic_sites",
    "types_of_magnetic_species",
    "bulk_modulus",
    "shear_modulus",
    "universal_anisotropy",
    "homogeneous_poisson",
    "e_total",
    "e_ionic",
    "e_electronic",
    "n",
    "e_ij_max",
    "weighted_surface_energy_EV_PER_ANG2",
    "weighted_surface_energy",
    "weighted_work_function",
    "surface_anisotropy",
    "shape_factor",
    "has_reconstructed",
    "possible_species",
    "has_props",
    "theoretical",
    "database_IDs"
  ]
}
