{
  "builder_meta": null,
  "nsites": null,
  "elements": null,
  "nelements": null,
  "composition": null,
  "composition_reduced": null,
  "formula_pretty": "Sm7Pd3",
  "formula_anonymous": "A3B7",
  "chemsys": null,
  "volume": 569.6577716551137,
  "density": 7.997413163212831,
  "density_atomic": 28.482888582755685,
  "symmetry": null,
  "property_name": null,
  "material_id": "mp-1105892",
  "deprecated": null,
  "deprecation_reasons": null,
  "last_updated": null,
  "origins": null,
  "warnings": null,
  "structure": {
    "@module": "pymatgen.core.structure",
    "@class": "Structure",
    "charge": 0,
    "lattice": {
      "matrix": [
        [0.0, 0.0, -6.455185],
        [-5.058376, -8.722967, 0.0],
        [-5.058376, 8.722967, 0.0]
      ],
      "pbc": [true, true, true],
      "a": 6.455185,
      "b": 10.083517295094257,
      "c": 10.083517295094257,
      "alpha": 119.78182207454256,
      "beta": 90.0,
      "gamma": 90.0,
      "volume": 569.6577716551137
    },
    "properties": {},
    "sites": [
      {
        "species": [{ "element": "Sm", "occu": 1 }],
        "abc": [0.448551, 0.333416999999999, 0.666582999999999],
        "properties": { "magmom": 0.0 },
        "label": "Sm",
        "xyz": [-5.05837599999999, 2.906196023522001, -2.895479686935]
      },
      {
        "species": [{ "element": "Sm", "occu": 1 }],
        "abc": [0.948550999999999, 0.666582999999999, 0.333416999999999],
        "properties": { "magmom": 0.0 },
        "label": "Sm",
        "xyz": [-5.05837599999999, -2.906196023522001, -6.123072186934994]
      },
      {
        "species": [{ "element": "Sm", "occu": 1 }],
        "abc": [0.246071999999999, 0.126513, 0.873487],
        "properties": { "magmom": 0.0 },
        "label": "Sm",
        "xyz": [-5.058376, 6.515829551858001, -1.5884402833199938]
      },
      {
        "species": [{ "element": "Sm", "occu": 1 }],
        "abc": [0.245547, 0.747065, 0.873544],
        "properties": { "magmom": -0.0 },
        "label": "Sm",
        "xyz": [-8.197649670984, 1.1032721431930002, -1.585051311195]
      },
      {
        "species": [{ "element": "Sm", "occu": 1 }],
        "abc": [0.245547, 0.126455999999999, 0.252934999999999],
        "properties": { "magmom": -0.0 },
        "label": "Sm",
        "xyz": [-1.91910232901599, 1.1032721431930004, -1.585051311195]
      },
      {
        "species": [{ "element": "Sm", "occu": 1 }],
        "abc": [0.746072, 0.873487, 0.126513],
        "properties": { "magmom": 0.0 },
        "label": "Sm",
        "xyz": [-5.058376, -6.515829551858001, -4.81603278332]
      },
      {
        "species": [{ "element": "Sm", "occu": 1 }],
        "abc": [0.745547, 0.252934999999999, 0.126455999999999],
        "properties": { "magmom": -0.0 },
        "label": "Sm",
        "xyz": [-1.91910232901599, -1.1032721431930004, -4.812643811195]
      },
      {
        "species": [{ "element": "Sm", "occu": 1 }],
        "abc": [0.745547, 0.873544, 0.747065],
        "properties": { "magmom": -0.0 },
        "label": "Sm",
        "xyz": [-8.197649670984, -1.1032721431930002, -4.812643811195]
      },
      {
        "species": [{ "element": "Sm", "occu": 1 }],
        "abc": [0.445965, 0.53779, 0.46221000000000007],
        "properties": { "magmom": 0.0 },
        "label": "Sm",
        "xyz": [-5.058376000000001, -0.6592818458599998, -2.878786578525]
      },
      {
        "species": [{ "element": "Sm", "occu": 1 }],
        "abc": [0.445188, 0.924781, 0.462385999999999],
        "properties": { "magmom": 0.0 },
        "label": "Sm",
        "xyz": [-7.016812260791995, -4.033456325965009, -2.8737708997799998]
      },
      {
        "species": [{ "element": "Sm", "occu": 1 }],
        "abc": [0.445188, 0.537613999999999, 0.075219],
        "properties": { "magmom": 0.0 },
        "label": "Sm",
        "xyz": [-3.099939739207995, -4.033456325964991, -2.8737708997799998]
      },
      {
        "species": [{ "element": "Sm", "occu": 1 }],
        "abc": [0.945965, 0.46221000000000007, 0.53779],
        "properties": { "magmom": 0.0 },
        "label": "Sm",
        "xyz": [-5.058376000000001, 0.6592818458599998, -6.106379078524999]
      },
      {
        "species": [{ "element": "Sm", "occu": 1 }],
        "abc": [0.945187999999999, 0.075219, 0.537613999999999],
        "properties": { "magmom": 0.0 },
        "label": "Sm",
        "xyz": [-3.099939739207995, 4.033456325964991, -6.101363399779994]
      },
      {
        "species": [{ "element": "Sm", "occu": 1 }],
        "abc": [0.945187999999999, 0.462385999999999, 0.924781],
        "properties": { "magmom": 0.0 },
        "label": "Sm",
        "xyz": [-7.016812260791995, 4.033456325965009, -6.101363399779994]
      },
      {
        "species": [{ "element": "Pd", "occu": 1 }],
        "abc": [0.190305, 0.810944, 0.189056],
        "properties": { "magmom": 0.0 },
        "label": "Pd",
        "xyz": [-5.058376, -5.424708501696001, -1.228453981425]
      },
      {
        "species": [{ "element": "Pd", "occu": 1 }],
        "abc": [0.190319, 0.377955999999999, 0.188947],
        "properties": { "magmom": 0.0 },
        "label": "Pd",
        "xyz": [-2.867608529527995, -1.6487192697029918, -1.228544354015]
      },
      {
        "species": [{ "element": "Pd", "occu": 1 }],
        "abc": [0.190319, 0.811052999999999, 0.622043999999999],
        "properties": { "magmom": 0.0 },
        "label": "Pd",
        "xyz": [-7.24914347047199, -1.6487192697029993, -1.228544354015]
      },
      {
        "species": [{ "element": "Pd", "occu": 1 }],
        "abc": [0.690305, 0.189056, 0.810944],
        "properties": { "magmom": 0.0 },
        "label": "Pd",
        "xyz": [-5.058376, 5.424708501696001, -4.456046481425]
      },
      {
        "species": [{ "element": "Pd", "occu": 1 }],
        "abc": [0.690319, 0.622043999999999, 0.811052999999999],
        "properties": { "magmom": 0.0 },
        "label": "Pd",
        "xyz": [-7.24914347047199, 1.6487192697029993, -4.456136854015]
      },
      {
        "species": [{ "element": "Pd", "occu": 1 }],
        "abc": [0.690319, 0.188947, 0.377955999999999],
        "properties": { "magmom": 0.0 },
        "label": "Pd",
        "xyz": [-2.867608529527995, 1.6487192697029918, -4.456136854015]
      }
    ]
  },
  "task_ids": null,
  "uncorrected_energy_per_atom": null,
  "energy_per_atom": -28.231287471499996,
  "formation_energy_per_atom": -0.5301043644999991,
  "energy_above_hull": 0.000509456000003,
  "is_stable": false,
  "equilibrium_reaction_energy_per_atom": null,
  "decomposes_to": null,
  "xas": null,
  "grain_boundaries": null,
  "band_gap": 0.0,
  "cbm": null,
  "vbm": null,
  "efermi": 3.55022611,
  "is_gap_direct": null,
  "is_metal": null,
  "es_source_calc_id": null,
  "bandstructure": null,
  "dos": null,
  "dos_energy_up": null,
  "dos_energy_down": null,
  "is_magnetic": null,
  "ordering": null,
  "total_magnetization": 0.003180799999999,
  "total_magnetization_normalized_vol": null,
  "total_magnetization_normalized_formula_units": null,
  "num_magnetic_sites": null,
  "num_unique_magnetic_sites": null,
  "types_of_magnetic_species": null,
  "bulk_modulus": null,
  "shear_modulus": null,
  "universal_anisotropy": null,
  "homogeneous_poisson": null,
  "e_total": null,
  "e_ionic": null,
  "e_electronic": null,
  "n": null,
  "e_ij_max": null,
  "weighted_surface_energy_EV_PER_ANG2": null,
  "weighted_surface_energy": null,
  "weighted_work_function": null,
  "surface_anisotropy": null,
  "shape_factor": null,
  "has_reconstructed": null,
  "possible_species": null,
  "has_props": null,
  "theoretical": null,
  "database_IDs": null,
  "fields_not_requested": [
    "builder_meta",
    "nsites",
    "elements",
    "nelements",
    "composition",
    "composition_reduced",
    "chemsys",
    "symmetry",
    "property_name",
    "deprecated",
    "deprecation_reasons",
    "last_updated",
    "origins",
    "warnings",
    "task_ids",
    "uncorrected_energy_per_atom",
    "equilibrium_reaction_energy_per_atom",
    "decomposes_to",
    "xas",
    "grain_boundaries",
    "cbm",
    "vbm",
    "is_gap_direct",
    "is_metal",
    "es_source_calc_id",
    "bandstructure",
    "dos",
    "dos_energy_up",
    "dos_energy_down",
    "is_magnetic",
    "ordering",
    "total_magnetization_normalized_vol",
    "total_magnetization_normalized_formula_units",
    "num_magnetic_sites",
    "num_unique_magnetic_sites",
    "types_of_magnetic_species",
    "bulk_modulus",
    "shear_modulus",
    "universal_anisotropy",
    "homogeneous_poisson",
    "e_total",
    "e_ionic",
    "e_electronic",
    "n",
    "e_ij_max",
    "weighted_surface_energy_EV_PER_ANG2",
    "weighted_surface_energy",
    "weighted_work_function",
    "surface_anisotropy",
    "shape_factor",
    "has_reconstructed",
    "possible_species",
    "has_props",
    "theoretical",
    "database_IDs"
  ]
}
