{
  "builder_meta": null,
  "nsites": null,
  "elements": null,
  "nelements": null,
  "composition": null,
  "composition_reduced": null,
  "formula_pretty": "Sm7Pt3",
  "formula_anonymous": "A3B7",
  "chemsys": null,
  "volume": 565.8083902811243,
  "density": 9.613093177470832,
  "density_atomic": 28.290419514056214,
  "symmetry": null,
  "property_name": null,
  "material_id": "mp-1188617",
  "deprecated": null,
  "deprecation_reasons": null,
  "last_updated": null,
  "origins": null,
  "warnings": null,
  "structure": {
    "@module": "pymatgen.core.structure",
    "@class": "Structure",
    "charge": 0,
    "lattice": {
      "matrix": [
        [0.0, 0.0, -6.443872],
        [-5.040536, -8.709952, 0.0],
        [-5.040536, 8.709952, 0.0]
      ],
      "pbc": [true, true, true],
      "a": 6.443872,
      "b": 10.063312924161703,
      "c": 10.063312924161703,
      "alpha": 119.88321172269329,
      "beta": 90.0,
      "gamma": 90.0,
      "volume": 565.8083902811243
    },
    "properties": {},
    "sites": [
      {
        "species": [{ "element": "Sm", "occu": 1 }],
        "abc": [0.455586999999999, 0.333335, 0.666665],
        "properties": { "magmom": 0.0 },
        "label": "Sm",
        "xyz": [-5.040536, 2.90328830016, -2.9357443128639935]
      },
      {
        "species": [{ "element": "Sm", "occu": 1 }],
        "abc": [0.955587, 0.666665, 0.333335],
        "properties": { "magmom": 0.0 },
        "label": "Sm",
        "xyz": [-5.040536, -2.90328830016, -6.157680312864]
      },
      {
        "species": [{ "element": "Sm", "occu": 1 }],
        "abc": [0.248543, 0.12742799999999901, 0.872572],
        "properties": { "magmom": 0.0 },
        "label": "Sm",
        "xyz": [-5.040535999999995, 6.4901684730880085, -1.601579278496]
      },
      {
        "species": [{ "element": "Sm", "occu": 1 }],
        "abc": [0.248217, 0.745412, 0.872748],
        "properties": { "magmom": -0.0 },
        "label": "Sm",
        "xyz": [-8.156393733760002, 1.109090447872, -1.5994785762239998]
      },
      {
        "species": [{ "element": "Sm", "occu": 1 }],
        "abc": [0.248217, 0.127252, 0.254588],
        "properties": { "magmom": -0.0 },
        "label": "Sm",
        "xyz": [-1.92467826624, 1.1090904478719996, -1.5994785762239998]
      },
      {
        "species": [{ "element": "Sm", "occu": 1 }],
        "abc": [0.748543, 0.872572, 0.12742799999999901],
        "properties": { "magmom": 0.0 },
        "label": "Sm",
        "xyz": [-5.040535999999995, -6.4901684730880085, -4.823515278496]
      },
      {
        "species": [{ "element": "Sm", "occu": 1 }],
        "abc": [0.748217, 0.254588, 0.127252],
        "properties": { "magmom": -0.0 },
        "label": "Sm",
        "xyz": [-1.92467826624, -1.1090904478719996, -4.821414576224]
      },
      {
        "species": [{ "element": "Sm", "occu": 1 }],
        "abc": [0.748217, 0.872748, 0.745412],
        "properties": { "magmom": -0.0 },
        "label": "Sm",
        "xyz": [-8.156393733760002, -1.109090447872, -4.821414576224]
      },
      {
        "species": [{ "element": "Sm", "occu": 1 }],
        "abc": [0.44191199999999903, 0.537691, 0.462308999999999],
        "properties": { "magmom": 0.0 },
        "label": "Sm",
        "xyz": [-5.040535999999996, -0.6565736016640082, -2.8476243632639937]
      },
      {
        "species": [{ "element": "Sm", "occu": 1 }],
        "abc": [0.441887, 0.924254999999999, 0.462138999999999],
        "properties": { "magmom": 0.0 },
        "label": "Sm",
        "xyz": [-6.98816886718399, -4.025008178432, -2.8474632664639996]
      },
      {
        "species": [{ "element": "Sm", "occu": 1 }],
        "abc": [0.441887, 0.537860999999999, 0.07574499999999901],
        "properties": { "magmom": 0.0 },
        "label": "Sm",
        "xyz": [-3.0929031328159904, -4.0250081784319995, -2.8474632664639996]
      },
      {
        "species": [{ "element": "Sm", "occu": 1 }],
        "abc": [0.941912, 0.462308999999999, 0.537691],
        "properties": { "magmom": 0.0 },
        "label": "Sm",
        "xyz": [-5.040535999999996, 0.6565736016640082, -6.069560363263999]
      },
      {
        "species": [{ "element": "Sm", "occu": 1 }],
        "abc": [0.941886999999999, 0.07574499999999901, 0.537860999999999],
        "properties": { "magmom": 0.0 },
        "label": "Sm",
        "xyz": [-3.0929031328159904, 4.0250081784319995, -6.069399266463994]
      },
      {
        "species": [{ "element": "Sm", "occu": 1 }],
        "abc": [0.941886999999999, 0.462138999999999, 0.924254999999999],
        "properties": { "magmom": 0.0 },
        "label": "Sm",
        "xyz": [-6.98816886718399, 4.025008178432, -6.069399266463994]
      },
      {
        "species": [{ "element": "Pt", "occu": 1 }],
        "abc": [0.188886, 0.810885, 0.189114999999999],
        "properties": { "magmom": -0.0 },
        "label": "Pt",
        "xyz": [-5.040535999999995, -5.415586855040008, -1.217157206592]
      },
      {
        "species": [{ "element": "Pt", "occu": 1 }],
        "abc": [0.188932, 0.378299, 0.189227999999999],
        "properties": { "magmom": -0.0 },
        "label": "Pt",
        "xyz": [-2.8606402744719954, -1.6467993345920084, -1.217453624704]
      },
      {
        "species": [{ "element": "Pt", "occu": 1 }],
        "abc": [0.188932, 0.810771999999999, 0.621701],
        "properties": { "magmom": -0.0 },
        "label": "Pt",
        "xyz": [-7.2204317255279955, -1.646799334591992, -1.217453624704]
      },
      {
        "species": [{ "element": "Pt", "occu": 1 }],
        "abc": [0.688886, 0.189114999999999, 0.810885],
        "properties": { "magmom": -0.0 },
        "label": "Pt",
        "xyz": [-5.040535999999995, 5.415586855040008, -4.439093206592]
      },
      {
        "species": [{ "element": "Pt", "occu": 1 }],
        "abc": [0.688932, 0.621701, 0.810771999999999],
        "properties": { "magmom": -0.0 },
        "label": "Pt",
        "xyz": [-7.2204317255279955, 1.646799334591992, -4.439389624704]
      },
      {
        "species": [{ "element": "Pt", "occu": 1 }],
        "abc": [0.688932, 0.189227999999999, 0.378299],
        "properties": { "magmom": -0.0 },
        "label": "Pt",
        "xyz": [-2.8606402744719954, 1.6467993345920084, -4.439389624704]
      }
    ]
  },
  "task_ids": null,
  "uncorrected_energy_per_atom": null,
  "energy_per_atom": -5.8932904795,
  "formation_energy_per_atom": -0.768940188999999,
  "energy_above_hull": 0.0,
  "is_stable": true,
  "equilibrium_reaction_energy_per_atom": null,
  "decomposes_to": null,
  "xas": null,
  "grain_boundaries": null,
  "band_gap": 0.0,
  "cbm": null,
  "vbm": null,
  "efermi": 3.95177904,
  "is_gap_direct": null,
  "is_metal": null,
  "es_source_calc_id": null,
  "bandstructure": null,
  "dos": null,
  "dos_energy_up": null,
  "dos_energy_down": null,
  "is_magnetic": null,
  "ordering": null,
  "total_magnetization": 0.0054332,
  "total_magnetization_normalized_vol": null,
  "total_magnetization_normalized_formula_units": null,
  "num_magnetic_sites": null,
  "num_unique_magnetic_sites": null,
  "types_of_magnetic_species": null,
  "bulk_modulus": null,
  "shear_modulus": null,
  "universal_anisotropy": null,
  "homogeneous_poisson": null,
  "e_total": null,
  "e_ionic": null,
  "e_electronic": null,
  "n": null,
  "e_ij_max": null,
  "weighted_surface_energy_EV_PER_ANG2": null,
  "weighted_surface_energy": null,
  "weighted_work_function": null,
  "surface_anisotropy": null,
  "shape_factor": null,
  "has_reconstructed": null,
  "possible_species": null,
  "has_props": null,
  "theoretical": null,
  "database_IDs": null,
  "fields_not_requested": [
    "builder_meta",
    "nsites",
    "elements",
    "nelements",
    "composition",
    "composition_reduced",
    "chemsys",
    "symmetry",
    "property_name",
    "deprecated",
    "deprecation_reasons",
    "last_updated",
    "origins",
    "warnings",
    "task_ids",
    "uncorrected_energy_per_atom",
    "equilibrium_reaction_energy_per_atom",
    "decomposes_to",
    "xas",
    "grain_boundaries",
    "cbm",
    "vbm",
    "is_gap_direct",
    "is_metal",
    "es_source_calc_id",
    "bandstructure",
    "dos",
    "dos_energy_up",
    "dos_energy_down",
    "is_magnetic",
    "ordering",
    "total_magnetization_normalized_vol",
    "total_magnetization_normalized_formula_units",
    "num_magnetic_sites",
    "num_unique_magnetic_sites",
    "types_of_magnetic_species",
    "bulk_modulus",
    "shear_modulus",
    "universal_anisotropy",
    "homogeneous_poisson",
    "e_total",
    "e_ionic",
    "e_electronic",
    "n",
    "e_ij_max",
    "weighted_surface_energy_EV_PER_ANG2",
    "weighted_surface_energy",
    "weighted_work_function",
    "surface_anisotropy",
    "shape_factor",
    "has_reconstructed",
    "possible_species",
    "has_props",
    "theoretical",
    "database_IDs"
  ]
}
