{
  "builder_meta": null,
  "nsites": null,
  "elements": null,
  "nelements": null,
  "composition": null,
  "composition_reduced": null,
  "formula_pretty": "Sm7Rh3",
  "formula_anonymous": "A3B7",
  "chemsys": null,
  "volume": 549.1923453396678,
  "density": 8.231674772283409,
  "density_atomic": 27.45961726698339,
  "symmetry": null,
  "property_name": null,
  "material_id": "mp-1189638",
  "deprecated": null,
  "deprecation_reasons": null,
  "last_updated": null,
  "origins": null,
  "warnings": null,
  "structure": {
    "@module": "pymatgen.core.structure",
    "@class": "Structure",
    "charge": 0,
    "lattice": {
      "matrix": [
        [0.0, 0.0, -6.262364],
        [-5.029121, -8.718948, 0.0],
        [-5.029121, 8.718948, 0.0]
      ],
      "pbc": [true, true, true],
      "a": 6.262364,
      "b": 10.065391808536068,
      "c": 10.065391808536068,
      "alpha": 120.0469898797012,
      "beta": 90.0,
      "gamma": 90.0,
      "volume": 549.1923453396678
    },
    "properties": {},
    "sites": [
      {
        "species": [{ "element": "Sm", "occu": 1 }],
        "abc": [0.462356999999999, 0.33332, 0.66668],
        "properties": { "magmom": 0.0 },
        "label": "Sm",
        "xyz": [-5.029121, 2.90654850528, -2.895447831947994]
      },
      {
        "species": [{ "element": "Sm", "occu": 1 }],
        "abc": [0.9623569999999991, 0.66668, 0.33332],
        "properties": { "magmom": 0.0 },
        "label": "Sm",
        "xyz": [-5.029121, -2.90654850528, -6.026629831947995]
      },
      {
        "species": [{ "element": "Sm", "occu": 1 }],
        "abc": [0.25118, 0.125273, 0.874726999999999],
        "properties": { "magmom": -0.001 },
        "label": "Sm",
        "xyz": [-5.0291209999999955, 6.534450454391991, -1.57298058952]
      },
      {
        "species": [{ "element": "Sm", "occu": 1 }],
        "abc": [0.251102999999999, 0.749506, 0.874803999999999],
        "properties": { "magmom": 0.0 },
        "label": "Sm",
        "xyz": [-8.168851531509995, 1.092466746503991, -1.5724983874919938]
      },
      {
        "species": [{ "element": "Sm", "occu": 1 }],
        "abc": [0.251102999999999, 0.125196, 0.250494],
        "properties": { "magmom": 0.0 },
        "label": "Sm",
        "xyz": [-1.88939046849, 1.0924667465039999, -1.5724983874919938]
      },
      {
        "species": [{ "element": "Sm", "occu": 1 }],
        "abc": [0.7511800000000001, 0.874726999999999, 0.125273],
        "properties": { "magmom": -0.001 },
        "label": "Sm",
        "xyz": [-5.0291209999999955, -6.534450454391991, -4.70416258952]
      },
      {
        "species": [{ "element": "Sm", "occu": 1 }],
        "abc": [0.751103, 0.250494, 0.125196],
        "properties": { "magmom": 0.0 },
        "label": "Sm",
        "xyz": [-1.88939046849, -1.0924667465039999, -4.703680387492]
      },
      {
        "species": [{ "element": "Sm", "occu": 1 }],
        "abc": [0.751103, 0.874803999999999, 0.749506],
        "properties": { "magmom": 0.0 },
        "label": "Sm",
        "xyz": [-8.168851531509995, -1.092466746503991, -4.703680387492]
      },
      {
        "species": [{ "element": "Sm", "occu": 1 }],
        "abc": [0.445745, 0.541899, 0.458101],
        "properties": { "magmom": -0.003 },
        "label": "Sm",
        "xyz": [-5.029121, -0.7306304045040002, -2.79141744118]
      },
      {
        "species": [{ "element": "Sm", "occu": 1 }],
        "abc": [0.445855, 0.916378999999999, 0.458090999999999],
        "properties": { "magmom": 0.002 },
        "label": "Sm",
        "xyz": [-6.912375940869991, -3.9957892410239997, -2.79210630122]
      },
      {
        "species": [{ "element": "Sm", "occu": 1 }],
        "abc": [0.445855, 0.541909, 0.083621],
        "properties": { "magmom": 0.002 },
        "label": "Sm",
        "xyz": [-3.14586605913, -3.995789241024, -2.79210630122]
      },
      {
        "species": [{ "element": "Sm", "occu": 1 }],
        "abc": [0.945745, 0.458101, 0.541899],
        "properties": { "magmom": -0.003 },
        "label": "Sm",
        "xyz": [-5.029121, 0.7306304045040002, -5.922599441179999]
      },
      {
        "species": [{ "element": "Sm", "occu": 1 }],
        "abc": [0.945855, 0.083621, 0.541909],
        "properties": { "magmom": 0.002 },
        "label": "Sm",
        "xyz": [-3.14586605913, 3.995789241024, -5.9232883012199995]
      },
      {
        "species": [{ "element": "Sm", "occu": 1 }],
        "abc": [0.945855, 0.458090999999999, 0.916378999999999],
        "properties": { "magmom": 0.002 },
        "label": "Sm",
        "xyz": [-6.912375940869991, 3.9957892410239997, -5.9232883012199995]
      },
      {
        "species": [{ "element": "Rh", "occu": 1 }],
        "abc": [0.17965899999999901, 0.811736999999999, 0.18826299999999901],
        "properties": { "magmom": -0.0 },
        "label": "Rh",
        "xyz": [-5.02912099999999, -5.436037385352, -1.1250900538759938]
      },
      {
        "species": [{ "element": "Rh", "occu": 1 }],
        "abc": [0.180070999999999, 0.376463, 0.188218],
        "properties": { "magmom": 0.0 },
        "label": "Rh",
        "xyz": [-2.8398490754009997, -1.6412983662599998, -1.1276701478439937]
      },
      {
        "species": [{ "element": "Rh", "occu": 1 }],
        "abc": [0.180070999999999, 0.811782, 0.623537],
        "properties": { "magmom": 0.0 },
        "label": "Rh",
        "xyz": [-7.218392924599, -1.6412983662599991, -1.1276701478439937]
      },
      {
        "species": [{ "element": "Rh", "occu": 1 }],
        "abc": [0.679659, 0.18826299999999901, 0.811736999999999],
        "properties": { "magmom": -0.0 },
        "label": "Rh",
        "xyz": [-5.02912099999999, 5.436037385352, -4.256272053876]
      },
      {
        "species": [{ "element": "Rh", "occu": 1 }],
        "abc": [0.680071, 0.623537, 0.811782],
        "properties": { "magmom": 0.0 },
        "label": "Rh",
        "xyz": [-7.218392924599, 1.6412983662599991, -4.258852147843999]
      },
      {
        "species": [{ "element": "Rh", "occu": 1 }],
        "abc": [0.680071, 0.188218, 0.376463],
        "properties": { "magmom": 0.0 },
        "label": "Rh",
        "xyz": [-2.8398490754009997, 1.6412983662599998, -4.258852147843999]
      }
    ]
  },
  "task_ids": null,
  "uncorrected_energy_per_atom": null,
  "energy_per_atom": -6.049147748499999,
  "formation_energy_per_atom": -0.536845093,
  "energy_above_hull": 0.0,
  "is_stable": true,
  "equilibrium_reaction_energy_per_atom": null,
  "decomposes_to": null,
  "xas": null,
  "grain_boundaries": null,
  "band_gap": 0.0,
  "cbm": null,
  "vbm": null,
  "efermi": 3.82414196,
  "is_gap_direct": null,
  "is_metal": null,
  "es_source_calc_id": null,
  "bandstructure": null,
  "dos": null,
  "dos_energy_up": null,
  "dos_energy_down": null,
  "is_magnetic": null,
  "ordering": null,
  "total_magnetization": 0.002534299999999,
  "total_magnetization_normalized_vol": null,
  "total_magnetization_normalized_formula_units": null,
  "num_magnetic_sites": null,
  "num_unique_magnetic_sites": null,
  "types_of_magnetic_species": null,
  "bulk_modulus": null,
  "shear_modulus": null,
  "universal_anisotropy": null,
  "homogeneous_poisson": null,
  "e_total": null,
  "e_ionic": null,
  "e_electronic": null,
  "n": null,
  "e_ij_max": null,
  "weighted_surface_energy_EV_PER_ANG2": null,
  "weighted_surface_energy": null,
  "weighted_work_function": null,
  "surface_anisotropy": null,
  "shape_factor": null,
  "has_reconstructed": null,
  "possible_species": null,
  "has_props": null,
  "theoretical": null,
  "database_IDs": null,
  "fields_not_requested": [
    "builder_meta",
    "nsites",
    "elements",
    "nelements",
    "composition",
    "composition_reduced",
    "chemsys",
    "symmetry",
    "property_name",
    "deprecated",
    "deprecation_reasons",
    "last_updated",
    "origins",
    "warnings",
    "task_ids",
    "uncorrected_energy_per_atom",
    "equilibrium_reaction_energy_per_atom",
    "decomposes_to",
    "xas",
    "grain_boundaries",
    "cbm",
    "vbm",
    "is_gap_direct",
    "is_metal",
    "es_source_calc_id",
    "bandstructure",
    "dos",
    "dos_energy_up",
    "dos_energy_down",
    "is_magnetic",
    "ordering",
    "total_magnetization_normalized_vol",
    "total_magnetization_normalized_formula_units",
    "num_magnetic_sites",
    "num_unique_magnetic_sites",
    "types_of_magnetic_species",
    "bulk_modulus",
    "shear_modulus",
    "universal_anisotropy",
    "homogeneous_poisson",
    "e_total",
    "e_ionic",
    "e_electronic",
    "n",
    "e_ij_max",
    "weighted_surface_energy_EV_PER_ANG2",
    "weighted_surface_energy",
    "weighted_work_function",
    "surface_anisotropy",
    "shape_factor",
    "has_reconstructed",
    "possible_species",
    "has_props",
    "theoretical",
    "database_IDs"
  ]
}
