{
  "builder_meta": null,
  "nsites": null,
  "elements": null,
  "nelements": null,
  "composition": null,
  "composition_reduced": null,
  "formula_pretty": "SmAg3",
  "formula_anonymous": "AB3",
  "chemsys": null,
  "volume": 171.63818154117897,
  "density": 9.170881763235398,
  "density_atomic": 21.45477269264737,
  "symmetry": null,
  "property_name": null,
  "material_id": "mp-972557",
  "deprecated": null,
  "deprecation_reasons": null,
  "last_updated": null,
  "origins": null,
  "warnings": null,
  "structure": {
    "@module": "pymatgen.core.structure",
    "@class": "Structure",
    "charge": 0,
    "lattice": {
      "matrix": [
        [6.43161767, -1e-8, -0.0],
        [-3.21580936, 5.56994597, 0.0],
        [-0.0, -0.0, 4.79118238]
      ],
      "pbc": [true, true, true],
      "a": 6.43161767,
      "b": 6.4316193877267684,
      "c": 4.79118238,
      "alpha": 90.0,
      "beta": 90.0,
      "gamma": 119.99999665476702,
      "volume": 171.63818154117897
    },
    "properties": {},
    "sites": [
      {
        "species": [{ "element": "Sm", "occu": 1 }],
        "abc": [0.666667, 0.333333999999999, 0.249999],
        "properties": { "magmom": 0.0 },
        "label": "Sm",
        "xyz": [3.215808659999653, 1.8566523632973044, 1.1977908038176202]
      },
      {
        "species": [{ "element": "Sm", "occu": 1 }],
        "abc": [0.333333, 0.666667, 0.75],
        "properties": { "magmom": 0.0 },
        "label": "Sm",
        "xyz": [-3.5658090102863582e-6, 3.71329916664866, 3.5933867850000003]
      },
      {
        "species": [{ "element": "Ag", "occu": 1 }],
        "abc": [0.15084762000000002, 0.30169325, 0.249999],
        "properties": { "magmom": 0.0 },
        "label": "Ag",
        "xyz": [6.241070625301326e-6, 1.6804151005052264, 1.1977908038176202]
      },
      {
        "species": [{ "element": "Ag", "occu": 1 }],
        "abc": [0.69830775, 0.84915238, 0.249999],
        "properties": { "magmom": 0.0 },
        "label": "Ag",
        "xyz": [1.7605362923276648, 4.729732869913832, 1.1977908038176202]
      },
      {
        "species": [{ "element": "Ag", "occu": 1 }],
        "abc": [0.15084762000000002, 0.84915238, 0.249999],
        "properties": { "magmom": 0.0 },
        "label": "Ag",
        "xyz": [-1.7605179534008317, 4.729732875388433, 1.1977908038176202]
      },
      {
        "species": [{ "element": "Ag", "occu": 1 }],
        "abc": [0.8491533800000001, 0.15084662000000001, 0.75],
        "properties": { "magmom": 0.0 },
        "label": "Ag",
        "xyz": [4.976335910827862, 0.8402075146655876, 3.5933867850000003]
      },
      {
        "species": [{ "element": "Ag", "occu": 1 }],
        "abc": [0.30169325, 0.15084662000000001, 0.75],
        "properties": { "magmom": 0.0 },
        "label": "Ag",
        "xyz": [1.4552816650993643, 0.840207520140189, 3.5933867850000003]
      },
      {
        "species": [{ "element": "Ag", "occu": 1 }],
        "abc": [0.84915238, 0.6983057500000001, 0.75],
        "properties": { "magmom": 0.0 },
        "label": "Ag",
        "xyz": [3.215805284738734, 3.889525289548804, 3.5933867850000003]
      }
    ]
  },
  "task_ids": null,
  "uncorrected_energy_per_atom": null,
  "energy_per_atom": -23.65335228,
  "formation_energy_per_atom": -0.20321334124999801,
  "energy_above_hull": 0.05697191013513601,
  "is_stable": false,
  "equilibrium_reaction_energy_per_atom": null,
  "decomposes_to": null,
  "xas": null,
  "grain_boundaries": null,
  "band_gap": 0.0,
  "cbm": null,
  "vbm": null,
  "efermi": 3.10929071,
  "is_gap_direct": null,
  "is_metal": null,
  "es_source_calc_id": null,
  "bandstructure": null,
  "dos": null,
  "dos_energy_up": null,
  "dos_energy_down": null,
  "is_magnetic": null,
  "ordering": null,
  "total_magnetization": 1e-7,
  "total_magnetization_normalized_vol": null,
  "total_magnetization_normalized_formula_units": null,
  "num_magnetic_sites": null,
  "num_unique_magnetic_sites": null,
  "types_of_magnetic_species": null,
  "bulk_modulus": null,
  "shear_modulus": null,
  "universal_anisotropy": null,
  "homogeneous_poisson": null,
  "e_total": null,
  "e_ionic": null,
  "e_electronic": null,
  "n": null,
  "e_ij_max": null,
  "weighted_surface_energy_EV_PER_ANG2": null,
  "weighted_surface_energy": null,
  "weighted_work_function": null,
  "surface_anisotropy": null,
  "shape_factor": null,
  "has_reconstructed": null,
  "possible_species": null,
  "has_props": null,
  "theoretical": null,
  "database_IDs": null,
  "fields_not_requested": [
    "builder_meta",
    "nsites",
    "elements",
    "nelements",
    "composition",
    "composition_reduced",
    "chemsys",
    "symmetry",
    "property_name",
    "deprecated",
    "deprecation_reasons",
    "last_updated",
    "origins",
    "warnings",
    "task_ids",
    "uncorrected_energy_per_atom",
    "equilibrium_reaction_energy_per_atom",
    "decomposes_to",
    "xas",
    "grain_boundaries",
    "cbm",
    "vbm",
    "is_gap_direct",
    "is_metal",
    "es_source_calc_id",
    "bandstructure",
    "dos",
    "dos_energy_up",
    "dos_energy_down",
    "is_magnetic",
    "ordering",
    "total_magnetization_normalized_vol",
    "total_magnetization_normalized_formula_units",
    "num_magnetic_sites",
    "num_unique_magnetic_sites",
    "types_of_magnetic_species",
    "bulk_modulus",
    "shear_modulus",
    "universal_anisotropy",
    "homogeneous_poisson",
    "e_total",
    "e_ionic",
    "e_electronic",
    "n",
    "e_ij_max",
    "weighted_surface_energy_EV_PER_ANG2",
    "weighted_surface_energy",
    "weighted_work_function",
    "surface_anisotropy",
    "shape_factor",
    "has_reconstructed",
    "possible_species",
    "has_props",
    "theoretical",
    "database_IDs"
  ]
}
