{
  "builder_meta": null,
  "nsites": null,
  "elements": null,
  "nelements": null,
  "composition": null,
  "composition_reduced": null,
  "formula_pretty": "SmAl3",
  "formula_anonymous": "AB3",
  "chemsys": null,
  "volume": 163.48575258944115,
  "density": 4.698762365982592,
  "density_atomic": 20.435719073680144,
  "symmetry": null,
  "property_name": null,
  "material_id": "mp-867870",
  "deprecated": null,
  "deprecation_reasons": null,
  "last_updated": null,
  "origins": null,
  "warnings": null,
  "structure": {
    "@module": "pymatgen.core.structure",
    "@class": "Structure",
    "charge": 0,
    "lattice": {
      "matrix": [
        [6.41124974, 2e-8, -0.0],
        [-3.20562384, 5.55230472, -0.0],
        [-0.0, -0.0, 4.59265606]
      ],
      "pbc": [true, true, true],
      "a": 6.41124974,
      "b": 6.41124885707228,
      "c": 4.59265606,
      "alpha": 90.0,
      "beta": 90.0,
      "gamma": 119.99999374799624,
      "volume": 163.48575258944115
    },
    "properties": {},
    "sites": [
      {
        "species": [{ "element": "Sm", "occu": 1 }],
        "abc": [0.666667, 0.333333999999999, 0.249999],
        "properties": { "magmom": -0.0 },
        "label": "Sm",
        "xyz": [3.205625213334023, 1.8507719548698147, 1.1481594223439402]
      },
      {
        "species": [{ "element": "Sm", "occu": 1 }],
        "abc": [0.333333999999999, 0.666667, 0.75],
        "properties": { "magmom": -0.0 },
        "label": "Sm",
        "xyz": [3.892291873697218e-6, 3.7015383374349202, 3.4444920450000005]
      },
      {
        "species": [{ "element": "Al", "occu": 1 }],
        "abc": [0.8583188700000001, 0.14168013000000002, 0.75],
        "properties": { "magmom": 0.0 },
        "label": "Al",
        "xyz": [5.048723429742295, 0.7866512716955911, 3.4444920450000005]
      },
      {
        "species": [{ "element": "Al", "occu": 1 }],
        "abc": [0.14168113000000002, 0.28336327, 0.249999],
        "properties": { "magmom": 0.0 },
        "label": "Al",
        "xyz": [-2.9458169504836818e-6, 1.573319224329257, 1.1481594223439402]
      },
      {
        "species": [{ "element": "Al", "occu": 1 }],
        "abc": [0.71663973, 0.85832087, 0.249999],
        "properties": { "magmom": 0.0 },
        "label": "Al",
        "xyz": [1.8431024393946296, 4.765659032108301, 1.1481594223439402]
      },
      {
        "species": [{ "element": "Al", "occu": 1 }],
        "abc": [0.14168113000000002, 0.85832087, 0.249999],
        "properties": { "magmom": 0.0 },
        "label": "Al",
        "xyz": [-1.8431007353661344, 4.765659020609129, 1.1481594223439402]
      },
      {
        "species": [{ "element": "Al", "occu": 1 }],
        "abc": [0.8583188700000001, 0.71663773, 0.75],
        "properties": { "magmom": 0.0 },
        "label": "Al",
        "xyz": [3.2056256401931114, 3.9789910679754628, 3.4444920450000005]
      },
      {
        "species": [{ "element": "Al", "occu": 1 }],
        "abc": [0.28336127, 0.14168013000000002, 0.75],
        "properties": { "magmom": 0.0 },
        "label": "Al",
        "xyz": [1.3625266662312705, 0.786651260196439, 3.4444920450000005]
      }
    ]
  },
  "task_ids": null,
  "uncorrected_energy_per_atom": null,
  "energy_per_atom": -12.97674594875,
  "formation_energy_per_atom": -0.49444112125000006,
  "energy_above_hull": 0.0,
  "is_stable": true,
  "equilibrium_reaction_energy_per_atom": null,
  "decomposes_to": null,
  "xas": null,
  "grain_boundaries": null,
  "band_gap": 0.0,
  "cbm": null,
  "vbm": null,
  "efermi": 5.65312246,
  "is_gap_direct": null,
  "is_metal": null,
  "es_source_calc_id": null,
  "bandstructure": null,
  "dos": null,
  "dos_energy_up": null,
  "dos_energy_down": null,
  "is_magnetic": null,
  "ordering": null,
  "total_magnetization": 0.0,
  "total_magnetization_normalized_vol": null,
  "total_magnetization_normalized_formula_units": null,
  "num_magnetic_sites": null,
  "num_unique_magnetic_sites": null,
  "types_of_magnetic_species": null,
  "bulk_modulus": null,
  "shear_modulus": null,
  "universal_anisotropy": null,
  "homogeneous_poisson": null,
  "e_total": null,
  "e_ionic": null,
  "e_electronic": null,
  "n": null,
  "e_ij_max": null,
  "weighted_surface_energy_EV_PER_ANG2": null,
  "weighted_surface_energy": null,
  "weighted_work_function": null,
  "surface_anisotropy": null,
  "shape_factor": null,
  "has_reconstructed": null,
  "possible_species": null,
  "has_props": null,
  "theoretical": null,
  "database_IDs": null,
  "fields_not_requested": [
    "builder_meta",
    "nsites",
    "elements",
    "nelements",
    "composition",
    "composition_reduced",
    "chemsys",
    "symmetry",
    "property_name",
    "deprecated",
    "deprecation_reasons",
    "last_updated",
    "origins",
    "warnings",
    "task_ids",
    "uncorrected_energy_per_atom",
    "equilibrium_reaction_energy_per_atom",
    "decomposes_to",
    "xas",
    "grain_boundaries",
    "cbm",
    "vbm",
    "is_gap_direct",
    "is_metal",
    "es_source_calc_id",
    "bandstructure",
    "dos",
    "dos_energy_up",
    "dos_energy_down",
    "is_magnetic",
    "ordering",
    "total_magnetization_normalized_vol",
    "total_magnetization_normalized_formula_units",
    "num_magnetic_sites",
    "num_unique_magnetic_sites",
    "types_of_magnetic_species",
    "bulk_modulus",
    "shear_modulus",
    "universal_anisotropy",
    "homogeneous_poisson",
    "e_total",
    "e_ionic",
    "e_electronic",
    "n",
    "e_ij_max",
    "weighted_surface_energy_EV_PER_ANG2",
    "weighted_surface_energy",
    "weighted_work_function",
    "surface_anisotropy",
    "shape_factor",
    "has_reconstructed",
    "possible_species",
    "has_props",
    "theoretical",
    "database_IDs"
  ]
}
