{"builder_meta": null, "nsites": null, "elements": null, "nelements": null, "composition": null, "composition_reduced": null, "formula_pretty": "SmAl", "formula_anonymous": "AB", "chemsys": null, "volume": 391.29488109343373, "density": 6.02067785100281, "density_atomic": 24.455930068339608, "symmetry": null, "property_name": null, "material_id": "mp-978951", "deprecated": null, "deprecation_reasons": null, "last_updated": null, "origins": null, "warnings": null, "structure": {"@module": "pymatgen.core.structure", "@class": "Structure", "charge": 0, "lattice": {"matrix": [[5.9032841099999995, 0.00015788, 1.855e-05], [0.00031073, 11.64204767, 1.4350000000000002e-05], [1.7690000000000002e-05, 7.66e-06, 5.69352338]], "pbc": [true, true, true], "a": 5.9032841121403505, "b": 11.642047674155586, "c": 5.6935233800326355, "alpha": 89.99985228733755, "beta": 89.99964193610998, "gamma": 89.99693841371081, "volume": 391.29488109343373}, "properties": {}, "sites": [{"species": [{"element": "Sm", "occu": 1}], "abc": [0.16509741, 0.011535420000000001, 0.25000125], "properties": {"magmom": -0.0}, "label": "Sm", "xyz": [0.9746249239783242, 0.13432389012213722, 1.4233911899944576]}, {"species": [{"element": "Sm", "occu": 1}], "abc": [0.40702768, 0.33405158, 0.25000097], "properties": {"magmom": -0.0}, "label": "Sm", "xyz": [2.402908258038777, 3.889110595136368, 1.4233987117213156]}, {"species": [{"element": "Sm", "occu": 1}], "abc": [0.83492309, 0.51154334, 0.25000079000000003], "properties": {"magmom": -0.0}, "label": "Sm", "xyz": [4.928951584645112, 5.9555456822145185, 1.423408171353719]}, {"species": [{"element": "Sm", "occu": 1}], "abc": [0.59297431, 0.83402929, 0.25000094], "properties": {"magmom": 0.0}, "label": "Sm", "xyz": [3.5007594022991237, 9.709904286147518, 1.4234091649057392]}, {"species": [{"element": "Sm", "occu": 1}], "abc": [0.40702187, 0.16596039, 0.7500013], "properties": {"magmom": 0.0}, "label": "Sm", "xyz": [2.4028305739884672, 1.9321887773345852, 4.270159868367679]}, {"species": [{"element": "Sm", "occu": 1}], "abc": [0.16507476000000001, 0.48847208000000003, 0.74999928], "properties": {"magmom": 0.0}, "label": "Sm", "xyz": [0.9746482580867452, 5.686847047821647, 4.270148507374313]}, {"species": [{"element": "Sm", "occu": 1}], "abc": [0.59296873, 0.66595691, 0.7499995500000001], "properties": {"magmom": -0.0}, "label": "Sm", "xyz": [3.5006830818185644, 7.753201455285546, 4.27016052896608]}, {"species": [{"element": "Sm", "occu": 1}], "abc": [0.83489483, 0.98844623, 0.75000171], "properties": {"magmom": -0.0}, "label": "Sm", "xyz": [4.928941790887448, 11.507675687100644, 4.270181942427477]}, {"species": [{"element": "Al", "occu": 1}], "abc": [0.9308985, 0.25000589, -4.96e-06], "properties": {"magmom": 0.0}, "label": "Al", "xyz": [5.495436007315292, 2.910727459377963, -7.384124268300002e-06]}, {"species": [{"element": "Al", "occu": 1}], "abc": [0.06912969000000001, 0.75000169, 0.99999797], "properties": {"magmom": 0.0}, "label": "Al", "xyz": [0.4083429384954489, 8.73157400174047, 5.693523867027539]}, {"species": [{"element": "Al", "occu": 1}], "abc": [0.66790877, 0.100905799999999, 0.25000257], "properties": {"magmom": -0.0}, "label": "Al", "xyz": [3.9428910058753415, 1.174857498235768, 1.423409315061]}, {"species": [{"element": "Al", "occu": 1}], "abc": [0.33209968, 0.60090961, 0.24999621], "properties": {"magmom": 0.0}, "label": "Al", "xyz": [1.9606699069561548, 6.995872671849556, 1.4233740500483574]}, {"species": [{"element": "Al", "occu": 1}], "abc": [0.93089868, 0.25000573, 0.50000868], "properties": {"magmom": 0.0}, "label": "Al", "xyz": [5.495445915098006, 2.910729426783236, 2.846831965535678]}, {"species": [{"element": "Al", "occu": 1}], "abc": [0.06909667, 0.7499918600000001, 0.49999287000000003], "properties": {"magmom": -0.0}, "label": "Al", "xyz": [0.40813916390944177, 8.731455725159611, 2.84673313930472]}, {"species": [{"element": "Al", "occu": 1}], "abc": [0.66790098, 0.39909262, 0.75000176], "properties": {"magmom": 0.0}, "label": "Al", "xyz": [3.9429465198683746, 4.646366500005399, 4.270170672143425]}, {"species": [{"element": "Al", "occu": 1}], "abc": [0.33208437, 0.8990895600000001, 0.75000111], "properties": {"magmom": 0.0}, "label": "Al", "xyz": [1.9606810262189753, 10.467301691608165, 4.270167916911202]}]}, "task_ids": null, "uncorrected_energy_per_atom": null, "energy_per_atom": -18.702141071875, "formation_energy_per_atom": -0.46962974687500003, "energy_above_hull": 0.0, "is_stable": true, "equilibrium_reaction_energy_per_atom": null, "decomposes_to": null, "xas": null, "grain_boundaries": null, "band_gap": 0.0, "cbm": null, "vbm": null, "efermi": 4.50208753, "is_gap_direct": null, "is_metal": null, "es_source_calc_id": null, "bandstructure": null, "dos": null, "dos_energy_up": null, "dos_energy_down": null, "is_magnetic": null, "ordering": null, "total_magnetization": 1e-07, "total_magnetization_normalized_vol": null, "total_magnetization_normalized_formula_units": null, "num_magnetic_sites": null, "num_unique_magnetic_sites": null, "types_of_magnetic_species": null, "bulk_modulus": null, "shear_modulus": null, "universal_anisotropy": null, "homogeneous_poisson": null, "e_total": null, "e_ionic": null, "e_electronic": null, "n": null, "e_ij_max": null, "weighted_surface_energy_EV_PER_ANG2": null, "weighted_surface_energy": null, "weighted_work_function": null, "surface_anisotropy": null, "shape_factor": null, "has_reconstructed": null, "possible_species": null, "has_props": null, "theoretical": null, "database_IDs": null, "fields_not_requested": ["builder_meta", "nsites", "elements", "nelements", "composition", "composition_reduced", "chemsys", "symmetry", "property_name", "deprecated", "deprecation_reasons", "last_updated", "origins", "warnings", "task_ids", "uncorrected_energy_per_atom", "equilibrium_reaction_energy_per_atom", "decomposes_to", "xas", "grain_boundaries", "cbm", "vbm", "is_gap_direct", "is_metal", "es_source_calc_id", "bandstructure", "dos", "dos_energy_up", "dos_energy_down", "is_magnetic", "ordering", "total_magnetization_normalized_vol", "total_magnetization_normalized_formula_units", "num_magnetic_sites", "num_unique_magnetic_sites", "types_of_magnetic_species", "bulk_modulus", "shear_modulus", "universal_anisotropy", "homogeneous_poisson", "e_total", "e_ionic", "e_electronic", "n", "e_ij_max", "weighted_surface_energy_EV_PER_ANG2", "weighted_surface_energy", "weighted_work_function", "surface_anisotropy", "shape_factor", "has_reconstructed", "possible_species", "has_props", "theoretical", "database_IDs"]}