{
  "builder_meta": null,
  "nsites": null,
  "elements": null,
  "nelements": null,
  "composition": null,
  "composition_reduced": null,
  "formula_pretty": "SmAl4",
  "formula_anonymous": "AB4",
  "chemsys": null,
  "volume": 194.15437527273377,
  "density": 4.418074525908574,
  "density_atomic": 19.415437527273376,
  "symmetry": null,
  "property_name": null,
  "material_id": "mp-1079897",
  "deprecated": null,
  "deprecation_reasons": null,
  "last_updated": null,
  "origins": null,
  "warnings": null,
  "structure": {
    "@module": "pymatgen.core.structure",
    "@class": "Structure",
    "charge": 0,
    "lattice": {
      "matrix": [
        [-2.21728599, 3.1924619, 6.8570885],
        [2.21728599, -3.1924619, 6.8570885],
        [2.21728599, 3.1924619, -6.8570885]
      ],
      "pbc": [true, true, true],
      "a": 7.882121087704384,
      "b": 7.882121087704384,
      "c": 7.882121087704384,
      "alpha": 147.3236970931693,
      "beta": 132.21452011552128,
      "gamma": 59.093242146840964,
      "volume": 194.15437527273377
    },
    "properties": {},
    "sites": [
      {
        "species": [{ "element": "Sm", "occu": 1 }],
        "abc": [0.13606789, 0.88606789, 0.25],
        "properties": { "magmom": -0.0 },
        "label": "Sm",
        "xyz": [2.21728599, -1.5962309500000003, 5.2946033774765295]
      },
      {
        "species": [{ "element": "Sm", "occu": 1 }],
        "abc": [0.86393211, 0.11393211, 0.75],
        "properties": { "magmom": -0.0 },
        "label": "Sm",
        "xyz": [-2.220446049250313e-16, 4.78869285, 1.5624851225234702]
      },
      {
        "species": [{ "element": "Al", "occu": 1 }],
        "abc": [0.5, 0.5, 0.0],
        "properties": { "magmom": -0.0 },
        "label": "Al",
        "xyz": [0.0, 0.0, 6.8570885]
      },
      {
        "species": [{ "element": "Al", "occu": 1 }],
        "abc": [0.0, 0.5, 0.5],
        "properties": { "magmom": -0.0 },
        "label": "Al",
        "xyz": [2.21728599, 0.0, 0.0]
      },
      {
        "species": [{ "element": "Al", "occu": 1 }],
        "abc": [0.36432132, 0.11432132, 0.25],
        "properties": { "magmom": 0.0 },
        "label": "Al",
        "xyz": [-1.1102230246251565e-16, 1.59623095, 1.5678228173536404]
      },
      {
        "species": [{ "element": "Al", "occu": 1 }],
        "abc": [0.63567868, 0.88567868, 0.75],
        "properties": { "magmom": 0.0 },
        "label": "Al",
        "xyz": [2.21728599, 1.5962309499999998, 5.289265682646362]
      },
      {
        "species": [{ "element": "Al", "occu": 1 }],
        "abc": [0.6559716800000001, 0.69798646, 0.95798522],
        "properties": { "magmom": -0.0 },
        "label": "Al",
        "xyz": [2.2172859899999997, 2.924200731226236, 2.71522135604342]
      },
      {
        "species": [{ "element": "Al", "occu": 1 }],
        "abc": [0.34402832, 0.30201354, 0.04201478],
        "properties": { "magmom": -0.0 },
        "label": "Al",
        "xyz": [5.551115123125783e-17, 0.2682611687737638, 4.1418671439565795]
      },
      {
        "species": [{ "element": "Al", "occu": 1 }],
        "abc": [0.7599987500000001, 0.30201354, 0.45798522],
        "properties": { "magmom": -0.0 },
        "label": "Al",
        "xyz": [2.2172860214553225e-8, 2.9242006993016174, 4.141867075385695]
      },
      {
        "species": [{ "element": "Al", "occu": 1 }],
        "abc": [0.24000125, 0.69798646, 0.54201478],
        "properties": { "magmom": -0.0 },
        "label": "Al",
        "xyz": [2.2172859678271406, 0.2682612006983831, 2.7152214246143047]
      }
    ]
  },
  "task_ids": null,
  "uncorrected_energy_per_atom": null,
  "energy_per_atom": -11.709224072000001,
  "formation_energy_per_atom": -0.376960544,
  "energy_above_hull": 0.018592352999997,
  "is_stable": false,
  "equilibrium_reaction_energy_per_atom": null,
  "decomposes_to": null,
  "xas": null,
  "grain_boundaries": null,
  "band_gap": 0.0,
  "cbm": null,
  "vbm": null,
  "efermi": 6.29041301,
  "is_gap_direct": null,
  "is_metal": null,
  "es_source_calc_id": null,
  "bandstructure": null,
  "dos": null,
  "dos_energy_up": null,
  "dos_energy_down": null,
  "is_magnetic": null,
  "ordering": null,
  "total_magnetization": 0.0,
  "total_magnetization_normalized_vol": null,
  "total_magnetization_normalized_formula_units": null,
  "num_magnetic_sites": null,
  "num_unique_magnetic_sites": null,
  "types_of_magnetic_species": null,
  "bulk_modulus": null,
  "shear_modulus": null,
  "universal_anisotropy": null,
  "homogeneous_poisson": null,
  "e_total": null,
  "e_ionic": null,
  "e_electronic": null,
  "n": null,
  "e_ij_max": null,
  "weighted_surface_energy_EV_PER_ANG2": null,
  "weighted_surface_energy": null,
  "weighted_work_function": null,
  "surface_anisotropy": null,
  "shape_factor": null,
  "has_reconstructed": null,
  "possible_species": null,
  "has_props": null,
  "theoretical": null,
  "database_IDs": null,
  "fields_not_requested": [
    "builder_meta",
    "nsites",
    "elements",
    "nelements",
    "composition",
    "composition_reduced",
    "chemsys",
    "symmetry",
    "property_name",
    "deprecated",
    "deprecation_reasons",
    "last_updated",
    "origins",
    "warnings",
    "task_ids",
    "uncorrected_energy_per_atom",
    "equilibrium_reaction_energy_per_atom",
    "decomposes_to",
    "xas",
    "grain_boundaries",
    "cbm",
    "vbm",
    "is_gap_direct",
    "is_metal",
    "es_source_calc_id",
    "bandstructure",
    "dos",
    "dos_energy_up",
    "dos_energy_down",
    "is_magnetic",
    "ordering",
    "total_magnetization_normalized_vol",
    "total_magnetization_normalized_formula_units",
    "num_magnetic_sites",
    "num_unique_magnetic_sites",
    "types_of_magnetic_species",
    "bulk_modulus",
    "shear_modulus",
    "universal_anisotropy",
    "homogeneous_poisson",
    "e_total",
    "e_ionic",
    "e_electronic",
    "n",
    "e_ij_max",
    "weighted_surface_energy_EV_PER_ANG2",
    "weighted_surface_energy",
    "weighted_work_function",
    "surface_anisotropy",
    "shape_factor",
    "has_reconstructed",
    "possible_species",
    "has_props",
    "theoretical",
    "database_IDs"
  ]
}
