{
  "builder_meta": null,
  "nsites": null,
  "elements": null,
  "nelements": null,
  "composition": null,
  "composition_reduced": null,
  "formula_pretty": "SmAu3",
  "formula_anonymous": "AB3",
  "chemsys": null,
  "volume": 165.8556553839879,
  "density": 14.842915053095046,
  "density_atomic": 20.73195692299849,
  "symmetry": null,
  "property_name": null,
  "material_id": "mp-30417",
  "deprecated": null,
  "deprecation_reasons": null,
  "last_updated": null,
  "origins": null,
  "warnings": null,
  "structure": {
    "@module": "pymatgen.core.structure",
    "@class": "Structure",
    "charge": 0,
    "lattice": {
      "matrix": [
        [5.09472288, -0.0, 0.0],
        [0.0, 5.07546484, 0.0],
        [0.0, 0.0, 6.414072949999999]
      ],
      "pbc": [true, true, true],
      "a": 5.09472288,
      "b": 5.07546484,
      "c": 6.414072949999999,
      "alpha": 90.0,
      "beta": 90.0,
      "gamma": 90.0,
      "volume": 165.85565538398788
    },
    "properties": {},
    "sites": [
      {
        "species": [{ "element": "Sm", "occu": 1 }],
        "abc": [0.75, 0.34272197, 0.75],
        "properties": { "magmom": 0.0 },
        "label": "Sm",
        "xyz": [3.82104216, 1.739473308630535, 4.810554712499999]
      },
      {
        "species": [{ "element": "Sm", "occu": 1 }],
        "abc": [0.25, 0.6572780300000001, 0.25],
        "properties": { "magmom": 0.0 },
        "label": "Sm",
        "xyz": [1.27368072, 3.3359915313694657, 1.6035182374999997]
      },
      {
        "species": [{ "element": "Au", "occu": 1 }],
        "abc": [0.25, 0.16048357, 0.51472057],
        "properties": { "magmom": -0.0 },
        "label": "Au",
        "xyz": [1.27368072, 0.8145287169326788, 3.301455284845581]
      },
      {
        "species": [{ "element": "Au", "occu": 1 }],
        "abc": [0.75, 0.83951643, 0.48527943],
        "properties": { "magmom": -0.0 },
        "label": "Au",
        "xyz": [3.82104216, 4.260936123067322, 3.112617665154418]
      },
      {
        "species": [{ "element": "Au", "occu": 1 }],
        "abc": [0.25, 0.16048357, 0.9852794300000001],
        "properties": { "magmom": -0.0 },
        "label": "Au",
        "xyz": [1.27368072, 0.8145287169326788, 6.319654140154418]
      },
      {
        "species": [{ "element": "Au", "occu": 1 }],
        "abc": [0.75, 0.83951643, 0.01472057],
        "properties": { "magmom": -0.0 },
        "label": "Au",
        "xyz": [3.82104216, 4.260936123067322, 0.09441880984558149]
      },
      {
        "species": [{ "element": "Au", "occu": 1 }],
        "abc": [0.25, 0.67194711, 0.75],
        "properties": { "magmom": -0.0 },
        "label": "Au",
        "xyz": [1.27368072, 3.4104439311446124, 4.810554712499999]
      },
      {
        "species": [{ "element": "Au", "occu": 1 }],
        "abc": [0.75, 0.32805289, 0.25],
        "properties": { "magmom": -0.0 },
        "label": "Au",
        "xyz": [3.82104216, 1.6650209088553876, 1.6035182374999997]
      }
    ]
  },
  "task_ids": null,
  "uncorrected_energy_per_atom": null,
  "energy_per_atom": -4.325454852500002,
  "formation_energy_per_atom": -0.690396818750001,
  "energy_above_hull": 0.0,
  "is_stable": true,
  "equilibrium_reaction_energy_per_atom": null,
  "decomposes_to": null,
  "xas": null,
  "grain_boundaries": null,
  "band_gap": 0.0,
  "cbm": null,
  "vbm": null,
  "efermi": 4.65931286,
  "is_gap_direct": null,
  "is_metal": null,
  "es_source_calc_id": null,
  "bandstructure": null,
  "dos": null,
  "dos_energy_up": null,
  "dos_energy_down": null,
  "is_magnetic": null,
  "ordering": null,
  "total_magnetization": 0.0,
  "total_magnetization_normalized_vol": null,
  "total_magnetization_normalized_formula_units": null,
  "num_magnetic_sites": null,
  "num_unique_magnetic_sites": null,
  "types_of_magnetic_species": null,
  "bulk_modulus": null,
  "shear_modulus": null,
  "universal_anisotropy": null,
  "homogeneous_poisson": null,
  "e_total": null,
  "e_ionic": null,
  "e_electronic": null,
  "n": null,
  "e_ij_max": null,
  "weighted_surface_energy_EV_PER_ANG2": null,
  "weighted_surface_energy": null,
  "weighted_work_function": null,
  "surface_anisotropy": null,
  "shape_factor": null,
  "has_reconstructed": null,
  "possible_species": null,
  "has_props": null,
  "theoretical": null,
  "database_IDs": null,
  "fields_not_requested": [
    "builder_meta",
    "nsites",
    "elements",
    "nelements",
    "composition",
    "composition_reduced",
    "chemsys",
    "symmetry",
    "property_name",
    "deprecated",
    "deprecation_reasons",
    "last_updated",
    "origins",
    "warnings",
    "task_ids",
    "uncorrected_energy_per_atom",
    "equilibrium_reaction_energy_per_atom",
    "decomposes_to",
    "xas",
    "grain_boundaries",
    "cbm",
    "vbm",
    "is_gap_direct",
    "is_metal",
    "es_source_calc_id",
    "bandstructure",
    "dos",
    "dos_energy_up",
    "dos_energy_down",
    "is_magnetic",
    "ordering",
    "total_magnetization_normalized_vol",
    "total_magnetization_normalized_formula_units",
    "num_magnetic_sites",
    "num_unique_magnetic_sites",
    "types_of_magnetic_species",
    "bulk_modulus",
    "shear_modulus",
    "universal_anisotropy",
    "homogeneous_poisson",
    "e_total",
    "e_ionic",
    "e_electronic",
    "n",
    "e_ij_max",
    "weighted_surface_energy_EV_PER_ANG2",
    "weighted_surface_energy",
    "weighted_work_function",
    "surface_anisotropy",
    "shape_factor",
    "has_reconstructed",
    "possible_species",
    "has_props",
    "theoretical",
    "database_IDs"
  ]
}
