{"builder_meta": null, "nsites": null, "elements": null, "nelements": null, "composition": null, "composition_reduced": null, "formula_pretty": "SmAu6", "formula_anonymous": "AB6", "chemsys": null, "volume": 1082.834766788607, "density": 16.343049320046912, "density_atomic": 19.336335121225126, "symmetry": null, "property_name": null, "material_id": "mp-1091", "deprecated": null, "deprecation_reasons": null, "last_updated": null, "origins": null, "warnings": null, "structure": {"@module": "pymatgen.core.structure", "@class": "Structure", "charge": 0, "lattice": {"matrix": [[9.84325018, -0.0, -0.0], [-0.0, 10.4884626, 0.0], [0.0, 0.0, 10.4884626]], "pbc": [true, true, true], "a": 9.84325018, "b": 10.4884626, "c": 10.4884626, "alpha": 90.0, "beta": 90.0, "gamma": 90.0, "volume": 1082.834766788607}, "properties": {}, "sites": [{"species": [{"element": "Sm", "occu": 1}], "abc": [0.28875639000000003, 0.9249023, 0.9249023], "properties": {"magmom": 0.0}, "label": "Sm", "xyz": [2.8423013878436505, 9.70080318220398, 9.70080318220398]}, {"species": [{"element": "Sm", "occu": 1}], "abc": [0.28875639000000003, 0.575097699999999, 0.575097699999999], "properties": {"magmom": 0.0}, "label": "Sm", "xyz": [2.8423013878436505, 6.03189071779601, 6.03189071779601]}, {"species": [{"element": "Sm", "occu": 1}], "abc": [0.78875639, 0.9249023, 0.575097699999999], "properties": {"magmom": 0.0}, "label": "Sm", "xyz": [7.76392647784365, 9.70080318220398, 6.03189071779601]}, {"species": [{"element": "Sm", "occu": 1}], "abc": [0.78875639, 0.575097699999999, 0.9249023], "properties": {"magmom": 0.0}, "label": "Sm", "xyz": [7.76392647784365, 6.03189071779601, 9.70080318220398]}, {"species": [{"element": "Sm", "occu": 1}], "abc": [0.71124361, 0.424902299999999, 0.424902299999999], "properties": {"magmom": 0.0}, "label": "Sm", "xyz": [7.0009487921563505, 4.45657188220397, 4.45657188220397]}, {"species": [{"element": "Sm", "occu": 1}], "abc": [0.21124361, 0.0750977, 0.424902299999999], "properties": {"magmom": 0.0}, "label": "Sm", "xyz": [2.07932370215635, 0.78765941779602, 4.45657188220397]}, {"species": [{"element": "Sm", "occu": 1}], "abc": [0.21124361, 0.424902299999999, 0.0750977], "properties": {"magmom": 0.0}, "label": "Sm", "xyz": [2.07932370215635, 4.45657188220397, 0.78765941779602]}, {"species": [{"element": "Sm", "occu": 1}], "abc": [0.71124361, 0.0750977, 0.0750977], "properties": {"magmom": 0.0}, "label": "Sm", "xyz": [7.0009487921563505, 0.78765941779602, 0.78765941779602]}, {"species": [{"element": "Au", "occu": 1}], "abc": [0.1815098, 0.14594464000000001, 0.14594464000000001], "properties": {"magmom": -0.0}, "label": "Au", "xyz": [1.786646371521764, 1.530734898310464, 1.530734898310464]}, {"species": [{"element": "Au", "occu": 1}], "abc": [0.681509799999999, 0.35405536, 0.14594464000000001], "properties": {"magmom": -0.0}, "label": "Au", "xyz": [6.708271461521755, 3.713496401689536, 1.530734898310464]}, {"species": [{"element": "Au", "occu": 1}], "abc": [0.681509799999999, 0.14594464000000001, 0.35405536], "properties": {"magmom": -0.0}, "label": "Au", "xyz": [6.708271461521755, 1.530734898310464, 3.713496401689536]}, {"species": [{"element": "Au", "occu": 1}], "abc": [0.1815098, 0.35405536, 0.35405536], "properties": {"magmom": -0.0}, "label": "Au", "xyz": [1.786646371521764, 3.713496401689536, 3.713496401689536]}, {"species": [{"element": "Au", "occu": 1}], "abc": [0.3184902, 0.64594464, 0.85405536], "properties": {"magmom": -0.0}, "label": "Au", "xyz": [3.134978718478236, 6.774966198310463, 8.957727701689537]}, {"species": [{"element": "Au", "occu": 1}], "abc": [0.3184902, 0.85405536, 0.64594464], "properties": {"magmom": -0.0}, "label": "Au", "xyz": [3.134978718478236, 8.957727701689537, 6.774966198310463]}, {"species": [{"element": "Au", "occu": 1}], "abc": [0.8184902, 0.64594464, 0.64594464], "properties": {"magmom": -0.0}, "label": "Au", "xyz": [8.056603808478236, 6.774966198310463, 6.774966198310463]}, {"species": [{"element": "Au", "occu": 1}], "abc": [0.8184902, 0.85405536, 0.85405536], "properties": {"magmom": -0.0}, "label": "Au", "xyz": [8.056603808478236, 8.957727701689537, 8.957727701689537]}, {"species": [{"element": "Au", "occu": 1}], "abc": [0.14475546, 0.62396018, 0.30241596], "properties": {"magmom": -0.0}, "label": "Au", "xyz": [1.4248642077009828, 6.544383011819268, 3.171878486103096]}, {"species": [{"element": "Au", "occu": 1}], "abc": [0.6447554600000001, 0.19758404000000002, 0.62396018], "properties": {"magmom": -0.0}, "label": "Au", "xyz": [6.346489297700983, 2.072352813896904, 6.544383011819268]}, {"species": [{"element": "Au", "occu": 1}], "abc": [0.6447554600000001, 0.30241596, 0.87603982], "properties": {"magmom": -0.0}, "label": "Au", "xyz": [6.346489297700983, 3.171878486103096, 9.188310888180732]}, {"species": [{"element": "Au", "occu": 1}], "abc": [0.14475546, 0.87603982, 0.19758404000000002], "properties": {"magmom": -0.0}, "label": "Au", "xyz": [1.4248642077009828, 9.188310888180732, 2.072352813896904]}, {"species": [{"element": "Au", "occu": 1}], "abc": [0.35524454, 0.12396018, 0.69758404], "properties": {"magmom": -0.0}, "label": "Au", "xyz": [3.496760882299017, 1.300151711819268, 7.316584113896903]}, {"species": [{"element": "Au", "occu": 1}], "abc": [0.35524454, 0.37603982, 0.80241596], "properties": {"magmom": -0.0}, "label": "Au", "xyz": [3.496760882299017, 3.9440795881807325, 8.416109786103096]}, {"species": [{"element": "Au", "occu": 1}], "abc": [0.85524454, 0.80241596, 0.12396018], "properties": {"magmom": -0.0}, "label": "Au", "xyz": [8.418385972299017, 8.416109786103096, 1.300151711819268]}, {"species": [{"element": "Au", "occu": 1}], "abc": [0.85524454, 0.69758404, 0.37603982], "properties": {"magmom": -0.0}, "label": "Au", "xyz": [8.418385972299017, 7.316584113896903, 3.9440795881807325]}, {"species": [{"element": "Au", "occu": 1}], "abc": [0.85524454, 0.37603982, 0.69758404], "properties": {"magmom": -0.0}, "label": "Au", "xyz": [8.418385972299017, 3.9440795881807325, 7.316584113896903]}, {"species": [{"element": "Au", "occu": 1}], "abc": [0.35524454, 0.80241596, 0.37603982], "properties": {"magmom": -0.0}, "label": "Au", "xyz": [3.496760882299017, 8.416109786103096, 3.9440795881807325]}, {"species": [{"element": "Au", "occu": 1}], "abc": [0.35524454, 0.69758404, 0.12396018], "properties": {"magmom": -0.0}, "label": "Au", "xyz": [3.496760882299017, 7.316584113896903, 1.300151711819268]}, {"species": [{"element": "Au", "occu": 1}], "abc": [0.85524454, 0.12396018, 0.80241596], "properties": {"magmom": -0.0}, "label": "Au", "xyz": [8.418385972299017, 1.300151711819268, 8.416109786103096]}, {"species": [{"element": "Au", "occu": 1}], "abc": [0.6447554600000001, 0.87603982, 0.30241596], "properties": {"magmom": -0.0}, "label": "Au", "xyz": [6.346489297700983, 9.188310888180732, 3.171878486103096]}, {"species": [{"element": "Au", "occu": 1}], "abc": [0.6447554600000001, 0.62396018, 0.19758404000000002], "properties": {"magmom": -0.0}, "label": "Au", "xyz": [6.346489297700983, 6.544383011819268, 2.072352813896904]}, {"species": [{"element": "Au", "occu": 1}], "abc": [0.14475546, 0.19758404000000002, 0.87603982], "properties": {"magmom": -0.0}, "label": "Au", "xyz": [1.4248642077009828, 2.072352813896904, 9.188310888180732]}, {"species": [{"element": "Au", "occu": 1}], "abc": [0.14475546, 0.30241596, 0.62396018], "properties": {"magmom": -0.0}, "label": "Au", "xyz": [1.4248642077009828, 3.171878486103096, 6.544383011819268]}, {"species": [{"element": "Au", "occu": 1}], "abc": [0.07783501, 0.68049708, 0.01346813], "properties": {"magmom": 0.0}, "label": "Au", "xyz": [0.7661494761928017, 7.137368172989208, 0.141259977796938]}, {"species": [{"element": "Au", "occu": 1}], "abc": [0.57783501, 0.48653187000000003, 0.68049708], "properties": {"magmom": 0.0}, "label": "Au", "xyz": [5.687774566192802, 5.102971322203063, 7.137368172989208]}, {"species": [{"element": "Au", "occu": 1}], "abc": [0.57783501, 0.01346813, 0.81950292], "properties": {"magmom": 0.0}, "label": "Au", "xyz": [5.687774566192802, 0.141259977796938, 8.595325727010792]}, {"species": [{"element": "Au", "occu": 1}], "abc": [0.07783501, 0.81950292, 0.48653187000000003], "properties": {"magmom": 0.0}, "label": "Au", "xyz": [0.7661494761928017, 8.595325727010792, 5.102971322203063]}, {"species": [{"element": "Au", "occu": 1}], "abc": [0.42216499, 0.18049708, 0.98653187], "properties": {"magmom": 0.0}, "label": "Au", "xyz": [4.155475613807198, 1.893136872989208, 10.347202622203062]}, {"species": [{"element": "Au", "occu": 1}], "abc": [0.42216499, 0.31950292, 0.51346813], "properties": {"magmom": 0.0}, "label": "Au", "xyz": [4.155475613807198, 3.3510944270107923, 5.385491277796938]}, {"species": [{"element": "Au", "occu": 1}], "abc": [0.9221649900000001, 0.51346813, 0.18049708], "properties": {"magmom": 0.0}, "label": "Au", "xyz": [9.077100703807199, 5.385491277796938, 1.893136872989208]}, {"species": [{"element": "Au", "occu": 1}], "abc": [0.9221649900000001, 0.98653187, 0.31950292], "properties": {"magmom": 0.0}, "label": "Au", "xyz": [9.077100703807199, 10.347202622203062, 3.3510944270107923]}, {"species": [{"element": "Au", "occu": 1}], "abc": [0.9221649900000001, 0.31950292, 0.98653187], "properties": {"magmom": 0.0}, "label": "Au", "xyz": [9.077100703807199, 3.3510944270107923, 10.347202622203062]}, {"species": [{"element": "Au", "occu": 1}], "abc": [0.42216499, 0.51346813, 0.31950292], "properties": {"magmom": 0.0}, "label": "Au", "xyz": [4.155475613807198, 5.385491277796938, 3.3510944270107923]}, {"species": [{"element": "Au", "occu": 1}], "abc": [0.42216499, 0.98653187, 0.18049708], "properties": {"magmom": 0.0}, "label": "Au", "xyz": [4.155475613807198, 10.347202622203062, 1.893136872989208]}, {"species": [{"element": "Au", "occu": 1}], "abc": [0.9221649900000001, 0.18049708, 0.51346813], "properties": {"magmom": 0.0}, "label": "Au", "xyz": [9.077100703807199, 1.893136872989208, 5.385491277796938]}, {"species": [{"element": "Au", "occu": 1}], "abc": [0.57783501, 0.81950292, 0.01346813], "properties": {"magmom": 0.0}, "label": "Au", "xyz": [5.687774566192802, 8.595325727010792, 0.141259977796938]}, {"species": [{"element": "Au", "occu": 1}], "abc": [0.57783501, 0.68049708, 0.48653187000000003], "properties": {"magmom": 0.0}, "label": "Au", "xyz": [5.687774566192802, 7.137368172989208, 5.102971322203063]}, {"species": [{"element": "Au", "occu": 1}], "abc": [0.07783501, 0.48653187000000003, 0.81950292], "properties": {"magmom": 0.0}, "label": "Au", "xyz": [0.7661494761928017, 5.102971322203063, 8.595325727010792]}, {"species": [{"element": "Au", "occu": 1}], "abc": [0.07783501, 0.01346813, 0.68049708], "properties": {"magmom": 0.0}, "label": "Au", "xyz": [0.7661494761928017, 0.141259977796938, 7.137368172989208]}, {"species": [{"element": "Au", "occu": 1}], "abc": [0.56287814, 0.75, 0.75], "properties": {"magmom": -0.0}, "label": "Au", "xyz": [5.5405503528730655, 7.8663469500000005, 7.8663469500000005]}, {"species": [{"element": "Au", "occu": 1}], "abc": [0.06287814, 0.75, 0.75], "properties": {"magmom": -0.0}, "label": "Au", "xyz": [0.6189252628730652, 7.8663469500000005, 7.8663469500000005]}, {"species": [{"element": "Au", "occu": 1}], "abc": [0.93712186, 0.25, 0.25], "properties": {"magmom": -0.0}, "label": "Au", "xyz": [9.224324917126935, 2.62211565, 2.62211565]}, {"species": [{"element": "Au", "occu": 1}], "abc": [0.43712186000000003, 0.25, 0.25], "properties": {"magmom": -0.0}, "label": "Au", "xyz": [4.302699827126935, 2.62211565, 2.62211565]}, {"species": [{"element": "Au", "occu": 1}], "abc": [0.0, 0.5, 0.5], "properties": {"magmom": 0.0}, "label": "Au", "xyz": [0.0, 5.2442313, 5.2442313]}, {"species": [{"element": "Au", "occu": 1}], "abc": [0.5, -0.0, 0.5], "properties": {"magmom": 0.0}, "label": "Au", "xyz": [4.92162509, 0.0, 5.2442313]}, {"species": [{"element": "Au", "occu": 1}], "abc": [0.5, 0.5, -0.0], "properties": {"magmom": 0.0}, "label": "Au", "xyz": [4.92162509, 5.2442313, 0.0]}, {"species": [{"element": "Au", "occu": 1}], "abc": [0.0, -0.0, -0.0], "properties": {"magmom": 0.0}, "label": "Au", "xyz": [0.0, 0.0, 0.0]}]}, "task_ids": null, "uncorrected_energy_per_atom": null, "energy_per_atom": -3.90215849214286, "formation_energy_per_atom": -0.42189018714285903, "energy_above_hull": 0.0, "is_stable": true, "equilibrium_reaction_energy_per_atom": null, "decomposes_to": null, "xas": null, "grain_boundaries": null, "band_gap": 0.0, "cbm": null, "vbm": null, "efermi": 4.88993597, "is_gap_direct": null, "is_metal": null, "es_source_calc_id": null, "bandstructure": null, "dos": null, "dos_energy_up": null, "dos_energy_down": null, "is_magnetic": null, "ordering": null, "total_magnetization": 1e-07, "total_magnetization_normalized_vol": null, "total_magnetization_normalized_formula_units": null, "num_magnetic_sites": null, "num_unique_magnetic_sites": null, "types_of_magnetic_species": null, "bulk_modulus": null, "shear_modulus": null, "universal_anisotropy": null, "homogeneous_poisson": null, "e_total": null, "e_ionic": null, "e_electronic": null, "n": null, "e_ij_max": null, "weighted_surface_energy_EV_PER_ANG2": null, "weighted_surface_energy": null, "weighted_work_function": null, "surface_anisotropy": null, "shape_factor": null, "has_reconstructed": null, "possible_species": null, "has_props": null, "theoretical": null, "database_IDs": null, "fields_not_requested": ["builder_meta", "nsites", "elements", "nelements", "composition", "composition_reduced", "chemsys", "symmetry", "property_name", "deprecated", "deprecation_reasons", "last_updated", "origins", "warnings", "task_ids", "uncorrected_energy_per_atom", "equilibrium_reaction_energy_per_atom", "decomposes_to", "xas", "grain_boundaries", "cbm", "vbm", "is_gap_direct", "is_metal", "es_source_calc_id", "bandstructure", "dos", "dos_energy_up", "dos_energy_down", "is_magnetic", "ordering", "total_magnetization_normalized_vol", "total_magnetization_normalized_formula_units", "num_magnetic_sites", "num_unique_magnetic_sites", "types_of_magnetic_species", "bulk_modulus", "shear_modulus", "universal_anisotropy", "homogeneous_poisson", "e_total", "e_ionic", "e_electronic", "n", "e_ij_max", "weighted_surface_energy_EV_PER_ANG2", "weighted_surface_energy", "weighted_work_function", "surface_anisotropy", "shape_factor", "has_reconstructed", "possible_species", "has_props", "theoretical", "database_IDs"]}