{
  "builder_meta": null,
  "nsites": null,
  "elements": null,
  "nelements": null,
  "composition": null,
  "composition_reduced": null,
  "formula_pretty": "SmB4",
  "formula_anonymous": "AB4",
  "chemsys": null,
  "volume": 210.5365087687658,
  "density": 6.107957376705976,
  "density_atomic": 10.52682543843829,
  "symmetry": null,
  "property_name": null,
  "material_id": "mp-8546",
  "deprecated": null,
  "deprecation_reasons": null,
  "last_updated": null,
  "origins": null,
  "warnings": null,
  "structure": {
    "@module": "pymatgen.core.structure",
    "@class": "Structure",
    "charge": 0,
    "lattice": {
      "matrix": [
        [4.07860057, -0.0, 0.0],
        [-0.0, 7.18469143, 0.0],
        [0.0, 0.0, 7.18469143]
      ],
      "pbc": [true, true, true],
      "a": 4.07860057,
      "b": 7.18469143,
      "c": 7.18469143,
      "alpha": 90.0,
      "beta": 90.0,
      "gamma": 90.0,
      "volume": 210.5365087687658
    },
    "properties": {},
    "sites": [
      {
        "species": [{ "element": "Sm", "occu": 1 }],
        "abc": [0.0, 0.68290683, 0.18290683],
        "properties": { "magmom": 0.0 },
        "label": "Sm",
        "xyz": [0.0, 4.9064748489894665, 1.3141291339894667]
      },
      {
        "species": [{ "element": "Sm", "occu": 1 }],
        "abc": [0.0, 0.81709317, 0.68290683],
        "properties": { "magmom": 0.0 },
        "label": "Sm",
        "xyz": [0.0, 5.870562296010533, 4.9064748489894665]
      },
      {
        "species": [{ "element": "Sm", "occu": 1 }],
        "abc": [0.0, 0.18290683, 0.31709317],
        "properties": { "magmom": 0.0 },
        "label": "Sm",
        "xyz": [0.0, 1.3141291339894667, 2.278216581010533]
      },
      {
        "species": [{ "element": "Sm", "occu": 1 }],
        "abc": [0.0, 0.31709317, 0.81709317],
        "properties": { "magmom": 0.0 },
        "label": "Sm",
        "xyz": [0.0, 2.278216581010533, 5.870562296010533]
      },
      {
        "species": [{ "element": "B", "occu": 1 }],
        "abc": [0.5, 0.46139891, 0.32542662],
        "properties": { "magmom": 0.0 },
        "label": "B",
        "xyz": [2.039300285, 3.315008794488341, 2.3380898478078667]
      },
      {
        "species": [{ "element": "B", "occu": 1 }],
        "abc": [0.5, 0.53860109, 0.67457338],
        "properties": { "magmom": 0.0 },
        "label": "B",
        "xyz": [2.039300285, 3.869682635511659, 4.846601582192133]
      },
      {
        "species": [{ "element": "B", "occu": 1 }],
        "abc": [0.5, 0.32542662, 0.53860109],
        "properties": { "magmom": 0.0 },
        "label": "B",
        "xyz": [2.039300285, 2.3380898478078667, 3.869682635511659]
      },
      {
        "species": [{ "element": "B", "occu": 1 }],
        "abc": [0.5, 0.67457338, 0.46139891],
        "properties": { "magmom": 0.0 },
        "label": "B",
        "xyz": [2.039300285, 4.846601582192133, 3.315008794488341]
      },
      {
        "species": [{ "element": "B", "occu": 1 }],
        "abc": [0.20405087, -0.0, 0.0],
        "properties": { "magmom": 0.0 },
        "label": "B",
        "xyz": [0.8322419946909958, 0.0, 0.0]
      },
      {
        "species": [{ "element": "B", "occu": 1 }],
        "abc": [0.79594913, 0.5, 0.5],
        "properties": { "magmom": 0.0 },
        "label": "B",
        "xyz": [3.246358575309004, 3.592345715, 3.592345715]
      },
      {
        "species": [{ "element": "B", "occu": 1 }],
        "abc": [0.79594913, -0.0, 0.0],
        "properties": { "magmom": 0.0 },
        "label": "B",
        "xyz": [3.246358575309004, 0.0, 0.0]
      },
      {
        "species": [{ "element": "B", "occu": 1 }],
        "abc": [0.20405087, 0.5, 0.5],
        "properties": { "magmom": 0.0 },
        "label": "B",
        "xyz": [0.8322419946909958, 3.592345715, 3.592345715]
      },
      {
        "species": [{ "element": "B", "occu": 1 }],
        "abc": [0.5, 0.08777872, 0.58777872],
        "properties": { "magmom": 0.0 },
        "label": "B",
        "xyz": [2.039300285, 0.6306630173203697, 4.22300873232037]
      },
      {
        "species": [{ "element": "B", "occu": 1 }],
        "abc": [0.5, 0.41222128, 0.08777872],
        "properties": { "magmom": 0.0 },
        "label": "B",
        "xyz": [2.039300285, 2.9616826976796307, 0.6306630173203697]
      },
      {
        "species": [{ "element": "B", "occu": 1 }],
        "abc": [0.5, 0.58777872, 0.91222128],
        "properties": { "magmom": 0.0 },
        "label": "B",
        "xyz": [2.039300285, 4.22300873232037, 6.554028412679631]
      },
      {
        "species": [{ "element": "B", "occu": 1 }],
        "abc": [0.5, 0.91222128, 0.41222128],
        "properties": { "magmom": 0.0 },
        "label": "B",
        "xyz": [2.039300285, 6.554028412679631, 2.9616826976796307]
      },
      {
        "species": [{ "element": "B", "occu": 1 }],
        "abc": [0.5, 0.17457338, 0.03860109],
        "properties": { "magmom": 0.0 },
        "label": "B",
        "xyz": [2.039300285, 1.2542558671921333, 0.2773369205116587]
      },
      {
        "species": [{ "element": "B", "occu": 1 }],
        "abc": [0.5, 0.96139891, 0.17457338],
        "properties": { "magmom": 0.0 },
        "label": "B",
        "xyz": [2.039300285, 6.907354509488341, 1.2542558671921333]
      },
      {
        "species": [{ "element": "B", "occu": 1 }],
        "abc": [0.5, 0.03860109, 0.82542662],
        "properties": { "magmom": 0.0 },
        "label": "B",
        "xyz": [2.039300285, 0.2773369205116587, 5.930435562807866]
      },
      {
        "species": [{ "element": "B", "occu": 1 }],
        "abc": [0.5, 0.82542662, 0.96139891],
        "properties": { "magmom": 0.0 },
        "label": "B",
        "xyz": [2.039300285, 5.930435562807866, 6.907354509488341]
      }
    ]
  },
  "task_ids": null,
  "uncorrected_energy_per_atom": null,
  "energy_per_atom": -12.4791799385,
  "formation_energy_per_atom": -0.6555117165000011,
  "energy_above_hull": 0.0,
  "is_stable": true,
  "equilibrium_reaction_energy_per_atom": null,
  "decomposes_to": null,
  "xas": null,
  "grain_boundaries": null,
  "band_gap": 0.0,
  "cbm": null,
  "vbm": null,
  "efermi": 5.63312143,
  "is_gap_direct": null,
  "is_metal": null,
  "es_source_calc_id": null,
  "bandstructure": null,
  "dos": null,
  "dos_energy_up": null,
  "dos_energy_down": null,
  "is_magnetic": null,
  "ordering": null,
  "total_magnetization": 0.0,
  "total_magnetization_normalized_vol": null,
  "total_magnetization_normalized_formula_units": null,
  "num_magnetic_sites": null,
  "num_unique_magnetic_sites": null,
  "types_of_magnetic_species": null,
  "bulk_modulus": null,
  "shear_modulus": null,
  "universal_anisotropy": null,
  "homogeneous_poisson": null,
  "e_total": null,
  "e_ionic": null,
  "e_electronic": null,
  "n": null,
  "e_ij_max": null,
  "weighted_surface_energy_EV_PER_ANG2": null,
  "weighted_surface_energy": null,
  "weighted_work_function": null,
  "surface_anisotropy": null,
  "shape_factor": null,
  "has_reconstructed": null,
  "possible_species": null,
  "has_props": null,
  "theoretical": null,
  "database_IDs": null,
  "fields_not_requested": [
    "builder_meta",
    "nsites",
    "elements",
    "nelements",
    "composition",
    "composition_reduced",
    "chemsys",
    "symmetry",
    "property_name",
    "deprecated",
    "deprecation_reasons",
    "last_updated",
    "origins",
    "warnings",
    "task_ids",
    "uncorrected_energy_per_atom",
    "equilibrium_reaction_energy_per_atom",
    "decomposes_to",
    "xas",
    "grain_boundaries",
    "cbm",
    "vbm",
    "is_gap_direct",
    "is_metal",
    "es_source_calc_id",
    "bandstructure",
    "dos",
    "dos_energy_up",
    "dos_energy_down",
    "is_magnetic",
    "ordering",
    "total_magnetization_normalized_vol",
    "total_magnetization_normalized_formula_units",
    "num_magnetic_sites",
    "num_unique_magnetic_sites",
    "types_of_magnetic_species",
    "bulk_modulus",
    "shear_modulus",
    "universal_anisotropy",
    "homogeneous_poisson",
    "e_total",
    "e_ionic",
    "e_electronic",
    "n",
    "e_ij_max",
    "weighted_surface_energy_EV_PER_ANG2",
    "weighted_surface_energy",
    "weighted_work_function",
    "surface_anisotropy",
    "shape_factor",
    "has_reconstructed",
    "possible_species",
    "has_props",
    "theoretical",
    "database_IDs"
  ]
}
