{
  "builder_meta": null,
  "nsites": null,
  "elements": null,
  "nelements": null,
  "composition": null,
  "composition_reduced": null,
  "formula_pretty": "SmBr3",
  "formula_anonymous": "AB3",
  "chemsys": null,
  "volume": 244.9414825542865,
  "density": 5.288853386794035,
  "density_atomic": 30.617685319285812,
  "symmetry": null,
  "property_name": null,
  "material_id": "mp-27976",
  "deprecated": null,
  "deprecation_reasons": null,
  "last_updated": null,
  "origins": null,
  "warnings": null,
  "structure": {
    "@module": "pymatgen.core.structure",
    "@class": "Structure",
    "charge": 0,
    "lattice": {
      "matrix": [
        [4.05174501, 0.00129897, 4.32e-6],
        [-2.02364545, 6.5869211, 1.87e-6],
        [8.550000000000001e-6, 2.2000000000000003e-5, 9.17687892]
      ],
      "pbc": [true, true, true],
      "a": 4.051745218224071,
      "b": 6.89076704619554,
      "c": 9.176878920030354,
      "alpha": 89.99986882797761,
      "beta": 89.99988548492774,
      "gamma": 107.05972793025862,
      "volume": 244.9414825542865
    },
    "properties": {},
    "sites": [
      {
        "species": [{ "element": "Sm", "occu": 1 }],
        "abc": [0.7426381, 0.48506935, 0.2500033],
        "properties": { "magmom": 0.0 },
        "label": "Sm",
        "xyz": [2.0273739703771385, 3.196083701163642, 2.2942541289767124]
      },
      {
        "species": [{ "element": "Sm", "occu": 1 }],
        "abc": [0.25736106000000003, 0.5149307, 0.75000487],
        "properties": { "magmom": 0.0 },
        "label": "Sm",
        "xyz": [0.0007306350446344748, 3.392158697271018, 6.882705956120529]
      },
      {
        "species": [{ "element": "Br", "occu": 1 }],
        "abc": [0.35054604, 0.70182454, 0.43344644],
        "properties": { "magmom": -0.0 },
        "label": "Br",
        "xyz": [8.283724297941009e-5, 4.623327755635053, 3.9776883249558277]
      },
      {
        "species": [{ "element": "Br", "occu": 1 }],
        "abc": [0.64948102, 0.29819232, 0.56655042],
        "properties": { "magmom": -0.0 },
        "label": "Br",
        "xyz": [2.028100794287857, 1.9650254049357414, 5.199167969792791]
      },
      {
        "species": [{ "element": "Br", "occu": 1 }],
        "abc": [0.9118178100000001, 0.82456111, 0.74999909],
        "properties": { "magmom": 0.0 },
        "label": "Br",
        "xyz": [2.0258403356903982, 5.432519897659056, 6.882656320022398]
      },
      {
        "species": [{ "element": "Br", "occu": 1 }],
        "abc": [0.08816568, 0.17543314000000002, 0.25000068000000003],
        "properties": { "magmom": 0.0 },
        "label": "Br",
        "xyz": [0.002212515958857782, 1.1556842760935635, 2.294226679213375]
      },
      {
        "species": [{ "element": "Br", "occu": 1 }],
        "abc": [0.35057813, 0.70180527, 0.06654642],
        "properties": { "magmom": -0.0 },
        "label": "Br",
        "xyz": [0.000248716393000568, 4.623192795548963, 0.6106912657728428]
      },
      {
        "species": [{ "element": "Br", "occu": 1 }],
        "abc": [0.64941315, 0.29818356, 0.93345076],
        "properties": { "magmom": -0.0 },
        "label": "Br",
        "xyz": [2.0278466664860777, 1.9649756871532915, 8.566167965370045]
      }
    ]
  },
  "task_ids": null,
  "uncorrected_energy_per_atom": null,
  "energy_per_atom": -4.7033501425,
  "formation_energy_per_atom": -2.2959937075,
  "energy_above_hull": 0.0,
  "is_stable": true,
  "equilibrium_reaction_energy_per_atom": null,
  "decomposes_to": null,
  "xas": null,
  "grain_boundaries": null,
  "band_gap": 3.016,
  "cbm": null,
  "vbm": null,
  "efermi": 0.18110257,
  "is_gap_direct": null,
  "is_metal": null,
  "es_source_calc_id": null,
  "bandstructure": null,
  "dos": null,
  "dos_energy_up": null,
  "dos_energy_down": null,
  "is_magnetic": null,
  "ordering": null,
  "total_magnetization": 0.0,
  "total_magnetization_normalized_vol": null,
  "total_magnetization_normalized_formula_units": null,
  "num_magnetic_sites": null,
  "num_unique_magnetic_sites": null,
  "types_of_magnetic_species": null,
  "bulk_modulus": null,
  "shear_modulus": null,
  "universal_anisotropy": null,
  "homogeneous_poisson": null,
  "e_total": null,
  "e_ionic": null,
  "e_electronic": null,
  "n": null,
  "e_ij_max": null,
  "weighted_surface_energy_EV_PER_ANG2": null,
  "weighted_surface_energy": null,
  "weighted_work_function": null,
  "surface_anisotropy": null,
  "shape_factor": null,
  "has_reconstructed": null,
  "possible_species": null,
  "has_props": null,
  "theoretical": null,
  "database_IDs": null,
  "fields_not_requested": [
    "builder_meta",
    "nsites",
    "elements",
    "nelements",
    "composition",
    "composition_reduced",
    "chemsys",
    "symmetry",
    "property_name",
    "deprecated",
    "deprecation_reasons",
    "last_updated",
    "origins",
    "warnings",
    "task_ids",
    "uncorrected_energy_per_atom",
    "equilibrium_reaction_energy_per_atom",
    "decomposes_to",
    "xas",
    "grain_boundaries",
    "cbm",
    "vbm",
    "is_gap_direct",
    "is_metal",
    "es_source_calc_id",
    "bandstructure",
    "dos",
    "dos_energy_up",
    "dos_energy_down",
    "is_magnetic",
    "ordering",
    "total_magnetization_normalized_vol",
    "total_magnetization_normalized_formula_units",
    "num_magnetic_sites",
    "num_unique_magnetic_sites",
    "types_of_magnetic_species",
    "bulk_modulus",
    "shear_modulus",
    "universal_anisotropy",
    "homogeneous_poisson",
    "e_total",
    "e_ionic",
    "e_electronic",
    "n",
    "e_ij_max",
    "weighted_surface_energy_EV_PER_ANG2",
    "weighted_surface_energy",
    "weighted_work_function",
    "surface_anisotropy",
    "shape_factor",
    "has_reconstructed",
    "possible_species",
    "has_props",
    "theoretical",
    "database_IDs"
  ]
}
