{"builder_meta": null, "nsites": null, "elements": null, "nelements": null, "composition": null, "composition_reduced": null, "formula_pretty": "SmC2", "formula_anonymous": "AB2", "chemsys": null, "volume": 45.27898898074076, "density": 6.395176520208246, "density_atomic": 15.092996326913587, "symmetry": null, "property_name": null, "material_id": "mp-12764", "deprecated": null, "deprecation_reasons": null, "last_updated": null, "origins": null, "warnings": null, "structure": {"@module": "pymatgen.core.structure", "@class": "Structure", "charge": 0, "lattice": {"matrix": [[3.35868267, 1e-08, -1.71927919], [-0.88008288, 3.24132796, -1.71927919], [0.0056419700000000005, 0.00737832, 4.15132459]], "pbc": [true, true, true], "a": 3.773151230858019, "b": 3.773151700251914, "c": 4.151334980818842, "alpha": 117.02957337178307, "beta": 117.02957933561599, "gamma": 89.99999256123454, "volume": 45.27898898074076}, "properties": {}, "sites": [{"species": [{"element": "Sm", "occu": 1}], "abc": [0.0, 0.0, 0.0], "properties": {"magmom": -0.0}, "label": "Sm", "xyz": [0.0, 0.0, 0.0]}, {"species": [{"element": "C", "occu": 1}], "abc": [0.60152662, 0.60152662, 0.20305225000000002], "properties": {"magmom": -0.0}, "label": "C", "xyz": [1.4920893687143424, 1.9512432425827815, -1.2254486015142483]}, {"species": [{"element": "C", "occu": 1}], "abc": [0.39847338, 0.39847338, 0.7969477500000001], "properties": {"magmom": -0.0}, "label": "C", "xyz": [0.9921523912856576, 1.2974630474172186, 1.9382148115142481]}]}, "task_ids": null, "uncorrected_energy_per_atom": null, "energy_per_atom": -7.874057929999998, "formation_energy_per_atom": -0.14875222333333202, "energy_above_hull": 0.022638021250002003, "is_stable": false, "equilibrium_reaction_energy_per_atom": null, "decomposes_to": null, "xas": null, "grain_boundaries": null, "band_gap": 0.0, "cbm": null, "vbm": null, "efermi": 4.01032861, "is_gap_direct": null, "is_metal": null, "es_source_calc_id": null, "bandstructure": null, "dos": null, "dos_energy_up": null, "dos_energy_down": null, "is_magnetic": null, "ordering": null, "total_magnetization": 0.0, "total_magnetization_normalized_vol": null, "total_magnetization_normalized_formula_units": null, "num_magnetic_sites": null, "num_unique_magnetic_sites": null, "types_of_magnetic_species": null, "bulk_modulus": null, "shear_modulus": null, "universal_anisotropy": null, "homogeneous_poisson": null, "e_total": null, "e_ionic": null, "e_electronic": null, "n": null, "e_ij_max": null, "weighted_surface_energy_EV_PER_ANG2": null, "weighted_surface_energy": null, "weighted_work_function": null, "surface_anisotropy": null, "shape_factor": null, "has_reconstructed": null, "possible_species": null, "has_props": null, "theoretical": null, "database_IDs": null, "fields_not_requested": ["builder_meta", "nsites", "elements", "nelements", "composition", "composition_reduced", "chemsys", "symmetry", "property_name", "deprecated", "deprecation_reasons", "last_updated", "origins", "warnings", "task_ids", "uncorrected_energy_per_atom", "equilibrium_reaction_energy_per_atom", "decomposes_to", "xas", "grain_boundaries", "cbm", "vbm", "is_gap_direct", "is_metal", "es_source_calc_id", "bandstructure", "dos", "dos_energy_up", "dos_energy_down", "is_magnetic", "ordering", "total_magnetization_normalized_vol", "total_magnetization_normalized_formula_units", "num_magnetic_sites", "num_unique_magnetic_sites", "types_of_magnetic_species", "bulk_modulus", "shear_modulus", "universal_anisotropy", "homogeneous_poisson", "e_total", "e_ionic", "e_electronic", "n", "e_ij_max", "weighted_surface_energy_EV_PER_ANG2", "weighted_surface_energy", "weighted_work_function", "surface_anisotropy", "shape_factor", "has_reconstructed", "possible_species", "has_props", "theoretical", "database_IDs"]}