{
  "builder_meta": null,
  "nsites": null,
  "elements": null,
  "nelements": null,
  "composition": null,
  "composition_reduced": null,
  "formula_pretty": "SmC6",
  "formula_anonymous": "AB6",
  "chemsys": null,
  "volume": 75.14157206379696,
  "density": 4.915309372868456,
  "density_atomic": 10.734510294828137,
  "symmetry": null,
  "property_name": null,
  "material_id": "mp-1025297",
  "deprecated": null,
  "deprecation_reasons": null,
  "last_updated": null,
  "origins": null,
  "warnings": null,
  "structure": {
    "@module": "pymatgen.core.structure",
    "@class": "Structure",
    "charge": 0,
    "lattice": {
      "matrix": [
        [-2.15655635, -3.73526442, -0.0],
        [-2.15655635, 3.73526442, 0.0],
        [-0.0, -0.0, -4.66410286]
      ],
      "pbc": [true, true, true],
      "a": 4.313112052572163,
      "b": 4.313112052572163,
      "c": 4.66410286,
      "alpha": 90.0,
      "beta": 90.0,
      "gamma": 119.99999006900786,
      "volume": 75.14157206379696
    },
    "properties": {},
    "sites": [
      {
        "species": [{ "element": "Sm", "occu": 1 }],
        "abc": [-0.0, -0.0, -0.0],
        "properties": { "magmom": 0.0 },
        "label": "Sm",
        "xyz": [0.0, 0.0, 0.0]
      },
      {
        "species": [{ "element": "C", "occu": 1 }],
        "abc": [0.66710316, 0.66710316, 0.5],
        "properties": { "magmom": 0.0 },
        "label": "C",
        "xyz": [-2.877291111606132, 0.0, -2.33205143]
      },
      {
        "species": [{ "element": "C", "occu": 1 }],
        "abc": [0.33289684, 0.33289684, 0.5],
        "properties": { "magmom": 0.0 },
        "label": "C",
        "xyz": [-1.435821588393868, 0.0, -2.33205143]
      },
      {
        "species": [{ "element": "C", "occu": 1 }],
        "abc": [-0.0, 0.33289684, 0.5],
        "properties": { "magmom": 0.0 },
        "label": "C",
        "xyz": [-0.717910794196934, 1.243457721982433, -2.33205143]
      },
      {
        "species": [{ "element": "C", "occu": 1 }],
        "abc": [0.0, 0.66710316, 0.5],
        "properties": { "magmom": 0.0 },
        "label": "C",
        "xyz": [-1.438645555803066, 2.4918066980175673, -2.33205143]
      },
      {
        "species": [{ "element": "C", "occu": 1 }],
        "abc": [0.33289684, -0.0, 0.5],
        "properties": { "magmom": 0.0 },
        "label": "C",
        "xyz": [-0.717910794196934, -1.243457721982433, -2.33205143]
      },
      {
        "species": [{ "element": "C", "occu": 1 }],
        "abc": [0.66710316, 0.0, 0.5],
        "properties": { "magmom": 0.0 },
        "label": "C",
        "xyz": [-1.438645555803066, -2.4918066980175673, -2.33205143]
      }
    ]
  },
  "task_ids": null,
  "uncorrected_energy_per_atom": null,
  "energy_per_atom": -8.609077478571429,
  "formation_energy_per_atom": -0.024709037142858003,
  "energy_above_hull": 0.048743924821428,
  "is_stable": false,
  "equilibrium_reaction_energy_per_atom": null,
  "decomposes_to": null,
  "xas": null,
  "grain_boundaries": null,
  "band_gap": 0.0,
  "cbm": null,
  "vbm": null,
  "efermi": 6.09071376,
  "is_gap_direct": null,
  "is_metal": null,
  "es_source_calc_id": null,
  "bandstructure": null,
  "dos": null,
  "dos_energy_up": null,
  "dos_energy_down": null,
  "is_magnetic": null,
  "ordering": null,
  "total_magnetization": 2e-6,
  "total_magnetization_normalized_vol": null,
  "total_magnetization_normalized_formula_units": null,
  "num_magnetic_sites": null,
  "num_unique_magnetic_sites": null,
  "types_of_magnetic_species": null,
  "bulk_modulus": null,
  "shear_modulus": null,
  "universal_anisotropy": null,
  "homogeneous_poisson": null,
  "e_total": null,
  "e_ionic": null,
  "e_electronic": null,
  "n": null,
  "e_ij_max": null,
  "weighted_surface_energy_EV_PER_ANG2": null,
  "weighted_surface_energy": null,
  "weighted_work_function": null,
  "surface_anisotropy": null,
  "shape_factor": null,
  "has_reconstructed": null,
  "possible_species": null,
  "has_props": null,
  "theoretical": null,
  "database_IDs": null,
  "fields_not_requested": [
    "builder_meta",
    "nsites",
    "elements",
    "nelements",
    "composition",
    "composition_reduced",
    "chemsys",
    "symmetry",
    "property_name",
    "deprecated",
    "deprecation_reasons",
    "last_updated",
    "origins",
    "warnings",
    "task_ids",
    "uncorrected_energy_per_atom",
    "equilibrium_reaction_energy_per_atom",
    "decomposes_to",
    "xas",
    "grain_boundaries",
    "cbm",
    "vbm",
    "is_gap_direct",
    "is_metal",
    "es_source_calc_id",
    "bandstructure",
    "dos",
    "dos_energy_up",
    "dos_energy_down",
    "is_magnetic",
    "ordering",
    "total_magnetization_normalized_vol",
    "total_magnetization_normalized_formula_units",
    "num_magnetic_sites",
    "num_unique_magnetic_sites",
    "types_of_magnetic_species",
    "bulk_modulus",
    "shear_modulus",
    "universal_anisotropy",
    "homogeneous_poisson",
    "e_total",
    "e_ionic",
    "e_electronic",
    "n",
    "e_ij_max",
    "weighted_surface_energy_EV_PER_ANG2",
    "weighted_surface_energy",
    "weighted_work_function",
    "surface_anisotropy",
    "shape_factor",
    "has_reconstructed",
    "possible_species",
    "has_props",
    "theoretical",
    "database_IDs"
  ]
}
