{
  "builder_meta": null,
  "nsites": null,
  "elements": null,
  "nelements": null,
  "composition": null,
  "composition_reduced": null,
  "formula_pretty": "SmCd6",
  "formula_anonymous": "AB6",
  "chemsys": null,
  "volume": 2007.2952215183361,
  "density": 8.188067892343557,
  "density_atomic": 23.896371684742096,
  "symmetry": null,
  "property_name": null,
  "material_id": "mp-1219961",
  "deprecated": null,
  "deprecation_reasons": null,
  "last_updated": null,
  "origins": null,
  "warnings": null,
  "structure": {
    "@module": "pymatgen.core.structure",
    "@class": "Structure",
    "charge": 0,
    "lattice": {
      "matrix": [
        [-8.0758653, 7.93048928, -7.83541873],
        [8.0758653, -7.93048928, -7.83541873],
        [-8.0758653, -7.93048928, -7.83541873]
      ],
      "pbc": [true, true, true],
      "a": 13.766119541772612,
      "b": 13.766119541772612,
      "c": 13.766119541772612,
      "alpha": 71.83898604171054,
      "beta": 70.35165108102363,
      "gamma": 110.61368070376616,
      "volume": 2007.2952215183361
    },
    "properties": {},
    "sites": [
      {
        "species": [{ "element": "Sm", "occu": 1 }],
        "abc": [0.70199965, 0.5052835800000001, 0.19671607],
        "properties": { "magmom": -0.0 },
        "label": "Sm",
        "xyz": [
          -3.1773049673307416, -6.661338147750939e-16, -11.000922412126888
        ]
      },
      {
        "species": [{ "element": "Sm", "occu": 1 }],
        "abc": [0.29800035, 0.49471642, 0.80328393],
        "properties": { "magmom": -0.0 },
        "label": "Sm",
        "xyz": [-4.898560332669257, -7.93048928, -12.50533377787311]
      },
      {
        "species": [{ "element": "Sm", "occu": 1 }],
        "abc": [0.70199965, 0.89871572, 0.80328393],
        "properties": { "magmom": -0.0 },
        "label": "Sm",
        "xyz": [-4.898560332669258, -7.93048928, -18.83634114212689]
      },
      {
        "species": [{ "element": "Sm", "occu": 1 }],
        "abc": [0.29800035, 0.10128428, 0.19671607],
        "properties": { "magmom": -0.0 },
        "label": "Sm",
        "xyz": [-3.177304967330742, 2.220446049250313e-16, -4.669915047873111]
      },
      {
        "species": [{ "element": "Sm", "occu": 1 }],
        "abc": [0.80828937, 0.30301886, 0.88869176],
        "properties": { "magmom": 0.0 },
        "label": "Sm",
        "xyz": [-11.257451525802232, -3.0407181128492002, -15.67083738164581]
      },
      {
        "species": [{ "element": "Sm", "occu": 1 }],
        "abc": [0.19171063, 0.69698114, 0.11130824],
        "properties": { "magmom": 0.0 },
        "label": "Sm",
        "xyz": [3.181586225802231, -4.8897711671508, -7.835418808354187]
      },
      {
        "species": [{ "element": "Sm", "occu": 1 }],
        "abc": [0.19171063, 0.30301886, 0.50527051],
        "properties": { "magmom": 0.0 },
        "label": "Sm",
        "xyz": [-3.1815863065608845, -4.889771087845907, -7.83541873]
      },
      {
        "species": [{ "element": "Sm", "occu": 1 }],
        "abc": [0.80828937, 0.69698114, 0.49472949],
        "properties": { "magmom": 0.0 },
        "label": "Sm",
        "xyz": [-4.894278993439116, -3.040718192154092, -15.67083746]
      },
      {
        "species": [{ "element": "Sm", "occu": 1 }],
        "abc": [0.48438744, 0.18737185, 0.70298441],
        "properties": { "magmom": 0.0 },
        "label": "Sm",
        "xyz": [-8.0758653, -3.21953137502425, -10.7716925359295]
      },
      {
        "species": [{ "element": "Sm", "occu": 1 }],
        "abc": [0.51561256, 0.81262815, 0.29701559],
        "properties": { "magmom": 0.0 },
        "label": "Sm",
        "xyz": [0.0, -4.71095790497575, -12.734563654070499]
      },
      {
        "species": [{ "element": "Sm", "occu": 1 }],
        "abc": [0.10964374, 0.81262815, 0.70298441],
        "properties": { "magmom": 0.0 },
        "label": "Sm",
        "xyz": [0.0, -11.15002065502425, -12.734563654070499]
      },
      {
        "species": [{ "element": "Sm", "occu": 1 }],
        "abc": [0.89035626, 0.18737185, 0.29701559],
        "properties": { "magmom": 0.0 },
        "label": "Sm",
        "xyz": [-8.0758653, 3.21953137502425, -10.7716925359295]
      },
      {
        "species": [{ "element": "Cd", "occu": 1 }],
        "abc": [0.90345852, 0.64632613, 0.25713239],
        "properties": { "magmom": -0.0 },
        "label": "Cd",
        "xyz": [-4.1531330918141345, 0.0, -14.15795161877216]
      },
      {
        "species": [{ "element": "Cd", "occu": 1 }],
        "abc": [0.09654148, 0.35367387, 0.74286761],
        "properties": { "magmom": -0.0 },
        "label": "Cd",
        "xyz": [-3.9227322081858667, -7.93048928, -9.34830457122784]
      },
      {
        "species": [{ "element": "Cd", "occu": 1 }],
        "abc": [0.90345852, 0.16059092, 0.74286761],
        "properties": { "magmom": -0.0 },
        "label": "Cd",
        "xyz": [-11.998597427427214, -7.930489243079819e-8, -14.157951697126347]
      },
      {
        "species": [{ "element": "Cd", "occu": 1 }],
        "abc": [0.09654148, 0.83940908, 0.25713239],
        "properties": { "magmom": -0.0 },
        "label": "Cd",
        "xyz": [3.9227321274272136, -7.930489200695106, -9.348304492873652]
      },
      {
        "species": [{ "element": "Cd", "occu": 1 }],
        "abc": [0.77180912, 0.09023101, 0.13795988],
        "properties": { "magmom": 0.0 },
        "label": "Cd",
        "xyz": [-6.618478415472747, 4.311158545427574, -7.835418808354187]
      },
      {
        "species": [{ "element": "Cd", "occu": 1 }],
        "abc": [0.22819088, 0.90976899, 0.86204012],
        "properties": { "magmom": 0.0 },
        "label": "Cd",
        "xyz": [-1.4573868845272528, -12.241647825427574, -15.670837381645814]
      },
      {
        "species": [{ "element": "Cd", "occu": 1 }],
        "abc": [0.22819088, 0.09023101, 0.68157811],
        "properties": { "magmom": 0.0 },
        "label": "Cd",
        "xyz": [-6.618478334714094, -4.311158624732467, -7.835418730000001]
      },
      {
        "species": [{ "element": "Cd", "occu": 1 }],
        "abc": [0.77180912, 0.90976899, 0.31842189],
        "properties": { "magmom": 0.0 },
        "label": "Cd",
        "xyz": [-1.4573869652859055, -3.619330655267533, -15.67083746]
      },
      {
        "species": [{ "element": "Cd", "occu": 1 }],
        "abc": [0.33471006000000003, 0.24040101, 0.90569095],
        "properties": { "magmom": -0.0 },
        "label": "Cd",
        "xyz": [-8.0758653, -6.434655459936032, -11.602703882929834]
      },
      {
        "species": [{ "element": "Cd", "occu": 1 }],
        "abc": [0.66528994, 0.75959899, 0.09430905],
        "properties": { "magmom": -0.0 },
        "label": "Cd",
        "xyz": [-5.551115123125783e-16, -1.495833820063968, -11.903552307070164]
      },
      {
        "species": [{ "element": "Cd", "occu": 1 }],
        "abc": [0.85390804, 0.75959899, 0.90569095],
        "properties": { "magmom": -0.0 },
        "label": "Cd",
        "xyz": [-8.0758653, -6.434655459936032, -19.738971037070165]
      },
      {
        "species": [{ "element": "Cd", "occu": 1 }],
        "abc": [0.14609196, 0.24040101, 0.09430905],
        "properties": { "magmom": -0.0 },
        "label": "Cd",
        "xyz": [1.1102230246251565e-16, -1.495833820063968, -3.7672851529298343]
      },
      {
        "species": [{ "element": "Cd", "occu": 1 }],
        "abc": [0.64455067, 0.24117017000000002, 0.4033805],
        "properties": { "magmom": -0.0 },
        "label": "Cd",
        "xyz": [-6.5152931652933, 0.0, -10.100648784304099]
      },
      {
        "species": [{ "element": "Cd", "occu": 1 }],
        "abc": [0.35544933, 0.75882983, 0.5966195],
        "properties": { "magmom": -0.0 },
        "label": "Cd",
        "xyz": [-1.5605721347066996, -7.930489279999999, -13.4056074056959]
      },
      {
        "species": [{ "element": "Cd", "occu": 1 }],
        "abc": [0.64455067, 0.04793116, 0.5966195],
        "properties": { "magmom": -0.0 },
        "label": "Cd",
        "xyz": [-9.636437515465353, 7.930489331897661e-8, -10.100648705949911]
      },
      {
        "species": [{ "element": "Cd", "occu": 1 }],
        "abc": [0.35544933, 0.95206884, 0.4033805],
        "properties": { "magmom": -0.0 },
        "label": "Cd",
        "xyz": [1.5605722154653532, -7.930489359304892, -13.405607484050089]
      },
      {
        "species": [{ "element": "Cd", "occu": 1 }],
        "abc": [0.59612815, 0.35438492, 0.04948693],
        "properties": { "magmom": -0.0 },
        "label": "Cd",
        "xyz": [-2.351935543457448, 1.5246865261624638, -7.835418729999999]
      },
      {
        "species": [{ "element": "Cd", "occu": 1 }],
        "abc": [0.40387185000000003, 0.64561508, 0.9505130700000001],
        "properties": { "magmom": -0.0 },
        "label": "Cd",
        "xyz": [-5.723929756542553, -9.455175806162465, -15.670837460000001]
      },
      {
        "species": [{ "element": "Cd", "occu": 1 }],
        "abc": [0.40387185000000003, 0.35438492, 0.24174324],
        "properties": { "magmom": -0.0 },
        "label": "Cd",
        "xyz": [-2.351935624216101, -1.5246866054673567, -7.835418808354187]
      },
      {
        "species": [{ "element": "Cd", "occu": 1 }],
        "abc": [0.59612815, 0.64561508, 0.75825676],
        "properties": { "magmom": -0.0 },
        "label": "Cd",
        "xyz": [-5.723929675783899, -6.405802674532643, -15.670837381645814]
      },
      {
        "species": [{ "element": "Cd", "occu": 1 }],
        "abc": [0.75065189, 0.40136187, 0.65070998],
        "properties": { "magmom": -0.0 },
        "label": "Cd",
        "xyz": [-8.0758653, -2.390407761558029, -14.125095357411649]
      },
      {
        "species": [{ "element": "Cd", "occu": 1 }],
        "abc": [0.24934811, 0.59863813, 0.34929002000000003],
        "properties": { "magmom": -0.0 },
        "label": "Cd",
        "xyz": [-4.440892098500626e-16, -5.540081518441971, -9.38116083258835]
      },
      {
        "species": [{ "element": "Cd", "occu": 1 }],
        "abc": [0.94792816, 0.59863813, 0.65070998],
        "properties": { "magmom": -0.0 },
        "label": "Cd",
        "xyz": [-8.075865380758653, -2.3904076822531355, -17.216579640942538]
      },
      {
        "species": [{ "element": "Cd", "occu": 1 }],
        "abc": [0.05207184, 0.40136187, 0.34929002000000003],
        "properties": { "magmom": -0.0 },
        "label": "Cd",
        "xyz": [8.075865265411153e-8, -5.540081597746864, -6.289676549057463]
      },
      {
        "species": [{ "element": "Cd", "occu": 1 }],
        "abc": [0.9995451, 0.67364114, 0.00482262],
        "properties": { "magmom": 0.0 },
        "label": "Cd",
        "xyz": [-2.670903311209675, 2.546332124878035, -13.147902050749947]
      },
      {
        "species": [{ "element": "Cd", "occu": 1 }],
        "abc": [0.32153624000000003, 0.32635886000000003, 0.6740960300000001],
        "properties": { "magmom": 0.0 },
        "label": "Cd",
        "xyz": [-5.404961908031674, -5.384157075817072, -10.358354060895866]
      },
      {
        "species": [{ "element": "Cd", "occu": 1 }],
        "abc": [0.67846376, 0.00436773, 0.99517738],
        "properties": { "magmom": 0.0 },
        "label": "Cd",
        "xyz": [-13.480827208031672, -2.546332204182928, -13.147902129104136]
      },
      {
        "species": [{ "element": "Cd", "occu": 1 }],
        "abc": [0.0004549, 0.99563227, 0.32590397],
        "properties": { "magmom": 0.0 },
        "label": "Cd",
        "xyz": [5.404961827273022, -10.476821404878034, -10.358354139250052]
      },
      {
        "species": [{ "element": "Cd", "occu": 1 }],
        "abc": [0.0004549, 0.32635886000000003, 0.99517738],
        "properties": { "magmom": 0.0 },
        "label": "Cd",
        "xyz": [-5.404961988790325, -10.476821404878034, -10.358354139250052]
      },
      {
        "species": [{ "element": "Cd", "occu": 1 }],
        "abc": [0.67846376, 0.67364114, 0.32590397],
        "properties": { "magmom": 0.0 },
        "label": "Cd",
        "xyz": [-2.6709033919683267, -2.5463322041829275, -13.147902129104134]
      },
      {
        "species": [{ "element": "Cd", "occu": 1 }],
        "abc": [0.32153624000000003, 0.99563227, 0.00482262],
        "properties": { "magmom": 0.0 },
        "label": "Cd",
        "xyz": [5.404961908031674, -5.384157075817071, -10.358354060895865]
      },
      {
        "species": [{ "element": "Cd", "occu": 1 }],
        "abc": [0.9995451, 0.00436773, 0.6740960300000001],
        "properties": { "magmom": 0.0 },
        "label": "Cd",
        "xyz": [-13.480827127273022, 2.5463321248780337, -13.147902050749948]
      },
      {
        "species": [{ "element": "Cd", "occu": 1 }],
        "abc": [0.91284623, 0.450150899999999, 0.22698983],
        "properties": { "magmom": -0.0 },
        "label": "Cd",
        "xyz": [-5.569804451568957, 1.8692599409870478, -12.458213606839752]
      },
      {
        "species": [{ "element": "Cd", "occu": 1 }],
        "abc": [0.32285927000000003, 0.5498491, 0.53730467],
        "properties": { "magmom": -0.0 },
        "label": "Cd",
        "xyz": [-2.5060608484310527, -6.061229339012961, -11.048042583160239]
      },
      {
        "species": [{ "element": "Cd", "occu": 1 }],
        "abc": [0.67714073, 0.13983605, 0.77301017],
        "properties": { "magmom": -0.0 },
        "label": "Cd",
        "xyz": [-10.581926229189705, -1.8692598616821483, -12.458213528485572]
      },
      {
        "species": [{ "element": "Cd", "occu": 1 }],
        "abc": [0.08715377, 0.86016395, 0.46269533],
        "properties": { "magmom": -0.0 },
        "label": "Cd",
        "xyz": [2.5060609291897054, -9.799749300291932, -11.048042661514426]
      },
      {
        "species": [{ "element": "Cd", "occu": 1 }],
        "abc": [0.55138315, 0.09200182, 0.13985868],
        "properties": { "magmom": -0.0 },
        "label": "Cd",
        "xyz": [-4.839381603130654, 2.533970950542192, -6.137041965363565]
      },
      {
        "species": [{ "element": "Cd", "occu": 1 }],
        "abc": [0.2318605, 0.6912418300000001, 0.86014132],
        "properties": { "magmom": -0.0 },
        "label": "Cd",
        "xyz": [-3.236483696869346, -10.464460230542192, -13.972460695363566]
      },
      {
        "species": [{ "element": "Cd", "occu": 1 }],
        "abc": [0.44861685, 0.30875817, 0.45938133000000003],
        "properties": { "magmom": -0.0 },
        "label": "Cd",
        "xyz": [-4.839381603130654, -2.5339709505421917, -9.533795494636436]
      },
      {
        "species": [{ "element": "Cd", "occu": 1 }],
        "abc": [0.7681395, 0.90799818, 0.54061867],
        "properties": { "magmom": -0.0 },
        "label": "Cd",
        "xyz": [-3.236483696869347, -5.396518329457808, -17.369214224636433]
      },
      {
        "species": [{ "element": "Cd", "occu": 1 }],
        "abc": [0.53911041, 0.4549297, 0.68413896],
        "properties": { "magmom": -0.0 },
        "label": "Cd",
        "xyz": [-6.204846162260451, -4.75796247007256, -13.14923571737198]
      },
      {
        "species": [{ "element": "Cd", "occu": 1 }],
        "abc": [0.46088959, 0.77675063, 0.08418071],
        "properties": { "magmom": -0.0 },
        "label": "Cd",
        "xyz": [1.8710191377395489, -3.17252680992744, -10.357020472628019]
      },
      {
        "species": [{ "element": "Cd", "occu": 1 }],
        "abc": [0.86093135, 0.5450703, 0.9158192900000001],
        "properties": { "magmom": -0.0 },
        "label": "Cd",
        "xyz": [-9.946884518498202, -4.757962390767668, -18.192439280982207]
      },
      {
        "species": [{ "element": "Cd", "occu": 1 }],
        "abc": [0.13906865000000002, 0.22324937, 0.31586104],
        "properties": { "magmom": -0.0 },
        "label": "Cd",
        "xyz": [-1.871019056980896, -3.1725268892323326, -5.313816909017794]
      },
      {
        "species": [{ "element": "Cd", "occu": 1 }],
        "abc": [0.08715377, 0.5498491, 0.77301017],
        "properties": { "magmom": -0.0 },
        "label": "Cd",
        "xyz": [-2.5060608484310527, -9.79974922098704, -11.048042583160239]
      },
      {
        "species": [{ "element": "Cd", "occu": 1 }],
        "abc": [0.67714073, 0.450150899999999, 0.46269533],
        "properties": { "magmom": -0.0 },
        "label": "Cd",
        "xyz": [-5.569804451568956, -1.8692599409870327, -12.458213606839752]
      },
      {
        "species": [{ "element": "Cd", "occu": 1 }],
        "abc": [0.32285927000000003, 0.86016395, 0.22698983],
        "properties": { "magmom": -0.0 },
        "label": "Cd",
        "xyz": [2.5060609291897054, -6.061229418317852, -11.048042661514426]
      },
      {
        "species": [{ "element": "Cd", "occu": 1 }],
        "abc": [0.91284623, 0.13983605, 0.53730467],
        "properties": { "magmom": -0.0 },
        "label": "Cd",
        "xyz": [-10.581926229189705, 1.8692600202919323, -12.458213528485572]
      },
      {
        "species": [{ "element": "Cd", "occu": 1 }],
        "abc": [0.44861685, 0.90799818, 0.86014132],
        "properties": { "magmom": -0.0 },
        "label": "Cd",
        "xyz": [-3.236483696869347, -10.46446023054219, -17.369214224636433]
      },
      {
        "species": [{ "element": "Cd", "occu": 1 }],
        "abc": [0.7681395, 0.30875817, 0.13985868],
        "properties": { "magmom": -0.0 },
        "label": "Cd",
        "xyz": [-4.839381603130653, 2.5339709505421917, -9.533795494636434]
      },
      {
        "species": [{ "element": "Cd", "occu": 1 }],
        "abc": [0.55138315, 0.6912418300000001, 0.54061867],
        "properties": { "magmom": -0.0 },
        "label": "Cd",
        "xyz": [-3.236483696869347, -5.396518329457808, -13.972460695363566]
      },
      {
        "species": [{ "element": "Cd", "occu": 1 }],
        "abc": [0.2318605, 0.09200182, 0.45938133000000003],
        "properties": { "magmom": -0.0 },
        "label": "Cd",
        "xyz": [-4.839381603130653, -2.533970950542192, -6.137041965363565]
      },
      {
        "species": [{ "element": "Cd", "occu": 1 }],
        "abc": [0.46088959, 0.5450703, 0.31586104],
        "properties": { "magmom": -0.0 },
        "label": "Cd",
        "xyz": [-1.871019137739549, -3.1725268099274397, -10.357020472628019]
      },
      {
        "species": [{ "element": "Cd", "occu": 1 }],
        "abc": [0.53911041, 0.22324937, 0.9158192900000001],
        "properties": { "magmom": -0.0 },
        "label": "Cd",
        "xyz": [-9.94688443773955, -4.75796247007256, -13.149235717371981]
      },
      {
        "species": [{ "element": "Cd", "occu": 1 }],
        "abc": [0.13906865000000002, 0.4549297, 0.08418071],
        "properties": { "magmom": -0.0 },
        "label": "Cd",
        "xyz": [1.8710192184982015, -3.1725268892323326, -5.313816909017794]
      },
      {
        "species": [{ "element": "Cd", "occu": 1 }],
        "abc": [0.86093135, 0.77675063, 0.68413896],
        "properties": { "magmom": -0.0 },
        "label": "Cd",
        "xyz": [-6.204846243019103, -4.757962390767667, -18.192439280982207]
      },
      {
        "species": [{ "element": "Cd", "occu": 1 }],
        "abc": [-0.0, 0.5914392900000001, 0.40856071],
        "properties": { "magmom": -0.0 },
        "label": "Cd",
        "xyz": [1.4769027783352744, -7.93048928, -7.835418730000001]
      },
      {
        "species": [{ "element": "Cd", "occu": 1 }],
        "abc": [0.0, 0.40856071, 0.5914392900000001],
        "properties": { "magmom": -0.0 },
        "label": "Cd",
        "xyz": [-1.4769027783352744, -7.93048928, -7.835418730000001]
      },
      {
        "species": [{ "element": "Cd", "occu": 1 }],
        "abc": [0.59903511, -0.0, 0.40096489],
        "properties": { "magmom": 0.0 },
        "label": "Cd",
        "xyz": [-8.0758653, 1.5707937563972414, -7.83541873]
      },
      {
        "species": [{ "element": "Cd", "occu": 1 }],
        "abc": [0.40096489, 0.0, 0.59903511],
        "properties": { "magmom": 0.0 },
        "label": "Cd",
        "xyz": [-8.0758653, -1.5707937563972414, -7.83541873]
      },
      {
        "species": [{ "element": "Cd", "occu": 1 }],
        "abc": [0.40336375, 0.40336375, -0.0],
        "properties": { "magmom": -0.0 },
        "label": "Cd",
        "xyz": [0.0, 0.0, -6.321047763506075]
      },
      {
        "species": [{ "element": "Cd", "occu": 1 }],
        "abc": [0.59663625, 0.59663625, 0.0],
        "properties": { "magmom": -0.0 },
        "label": "Cd",
        "xyz": [0.0, 0.0, -9.349789696493925]
      },
      {
        "species": [{ "element": "Cd", "occu": 1 }],
        "abc": [0.8006323, 0.300632299999999, 0.5],
        "properties": { "magmom": -0.0 },
        "label": "Cd",
        "xyz": [-8.075865300000007, 7.549516567451064e-15, -12.54657863852595]
      },
      {
        "species": [{ "element": "Cd", "occu": 1 }],
        "abc": [0.199367699999999, 0.699367699999999, 0.5],
        "properties": { "magmom": -0.0 },
        "label": "Cd",
        "xyz": [0.0, -7.93048928, -10.959677551474027]
      },
      {
        "species": [{ "element": "Cd", "occu": 1 }],
        "abc": [0.5, 0.20157484, 0.29842516],
        "properties": { "magmom": -0.0 },
        "label": "Cd",
        "xyz": [-4.820082788581896, 0.0, -7.83541873]
      },
      {
        "species": [{ "element": "Cd", "occu": 1 }],
        "abc": [0.5, 0.79842516, 0.70157484],
        "properties": { "magmom": -0.0 },
        "label": "Cd",
        "xyz": [-3.2557825114181043, -7.93048928, -15.670837460000001]
      },
      {
        "species": [{ "element": "Cd", "occu": 1 }],
        "abc": [0.69591747, 0.5, 0.80408253],
        "properties": { "magmom": -0.0 },
        "label": "Cd",
        "xyz": [-8.0758653, -4.823046488800555, -15.670837460000001]
      },
      {
        "species": [{ "element": "Cd", "occu": 1 }],
        "abc": [0.30408253, 0.5, 0.19591747],
        "properties": { "magmom": -0.0 },
        "label": "Cd",
        "xyz": [-2.220446049250313e-16, -3.1074427911994427, -7.83541873]
      },
      {
        "species": [{ "element": "Cd", "occu": 1 }],
        "abc": [0.90664861, 0.8210886, 0.08556001],
        "properties": { "magmom": -0.0 },
        "label": "Cd",
        "xyz": [
          -1.3819422316533063, -1.1102230246251565e-16, -14.207943000644928
        ]
      },
      {
        "species": [{ "element": "Cd", "occu": 1 }],
        "abc": [0.09335139, 0.1789114, 0.91443999],
        "properties": { "magmom": -0.0 },
        "label": "Cd",
        "xyz": [-6.6939230683466935, -7.93048928, -9.298313189355069]
      },
      {
        "species": [{ "element": "Cd", "occu": 1 }],
        "abc": [0.90664861, 0.99220862, 0.91443999],
        "properties": { "magmom": -0.0 },
        "label": "Cd",
        "xyz": [-6.693923068346694, -7.93048928, -22.043361730644932]
      },
      {
        "species": [{ "element": "Cd", "occu": 1 }],
        "abc": [0.09335139, 0.0077913800000000005, 0.08556001],
        "properties": { "magmom": -0.0 },
        "label": "Cd",
        "xyz": [-1.381942231653306, 1.1102230246251565e-16, -1.4628944593550695]
      }
    ]
  },
  "task_ids": null,
  "uncorrected_energy_per_atom": null,
  "energy_per_atom": -1.6519836334523812,
  "formation_energy_per_atom": -0.15503402273809302,
  "energy_above_hull": 0.015050067586581001,
  "is_stable": false,
  "equilibrium_reaction_energy_per_atom": null,
  "decomposes_to": null,
  "xas": null,
  "grain_boundaries": null,
  "band_gap": 0.0,
  "cbm": null,
  "vbm": null,
  "efermi": 2.77455834,
  "is_gap_direct": null,
  "is_metal": null,
  "es_source_calc_id": null,
  "bandstructure": null,
  "dos": null,
  "dos_energy_up": null,
  "dos_energy_down": null,
  "is_magnetic": null,
  "ordering": null,
  "total_magnetization": 0.0003116,
  "total_magnetization_normalized_vol": null,
  "total_magnetization_normalized_formula_units": null,
  "num_magnetic_sites": null,
  "num_unique_magnetic_sites": null,
  "types_of_magnetic_species": null,
  "bulk_modulus": null,
  "shear_modulus": null,
  "universal_anisotropy": null,
  "homogeneous_poisson": null,
  "e_total": null,
  "e_ionic": null,
  "e_electronic": null,
  "n": null,
  "e_ij_max": null,
  "weighted_surface_energy_EV_PER_ANG2": null,
  "weighted_surface_energy": null,
  "weighted_work_function": null,
  "surface_anisotropy": null,
  "shape_factor": null,
  "has_reconstructed": null,
  "possible_species": null,
  "has_props": null,
  "theoretical": null,
  "database_IDs": null,
  "fields_not_requested": [
    "builder_meta",
    "nsites",
    "elements",
    "nelements",
    "composition",
    "composition_reduced",
    "chemsys",
    "symmetry",
    "property_name",
    "deprecated",
    "deprecation_reasons",
    "last_updated",
    "origins",
    "warnings",
    "task_ids",
    "uncorrected_energy_per_atom",
    "equilibrium_reaction_energy_per_atom",
    "decomposes_to",
    "xas",
    "grain_boundaries",
    "cbm",
    "vbm",
    "is_gap_direct",
    "is_metal",
    "es_source_calc_id",
    "bandstructure",
    "dos",
    "dos_energy_up",
    "dos_energy_down",
    "is_magnetic",
    "ordering",
    "total_magnetization_normalized_vol",
    "total_magnetization_normalized_formula_units",
    "num_magnetic_sites",
    "num_unique_magnetic_sites",
    "types_of_magnetic_species",
    "bulk_modulus",
    "shear_modulus",
    "universal_anisotropy",
    "homogeneous_poisson",
    "e_total",
    "e_ionic",
    "e_electronic",
    "n",
    "e_ij_max",
    "weighted_surface_energy_EV_PER_ANG2",
    "weighted_surface_energy",
    "weighted_work_function",
    "surface_anisotropy",
    "shape_factor",
    "has_reconstructed",
    "possible_species",
    "has_props",
    "theoretical",
    "database_IDs"
  ]
}
