{
  "builder_meta": null,
  "nsites": null,
  "elements": null,
  "nelements": null,
  "composition": null,
  "composition_reduced": null,
  "formula_pretty": "SmCd3",
  "formula_anonymous": "AB3",
  "chemsys": null,
  "volume": 192.31709436610808,
  "density": 8.420127475089192,
  "density_atomic": 24.03963679576351,
  "symmetry": null,
  "property_name": null,
  "material_id": "mp-979465",
  "deprecated": null,
  "deprecation_reasons": null,
  "last_updated": null,
  "origins": null,
  "warnings": null,
  "structure": {
    "@module": "pymatgen.core.structure",
    "@class": "Structure",
    "charge": 0,
    "lattice": {
      "matrix": [
        [6.69739413, -1e-8, 0.0],
        [-3.34869758, 5.80011373, 0.0],
        [0.0, -0.0, 4.9508016]
      ],
      "pbc": [true, true, true],
      "a": 6.69739413,
      "b": 6.697394625018924,
      "c": 4.9508016,
      "alpha": 90.0,
      "beta": 90.0,
      "gamma": 120.00000272792492,
      "volume": 192.31709436610808
    },
    "properties": {},
    "sites": [
      {
        "species": [{ "element": "Sm", "occu": 1 }],
        "abc": [0.333333999999999, 0.666667, 0.750000999999999],
        "properties": { "magmom": 0.002 },
        "label": "Sm",
        "xyz": [3.005363553576501e-6, 3.86674441670457, 3.7131061508015955]
      },
      {
        "species": [{ "element": "Sm", "occu": 1 }],
        "abc": [0.666666, 0.333333, 0.25],
        "properties": { "magmom": 0.002 },
        "label": "Sm",
        "xyz": [3.34869354463644, 1.93336930329543, 1.2377004]
      },
      {
        "species": [{ "element": "Cd", "occu": 1 }],
        "abc": [0.15890712, 0.31781325, 0.25],
        "properties": { "magmom": 0.0 },
        "label": "Cd",
        "xyz": [3.1515362706180383e-6, 1.8433529933118513, 1.2377004]
      },
      {
        "species": [{ "element": "Cd", "occu": 1 }],
        "abc": [0.68218475, 0.84109288, 0.25],
        "properties": { "magmom": 0.0 },
        "label": "Cd",
        "xyz": [1.7522944484142866, 4.878434354671395, 1.2377004]
      },
      {
        "species": [{ "element": "Cd", "occu": 1 }],
        "abc": [0.15890812, 0.84109288, 0.25],
        "properties": { "magmom": 0.0 },
        "label": "Cd",
        "xyz": [-1.752295381713895, 4.878434359904161, 1.2377004]
      },
      {
        "species": [{ "element": "Cd", "occu": 1 }],
        "abc": [0.84109288, 0.6821867500000001, 0.750000999999999],
        "properties": { "magmom": 0.0 },
        "label": "Cd",
        "xyz": [3.34869339846373, 3.956760726688149, 3.7131061508015955]
      },
      {
        "species": [{ "element": "Cd", "occu": 1 }],
        "abc": [0.31781525, 0.15890712, 0.750000999999999],
        "properties": { "magmom": 0.0 },
        "label": "Cd",
        "xyz": [1.5964021015857126, 0.9216793653286051, 3.7131061508015955]
      },
      {
        "species": [{ "element": "Cd", "occu": 1 }],
        "abc": [0.8410938800000001, 0.15890712, 0.750000999999999],
        "properties": { "magmom": 0.0 },
        "label": "Cd",
        "xyz": [5.101005326502156, 0.9216793600958187, 3.7131061508015955]
      }
    ]
  },
  "task_ids": null,
  "uncorrected_energy_per_atom": null,
  "energy_per_atom": -2.16820685875,
  "formation_energy_per_atom": -0.26855268249999903,
  "energy_above_hull": 0.0,
  "is_stable": true,
  "equilibrium_reaction_energy_per_atom": null,
  "decomposes_to": null,
  "xas": null,
  "grain_boundaries": null,
  "band_gap": 0.0,
  "cbm": null,
  "vbm": null,
  "efermi": 2.64223293,
  "is_gap_direct": null,
  "is_metal": null,
  "es_source_calc_id": null,
  "bandstructure": null,
  "dos": null,
  "dos_energy_up": null,
  "dos_energy_down": null,
  "is_magnetic": null,
  "ordering": null,
  "total_magnetization": 0.015825199999999002,
  "total_magnetization_normalized_vol": null,
  "total_magnetization_normalized_formula_units": null,
  "num_magnetic_sites": null,
  "num_unique_magnetic_sites": null,
  "types_of_magnetic_species": null,
  "bulk_modulus": null,
  "shear_modulus": null,
  "universal_anisotropy": null,
  "homogeneous_poisson": null,
  "e_total": null,
  "e_ionic": null,
  "e_electronic": null,
  "n": null,
  "e_ij_max": null,
  "weighted_surface_energy_EV_PER_ANG2": null,
  "weighted_surface_energy": null,
  "weighted_work_function": null,
  "surface_anisotropy": null,
  "shape_factor": null,
  "has_reconstructed": null,
  "possible_species": null,
  "has_props": null,
  "theoretical": null,
  "database_IDs": null,
  "fields_not_requested": [
    "builder_meta",
    "nsites",
    "elements",
    "nelements",
    "composition",
    "composition_reduced",
    "chemsys",
    "symmetry",
    "property_name",
    "deprecated",
    "deprecation_reasons",
    "last_updated",
    "origins",
    "warnings",
    "task_ids",
    "uncorrected_energy_per_atom",
    "equilibrium_reaction_energy_per_atom",
    "decomposes_to",
    "xas",
    "grain_boundaries",
    "cbm",
    "vbm",
    "is_gap_direct",
    "is_metal",
    "es_source_calc_id",
    "bandstructure",
    "dos",
    "dos_energy_up",
    "dos_energy_down",
    "is_magnetic",
    "ordering",
    "total_magnetization_normalized_vol",
    "total_magnetization_normalized_formula_units",
    "num_magnetic_sites",
    "num_unique_magnetic_sites",
    "types_of_magnetic_species",
    "bulk_modulus",
    "shear_modulus",
    "universal_anisotropy",
    "homogeneous_poisson",
    "e_total",
    "e_ionic",
    "e_electronic",
    "n",
    "e_ij_max",
    "weighted_surface_energy_EV_PER_ANG2",
    "weighted_surface_energy",
    "weighted_work_function",
    "surface_anisotropy",
    "shape_factor",
    "has_reconstructed",
    "possible_species",
    "has_props",
    "theoretical",
    "database_IDs"
  ]
}
