{
  "builder_meta": null,
  "nsites": null,
  "elements": null,
  "nelements": null,
  "composition": null,
  "composition_reduced": null,
  "formula_pretty": "SmCl2",
  "formula_anonymous": "AB2",
  "chemsys": null,
  "volume": 173.38958196735882,
  "density": 4.238095887208307,
  "density_atomic": 28.89826366122647,
  "symmetry": null,
  "property_name": null,
  "material_id": "mp-867134",
  "deprecated": null,
  "deprecation_reasons": null,
  "last_updated": null,
  "origins": null,
  "warnings": null,
  "structure": {
    "@module": "pymatgen.core.structure",
    "@class": "Structure",
    "charge": 0,
    "lattice": {
      "matrix": [
        [7.03619239, -1.3700000000000003e-5, 0.0],
        [-1.3700000000000003e-5, 7.03619239, 0.0],
        [0.0, 0.0, 3.50225358]
      ],
      "pbc": [true, true, true],
      "a": 7.036192390013338,
      "b": 7.036192390013338,
      "c": 3.50225358,
      "alpha": 90.0,
      "beta": 90.0,
      "gamma": 90.00022311845265,
      "volume": 173.38958196735882
    },
    "properties": {},
    "sites": [
      {
        "species": [{ "element": "Sm", "occu": 1 }],
        "abc": [-0.0, 0.0, -0.0],
        "properties": { "magmom": 0.0 },
        "label": "Sm",
        "xyz": [0.0, 0.0, 0.0]
      },
      {
        "species": [{ "element": "Sm", "occu": 1 }],
        "abc": [0.5, 0.5, 0.500001],
        "properties": { "magmom": 0.0 },
        "label": "Sm",
        "xyz": [3.518089345, 3.518089345, 1.75113029225358]
      },
      {
        "species": [{ "element": "Cl", "occu": 1 }],
        "abc": [0.27919197, 0.27919197, -0.0],
        "properties": { "magmom": 0.0 },
        "label": "Cl",
        "xyz": [1.9644445897331195, 1.9644445897331195, 0.0]
      },
      {
        "species": [{ "element": "Cl", "occu": 1 }],
        "abc": [0.72080903, 0.72080903, -0.0],
        "properties": { "magmom": 0.0 },
        "label": "Cl",
        "xyz": [5.071741136445571, 5.071741136445571, 0.0]
      },
      {
        "species": [{ "element": "Cl", "occu": 1 }],
        "abc": [0.77911423, 0.22088577, 0.500001],
        "properties": { "magmom": 0.0 },
        "label": "Cl",
        "xyz": [5.481994589931661, 1.5541841000683394, 1.75113029225358]
      },
      {
        "species": [{ "element": "Cl", "occu": 1 }],
        "abc": [0.22088577, 0.77911423, 0.500001],
        "properties": { "magmom": 0.0 },
        "label": "Cl",
        "xyz": [1.5541841000683394, 5.481994589931661, 1.75113029225358]
      }
    ]
  },
  "task_ids": null,
  "uncorrected_energy_per_atom": null,
  "energy_per_atom": -16.179316591666666,
  "formation_energy_per_atom": -2.166715886666667,
  "energy_above_hull": 0.0,
  "is_stable": true,
  "equilibrium_reaction_energy_per_atom": null,
  "decomposes_to": null,
  "xas": null,
  "grain_boundaries": null,
  "band_gap": 0.0,
  "cbm": null,
  "vbm": null,
  "efermi": 3.68879406,
  "is_gap_direct": null,
  "is_metal": null,
  "es_source_calc_id": null,
  "bandstructure": null,
  "dos": null,
  "dos_energy_up": null,
  "dos_energy_down": null,
  "is_magnetic": null,
  "ordering": null,
  "total_magnetization": 0.0005061,
  "total_magnetization_normalized_vol": null,
  "total_magnetization_normalized_formula_units": null,
  "num_magnetic_sites": null,
  "num_unique_magnetic_sites": null,
  "types_of_magnetic_species": null,
  "bulk_modulus": null,
  "shear_modulus": null,
  "universal_anisotropy": null,
  "homogeneous_poisson": null,
  "e_total": null,
  "e_ionic": null,
  "e_electronic": null,
  "n": null,
  "e_ij_max": null,
  "weighted_surface_energy_EV_PER_ANG2": null,
  "weighted_surface_energy": null,
  "weighted_work_function": null,
  "surface_anisotropy": null,
  "shape_factor": null,
  "has_reconstructed": null,
  "possible_species": null,
  "has_props": null,
  "theoretical": null,
  "database_IDs": null,
  "fields_not_requested": [
    "builder_meta",
    "nsites",
    "elements",
    "nelements",
    "composition",
    "composition_reduced",
    "chemsys",
    "symmetry",
    "property_name",
    "deprecated",
    "deprecation_reasons",
    "last_updated",
    "origins",
    "warnings",
    "task_ids",
    "uncorrected_energy_per_atom",
    "equilibrium_reaction_energy_per_atom",
    "decomposes_to",
    "xas",
    "grain_boundaries",
    "cbm",
    "vbm",
    "is_gap_direct",
    "is_metal",
    "es_source_calc_id",
    "bandstructure",
    "dos",
    "dos_energy_up",
    "dos_energy_down",
    "is_magnetic",
    "ordering",
    "total_magnetization_normalized_vol",
    "total_magnetization_normalized_formula_units",
    "num_magnetic_sites",
    "num_unique_magnetic_sites",
    "types_of_magnetic_species",
    "bulk_modulus",
    "shear_modulus",
    "universal_anisotropy",
    "homogeneous_poisson",
    "e_total",
    "e_ionic",
    "e_electronic",
    "n",
    "e_ij_max",
    "weighted_surface_energy_EV_PER_ANG2",
    "weighted_surface_energy",
    "weighted_work_function",
    "surface_anisotropy",
    "shape_factor",
    "has_reconstructed",
    "possible_species",
    "has_props",
    "theoretical",
    "database_IDs"
  ]
}
