{"builder_meta": null, "nsites": null, "elements": null, "nelements": null, "composition": null, "composition_reduced": null, "formula_pretty": "SmCl3", "formula_anonymous": "AB3", "chemsys": null, "volume": 279.8780116733737, "density": 3.046269523566441, "density_atomic": 34.98475145917171, "symmetry": null, "property_name": null, "material_id": "mp-863026", "deprecated": null, "deprecation_reasons": null, "last_updated": null, "origins": null, "warnings": null, "structure": {"@module": "pymatgen.core.structure", "@class": "Structure", "charge": 0, "lattice": {"matrix": [[9.33487264, 1e-08, 0.0], [-4.6674348, 8.08423682, 0.0], [-0.0, 0.0, 3.70869702]], "pbc": [true, true, true], "a": 9.33487264, "b": 9.334871856329615, "c": 3.70869702, "alpha": 90.0, "beta": 90.0, "gamma": 119.99999194292769, "volume": 279.8780116733737}, "properties": {}, "sites": [{"species": [{"element": "Sm", "occu": 1}], "abc": [0.333333, 0.666666, 0.75], "properties": {"magmom": -0.0}, "label": "Sm", "xyz": [1.0133323207206502e-06, 5.3894858271754496, 2.781522765]}, {"species": [{"element": "Sm", "occu": 1}], "abc": [0.666667, 0.333333, 0.25], "properties": {"magmom": -0.0}, "label": "Sm", "xyz": [4.667441494102481, 2.6947429185877296, 0.927174255]}, {"species": [{"element": "Cl", "occu": 1}], "abc": [0.20995272, 0.41990644, 0.25], "properties": {"magmom": -0.0}, "label": "Cl", "xyz": [-4.029178530817745e-06, 3.3946231053026477, 0.927174255]}, {"species": [{"element": "Cl", "occu": 1}], "abc": [0.5800915600000001, 0.79004628, 0.25], "properties": {"magmom": -0.0}, "label": "Cl", "xyz": [1.7275913312563755, 6.386921232080944, 0.927174255]}, {"species": [{"element": "Cl", "occu": 1}], "abc": [0.20995372, 0.79004628, 0.25], "properties": {"magmom": -0.0}, "label": "Cl", "xyz": [-1.7275982643883228, 6.386921228379566, 0.927174255]}, {"species": [{"element": "Cl", "occu": 1}], "abc": [0.79004828, 0.58009256, 0.75], "properties": {"magmom": -0.0}, "label": "Cl", "xyz": [4.667455871485973, 4.689605640460542, 2.781522765]}, {"species": [{"element": "Cl", "occu": 1}], "abc": [0.41990644, 0.20995272, 0.75], "properties": {"magmom": -0.0}, "label": "Cl", "xyz": [2.9398325064331456, 1.6973075136822147, 2.781522765]}, {"species": [{"element": "Cl", "occu": 1}], "abc": [0.79004628, 0.20995272, 0.75], "properties": {"magmom": -0.0}, "label": "Cl", "xyz": [6.395040771823123, 1.697307517383613, 2.781522765]}]}, "task_ids": null, "uncorrected_energy_per_atom": null, "energy_per_atom": -14.47586189625, "formation_energy_per_atom": -2.428301643125001, "energy_above_hull": 0.0, "is_stable": true, "equilibrium_reaction_energy_per_atom": null, "decomposes_to": null, "xas": null, "grain_boundaries": null, "band_gap": 3.4912, "cbm": null, "vbm": null, "efermi": -1.8806956400000001, "is_gap_direct": null, "is_metal": null, "es_source_calc_id": null, "bandstructure": null, "dos": null, "dos_energy_up": null, "dos_energy_down": null, "is_magnetic": null, "ordering": null, "total_magnetization": 0.0, "total_magnetization_normalized_vol": null, "total_magnetization_normalized_formula_units": null, "num_magnetic_sites": null, "num_unique_magnetic_sites": null, "types_of_magnetic_species": null, "bulk_modulus": null, "shear_modulus": null, "universal_anisotropy": null, "homogeneous_poisson": null, "e_total": null, "e_ionic": null, "e_electronic": null, "n": null, "e_ij_max": null, "weighted_surface_energy_EV_PER_ANG2": null, "weighted_surface_energy": null, "weighted_work_function": null, "surface_anisotropy": null, "shape_factor": null, "has_reconstructed": null, "possible_species": null, "has_props": null, "theoretical": null, "database_IDs": null, "fields_not_requested": ["builder_meta", "nsites", "elements", "nelements", "composition", "composition_reduced", "chemsys", "symmetry", "property_name", "deprecated", "deprecation_reasons", "last_updated", "origins", "warnings", "task_ids", "uncorrected_energy_per_atom", "equilibrium_reaction_energy_per_atom", "decomposes_to", "xas", "grain_boundaries", "cbm", "vbm", "is_gap_direct", "is_metal", "es_source_calc_id", "bandstructure", "dos", "dos_energy_up", "dos_energy_down", "is_magnetic", "ordering", "total_magnetization_normalized_vol", "total_magnetization_normalized_formula_units", "num_magnetic_sites", "num_unique_magnetic_sites", "types_of_magnetic_species", "bulk_modulus", "shear_modulus", "universal_anisotropy", "homogeneous_poisson", "e_total", "e_ionic", "e_electronic", "n", "e_ij_max", "weighted_surface_energy_EV_PER_ANG2", "weighted_surface_energy", "weighted_work_function", "surface_anisotropy", "shape_factor", "has_reconstructed", "possible_species", "has_props", "theoretical", "database_IDs"]}