{"builder_meta": null, "nsites": null, "elements": null, "nelements": null, "composition": null, "composition_reduced": null, "formula_pretty": "SmCo2", "formula_anonymous": "AB2", "chemsys": null, "volume": 95.223913347754, "density": 9.354801407110894, "density_atomic": 15.870652224625667, "symmetry": null, "property_name": null, "material_id": "mp-336", "deprecated": null, "deprecation_reasons": null, "last_updated": null, "origins": null, "warnings": null, "structure": {"@module": "pymatgen.core.structure", "@class": "Structure", "charge": 0, "lattice": {"matrix": [[4.43910447, -0.00016235000000000002, 2.56273173], [1.47954288, 4.18518237, 2.5627361], [1.178e-05, 1.232e-05, 5.12544597]], "pbc": [true, true, true], "a": 5.1257431111869325, "b": 5.125662388624589, "c": 5.125445970028345, "alpha": 60.001053684225475, "beta": 60.001673073619806, "gamma": 60.0041379543691, "volume": 95.22391334775402}, "properties": {}, "sites": [{"species": [{"element": "Sm", "occu": 1}], "abc": [0.87499411, 0.87499358, 0.87500466], "properties": {"magmom": -0.38}, "label": "Sm", "xyz": [5.178791093814278, 3.661876429642837, 8.969541912322569]}, {"species": [{"element": "Sm", "occu": 1}], "abc": [0.12500589, 0.12500642, 0.12499534], "properties": {"magmom": -0.38}, "label": "Sm", "xyz": [0.7398680361857232, 0.5231559103571626, 1.2813718876774316]}, {"species": [{"element": "Co", "occu": 1}], "abc": [0.5, 0.5, 0.5], "properties": {"magmom": 1.392}, "label": "Co", "xyz": [2.9593295650000004, 2.0925161699999997, 5.1254569]}, {"species": [{"element": "Co", "occu": 1}], "abc": [0.5, 0.5, 0.0], "properties": {"magmom": 1.392}, "label": "Co", "xyz": [2.9593236750000003, 2.09251001, 2.562733915]}, {"species": [{"element": "Co", "occu": 1}], "abc": [-0.0, 0.5, 0.5], "properties": {"magmom": 1.391}, "label": "Co", "xyz": [0.7397773299999999, 2.0925973449999997, 3.844091035]}, {"species": [{"element": "Co", "occu": 1}], "abc": [0.5, -0.0, 0.5], "properties": {"magmom": 1.391}, "label": "Co", "xyz": [2.2195581250000003, -7.501500000000001e-05, 3.8440888500000003]}]}, "task_ids": null, "uncorrected_energy_per_atom": null, "energy_per_atom": -6.407215430000001, "formation_energy_per_atom": -0.078742238333334, "energy_above_hull": 0.0, "is_stable": true, "equilibrium_reaction_energy_per_atom": null, "decomposes_to": null, "xas": null, "grain_boundaries": null, "band_gap": 0.0, "cbm": null, "vbm": null, "efermi": 4.75497553, "is_gap_direct": null, "is_metal": null, "es_source_calc_id": null, "bandstructure": null, "dos": null, "dos_energy_up": null, "dos_energy_down": null, "is_magnetic": null, "ordering": null, "total_magnetization": 4.0004971, "total_magnetization_normalized_vol": null, "total_magnetization_normalized_formula_units": null, "num_magnetic_sites": null, "num_unique_magnetic_sites": null, "types_of_magnetic_species": null, "bulk_modulus": null, "shear_modulus": null, "universal_anisotropy": null, "homogeneous_poisson": null, "e_total": null, "e_ionic": null, "e_electronic": null, "n": null, "e_ij_max": null, "weighted_surface_energy_EV_PER_ANG2": null, "weighted_surface_energy": null, "weighted_work_function": null, "surface_anisotropy": null, "shape_factor": null, "has_reconstructed": null, "possible_species": null, "has_props": null, "theoretical": null, "database_IDs": null, "fields_not_requested": ["builder_meta", "nsites", "elements", "nelements", "composition", "composition_reduced", "chemsys", "symmetry", "property_name", "deprecated", "deprecation_reasons", "last_updated", "origins", "warnings", "task_ids", "uncorrected_energy_per_atom", "equilibrium_reaction_energy_per_atom", "decomposes_to", "xas", "grain_boundaries", "cbm", "vbm", "is_gap_direct", "is_metal", "es_source_calc_id", "bandstructure", "dos", "dos_energy_up", "dos_energy_down", "is_magnetic", "ordering", "total_magnetization_normalized_vol", "total_magnetization_normalized_formula_units", "num_magnetic_sites", "num_unique_magnetic_sites", "types_of_magnetic_species", "bulk_modulus", "shear_modulus", "universal_anisotropy", "homogeneous_poisson", "e_total", "e_ionic", "e_electronic", "n", "e_ij_max", "weighted_surface_energy_EV_PER_ANG2", "weighted_surface_energy", "weighted_work_function", "surface_anisotropy", "shape_factor", "has_reconstructed", "possible_species", "has_props", "theoretical", "database_IDs"]}