{
  "builder_meta": null,
  "nsites": null,
  "elements": null,
  "nelements": null,
  "composition": null,
  "composition_reduced": null,
  "formula_pretty": "SmCo3",
  "formula_anonymous": "AB3",
  "chemsys": null,
  "volume": 181.16748576869284,
  "density": 8.996006147572587,
  "density_atomic": 15.097290480724403,
  "symmetry": null,
  "property_name": null,
  "material_id": "mp-1101053",
  "deprecated": null,
  "deprecation_reasons": null,
  "last_updated": null,
  "origins": null,
  "warnings": null,
  "structure": {
    "@module": "pymatgen.core.structure",
    "@class": "Structure",
    "charge": 0,
    "lattice": {
      "matrix": [
        [-2.517967, -4.361247, 0.0],
        [-5.035935, 0.0, 0.0],
        [-2.517967, -1.453749, -8.248775]
      ],
      "pbc": [true, true, true],
      "a": 5.035934194178672,
      "b": 5.035935,
      "c": 8.746189625700726,
      "alpha": 73.26814345118922,
      "beta": 73.2681432298076,
      "gamma": 60.00000127550887,
      "volume": 181.16748576869284
    },
    "properties": {},
    "sites": [
      {
        "species": [{ "element": "Sm", "occu": 1 }],
        "abc": [0.860364999999999, 0.860364999999999, 0.418904],
        "properties": { "magmom": 0.055 },
        "label": "Sm",
        "xyz": [-7.553899342397994, -4.361245546250996, -3.4554448426]
      },
      {
        "species": [{ "element": "Sm", "occu": 1 }],
        "abc": [0.139634999999999, 0.139634999999999, 0.581096],
        "properties": { "magmom": 0.055 },
        "label": "Sm",
        "xyz": [-2.5179696576019923, -1.4537504537489956, -4.7933301574]
      },
      {
        "species": [{ "element": "Sm", "occu": 1 }],
        "abc": [0.0, 0.0, 0.0],
        "properties": { "magmom": 0.033 },
        "label": "Sm",
        "xyz": [0.0, 0.0, 0.0]
      },
      {
        "species": [{ "element": "Co", "occu": 1 }],
        "abc": [0.419842, 0.419842, 0.240474],
        "properties": { "magmom": -0.47700000000000004 },
        "label": "Co",
        "xyz": [-3.776950919842, -2.1806235, -1.98361591935]
      },
      {
        "species": [{ "element": "Co", "occu": 1 }],
        "abc": [0.919841999999999, 0.419842, 0.240474],
        "properties": { "magmom": -0.47700000000000004 },
        "label": "Co",
        "xyz": [-5.035934419841999, -4.361246999999996, -1.98361591935]
      },
      {
        "species": [{ "element": "Co", "occu": 1 }],
        "abc": [0.419842, 0.919841999999999, 0.240474],
        "properties": { "magmom": -0.47700000000000004 },
        "label": "Co",
        "xyz": [-6.294918419841996, -2.1806235, -1.98361591935]
      },
      {
        "species": [{ "element": "Co", "occu": 1 }],
        "abc": [0.580158, 0.580158, 0.759525999999999],
        "properties": { "magmom": -0.47700000000000004 },
        "label": "Co",
        "xyz": [-6.294918080157998, -3.6343724999999982, -6.265159080649992]
      },
      {
        "species": [{ "element": "Co", "occu": 1 }],
        "abc": [0.080158, 0.580158, 0.759525999999999],
        "properties": { "magmom": -0.47700000000000004 },
        "label": "Co",
        "xyz": [-5.035934580157997, -1.4537489999999984, -6.265159080649992]
      },
      {
        "species": [{ "element": "Co", "occu": 1 }],
        "abc": [0.580158, 0.080158, 0.759525999999999],
        "properties": { "magmom": -0.47700000000000004 },
        "label": "Co",
        "xyz": [-3.7769505801579975, -3.6343724999999982, -6.265159080649992]
      },
      {
        "species": [{ "element": "Co", "occu": 1 }],
        "abc": [0.665495, 0.665495, 0.003513999999999],
        "properties": { "magmom": 1.07 },
        "label": "Co",
        "xyz": [-5.035932147527998, -2.907496546250998, -0.028986195349991754]
      },
      {
        "species": [{ "element": "Co", "occu": 1 }],
        "abc": [0.334505, 0.334505, 0.996486],
        "properties": { "magmom": 1.07 },
        "label": "Co",
        "xyz": [-5.035936852472, -2.9074994537489998, -8.21978880465]
      },
      {
        "species": [{ "element": "Co", "occu": 1 }],
        "abc": [0.5, 0.5, 0.5],
        "properties": { "magmom": 0.188 },
        "label": "Co",
        "xyz": [-5.035934500000001, -2.907498, -4.1243875]
      }
    ]
  },
  "task_ids": null,
  "uncorrected_energy_per_atom": null,
  "energy_per_atom": -6.540268029166667,
  "formation_energy_per_atom": -0.010558955416667001,
  "energy_above_hull": 0.058086133541666,
  "is_stable": false,
  "equilibrium_reaction_energy_per_atom": null,
  "decomposes_to": null,
  "xas": null,
  "grain_boundaries": null,
  "band_gap": 0.0,
  "cbm": null,
  "vbm": null,
  "efermi": 4.46194952,
  "is_gap_direct": null,
  "is_metal": null,
  "es_source_calc_id": null,
  "bandstructure": null,
  "dos": null,
  "dos_energy_up": null,
  "dos_energy_down": null,
  "is_magnetic": null,
  "ordering": null,
  "total_magnetization": 0.198159299999999,
  "total_magnetization_normalized_vol": null,
  "total_magnetization_normalized_formula_units": null,
  "num_magnetic_sites": null,
  "num_unique_magnetic_sites": null,
  "types_of_magnetic_species": null,
  "bulk_modulus": null,
  "shear_modulus": null,
  "universal_anisotropy": null,
  "homogeneous_poisson": null,
  "e_total": null,
  "e_ionic": null,
  "e_electronic": null,
  "n": null,
  "e_ij_max": null,
  "weighted_surface_energy_EV_PER_ANG2": null,
  "weighted_surface_energy": null,
  "weighted_work_function": null,
  "surface_anisotropy": null,
  "shape_factor": null,
  "has_reconstructed": null,
  "possible_species": null,
  "has_props": null,
  "theoretical": null,
  "database_IDs": null,
  "fields_not_requested": [
    "builder_meta",
    "nsites",
    "elements",
    "nelements",
    "composition",
    "composition_reduced",
    "chemsys",
    "symmetry",
    "property_name",
    "deprecated",
    "deprecation_reasons",
    "last_updated",
    "origins",
    "warnings",
    "task_ids",
    "uncorrected_energy_per_atom",
    "equilibrium_reaction_energy_per_atom",
    "decomposes_to",
    "xas",
    "grain_boundaries",
    "cbm",
    "vbm",
    "is_gap_direct",
    "is_metal",
    "es_source_calc_id",
    "bandstructure",
    "dos",
    "dos_energy_up",
    "dos_energy_down",
    "is_magnetic",
    "ordering",
    "total_magnetization_normalized_vol",
    "total_magnetization_normalized_formula_units",
    "num_magnetic_sites",
    "num_unique_magnetic_sites",
    "types_of_magnetic_species",
    "bulk_modulus",
    "shear_modulus",
    "universal_anisotropy",
    "homogeneous_poisson",
    "e_total",
    "e_ionic",
    "e_electronic",
    "n",
    "e_ij_max",
    "weighted_surface_energy_EV_PER_ANG2",
    "weighted_surface_energy",
    "weighted_work_function",
    "surface_anisotropy",
    "shape_factor",
    "has_reconstructed",
    "possible_species",
    "has_props",
    "theoretical",
    "database_IDs"
  ]
}
