{"builder_meta": null, "nsites": null, "elements": null, "nelements": null, "composition": null, "composition_reduced": null, "formula_pretty": "SmCu6", "formula_anonymous": "AB6", "chemsys": null, "volume": 398.9800847799151, "density": 8.85059060226455, "density_atomic": 14.249288742139825, "symmetry": null, "property_name": null, "material_id": "mp-30699", "deprecated": null, "deprecation_reasons": null, "last_updated": null, "origins": null, "warnings": null, "structure": {"@module": "pymatgen.core.structure", "@class": "Structure", "charge": 0, "lattice": {"matrix": [[5.02311657, 0.0, 0.0], [0.0, 7.95436637, 0.0], [0.0, 0.0, 9.98555875]], "pbc": [true, true, true], "a": 5.02311657, "b": 7.95436637, "c": 9.98555875, "alpha": 90.0, "beta": 90.0, "gamma": 90.0, "volume": 398.9800847799151}, "properties": {}, "sites": [{"species": [{"element": "Sm", "occu": 1}], "abc": [0.75, 0.73979004, 0.56388139], "properties": {"magmom": 0.0}, "label": "Sm", "xyz": [3.7673374275000002, 5.884561015036955, 5.630670747876662]}, {"species": [{"element": "Sm", "occu": 1}], "abc": [0.25, 0.26020996, 0.43611861], "properties": {"magmom": 0.0}, "label": "Sm", "xyz": [1.2557791425, 2.0698053549630453, 4.354888002123337]}, {"species": [{"element": "Sm", "occu": 1}], "abc": [0.75, 0.23979004, 0.9361186100000001], "properties": {"magmom": 0.0}, "label": "Sm", "xyz": [3.7673374275000002, 1.9073778300369548, 9.347667377123338]}, {"species": [{"element": "Sm", "occu": 1}], "abc": [0.25, 0.76020996, 0.06388139], "properties": {"magmom": 0.0}, "label": "Sm", "xyz": [1.2557791425, 6.046988539963045, 0.6378913728766624]}, {"species": [{"element": "Cu", "occu": 1}], "abc": [0.75, 0.85320376, 0.85623669], "properties": {"magmom": -0.0}, "label": "Cu", "xyz": [3.7673374275000002, 6.786695295301551, 8.550001771900536]}, {"species": [{"element": "Cu", "occu": 1}], "abc": [0.25, 0.14679624, 0.14376331], "properties": {"magmom": -0.0}, "label": "Cu", "xyz": [1.2557791425, 1.1676710746984487, 1.4355569780994624]}, {"species": [{"element": "Cu", "occu": 1}], "abc": [0.75, 0.35320376000000003, 0.64376331], "properties": {"magmom": -0.0}, "label": "Cu", "xyz": [3.7673374275000002, 2.8095121103015512, 6.4283363530994615]}, {"species": [{"element": "Cu", "occu": 1}], "abc": [0.25, 0.64679624, 0.35623669], "properties": {"magmom": -0.0}, "label": "Cu", "xyz": [1.2557791425, 5.144854259698449, 3.557222396900537]}, {"species": [{"element": "Cu", "occu": 1}], "abc": [0.75, 0.18144742, 0.24466882], "properties": {"magmom": -0.0}, "label": "Cu", "xyz": [3.7673374275000002, 1.4432992555712654, 2.4431548764031747]}, {"species": [{"element": "Cu", "occu": 1}], "abc": [0.25, 0.81855258, 0.75533118], "properties": {"magmom": -0.0}, "label": "Cu", "xyz": [1.2557791425, 6.511067114428735, 7.542403873596824]}, {"species": [{"element": "Cu", "occu": 1}], "abc": [0.75, 0.68144742, 0.25533118], "properties": {"magmom": -0.0}, "label": "Cu", "xyz": [3.7673374275000002, 5.4204824405712655, 2.549624498596825]}, {"species": [{"element": "Cu", "occu": 1}], "abc": [0.25, 0.31855258000000003, 0.74466882], "properties": {"magmom": -0.0}, "label": "Cu", "xyz": [1.2557791425, 2.5338839294287347, 7.435934251403174]}, {"species": [{"element": "Cu", "occu": 1}], "abc": [0.75, 0.43594518, 0.40404699], "properties": {"magmom": 0.0}, "label": "Cu", "xyz": [3.7673374275000002, 3.4676676789555962, 4.034634956405662]}, {"species": [{"element": "Cu", "occu": 1}], "abc": [0.25, 0.56405482, 0.59595301], "properties": {"magmom": 0.0}, "label": "Cu", "xyz": [1.2557791425, 4.486698691044403, 5.950923793594337]}, {"species": [{"element": "Cu", "occu": 1}], "abc": [0.75, 0.93594518, 0.09595301], "properties": {"magmom": 0.0}, "label": "Cu", "xyz": [3.7673374275000002, 7.444850863955597, 0.9581444185943375]}, {"species": [{"element": "Cu", "occu": 1}], "abc": [0.25, 0.06405482, 0.90404699], "properties": {"magmom": 0.0}, "label": "Cu", "xyz": [1.2557791425, 0.5095155060444033, 9.027414331405662]}, {"species": [{"element": "Cu", "occu": 1}], "abc": [0.75, 0.09885332000000001, 0.48360365], "properties": {"magmom": -0.0}, "label": "Cu", "xyz": [3.7673374275000002, 0.7863155241708485, 4.829052658789437]}, {"species": [{"element": "Cu", "occu": 1}], "abc": [0.25, 0.90114668, 0.5163963500000001], "properties": {"magmom": -0.0}, "label": "Cu", "xyz": [1.2557791425, 7.168050845829152, 5.156506091210563]}, {"species": [{"element": "Cu", "occu": 1}], "abc": [0.75, 0.59885332, 0.01639635], "properties": {"magmom": -0.0}, "label": "Cu", "xyz": [3.7673374275000002, 4.7634987091708485, 0.16372671621056248]}, {"species": [{"element": "Cu", "occu": 1}], "abc": [0.25, 0.40114668000000003, 0.98360365], "properties": {"magmom": -0.0}, "label": "Cu", "xyz": [1.2557791425, 3.1908676608291517, 9.821832033789438]}, {"species": [{"element": "Cu", "occu": 1}], "abc": [0.99514693, 0.56613068, 0.8091413900000001], "properties": {"magmom": 0.0}, "label": "Cu", "xyz": [4.99873903366763, 4.503210842017231, 8.079728886901663]}, {"species": [{"element": "Cu", "occu": 1}], "abc": [0.49514693, 0.43386932, 0.19085861], "properties": {"magmom": 0.0}, "label": "Cu", "xyz": [2.48718074866763, 3.451155527982768, 1.9058298630983375]}, {"species": [{"element": "Cu", "occu": 1}], "abc": [0.50485307, 0.06613068, 0.69085861], "properties": {"magmom": 0.0}, "label": "Cu", "xyz": [2.53593582133237, 0.5260276570172315, 6.898609238098337]}, {"species": [{"element": "Cu", "occu": 1}], "abc": [0.00485307, 0.93386932, 0.30914139], "properties": {"magmom": 0.0}, "label": "Cu", "xyz": [0.0243775363323699, 7.428338712982768, 3.0869495119016626]}, {"species": [{"element": "Cu", "occu": 1}], "abc": [0.00485307, 0.43386932, 0.19085861], "properties": {"magmom": 0.0}, "label": "Cu", "xyz": [0.0243775363323699, 3.451155527982768, 1.9058298630983375]}, {"species": [{"element": "Cu", "occu": 1}], "abc": [0.50485307, 0.56613068, 0.8091413900000001], "properties": {"magmom": 0.0}, "label": "Cu", "xyz": [2.53593582133237, 4.503210842017231, 8.079728886901663]}, {"species": [{"element": "Cu", "occu": 1}], "abc": [0.49514693, 0.93386932, 0.30914139], "properties": {"magmom": 0.0}, "label": "Cu", "xyz": [2.48718074866763, 7.428338712982768, 3.0869495119016626]}, {"species": [{"element": "Cu", "occu": 1}], "abc": [0.99514693, 0.06613068, 0.69085861], "properties": {"magmom": 0.0}, "label": "Cu", "xyz": [4.99873903366763, 0.5260276570172315, 6.898609238098337]}]}, "task_ids": null, "uncorrected_energy_per_atom": null, "energy_per_atom": -13.68696741392857, "formation_energy_per_atom": -0.142153082499999, "energy_above_hull": 0.012533861785716001, "is_stable": false, "equilibrium_reaction_energy_per_atom": null, "decomposes_to": null, "xas": null, "grain_boundaries": null, "band_gap": 0.0, "cbm": null, "vbm": null, "efermi": 5.81929993, "is_gap_direct": null, "is_metal": null, "es_source_calc_id": null, "bandstructure": null, "dos": null, "dos_energy_up": null, "dos_energy_down": null, "is_magnetic": null, "ordering": null, "total_magnetization": 0.0, "total_magnetization_normalized_vol": null, "total_magnetization_normalized_formula_units": null, "num_magnetic_sites": null, "num_unique_magnetic_sites": null, "types_of_magnetic_species": null, "bulk_modulus": null, "shear_modulus": null, "universal_anisotropy": null, "homogeneous_poisson": null, "e_total": null, "e_ionic": null, "e_electronic": null, "n": null, "e_ij_max": null, "weighted_surface_energy_EV_PER_ANG2": null, "weighted_surface_energy": null, "weighted_work_function": null, "surface_anisotropy": null, "shape_factor": null, "has_reconstructed": null, "possible_species": null, "has_props": null, "theoretical": null, "database_IDs": null, "fields_not_requested": ["builder_meta", "nsites", "elements", "nelements", "composition", "composition_reduced", "chemsys", "symmetry", "property_name", "deprecated", "deprecation_reasons", "last_updated", "origins", "warnings", "task_ids", "uncorrected_energy_per_atom", "equilibrium_reaction_energy_per_atom", "decomposes_to", "xas", "grain_boundaries", "cbm", "vbm", "is_gap_direct", "is_metal", "es_source_calc_id", "bandstructure", "dos", "dos_energy_up", "dos_energy_down", "is_magnetic", "ordering", "total_magnetization_normalized_vol", "total_magnetization_normalized_formula_units", "num_magnetic_sites", "num_unique_magnetic_sites", "types_of_magnetic_species", "bulk_modulus", "shear_modulus", "universal_anisotropy", "homogeneous_poisson", "e_total", "e_ionic", "e_electronic", "n", "e_ij_max", "weighted_surface_energy_EV_PER_ANG2", "weighted_surface_energy", "weighted_work_function", "surface_anisotropy", "shape_factor", "has_reconstructed", "possible_species", "has_props", "theoretical", "database_IDs"]}