{"builder_meta": null, "nsites": null, "elements": null, "nelements": null, "composition": null, "composition_reduced": null, "formula_pretty": "SmCu", "formula_anonymous": "AB", "chemsys": null, "volume": 179.36566086649106, "density": 7.921232366646332, "density_atomic": 22.420707608311382, "symmetry": null, "property_name": null, "material_id": "mp-980769", "deprecated": null, "deprecation_reasons": null, "last_updated": null, "origins": null, "warnings": null, "structure": {"@module": "pymatgen.core.structure", "@class": "Structure", "charge": 0, "lattice": {"matrix": [[7.31289139, 0.0, 0.0], [0.0, 4.53125117, 0.0], [0.0, -0.0, 5.41292541]], "pbc": [true, true, true], "a": 7.31289139, "b": 4.53125117, "c": 5.41292541, "alpha": 90.0, "beta": 90.0, "gamma": 90.0, "volume": 179.36566086649106}, "properties": {}, "sites": [{"species": [{"element": "Sm", "occu": 1}], "abc": [0.18035593, 0.25, 0.12024428000000001], "properties": {"magmom": 0.0}, "label": "Sm", "xyz": [1.3189233276324426, 1.1328127925, 0.6508733186191548]}, {"species": [{"element": "Sm", "occu": 1}], "abc": [0.31964307000000003, 0.75, 0.62024428], "properties": {"magmom": 0.0}, "label": "Sm", "xyz": [2.3375150544761674, 3.3984383774999998, 3.3573360236191547]}, {"species": [{"element": "Sm", "occu": 1}], "abc": [0.68035793, 0.25, 0.37975472], "properties": {"magmom": 0.0}, "label": "Sm", "xyz": [4.975383648415223, 1.1328127925, 2.055583973455435]}, {"species": [{"element": "Sm", "occu": 1}], "abc": [0.81964307, 0.75, 0.87975672], "properties": {"magmom": 0.0}, "label": "Sm", "xyz": [5.993960749476168, 3.3984383774999998, 4.762057504306255]}, {"species": [{"element": "Cu", "occu": 1}], "abc": [0.03353692, 0.25, 0.61486897], "properties": {"magmom": -0.0}, "label": "Cu", "xyz": [0.24525185351511877, 1.1328127925, 3.3282398715335275]}, {"species": [{"element": "Cu", "occu": 1}], "abc": [0.46646208, 0.75, 0.11486897], "properties": {"magmom": -0.0}, "label": "Cu", "xyz": [3.411186528593491, 3.3984383774999998, 0.6217771665335277]}, {"species": [{"element": "Cu", "occu": 1}], "abc": [0.53353792, 0.25, 0.88513103], "properties": {"magmom": -0.0}, "label": "Cu", "xyz": [3.901704861406509, 1.1328127925, 4.7911482434664725]}, {"species": [{"element": "Cu", "occu": 1}], "abc": [0.96646108, 0.75, 0.38513103], "properties": {"magmom": -0.0}, "label": "Cu", "xyz": [7.067624910702101, 3.3984383774999998, 2.084685538466472]}]}, "task_ids": null, "uncorrected_energy_per_atom": null, "energy_per_atom": -20.50567756125, "formation_energy_per_atom": -0.215817401249999, "energy_above_hull": 0.0, "is_stable": true, "equilibrium_reaction_energy_per_atom": null, "decomposes_to": null, "xas": null, "grain_boundaries": null, "band_gap": 0.0, "cbm": null, "vbm": null, "efermi": 4.36257196, "is_gap_direct": null, "is_metal": null, "es_source_calc_id": null, "bandstructure": null, "dos": null, "dos_energy_up": null, "dos_energy_down": null, "is_magnetic": null, "ordering": null, "total_magnetization": 0.0, "total_magnetization_normalized_vol": null, "total_magnetization_normalized_formula_units": null, "num_magnetic_sites": null, "num_unique_magnetic_sites": null, "types_of_magnetic_species": null, "bulk_modulus": null, "shear_modulus": null, "universal_anisotropy": null, "homogeneous_poisson": null, "e_total": null, "e_ionic": null, "e_electronic": null, "n": null, "e_ij_max": null, "weighted_surface_energy_EV_PER_ANG2": null, "weighted_surface_energy": null, "weighted_work_function": null, "surface_anisotropy": null, "shape_factor": null, "has_reconstructed": null, "possible_species": null, "has_props": null, "theoretical": null, "database_IDs": null, "fields_not_requested": ["builder_meta", "nsites", "elements", "nelements", "composition", "composition_reduced", "chemsys", "symmetry", "property_name", "deprecated", "deprecation_reasons", "last_updated", "origins", "warnings", "task_ids", "uncorrected_energy_per_atom", "equilibrium_reaction_energy_per_atom", "decomposes_to", "xas", "grain_boundaries", "cbm", "vbm", "is_gap_direct", "is_metal", "es_source_calc_id", "bandstructure", "dos", "dos_energy_up", "dos_energy_down", "is_magnetic", "ordering", "total_magnetization_normalized_vol", "total_magnetization_normalized_formula_units", "num_magnetic_sites", "num_unique_magnetic_sites", "types_of_magnetic_species", "bulk_modulus", "shear_modulus", "universal_anisotropy", "homogeneous_poisson", "e_total", "e_ionic", "e_electronic", "n", "e_ij_max", "weighted_surface_energy_EV_PER_ANG2", "weighted_surface_energy", "weighted_work_function", "surface_anisotropy", "shape_factor", "has_reconstructed", "possible_species", "has_props", "theoretical", "database_IDs"]}