{"builder_meta": null, "nsites": null, "elements": null, "nelements": null, "composition": null, "composition_reduced": null, "formula_pretty": "SmCu2", "formula_anonymous": "AB2", "chemsys": null, "volume": 109.8832123133461, "density": 8.385628257617755, "density_atomic": 18.31386871889102, "symmetry": null, "property_name": null, "material_id": "mp-1077154", "deprecated": null, "deprecation_reasons": null, "last_updated": null, "origins": null, "warnings": null, "structure": {"@module": "pymatgen.core.structure", "@class": "Structure", "charge": 0, "lattice": {"matrix": [[-4.32366236, 0.0, -1e-08], [-2.16183016, -3.46439842, 3.66793598], [-2.16183016, 3.46439842, 3.66793598]], "pbc": [true, true, true], "a": 4.32366236, "b": 5.489018164167676, "c": 5.489018164167676, "alpha": 78.2701609664064, "beta": 66.80595238464754, "gamma": 66.80595238464754, "volume": 109.8832123133461}, "properties": {}, "sites": [{"species": [{"element": "Sm", "occu": 1}], "abc": [0.53947632, 0.71052368, 0.21052368], "properties": {"magmom": -0.0}, "label": "Sm", "xyz": [-4.323661420531693, -1.73219921, 3.3783427456332493]}, {"species": [{"element": "Sm", "occu": 1}], "abc": [0.46052368, 0.28947632, 0.78947632], "properties": {"magmom": -0.0}, "label": "Sm", "xyz": [-4.323661259468308, 1.73219921, 3.9575292043667507]}, {"species": [{"element": "Cu", "occu": 1}], "abc": [0.16579497, 0.28330188, 0.38510718], "properties": {"magmom": 0.0}, "label": "Cu", "xyz": [-2.161828336391579, 0.35269412046762594, 2.451681638874029]}, {"species": [{"element": "Cu", "occu": 1}], "abc": [0.83420503, 0.71669812, 0.61489282], "properties": {"magmom": 0.0}, "label": "Cu", "xyz": [-6.485494343608421, -0.35269412046762616, 4.8841903111259715]}, {"species": [{"element": "Cu", "occu": 1}], "abc": [0.83420503, 0.11489182, 0.21669812], "properties": {"magmom": 0.0}, "label": "Cu", "xyz": [-4.3236620217782615, 0.352697584866046, 1.216250663189991]}, {"species": [{"element": "Cu", "occu": 1}], "abc": [0.16579497, 0.88510718, 0.78330188], "properties": {"magmom": 0.0}, "label": "Cu", "xyz": [-4.323658496391579, -0.35269412046762616, 6.119617618874029]}]}, "task_ids": null, "uncorrected_energy_per_atom": null, "energy_per_atom": -17.366128955, "formation_energy_per_atom": -0.223956848333334, "energy_above_hull": 0.0, "is_stable": true, "equilibrium_reaction_energy_per_atom": null, "decomposes_to": null, "xas": null, "grain_boundaries": null, "band_gap": 0.0, "cbm": null, "vbm": null, "efermi": 4.78158446, "is_gap_direct": null, "is_metal": null, "es_source_calc_id": null, "bandstructure": null, "dos": null, "dos_energy_up": null, "dos_energy_down": null, "is_magnetic": null, "ordering": null, "total_magnetization": 0.0, "total_magnetization_normalized_vol": null, "total_magnetization_normalized_formula_units": null, "num_magnetic_sites": null, "num_unique_magnetic_sites": null, "types_of_magnetic_species": null, "bulk_modulus": null, "shear_modulus": null, "universal_anisotropy": null, "homogeneous_poisson": null, "e_total": null, "e_ionic": null, "e_electronic": null, "n": null, "e_ij_max": null, "weighted_surface_energy_EV_PER_ANG2": null, "weighted_surface_energy": null, "weighted_work_function": null, "surface_anisotropy": null, "shape_factor": null, "has_reconstructed": null, "possible_species": null, "has_props": null, "theoretical": null, "database_IDs": null, "fields_not_requested": ["builder_meta", "nsites", "elements", "nelements", "composition", "composition_reduced", "chemsys", "symmetry", "property_name", "deprecated", "deprecation_reasons", "last_updated", "origins", "warnings", "task_ids", "uncorrected_energy_per_atom", "equilibrium_reaction_energy_per_atom", "decomposes_to", "xas", "grain_boundaries", "cbm", "vbm", "is_gap_direct", "is_metal", "es_source_calc_id", "bandstructure", "dos", "dos_energy_up", "dos_energy_down", "is_magnetic", "ordering", "total_magnetization_normalized_vol", "total_magnetization_normalized_formula_units", "num_magnetic_sites", "num_unique_magnetic_sites", "types_of_magnetic_species", "bulk_modulus", "shear_modulus", "universal_anisotropy", "homogeneous_poisson", "e_total", "e_ionic", "e_electronic", "n", "e_ij_max", "weighted_surface_energy_EV_PER_ANG2", "weighted_surface_energy", "weighted_work_function", "surface_anisotropy", "shape_factor", "has_reconstructed", "possible_species", "has_props", "theoretical", "database_IDs"]}