{
  "builder_meta": null,
  "nsites": null,
  "elements": null,
  "nelements": null,
  "composition": null,
  "composition_reduced": null,
  "formula_pretty": "SmDy3",
  "formula_anonymous": "AB3",
  "chemsys": null,
  "volume": 261.6198417377917,
  "density": 8.097179800934592,
  "density_atomic": 32.702480217223965,
  "symmetry": null,
  "property_name": null,
  "material_id": "mp-972534",
  "deprecated": null,
  "deprecation_reasons": null,
  "last_updated": null,
  "origins": null,
  "warnings": null,
  "structure": {
    "@module": "pymatgen.core.structure",
    "@class": "Structure",
    "charge": 0,
    "lattice": {
      "matrix": [
        [7.333875499999999, -1.229999999999999e-6, 2e-8],
        [-3.66693844, 6.35132123, 2e-8],
        [0.0, 2e-8, 5.616595]
      ],
      "pbc": [true, true, true],
      "a": 7.333875500000102,
      "b": 7.333874752775531,
      "c": 5.616595,
      "alpha": 89.99999966706108,
      "beta": 89.99999984375037,
      "gamma": 120.00001920428545,
      "volume": 261.61984173779166
    },
    "properties": {},
    "sites": [
      {
        "species": [{ "element": "Sm", "occu": 1 }],
        "abc": [0.666666299999999, 0.33333302, 0.25000086],
        "properties": { "magmom": 0.0 },
        "label": "Sm",
        "xyz": [3.666935979886353, 2.1171042715864825, 1.4041536002716863]
      },
      {
        "species": [{ "element": "Sm", "occu": 1 }],
        "abc": [0.33333321, 0.66666596, 0.75000028],
        "properties": { "magmom": 0.0 },
        "label": "Sm",
        "xyz": [1.226791852104725e-6, 4.234209270066488, 4.212447842646583]
      },
      {
        "species": [{ "element": "Dy", "occu": 1 }],
        "abc": [0.83443672, 0.16556263000000002, 0.75000012],
        "properties": { "magmom": 0.0 },
        "label": "Dy",
        "xyz": [5.512547044933862, 1.0515404354564717, 4.212446943991388]
      },
      {
        "species": [{ "element": "Dy", "occu": 1 }],
        "abc": [0.33112423, 0.16556281, 0.75000013],
        "properties": { "magmom": 0.0 },
        "label": "Dy",
        "xyz": [1.8213152456299482, 1.051542197768656, 4.212446990091091]
      },
      {
        "species": [{ "element": "Dy", "occu": 1 }],
        "abc": [0.834437, 0.66887529, 0.75000015],
        "properties": { "magmom": 0.0 },
        "label": "Dy",
        "xyz": [3.6669325581263514, 4.2482408182419, 4.212447122555496]
      },
      {
        "species": [{ "element": "Dy", "occu": 1 }],
        "abc": [0.1655731, 0.8344269, 0.25000084],
        "properties": { "magmom": 0.0 },
        "label": "Dy",
        "xyz": [-1.845499573430986, 5.29971308619819, 1.4041534879398]
      },
      {
        "species": [{ "element": "Dy", "occu": 1 }],
        "abc": [0.66885361, 0.834427199999999, 0.25000082],
        "properties": { "magmom": 0.0 },
        "label": "Dy",
        "xyz": [1.8454959284039898, 5.299714372559526, 1.4041533856735164]
      },
      {
        "species": [{ "element": "Dy", "occu": 1 }],
        "abc": [0.16557183, 0.33114518, 0.250000799999999],
        "properties": { "magmom": 0.0 },
        "label": "Dy",
        "xyz": [-5.8022355542419746e-6, 2.103209213292836, 1.404153253210335]
      }
    ]
  },
  "task_ids": null,
  "uncorrected_energy_per_atom": null,
  "energy_per_atom": -31.40886554375,
  "formation_energy_per_atom": 0.010717955000000001,
  "energy_above_hull": 0.010717955000000001,
  "is_stable": false,
  "equilibrium_reaction_energy_per_atom": null,
  "decomposes_to": null,
  "xas": null,
  "grain_boundaries": null,
  "band_gap": 0.0,
  "cbm": null,
  "vbm": null,
  "efermi": 3.12504145,
  "is_gap_direct": null,
  "is_metal": null,
  "es_source_calc_id": null,
  "bandstructure": null,
  "dos": null,
  "dos_energy_up": null,
  "dos_energy_down": null,
  "is_magnetic": null,
  "ordering": null,
  "total_magnetization": 6.560000000000002e-5,
  "total_magnetization_normalized_vol": null,
  "total_magnetization_normalized_formula_units": null,
  "num_magnetic_sites": null,
  "num_unique_magnetic_sites": null,
  "types_of_magnetic_species": null,
  "bulk_modulus": null,
  "shear_modulus": null,
  "universal_anisotropy": null,
  "homogeneous_poisson": null,
  "e_total": null,
  "e_ionic": null,
  "e_electronic": null,
  "n": null,
  "e_ij_max": null,
  "weighted_surface_energy_EV_PER_ANG2": null,
  "weighted_surface_energy": null,
  "weighted_work_function": null,
  "surface_anisotropy": null,
  "shape_factor": null,
  "has_reconstructed": null,
  "possible_species": null,
  "has_props": null,
  "theoretical": null,
  "database_IDs": null,
  "fields_not_requested": [
    "builder_meta",
    "nsites",
    "elements",
    "nelements",
    "composition",
    "composition_reduced",
    "chemsys",
    "symmetry",
    "property_name",
    "deprecated",
    "deprecation_reasons",
    "last_updated",
    "origins",
    "warnings",
    "task_ids",
    "uncorrected_energy_per_atom",
    "equilibrium_reaction_energy_per_atom",
    "decomposes_to",
    "xas",
    "grain_boundaries",
    "cbm",
    "vbm",
    "is_gap_direct",
    "is_metal",
    "es_source_calc_id",
    "bandstructure",
    "dos",
    "dos_energy_up",
    "dos_energy_down",
    "is_magnetic",
    "ordering",
    "total_magnetization_normalized_vol",
    "total_magnetization_normalized_formula_units",
    "num_magnetic_sites",
    "num_unique_magnetic_sites",
    "types_of_magnetic_species",
    "bulk_modulus",
    "shear_modulus",
    "universal_anisotropy",
    "homogeneous_poisson",
    "e_total",
    "e_ionic",
    "e_electronic",
    "n",
    "e_ij_max",
    "weighted_surface_energy_EV_PER_ANG2",
    "weighted_surface_energy",
    "weighted_work_function",
    "surface_anisotropy",
    "shape_factor",
    "has_reconstructed",
    "possible_species",
    "has_props",
    "theoretical",
    "database_IDs"
  ]
}
