{
  "builder_meta": null,
  "nsites": null,
  "elements": null,
  "nelements": null,
  "composition": null,
  "composition_reduced": null,
  "formula_pretty": "SmEr3",
  "formula_anonymous": "AB3",
  "chemsys": null,
  "volume": 253.91045482571096,
  "density": 8.529770591909235,
  "density_atomic": 31.73880685321387,
  "symmetry": null,
  "property_name": null,
  "material_id": "mp-978927",
  "deprecated": null,
  "deprecation_reasons": null,
  "last_updated": null,
  "origins": null,
  "warnings": null,
  "structure": {
    "@module": "pymatgen.core.structure",
    "@class": "Structure",
    "charge": 0,
    "lattice": {
      "matrix": [
        [7.24516609, -5.48e-6, 0.0],
        [-3.62258633, 6.27448958, 0.0],
        [0.0, 0.0, 5.58539671]
      ],
      "pbc": [true, true, true],
      "a": 7.245166090002072,
      "b": 7.245160537064134,
      "c": 5.58539671,
      "alpha": 90.0,
      "beta": 90.0,
      "gamma": 120.00009868714842,
      "volume": 253.91045482571096
    },
    "properties": {},
    "sites": [
      {
        "species": [{ "element": "Sm", "occu": 1 }],
        "abc": [0.33333364, 0.66665874, 0.749999],
        "properties": { "magmom": 0.0 },
        "label": "Sm",
        "xyz": [2.874688524290292e-5, 4.182941490877582, 4.1890419471032905]
      },
      {
        "species": [{ "element": "Sm", "occu": 1 }],
        "abc": [0.66666605, 0.33332445, 0.25],
        "properties": { "magmom": 0.0 },
        "label": "Sm",
        "xyz": [3.6226096627894764, 2.091437134954277, 1.3963491775]
      },
      {
        "species": [{ "element": "Er", "occu": 1 }],
        "abc": [0.16481472, 0.32963513, 0.25],
        "properties": { "magmom": 0.0 },
        "label": "Er",
        "xyz": [-2.1695348928263414e-5, 2.0682912852022795, 1.3963491775]
      },
      {
        "species": [{ "element": "Er", "occu": 1 }],
        "abc": [0.67036416, 0.83518826, 0.25],
        "properties": { "magmom": 0.0 },
        "label": "Er",
        "xyz": [1.8313581063308484, 5.240376361112734, 1.3963491775]
      },
      {
        "species": [{ "element": "Er", "occu": 1 }],
        "abc": [0.164824299999999, 0.83518445, 0.25],
        "properties": { "magmom": 0.0 },
        "label": "Er",
        "xyz": [-1.8313483424305887, 5.2403552256658665, 1.3963491775]
      },
      {
        "species": [{ "element": "Er", "occu": 1 }],
        "abc": [0.83517069, 0.6703503, 0.749999],
        "properties": { "magmom": 0.0 },
        "label": "Er",
        "xyz": [3.622548529458503, 4.206101395564493, 4.1890419471032905]
      },
      {
        "species": [{ "element": "Er", "occu": 1 }],
        "abc": [0.32964831, 0.16483294, 0.749999],
        "properties": { "magmom": 0.0 },
        "label": "Er",
        "xyz": [1.7912352020600977, 1.0342407579980266, 4.1890419471032905]
      },
      {
        "species": [{ "element": "Er", "occu": 1 }],
        "abc": [0.83517913, 0.16482772, 0.749999],
        "properties": { "magmom": 0.0 },
        "label": "Er",
        "xyz": [5.453908866474634, 1.0342052348535253, 4.1890419471032905]
      }
    ]
  },
  "task_ids": null,
  "uncorrected_energy_per_atom": null,
  "energy_per_atom": -32.85781455125,
  "formation_energy_per_atom": 0.019492903749998,
  "energy_above_hull": 0.019492903749998,
  "is_stable": false,
  "equilibrium_reaction_energy_per_atom": null,
  "decomposes_to": null,
  "xas": null,
  "grain_boundaries": null,
  "band_gap": 0.0,
  "cbm": null,
  "vbm": null,
  "efermi": 3.05043272,
  "is_gap_direct": null,
  "is_metal": null,
  "es_source_calc_id": null,
  "bandstructure": null,
  "dos": null,
  "dos_energy_up": null,
  "dos_energy_down": null,
  "is_magnetic": null,
  "ordering": null,
  "total_magnetization": 0.0033365,
  "total_magnetization_normalized_vol": null,
  "total_magnetization_normalized_formula_units": null,
  "num_magnetic_sites": null,
  "num_unique_magnetic_sites": null,
  "types_of_magnetic_species": null,
  "bulk_modulus": null,
  "shear_modulus": null,
  "universal_anisotropy": null,
  "homogeneous_poisson": null,
  "e_total": null,
  "e_ionic": null,
  "e_electronic": null,
  "n": null,
  "e_ij_max": null,
  "weighted_surface_energy_EV_PER_ANG2": null,
  "weighted_surface_energy": null,
  "weighted_work_function": null,
  "surface_anisotropy": null,
  "shape_factor": null,
  "has_reconstructed": null,
  "possible_species": null,
  "has_props": null,
  "theoretical": null,
  "database_IDs": null,
  "fields_not_requested": [
    "builder_meta",
    "nsites",
    "elements",
    "nelements",
    "composition",
    "composition_reduced",
    "chemsys",
    "symmetry",
    "property_name",
    "deprecated",
    "deprecation_reasons",
    "last_updated",
    "origins",
    "warnings",
    "task_ids",
    "uncorrected_energy_per_atom",
    "equilibrium_reaction_energy_per_atom",
    "decomposes_to",
    "xas",
    "grain_boundaries",
    "cbm",
    "vbm",
    "is_gap_direct",
    "is_metal",
    "es_source_calc_id",
    "bandstructure",
    "dos",
    "dos_energy_up",
    "dos_energy_down",
    "is_magnetic",
    "ordering",
    "total_magnetization_normalized_vol",
    "total_magnetization_normalized_formula_units",
    "num_magnetic_sites",
    "num_unique_magnetic_sites",
    "types_of_magnetic_species",
    "bulk_modulus",
    "shear_modulus",
    "universal_anisotropy",
    "homogeneous_poisson",
    "e_total",
    "e_ionic",
    "e_electronic",
    "n",
    "e_ij_max",
    "weighted_surface_energy_EV_PER_ANG2",
    "weighted_surface_energy",
    "weighted_work_function",
    "surface_anisotropy",
    "shape_factor",
    "has_reconstructed",
    "possible_species",
    "has_props",
    "theoretical",
    "database_IDs"
  ]
}
