{"builder_meta": null, "nsites": null, "elements": null, "nelements": null, "composition": null, "composition_reduced": null, "formula_pretty": "SmEu3", "formula_anonymous": "AB3", "chemsys": null, "volume": 320.5306055636878, "density": 6.28149145654271, "density_atomic": 40.066325695460975, "symmetry": null, "property_name": null, "material_id": "mp-1187167", "deprecated": null, "deprecation_reasons": null, "last_updated": null, "origins": null, "warnings": null, "structure": {"@module": "pymatgen.core.structure", "@class": "Structure", "charge": 0, "lattice": {"matrix": [[3.851816, -6.671542, 0.0], [3.851816, 6.671542, 0.0], [0.0, 0.0, 6.236598]], "pbc": [true, true, true], "a": 7.703632854414857, "b": 7.703632854414857, "c": 6.236598, "alpha": 90.0, "beta": 90.0, "gamma": 120.0000073377888, "volume": 320.5306055636878}, "properties": {}, "sites": [{"species": [{"element": "Sm", "occu": 1}], "abc": [0.666667, 0.333333, 0.25], "properties": {"magmom": 0.23700000000000002}, "label": "Sm", "xyz": [3.851816, -2.2238517810280003, 1.5591495]}, {"species": [{"element": "Sm", "occu": 1}], "abc": [0.333333, 0.666667, 0.75], "properties": {"magmom": 0.23700000000000002}, "label": "Sm", "xyz": [3.851816, 2.2238517810280003, 4.6774485]}, {"species": [{"element": "Eu", "occu": 1}], "abc": [0.830661, 0.169339, 0.75], "properties": {"magmom": 6.969}, "label": "Eu", "xyz": [3.8518159999999995, -4.412037498524, 4.6774485]}, {"species": [{"element": "Eu", "occu": 1}], "abc": [0.338679, 0.169339, 0.75], "properties": {"magmom": 6.976}, "label": "Eu", "xyz": [1.956791860688, -1.12975892228, 4.6774485]}, {"species": [{"element": "Eu", "occu": 1}], "abc": [0.830661, 0.661320999999999, 0.75], "properties": {"magmom": 6.969}, "label": "Eu", "xyz": [5.746840139311995, -1.129758922280006, 4.6774485]}, {"species": [{"element": "Eu", "occu": 1}], "abc": [0.169339, 0.830661, 0.25], "properties": {"magmom": 6.969}, "label": "Eu", "xyz": [3.8518159999999995, 4.412037498524, 1.5591495]}, {"species": [{"element": "Eu", "occu": 1}], "abc": [0.661320999999999, 0.830661, 0.25], "properties": {"magmom": 6.976}, "label": "Eu", "xyz": [5.746840139311995, 1.129758922280006, 1.5591495]}, {"species": [{"element": "Eu", "occu": 1}], "abc": [0.169339, 0.338679, 0.25], "properties": {"magmom": 6.969}, "label": "Eu", "xyz": [1.956791860688, 1.12975892228, 1.5591495]}]}, "task_ids": null, "uncorrected_energy_per_atom": null, "energy_per_atom": -36.259197942499995, "formation_energy_per_atom": 0.064695173750003, "energy_above_hull": 0.064695173750003, "is_stable": false, "equilibrium_reaction_energy_per_atom": null, "decomposes_to": null, "xas": null, "grain_boundaries": null, "band_gap": 0.0, "cbm": null, "vbm": null, "efermi": 2.27283237, "is_gap_direct": null, "is_metal": null, "es_source_calc_id": null, "bandstructure": null, "dos": null, "dos_energy_up": null, "dos_energy_down": null, "is_magnetic": null, "ordering": null, "total_magnetization": 45.7045533, "total_magnetization_normalized_vol": null, "total_magnetization_normalized_formula_units": null, "num_magnetic_sites": null, "num_unique_magnetic_sites": null, "types_of_magnetic_species": null, "bulk_modulus": null, "shear_modulus": null, "universal_anisotropy": null, "homogeneous_poisson": null, "e_total": null, "e_ionic": null, "e_electronic": null, "n": null, "e_ij_max": null, "weighted_surface_energy_EV_PER_ANG2": null, "weighted_surface_energy": null, "weighted_work_function": null, "surface_anisotropy": null, "shape_factor": null, "has_reconstructed": null, "possible_species": null, "has_props": null, "theoretical": null, "database_IDs": null, "fields_not_requested": ["builder_meta", "nsites", "elements", "nelements", "composition", "composition_reduced", "chemsys", "symmetry", "property_name", "deprecated", "deprecation_reasons", "last_updated", "origins", "warnings", "task_ids", "uncorrected_energy_per_atom", "equilibrium_reaction_energy_per_atom", "decomposes_to", "xas", "grain_boundaries", "cbm", "vbm", "is_gap_direct", "is_metal", "es_source_calc_id", "bandstructure", "dos", "dos_energy_up", "dos_energy_down", "is_magnetic", "ordering", "total_magnetization_normalized_vol", "total_magnetization_normalized_formula_units", "num_magnetic_sites", "num_unique_magnetic_sites", "types_of_magnetic_species", "bulk_modulus", "shear_modulus", "universal_anisotropy", "homogeneous_poisson", "e_total", "e_ionic", "e_electronic", "n", "e_ij_max", "weighted_surface_energy_EV_PER_ANG2", "weighted_surface_energy", "weighted_work_function", "surface_anisotropy", "shape_factor", "has_reconstructed", "possible_species", "has_props", "theoretical", "database_IDs"]}