{
  "builder_meta": null,
  "nsites": null,
  "elements": null,
  "nelements": null,
  "composition": null,
  "composition_reduced": null,
  "formula_pretty": "SmF3",
  "formula_anonymous": "AB3",
  "chemsys": null,
  "volume": 204.35309557727106,
  "density": 6.739734971592534,
  "density_atomic": 12.772068473579441,
  "symmetry": null,
  "property_name": null,
  "material_id": "mp-7384",
  "deprecated": null,
  "deprecation_reasons": null,
  "last_updated": null,
  "origins": null,
  "warnings": null,
  "structure": {
    "@module": "pymatgen.core.structure",
    "@class": "Structure",
    "charge": 0,
    "lattice": {
      "matrix": [
        [4.37738984, -0.0, 0.0],
        [0.0, 6.64583764, 0.0],
        [0.0, 0.0, 7.02451377]
      ],
      "pbc": [true, true, true],
      "a": 4.37738984,
      "b": 6.64583764,
      "c": 7.02451377,
      "alpha": 90.0,
      "beta": 90.0,
      "gamma": 90.0,
      "volume": 204.35309557727106
    },
    "properties": {},
    "sites": [
      {
        "species": [{ "element": "Sm", "occu": 1 }],
        "abc": [0.9342279800000001, 0.63183677, 0.75],
        "properties": { "magmom": 0.0 },
        "label": "Sm",
        "xyz": [4.089480067895724, 4.199084588402023, 5.268385327500001]
      },
      {
        "species": [{ "element": "Sm", "occu": 1 }],
        "abc": [0.43422798, 0.8681632300000001, 0.25],
        "properties": { "magmom": 0.0 },
        "label": "Sm",
        "xyz": [1.9007851478957234, 5.769671871597978, 1.7561284425]
      },
      {
        "species": [{ "element": "Sm", "occu": 1 }],
        "abc": [0.56577202, 0.13183677, 0.75],
        "properties": { "magmom": 0.0 },
        "label": "Sm",
        "xyz": [2.476604692104277, 0.8761657684020228, 5.268385327500001]
      },
      {
        "species": [{ "element": "Sm", "occu": 1 }],
        "abc": [0.06577202, 0.36816323, 0.25],
        "properties": { "magmom": 0.0 },
        "label": "Sm",
        "xyz": [0.2879097721042768, 2.446753051597977, 1.7561284425]
      },
      {
        "species": [{ "element": "F", "occu": 1 }],
        "abc": [0.07481283, 0.98138921, 0.75],
        "properties": { "magmom": 0.0 },
        "label": "F",
        "xyz": [0.3274849219436472, 6.522153351307864, 5.268385327500001]
      },
      {
        "species": [{ "element": "F", "occu": 1 }],
        "abc": [0.57481283, 0.51861079, 0.25],
        "properties": { "magmom": 0.0 },
        "label": "F",
        "xyz": [2.5161798419436474, 3.4466031086921354, 1.7561284425]
      },
      {
        "species": [{ "element": "F", "occu": 1 }],
        "abc": [0.42518717, 0.48138921, 0.75],
        "properties": { "magmom": 0.0 },
        "label": "F",
        "xyz": [1.8612099980563528, 3.1992345313078645, 5.268385327500001]
      },
      {
        "species": [{ "element": "F", "occu": 1 }],
        "abc": [0.9251871700000001, 0.018610790000000002, 0.25],
        "properties": { "magmom": 0.0 },
        "label": "F",
        "xyz": [4.049904918056353, 0.12368428869213562, 1.7561284425]
      },
      {
        "species": [{ "element": "F", "occu": 1 }],
        "abc": [0.39395352, 0.16560295, 0.06482613],
        "properties": { "magmom": -0.0 },
        "label": "F",
        "xyz": [1.7244881358802369, 1.100570318405038, 0.4553720428408101]
      },
      {
        "species": [{ "element": "F", "occu": 1 }],
        "abc": [0.8939535200000001, 0.33439705000000003, 0.93517287],
        "properties": { "magmom": -0.0 },
        "label": "F",
        "xyz": [3.9131830558802374, 2.2223485015949622, 6.569134702645421]
      },
      {
        "species": [{ "element": "F", "occu": 1 }],
        "abc": [0.10604648, 0.66560295, 0.43517287],
        "properties": { "magmom": -0.0 },
        "label": "F",
        "xyz": [0.46420678411976324, 4.423489138405038, 3.05687781764542]
      },
      {
        "species": [{ "element": "F", "occu": 1 }],
        "abc": [0.60604648, 0.83439705, 0.5648271300000001],
        "properties": { "magmom": -0.0 },
        "label": "F",
        "xyz": [2.6529017041197633, 5.545267321594962, 3.967635952354581]
      },
      {
        "species": [{ "element": "F", "occu": 1 }],
        "abc": [0.60604648, 0.83439705, 0.93517287],
        "properties": { "magmom": -0.0 },
        "label": "F",
        "xyz": [2.6529017041197633, 5.545267321594962, 6.569134702645421]
      },
      {
        "species": [{ "element": "F", "occu": 1 }],
        "abc": [0.10604648, 0.66560295, 0.06482613],
        "properties": { "magmom": -0.0 },
        "label": "F",
        "xyz": [0.46420678411976324, 4.423489138405038, 0.4553720428408101]
      },
      {
        "species": [{ "element": "F", "occu": 1 }],
        "abc": [0.8939535200000001, 0.33439705000000003, 0.5648271300000001],
        "properties": { "magmom": -0.0 },
        "label": "F",
        "xyz": [3.9131830558802374, 2.2223485015949622, 3.967635952354581]
      },
      {
        "species": [{ "element": "F", "occu": 1 }],
        "abc": [0.39395352, 0.16560295, 0.43517287],
        "properties": { "magmom": -0.0 },
        "label": "F",
        "xyz": [1.7244881358802369, 1.100570318405038, 3.05687781764542]
      }
    ]
  },
  "task_ids": null,
  "uncorrected_energy_per_atom": null,
  "energy_per_atom": -14.246062346875,
  "formation_energy_per_atom": -4.468310304375,
  "energy_above_hull": 0.0,
  "is_stable": true,
  "equilibrium_reaction_energy_per_atom": null,
  "decomposes_to": null,
  "xas": null,
  "grain_boundaries": null,
  "band_gap": 7.7298,
  "cbm": null,
  "vbm": null,
  "efermi": -0.70211217,
  "is_gap_direct": null,
  "is_metal": null,
  "es_source_calc_id": null,
  "bandstructure": null,
  "dos": null,
  "dos_energy_up": null,
  "dos_energy_down": null,
  "is_magnetic": null,
  "ordering": null,
  "total_magnetization": 0.0,
  "total_magnetization_normalized_vol": null,
  "total_magnetization_normalized_formula_units": null,
  "num_magnetic_sites": null,
  "num_unique_magnetic_sites": null,
  "types_of_magnetic_species": null,
  "bulk_modulus": null,
  "shear_modulus": null,
  "universal_anisotropy": null,
  "homogeneous_poisson": null,
  "e_total": null,
  "e_ionic": null,
  "e_electronic": null,
  "n": null,
  "e_ij_max": null,
  "weighted_surface_energy_EV_PER_ANG2": null,
  "weighted_surface_energy": null,
  "weighted_work_function": null,
  "surface_anisotropy": null,
  "shape_factor": null,
  "has_reconstructed": null,
  "possible_species": null,
  "has_props": null,
  "theoretical": null,
  "database_IDs": null,
  "fields_not_requested": [
    "builder_meta",
    "nsites",
    "elements",
    "nelements",
    "composition",
    "composition_reduced",
    "chemsys",
    "symmetry",
    "property_name",
    "deprecated",
    "deprecation_reasons",
    "last_updated",
    "origins",
    "warnings",
    "task_ids",
    "uncorrected_energy_per_atom",
    "equilibrium_reaction_energy_per_atom",
    "decomposes_to",
    "xas",
    "grain_boundaries",
    "cbm",
    "vbm",
    "is_gap_direct",
    "is_metal",
    "es_source_calc_id",
    "bandstructure",
    "dos",
    "dos_energy_up",
    "dos_energy_down",
    "is_magnetic",
    "ordering",
    "total_magnetization_normalized_vol",
    "total_magnetization_normalized_formula_units",
    "num_magnetic_sites",
    "num_unique_magnetic_sites",
    "types_of_magnetic_species",
    "bulk_modulus",
    "shear_modulus",
    "universal_anisotropy",
    "homogeneous_poisson",
    "e_total",
    "e_ionic",
    "e_electronic",
    "n",
    "e_ij_max",
    "weighted_surface_energy_EV_PER_ANG2",
    "weighted_surface_energy",
    "weighted_work_function",
    "surface_anisotropy",
    "shape_factor",
    "has_reconstructed",
    "possible_species",
    "has_props",
    "theoretical",
    "database_IDs"
  ]
}
