{
  "builder_meta": null,
  "nsites": null,
  "elements": null,
  "nelements": null,
  "composition": null,
  "composition_reduced": null,
  "formula_pretty": "SmFe3",
  "formula_anonymous": "AB3",
  "chemsys": null,
  "volume": 190.15114322743466,
  "density": 8.328275985363298,
  "density_atomic": 15.845928602286222,
  "symmetry": null,
  "property_name": null,
  "material_id": "mp-1102187",
  "deprecated": null,
  "deprecation_reasons": null,
  "last_updated": null,
  "origins": null,
  "warnings": null,
  "structure": {
    "@module": "pymatgen.core.structure",
    "@class": "Structure",
    "charge": 0,
    "lattice": {
      "matrix": [
        [-2.591574, -4.488738, 0.0],
        [-5.183148, 0.0, 0.0],
        [-2.591574, -1.496246, -8.172992]
      ],
      "pbc": [true, true, true],
      "a": 5.1831481389325536,
      "b": 5.183148,
      "c": 8.703608798771691,
      "alpha": 72.67697348805152,
      "beta": 72.6769733283769,
      "gamma": 60.0000008866912,
      "volume": 190.15114322743466
    },
    "properties": {},
    "sites": [
      {
        "species": [{ "element": "Sm", "occu": 1 }],
        "abc": [0.857949, 0.857949, 0.426153],
        "properties": { "magmom": -0.388 },
        "label": "Sm",
        "xyz": [-7.774721999999999, -4.488738, -3.4829450597760006]
      },
      {
        "species": [{ "element": "Sm", "occu": 1 }],
        "abc": [0.142050999999999, 0.142050999999999, 0.573847],
        "properties": { "magmom": -0.388 },
        "label": "Sm",
        "xyz": [-2.5915739999999925, -1.4962459999999953, -4.690046940224001]
      },
      {
        "species": [{ "element": "Sm", "occu": 1 }],
        "abc": [0.0, 0.0, 0.0],
        "properties": { "magmom": -0.28600000000000003 },
        "label": "Sm",
        "xyz": [0.0, 0.0, 0.0]
      },
      {
        "species": [{ "element": "Fe", "occu": 1 }],
        "abc": [0.421429, 0.421429, 0.24083000000000002],
        "properties": { "magmom": 2.281 },
        "label": "Fe",
        "xyz": [-3.900622084158, -2.252025290782, -1.9683016633600003]
      },
      {
        "species": [{ "element": "Fe", "occu": 1 }],
        "abc": [0.916311999999999, 0.421429, 0.24083000000000002],
        "properties": { "magmom": 2.253 },
        "label": "Fe",
        "xyz": [-5.183147999999997, -4.473425418435995, -1.9683016633600003]
      },
      {
        "species": [{ "element": "Fe", "occu": 1 }],
        "abc": [0.421429, 0.916311999999999, 0.24083000000000002],
        "properties": { "magmom": 2.307 },
        "label": "Fe",
        "xyz": [-6.465673915841995, -2.252025290782, -1.9683016633600003]
      },
      {
        "species": [{ "element": "Fe", "occu": 1 }],
        "abc": [0.578571, 0.578571, 0.75917],
        "properties": { "magmom": 2.281 },
        "label": "Fe",
        "xyz": [-6.465673915842, -3.732958709218, -6.204690336640001]
      },
      {
        "species": [{ "element": "Fe", "occu": 1 }],
        "abc": [0.083688, 0.578571, 0.75917],
        "properties": { "magmom": 2.253 },
        "label": "Fe",
        "xyz": [-5.183148, -1.511558581564, -6.204690336640001]
      },
      {
        "species": [{ "element": "Fe", "occu": 1 }],
        "abc": [0.578571, 0.083688, 0.75917],
        "properties": { "magmom": 2.307 },
        "label": "Fe",
        "xyz": [-3.900622084158, -3.732958709218, -6.204690336640001]
      },
      {
        "species": [{ "element": "Fe", "occu": 1 }],
        "abc": [0.667283, 0.667283, 0.9981509999999991],
        "properties": { "magmom": 2.395 },
        "label": "Fe",
        "xyz": [-7.774721999999998, -4.488737999999998, -8.157880137791993]
      },
      {
        "species": [{ "element": "Fe", "occu": 1 }],
        "abc": [0.332717, 0.332717, 0.001849],
        "properties": { "magmom": 2.395 },
        "label": "Fe",
        "xyz": [-2.591574, -1.4962459999999997, -0.015111862208000001]
      },
      {
        "species": [{ "element": "Fe", "occu": 1 }],
        "abc": [0.5, 0.5, 0.5],
        "properties": { "magmom": 2.093 },
        "label": "Fe",
        "xyz": [-5.183148, -2.992492, -4.086496]
      }
    ]
  },
  "task_ids": null,
  "uncorrected_energy_per_atom": null,
  "energy_per_atom": -7.5246613316666675,
  "formation_energy_per_atom": 0.0075011095833330006,
  "energy_above_hull": 0.0075011095833330006,
  "is_stable": false,
  "equilibrium_reaction_energy_per_atom": null,
  "decomposes_to": null,
  "xas": null,
  "grain_boundaries": null,
  "band_gap": 0.0,
  "cbm": null,
  "vbm": null,
  "efermi": 4.47134562,
  "is_gap_direct": null,
  "is_metal": null,
  "es_source_calc_id": null,
  "bandstructure": null,
  "dos": null,
  "dos_energy_up": null,
  "dos_energy_down": null,
  "is_magnetic": null,
  "ordering": null,
  "total_magnetization": 18.6912987,
  "total_magnetization_normalized_vol": null,
  "total_magnetization_normalized_formula_units": null,
  "num_magnetic_sites": null,
  "num_unique_magnetic_sites": null,
  "types_of_magnetic_species": null,
  "bulk_modulus": null,
  "shear_modulus": null,
  "universal_anisotropy": null,
  "homogeneous_poisson": null,
  "e_total": null,
  "e_ionic": null,
  "e_electronic": null,
  "n": null,
  "e_ij_max": null,
  "weighted_surface_energy_EV_PER_ANG2": null,
  "weighted_surface_energy": null,
  "weighted_work_function": null,
  "surface_anisotropy": null,
  "shape_factor": null,
  "has_reconstructed": null,
  "possible_species": null,
  "has_props": null,
  "theoretical": null,
  "database_IDs": null,
  "fields_not_requested": [
    "builder_meta",
    "nsites",
    "elements",
    "nelements",
    "composition",
    "composition_reduced",
    "chemsys",
    "symmetry",
    "property_name",
    "deprecated",
    "deprecation_reasons",
    "last_updated",
    "origins",
    "warnings",
    "task_ids",
    "uncorrected_energy_per_atom",
    "equilibrium_reaction_energy_per_atom",
    "decomposes_to",
    "xas",
    "grain_boundaries",
    "cbm",
    "vbm",
    "is_gap_direct",
    "is_metal",
    "es_source_calc_id",
    "bandstructure",
    "dos",
    "dos_energy_up",
    "dos_energy_down",
    "is_magnetic",
    "ordering",
    "total_magnetization_normalized_vol",
    "total_magnetization_normalized_formula_units",
    "num_magnetic_sites",
    "num_unique_magnetic_sites",
    "types_of_magnetic_species",
    "bulk_modulus",
    "shear_modulus",
    "universal_anisotropy",
    "homogeneous_poisson",
    "e_total",
    "e_ionic",
    "e_electronic",
    "n",
    "e_ij_max",
    "weighted_surface_energy_EV_PER_ANG2",
    "weighted_surface_energy",
    "weighted_work_function",
    "surface_anisotropy",
    "shape_factor",
    "has_reconstructed",
    "possible_species",
    "has_props",
    "theoretical",
    "database_IDs"
  ]
}
