{"builder_meta": null, "nsites": null, "elements": null, "nelements": null, "composition": null, "composition_reduced": null, "formula_pretty": "SmFe5", "formula_anonymous": "AB5", "chemsys": null, "volume": 91.67908820882879, "density": 7.780865722622505, "density_atomic": 15.279848034804798, "symmetry": null, "property_name": null, "material_id": "mp-1566", "deprecated": null, "deprecation_reasons": null, "last_updated": null, "origins": null, "warnings": null, "structure": {"@module": "pymatgen.core.structure", "@class": "Structure", "charge": 0, "lattice": {"matrix": [[5.19560092, 0.00012826, 0.0], [-2.597689759999999, 4.49941934, 0.0], [0.0, 0.0, 3.92167717]], "pbc": [true, true, true], "a": 5.1956009215831305, "b": 5.195456330908277, "c": 3.92167717, "alpha": 90.0, "beta": 90.0, "gamma": 119.99809652325577, "volume": 91.67908820882879}, "properties": {}, "sites": [{"species": [{"element": "Sm", "occu": 1}], "abc": [0.0, 0.0, -0.0], "properties": {"magmom": -0.464}, "label": "Sm", "xyz": [0.0, 0.0, 0.0]}, {"species": [{"element": "Fe", "occu": 1}], "abc": [0.33334769000000003, 0.6666887300000001, -0.0], "properties": {"magmom": 2.691}, "label": "Fe", "xyz": [9.107781547101901e-05, 2.9997549206967578, 0.0]}, {"species": [{"element": "Fe", "occu": 1}], "abc": [0.66665231, 0.33331127, 0.0], "properties": {"magmom": 2.691}, "label": "Fe", "xyz": [2.5978200821845308, 1.4997926793032423, 0.0]}, {"species": [{"element": "Fe", "occu": 1}], "abc": [0.5, 0.0, 0.5], "properties": {"magmom": 2.779}, "label": "Fe", "xyz": [2.59780046, 6.413e-05, 1.960838585]}, {"species": [{"element": "Fe", "occu": 1}], "abc": [0.5, 0.5, 0.5], "properties": {"magmom": 2.779}, "label": "Fe", "xyz": [1.2989555800000008, 2.2497738000000003, 1.960838585]}, {"species": [{"element": "Fe", "occu": 1}], "abc": [0.0, 0.5, 0.5], "properties": {"magmom": 2.779}, "label": "Fe", "xyz": [-1.2988448799999994, 2.24970967, 1.960838585]}]}, "task_ids": null, "uncorrected_energy_per_atom": null, "energy_per_atom": -7.83828432, "formation_energy_per_atom": 0.006497710833333, "energy_above_hull": 0.006497710833333, "is_stable": false, "equilibrium_reaction_energy_per_atom": null, "decomposes_to": null, "xas": null, "grain_boundaries": null, "band_gap": 0.0, "cbm": null, "vbm": null, "efermi": 4.40120428, "is_gap_direct": null, "is_metal": null, "es_source_calc_id": null, "bandstructure": null, "dos": null, "dos_energy_up": null, "dos_energy_down": null, "is_magnetic": null, "ordering": null, "total_magnetization": 12.3274133, "total_magnetization_normalized_vol": null, "total_magnetization_normalized_formula_units": null, "num_magnetic_sites": null, "num_unique_magnetic_sites": null, "types_of_magnetic_species": null, "bulk_modulus": null, "shear_modulus": null, "universal_anisotropy": null, "homogeneous_poisson": null, "e_total": null, "e_ionic": null, "e_electronic": null, "n": null, "e_ij_max": null, "weighted_surface_energy_EV_PER_ANG2": null, "weighted_surface_energy": null, "weighted_work_function": null, "surface_anisotropy": null, "shape_factor": null, "has_reconstructed": null, "possible_species": null, "has_props": null, "theoretical": null, "database_IDs": null, "fields_not_requested": ["builder_meta", "nsites", "elements", "nelements", "composition", "composition_reduced", "chemsys", "symmetry", "property_name", "deprecated", "deprecation_reasons", "last_updated", "origins", "warnings", "task_ids", "uncorrected_energy_per_atom", "equilibrium_reaction_energy_per_atom", "decomposes_to", "xas", "grain_boundaries", "cbm", "vbm", "is_gap_direct", "is_metal", "es_source_calc_id", "bandstructure", "dos", "dos_energy_up", "dos_energy_down", "is_magnetic", "ordering", "total_magnetization_normalized_vol", "total_magnetization_normalized_formula_units", "num_magnetic_sites", "num_unique_magnetic_sites", "types_of_magnetic_species", "bulk_modulus", "shear_modulus", "universal_anisotropy", "homogeneous_poisson", "e_total", "e_ionic", "e_electronic", "n", "e_ij_max", "weighted_surface_energy_EV_PER_ANG2", "weighted_surface_energy", "weighted_work_function", "surface_anisotropy", "shape_factor", "has_reconstructed", "possible_species", "has_props", "theoretical", "database_IDs"]}