{
  "builder_meta": null,
  "nsites": null,
  "elements": null,
  "nelements": null,
  "composition": null,
  "composition_reduced": null,
  "formula_pretty": "SmGa3",
  "formula_anonymous": "AB3",
  "chemsys": null,
  "volume": 158.9702889299882,
  "density": 7.5109877964499425,
  "density_atomic": 19.871286116248523,
  "symmetry": null,
  "property_name": null,
  "material_id": "mp-867143",
  "deprecated": null,
  "deprecation_reasons": null,
  "last_updated": null,
  "origins": null,
  "warnings": null,
  "structure": {
    "@module": "pymatgen.core.structure",
    "@class": "Structure",
    "charge": 0,
    "lattice": {
      "matrix": [
        [6.38238041, -0.0, -0.0],
        [-3.19119021, 5.5273046, 0.0],
        [0.0, -0.0, 4.5062977]
      ],
      "pbc": [true, true, true],
      "a": 6.38238041,
      "b": 6.382381303054605,
      "c": 4.5062977,
      "alpha": 90.0,
      "beta": 90.0,
      "gamma": 119.99999542314865,
      "volume": 158.9702889299882
    },
    "properties": {},
    "sites": [
      {
        "species": [{ "element": "Sm", "occu": 1 }],
        "abc": [0.333333999999999, 0.666667999999999, 0.75],
        "properties": { "magmom": 0.0 },
        "label": "Sm",
        "xyz": [-3.333342935007977e-9, 3.6848771030727945, 3.379723275]
      },
      {
        "species": [{ "element": "Sm", "occu": 1 }],
        "abc": [0.666667, 0.333333999999999, 0.250001],
        "properties": { "magmom": 0.0 },
        "label": "Sm",
        "xyz": [3.191190203333333, 1.8424385515363946, 1.1265789312977]
      },
      {
        "species": [{ "element": "Ga", "occu": 1 }],
        "abc": [0.14215707, 0.28431113, 0.250001],
        "properties": { "magmom": -0.0 },
        "label": "Ga",
        "xyz": [9.604060961287963e-6, 1.571474216680198, 1.1265789312977]
      },
      {
        "species": [{ "element": "Ga", "occu": 1 }],
        "abc": [0.71569187, 0.8578449300000001, 0.250001],
        "properties": { "magmom": -0.0 },
        "label": "Ga",
        "xyz": [1.8302714283701311, 4.741570227675679, 1.1265789312977]
      },
      {
        "species": [{ "element": "Ga", "occu": 1 }],
        "abc": [0.14215607, 0.8578449300000001, 0.250001],
        "properties": { "magmom": -0.0 },
        "label": "Ga",
        "xyz": [-1.8302522259835468, 4.741570227675679, 1.1265789312977]
      },
      {
        "species": [{ "element": "Ga", "occu": 1 }],
        "abc": [0.85784393, 0.71569087, 0.75],
        "properties": { "magmom": -0.0 },
        "label": "Ga",
        "xyz": [3.191180595939029, 3.955841437929002, 3.379723275]
      },
      {
        "species": [{ "element": "Ga", "occu": 1 }],
        "abc": [0.28430913, 0.14215707, 0.75],
        "properties": { "magmom": -0.0 },
        "label": "Ga",
        "xyz": [1.3609187716298587, 0.785745426933522, 3.379723275]
      },
      {
        "species": [{ "element": "Ga", "occu": 1 }],
        "abc": [0.8578449300000001, 0.14215707, 0.75],
        "properties": { "magmom": -0.0 },
        "label": "Ga",
        "xyz": [5.021442425983537, 0.785745426933522, 3.379723275]
      }
    ]
  },
  "task_ids": null,
  "uncorrected_energy_per_atom": null,
  "energy_per_atom": -16.645304425,
  "formation_energy_per_atom": -0.6299913824999981,
  "energy_above_hull": 0.0,
  "is_stable": true,
  "equilibrium_reaction_energy_per_atom": null,
  "decomposes_to": null,
  "xas": null,
  "grain_boundaries": null,
  "band_gap": 0.0,
  "cbm": null,
  "vbm": null,
  "efermi": 3.7637549,
  "is_gap_direct": null,
  "is_metal": null,
  "es_source_calc_id": null,
  "bandstructure": null,
  "dos": null,
  "dos_energy_up": null,
  "dos_energy_down": null,
  "is_magnetic": null,
  "ordering": null,
  "total_magnetization": 0.0,
  "total_magnetization_normalized_vol": null,
  "total_magnetization_normalized_formula_units": null,
  "num_magnetic_sites": null,
  "num_unique_magnetic_sites": null,
  "types_of_magnetic_species": null,
  "bulk_modulus": null,
  "shear_modulus": null,
  "universal_anisotropy": null,
  "homogeneous_poisson": null,
  "e_total": null,
  "e_ionic": null,
  "e_electronic": null,
  "n": null,
  "e_ij_max": null,
  "weighted_surface_energy_EV_PER_ANG2": null,
  "weighted_surface_energy": null,
  "weighted_work_function": null,
  "surface_anisotropy": null,
  "shape_factor": null,
  "has_reconstructed": null,
  "possible_species": null,
  "has_props": null,
  "theoretical": null,
  "database_IDs": null,
  "fields_not_requested": [
    "builder_meta",
    "nsites",
    "elements",
    "nelements",
    "composition",
    "composition_reduced",
    "chemsys",
    "symmetry",
    "property_name",
    "deprecated",
    "deprecation_reasons",
    "last_updated",
    "origins",
    "warnings",
    "task_ids",
    "uncorrected_energy_per_atom",
    "equilibrium_reaction_energy_per_atom",
    "decomposes_to",
    "xas",
    "grain_boundaries",
    "cbm",
    "vbm",
    "is_gap_direct",
    "is_metal",
    "es_source_calc_id",
    "bandstructure",
    "dos",
    "dos_energy_up",
    "dos_energy_down",
    "is_magnetic",
    "ordering",
    "total_magnetization_normalized_vol",
    "total_magnetization_normalized_formula_units",
    "num_magnetic_sites",
    "num_unique_magnetic_sites",
    "types_of_magnetic_species",
    "bulk_modulus",
    "shear_modulus",
    "universal_anisotropy",
    "homogeneous_poisson",
    "e_total",
    "e_ionic",
    "e_electronic",
    "n",
    "e_ij_max",
    "weighted_surface_energy_EV_PER_ANG2",
    "weighted_surface_energy",
    "weighted_work_function",
    "surface_anisotropy",
    "shape_factor",
    "has_reconstructed",
    "possible_species",
    "has_props",
    "theoretical",
    "database_IDs"
  ]
}
