{"builder_meta": null, "nsites": null, "elements": null, "nelements": null, "composition": null, "composition_reduced": null, "formula_pretty": "SmGa", "formula_anonymous": "AB", "chemsys": null, "volume": 101.46262753343532, "density": 7.203764149989073, "density_atomic": 25.36565688335883, "symmetry": null, "property_name": null, "material_id": "mp-999177", "deprecated": null, "deprecation_reasons": null, "last_updated": null, "origins": null, "warnings": null, "structure": {"@module": "pymatgen.core.structure", "@class": "Structure", "charge": 0, "lattice": {"matrix": [[0.0, 0.0, 4.12874055], [4.41802835, 0.0, -0.0], [-2.20901366, 5.56237179, -0.0]], "pbc": [true, true, true], "a": 4.12874055, "b": 4.41802835, "c": 5.984957918001964, "alpha": 111.65976927273391, "beta": 90.0, "gamma": 90.0, "volume": 101.46262753343532}, "properties": {}, "sites": [{"species": [{"element": "Sm", "occu": 1}], "abc": [0.25, 0.13999177000000002, 0.27998354000000003], "properties": {"magmom": 0.125}, "label": "Sm", "xyz": [1.4419152316591521e-07, 1.5573725445603368, 1.0321851375]}, {"species": [{"element": "Sm", "occu": 1}], "abc": [0.75, 0.86000823, 0.72001646], "properties": {"magmom": 0.125}, "label": "Sm", "xyz": [2.2090145458084773, 4.004999245439663, 3.0965554125]}, {"species": [{"element": "Ga", "occu": 1}], "abc": [0.25, 0.42788881, 0.85577662], "properties": {"magmom": -0.014}, "label": "Ga", "xyz": [2.649739134330531e-06, 4.76014772962955, 1.0321851375]}, {"species": [{"element": "Ga", "occu": 1}], "abc": [0.75, 0.57211119, 0.14422338], "properties": {"magmom": -0.014}, "label": "Ga", "xyz": [2.2090120402608657, 0.8022240603704504, 3.0965554125]}]}, "task_ids": null, "uncorrected_energy_per_atom": null, "energy_per_atom": -21.30371851, "formation_energy_per_atom": -0.715868374999999, "energy_above_hull": 0.0, "is_stable": true, "equilibrium_reaction_energy_per_atom": null, "decomposes_to": null, "xas": null, "grain_boundaries": null, "band_gap": 0.0, "cbm": null, "vbm": null, "efermi": 3.00803909, "is_gap_direct": null, "is_metal": null, "es_source_calc_id": null, "bandstructure": null, "dos": null, "dos_energy_up": null, "dos_energy_down": null, "is_magnetic": null, "ordering": null, "total_magnetization": 0.6255666, "total_magnetization_normalized_vol": null, "total_magnetization_normalized_formula_units": null, "num_magnetic_sites": null, "num_unique_magnetic_sites": null, "types_of_magnetic_species": null, "bulk_modulus": null, "shear_modulus": null, "universal_anisotropy": null, "homogeneous_poisson": null, "e_total": null, "e_ionic": null, "e_electronic": null, "n": null, "e_ij_max": null, "weighted_surface_energy_EV_PER_ANG2": null, "weighted_surface_energy": null, "weighted_work_function": null, "surface_anisotropy": null, "shape_factor": null, "has_reconstructed": null, "possible_species": null, "has_props": null, "theoretical": null, "database_IDs": null, "fields_not_requested": ["builder_meta", "nsites", "elements", "nelements", "composition", "composition_reduced", "chemsys", "symmetry", "property_name", "deprecated", "deprecation_reasons", "last_updated", "origins", "warnings", "task_ids", "uncorrected_energy_per_atom", "equilibrium_reaction_energy_per_atom", "decomposes_to", "xas", "grain_boundaries", "cbm", "vbm", "is_gap_direct", "is_metal", "es_source_calc_id", "bandstructure", "dos", "dos_energy_up", "dos_energy_down", "is_magnetic", "ordering", "total_magnetization_normalized_vol", "total_magnetization_normalized_formula_units", "num_magnetic_sites", "num_unique_magnetic_sites", "types_of_magnetic_species", "bulk_modulus", "shear_modulus", "universal_anisotropy", "homogeneous_poisson", "e_total", "e_ionic", "e_electronic", "n", "e_ij_max", "weighted_surface_energy_EV_PER_ANG2", "weighted_surface_energy", "weighted_work_function", "surface_anisotropy", "shape_factor", "has_reconstructed", "possible_species", "has_props", "theoretical", "database_IDs"]}