{"builder_meta": null, "nsites": null, "elements": null, "nelements": null, "composition": null, "composition_reduced": null, "formula_pretty": "SmGa6", "formula_anonymous": "AB6", "chemsys": null, "volume": 269.29402109730444, "density": 7.013488396432425, "density_atomic": 19.23528722123603, "symmetry": null, "property_name": null, "material_id": "mp-1104451", "deprecated": null, "deprecation_reasons": null, "last_updated": null, "origins": null, "warnings": null, "structure": {"@module": "pymatgen.core.structure", "@class": "Structure", "charge": 0, "lattice": {"matrix": [[5.96033424, -0.0, -0.0], [-0.0, 5.96033424, 0.0], [-0.0, -0.0, 7.58028409]], "pbc": [true, true, true], "a": 5.96033424, "b": 5.96033424, "c": 7.58028409, "alpha": 90.0, "beta": 90.0, "gamma": 90.0, "volume": 269.29402109730444}, "properties": {}, "sites": [{"species": [{"element": "Sm", "occu": 1}], "abc": [0.75, 0.25, 0.0], "properties": {"magmom": 0.0}, "label": "Sm", "xyz": [4.4702506799999995, 1.49008356, 0.0]}, {"species": [{"element": "Sm", "occu": 1}], "abc": [0.25, 0.75, 0.0], "properties": {"magmom": 0.0}, "label": "Sm", "xyz": [1.49008356, 4.4702506799999995, 0.0]}, {"species": [{"element": "Ga", "occu": 1}], "abc": [0.75, 0.75, 0.1600038], "properties": {"magmom": 0.0}, "label": "Ga", "xyz": [4.4702506799999995, 4.4702506799999995, 1.212874259479542]}, {"species": [{"element": "Ga", "occu": 1}], "abc": [0.25, 0.25, 0.1600038], "properties": {"magmom": 0.0}, "label": "Ga", "xyz": [1.49008356, 1.49008356, 1.212874259479542]}, {"species": [{"element": "Ga", "occu": 1}], "abc": [0.25, 0.25, 0.8399962], "properties": {"magmom": 0.0}, "label": "Ga", "xyz": [1.49008356, 1.49008356, 6.367409830520458]}, {"species": [{"element": "Ga", "occu": 1}], "abc": [0.75, 0.75, 0.8399962], "properties": {"magmom": 0.0}, "label": "Ga", "xyz": [4.4702506799999995, 4.4702506799999995, 6.367409830520458]}, {"species": [{"element": "Ga", "occu": 1}], "abc": [0.05129232, 0.94870768, 0.34647344], "properties": {"magmom": -0.0}, "label": "Ga", "xyz": [0.30571937114503683, 5.654614868854964, 2.62636710483957]}, {"species": [{"element": "Ga", "occu": 1}], "abc": [0.5512923200000001, 0.05129232, 0.34647344], "properties": {"magmom": -0.0}, "label": "Ga", "xyz": [3.285886491145037, 0.30571937114503683, 2.62636710483957]}, {"species": [{"element": "Ga", "occu": 1}], "abc": [0.94870768, 0.44870768, 0.34647344], "properties": {"magmom": -0.0}, "label": "Ga", "xyz": [5.654614868854964, 2.674447748854963, 2.62636710483957]}, {"species": [{"element": "Ga", "occu": 1}], "abc": [0.44870768, 0.5512923200000001, 0.34647344], "properties": {"magmom": -0.0}, "label": "Ga", "xyz": [2.674447748854963, 3.285886491145037, 2.62636710483957]}, {"species": [{"element": "Ga", "occu": 1}], "abc": [0.94870768, 0.05129232, 0.65352656], "properties": {"magmom": -0.0}, "label": "Ga", "xyz": [5.654614868854964, 0.30571937114503683, 4.95391698516043]}, {"species": [{"element": "Ga", "occu": 1}], "abc": [0.44870768, 0.94870768, 0.65352656], "properties": {"magmom": -0.0}, "label": "Ga", "xyz": [2.674447748854963, 5.654614868854964, 4.95391698516043]}, {"species": [{"element": "Ga", "occu": 1}], "abc": [0.05129232, 0.5512923200000001, 0.65352656], "properties": {"magmom": -0.0}, "label": "Ga", "xyz": [0.30571937114503683, 3.285886491145037, 4.95391698516043]}, {"species": [{"element": "Ga", "occu": 1}], "abc": [0.5512923200000001, 0.44870768, 0.65352656], "properties": {"magmom": -0.0}, "label": "Ga", "xyz": [3.285886491145037, 2.674447748854963, 4.95391698516043]}]}, "task_ids": null, "uncorrected_energy_per_atom": null, "energy_per_atom": -14.43937534, "formation_energy_per_atom": -0.38372105142857105, "energy_above_hull": 0.0, "is_stable": true, "equilibrium_reaction_energy_per_atom": null, "decomposes_to": null, "xas": null, "grain_boundaries": null, "band_gap": 0.0, "cbm": null, "vbm": null, "efermi": 3.68415996, "is_gap_direct": null, "is_metal": null, "es_source_calc_id": null, "bandstructure": null, "dos": null, "dos_energy_up": null, "dos_energy_down": null, "is_magnetic": null, "ordering": null, "total_magnetization": 0.0, "total_magnetization_normalized_vol": null, "total_magnetization_normalized_formula_units": null, "num_magnetic_sites": null, "num_unique_magnetic_sites": null, "types_of_magnetic_species": null, "bulk_modulus": null, "shear_modulus": null, "universal_anisotropy": null, "homogeneous_poisson": null, "e_total": null, "e_ionic": null, "e_electronic": null, "n": null, "e_ij_max": null, "weighted_surface_energy_EV_PER_ANG2": null, "weighted_surface_energy": null, "weighted_work_function": null, "surface_anisotropy": null, "shape_factor": null, "has_reconstructed": null, "possible_species": null, "has_props": null, "theoretical": null, "database_IDs": null, "fields_not_requested": ["builder_meta", "nsites", "elements", "nelements", "composition", "composition_reduced", "chemsys", "symmetry", "property_name", "deprecated", "deprecation_reasons", "last_updated", "origins", "warnings", "task_ids", "uncorrected_energy_per_atom", "equilibrium_reaction_energy_per_atom", "decomposes_to", "xas", "grain_boundaries", "cbm", "vbm", "is_gap_direct", "is_metal", "es_source_calc_id", "bandstructure", "dos", "dos_energy_up", "dos_energy_down", "is_magnetic", "ordering", "total_magnetization_normalized_vol", "total_magnetization_normalized_formula_units", "num_magnetic_sites", "num_unique_magnetic_sites", "types_of_magnetic_species", "bulk_modulus", "shear_modulus", "universal_anisotropy", "homogeneous_poisson", "e_total", "e_ionic", "e_electronic", "n", "e_ij_max", "weighted_surface_energy_EV_PER_ANG2", "weighted_surface_energy", "weighted_work_function", "surface_anisotropy", "shape_factor", "has_reconstructed", "possible_species", "has_props", "theoretical", "database_IDs"]}