{
  "builder_meta": null,
  "nsites": null,
  "elements": null,
  "nelements": null,
  "composition": null,
  "composition_reduced": null,
  "formula_pretty": "SmGd3",
  "formula_anonymous": "AB3",
  "chemsys": null,
  "volume": 274.59774212746623,
  "density": 7.524009124903856,
  "density_atomic": 34.32471776593328,
  "symmetry": null,
  "property_name": null,
  "material_id": "mp-1005761",
  "deprecated": null,
  "deprecation_reasons": null,
  "last_updated": null,
  "origins": null,
  "warnings": null,
  "structure": {
    "@module": "pymatgen.core.structure",
    "@class": "Structure",
    "charge": 0,
    "lattice": {
      "matrix": [
        [7.32360655, 0.00015859, 0.0],
        [-3.66166471, 6.34249717, 0.0],
        [0.0, 0.0, 5.91161641]
      ],
      "pbc": [true, true, true],
      "a": 7.323606551717105,
      "b": 7.323596029268503,
      "c": 5.91161641,
      "alpha": 90.0,
      "beta": 90.0,
      "gamma": 119.99755504882458,
      "volume": 274.59774212746623
    },
    "properties": {},
    "sites": [
      {
        "species": [{ "element": "Sm", "occu": 1 }],
        "abc": [0.66665616, 0.33334374, 0.249999],
        "properties": { "magmom": 0.256 },
        "label": "Sm",
        "xyz": [3.6617344109164334, 2.11433745258763, 1.47789819088359]
      },
      {
        "species": [{ "element": "Sm", "occu": 1 }],
        "abc": [0.33333527, 0.66665317, 0.75],
        "properties": { "magmom": 0.256 },
        "label": "Sm",
        "xyz": [0.000155980319387794, 4.2282987077369985, 4.4337123075]
      },
      {
        "species": [{ "element": "Gd", "occu": 1 }],
        "abc": [0.83440806, 0.16560785, 0.75],
        "properties": { "magmom": 7.362 },
        "label": "Gd",
        "xyz": [5.50447591354482, 1.05049964872902, 4.4337123075]
      },
      {
        "species": [{ "element": "Gd", "occu": 1 }],
        "abc": [0.33118268, 0.165599399999999, 0.75],
        "properties": { "magmom": 7.362 },
        "label": "Gd",
        "xyz": [1.8190821655173837, 1.0503662481149127, 4.4337123075]
      },
      {
        "species": [{ "element": "Gd", "occu": 1 }],
        "abc": [0.83440598, 0.6688128, 0.75],
        "properties": { "magmom": 7.362 },
        "label": "Gd",
        "xyz": [3.661892873130881, 4.242075619704144, 4.4337123075]
      },
      {
        "species": [{ "element": "Gd", "occu": 1 }],
        "abc": [0.165598, 0.8344003, 0.249999],
        "properties": { "magmom": 7.362 },
        "label": "Gd",
        "xyz": [-1.8425195350565131, 5.29220780358397, 1.47789819088359]
      },
      {
        "species": [{ "element": "Gd", "occu": 1 }],
        "abc": [0.6688140300000001, 0.83439882, 0.249999],
        "properties": { "magmom": 7.362 },
        "label": "Gd",
        "xyz": [1.8428420975802542, 5.292278221718356, 1.47789819088359]
      },
      {
        "species": [{ "element": "Gd", "occu": 1 }],
        "abc": [0.16559882, 0.33118391, 0.249999],
        "properties": { "magmom": 7.362 },
        "label": "Gd",
        "xyz": [9.616705745485454e-5, 2.1005592742413985, 1.47789819088359]
      }
    ]
  },
  "task_ids": null,
  "uncorrected_energy_per_atom": null,
  "energy_per_atom": -39.97876259125,
  "formation_energy_per_atom": 0.002222463750001,
  "energy_above_hull": 0.002222463750001,
  "is_stable": false,
  "equilibrium_reaction_energy_per_atom": null,
  "decomposes_to": null,
  "xas": null,
  "grain_boundaries": null,
  "band_gap": 0.0,
  "cbm": null,
  "vbm": null,
  "efermi": 2.865407229999999,
  "is_gap_direct": null,
  "is_metal": null,
  "es_source_calc_id": null,
  "bandstructure": null,
  "dos": null,
  "dos_energy_up": null,
  "dos_energy_down": null,
  "is_magnetic": null,
  "ordering": null,
  "total_magnetization": 49.2141825,
  "total_magnetization_normalized_vol": null,
  "total_magnetization_normalized_formula_units": null,
  "num_magnetic_sites": null,
  "num_unique_magnetic_sites": null,
  "types_of_magnetic_species": null,
  "bulk_modulus": null,
  "shear_modulus": null,
  "universal_anisotropy": null,
  "homogeneous_poisson": null,
  "e_total": null,
  "e_ionic": null,
  "e_electronic": null,
  "n": null,
  "e_ij_max": null,
  "weighted_surface_energy_EV_PER_ANG2": null,
  "weighted_surface_energy": null,
  "weighted_work_function": null,
  "surface_anisotropy": null,
  "shape_factor": null,
  "has_reconstructed": null,
  "possible_species": null,
  "has_props": null,
  "theoretical": null,
  "database_IDs": null,
  "fields_not_requested": [
    "builder_meta",
    "nsites",
    "elements",
    "nelements",
    "composition",
    "composition_reduced",
    "chemsys",
    "symmetry",
    "property_name",
    "deprecated",
    "deprecation_reasons",
    "last_updated",
    "origins",
    "warnings",
    "task_ids",
    "uncorrected_energy_per_atom",
    "equilibrium_reaction_energy_per_atom",
    "decomposes_to",
    "xas",
    "grain_boundaries",
    "cbm",
    "vbm",
    "is_gap_direct",
    "is_metal",
    "es_source_calc_id",
    "bandstructure",
    "dos",
    "dos_energy_up",
    "dos_energy_down",
    "is_magnetic",
    "ordering",
    "total_magnetization_normalized_vol",
    "total_magnetization_normalized_formula_units",
    "num_magnetic_sites",
    "num_unique_magnetic_sites",
    "types_of_magnetic_species",
    "bulk_modulus",
    "shear_modulus",
    "universal_anisotropy",
    "homogeneous_poisson",
    "e_total",
    "e_ionic",
    "e_electronic",
    "n",
    "e_ij_max",
    "weighted_surface_energy_EV_PER_ANG2",
    "weighted_surface_energy",
    "weighted_work_function",
    "surface_anisotropy",
    "shape_factor",
    "has_reconstructed",
    "possible_species",
    "has_props",
    "theoretical",
    "database_IDs"
  ]
}
