{"builder_meta": null, "nsites": null, "elements": null, "nelements": null, "composition": null, "composition_reduced": null, "formula_pretty": "SmGe5", "formula_anonymous": "AB5", "chemsys": null, "volume": 123.87670397579446, "density": 6.884155096746283, "density_atomic": 20.646117329299077, "symmetry": null, "property_name": null, "material_id": "mp-1072419", "deprecated": null, "deprecation_reasons": null, "last_updated": null, "origins": null, "warnings": null, "structure": {"@module": "pymatgen.core.structure", "@class": "Structure", "charge": 0, "lattice": {"matrix": [[4.021642, 0.0, 0.0], [2.010821, 3.098628, 4.9703479999999995], [2.010821, -3.098628, 4.9703479999999995]], "pbc": [true, true, true], "a": 4.021642, "b": 6.192677596769349, "c": 6.192677596769349, "alpha": 60.04891939833325, "beta": 71.05202633914848, "gamma": 71.05202633914848, "volume": 123.87670397579443}, "properties": {}, "sites": [{"species": [{"element": "Sm", "occu": 1}], "abc": [0.0, 0.0, 0.0], "properties": {"magmom": 0.0}, "label": "Sm", "xyz": [0.0, 0.0, 0.0]}, {"species": [{"element": "Ge", "occu": 1}], "abc": [0.669906, 0.538088, 0.122099], "properties": {"magmom": -0.0}, "label": "Ge", "xyz": [4.0216399891790005, 1.288995163092, 3.281359135076]}, {"species": [{"element": "Ge", "occu": 1}], "abc": [0.330094, 0.461912, 0.877900999999999], "properties": {"magmom": -0.0}, "label": "Ge", "xyz": [4.021644010820998, -1.288995163091997, 6.659336864923995]}, {"species": [{"element": "Ge", "occu": 1}], "abc": [0.330092999999999, 0.877900999999999, 0.461912999999999], "properties": {"magmom": 0.0}, "label": "Ge", "xyz": [4.021641999999992, 1.2889920644639998, 6.65934183527199]}, {"species": [{"element": "Ge", "occu": 1}], "abc": [0.669906999999999, 0.122099, 0.538087], "properties": {"magmom": 0.0}, "label": "Ge", "xyz": [4.021641999999996, -1.288992064464, 3.2813541647279996]}, {"species": [{"element": "Ge", "occu": 1}], "abc": [0.0, 0.5, 0.5], "properties": {"magmom": -0.0}, "label": "Ge", "xyz": [2.010821, 0.0, 4.9703479999999995]}]}, "task_ids": null, "uncorrected_energy_per_atom": null, "energy_per_atom": -4.883884936666667, "formation_energy_per_atom": -0.24493070166666603, "energy_above_hull": 0.08561597361110901, "is_stable": false, "equilibrium_reaction_energy_per_atom": null, "decomposes_to": null, "xas": null, "grain_boundaries": null, "band_gap": 0.0, "cbm": null, "vbm": null, "efermi": 5.81170282, "is_gap_direct": null, "is_metal": null, "es_source_calc_id": null, "bandstructure": null, "dos": null, "dos_energy_up": null, "dos_energy_down": null, "is_magnetic": null, "ordering": null, "total_magnetization": 6.5e-06, "total_magnetization_normalized_vol": null, "total_magnetization_normalized_formula_units": null, "num_magnetic_sites": null, "num_unique_magnetic_sites": null, "types_of_magnetic_species": null, "bulk_modulus": null, "shear_modulus": null, "universal_anisotropy": null, "homogeneous_poisson": null, "e_total": null, "e_ionic": null, "e_electronic": null, "n": null, "e_ij_max": null, "weighted_surface_energy_EV_PER_ANG2": null, "weighted_surface_energy": null, "weighted_work_function": null, "surface_anisotropy": null, "shape_factor": null, "has_reconstructed": null, "possible_species": null, "has_props": null, "theoretical": null, "database_IDs": null, "fields_not_requested": ["builder_meta", "nsites", "elements", "nelements", "composition", "composition_reduced", "chemsys", "symmetry", "property_name", "deprecated", "deprecation_reasons", "last_updated", "origins", "warnings", "task_ids", "uncorrected_energy_per_atom", "equilibrium_reaction_energy_per_atom", "decomposes_to", "xas", "grain_boundaries", "cbm", "vbm", "is_gap_direct", "is_metal", "es_source_calc_id", "bandstructure", "dos", "dos_energy_up", "dos_energy_down", "is_magnetic", "ordering", "total_magnetization_normalized_vol", "total_magnetization_normalized_formula_units", "num_magnetic_sites", "num_unique_magnetic_sites", "types_of_magnetic_species", "bulk_modulus", "shear_modulus", "universal_anisotropy", "homogeneous_poisson", "e_total", "e_ionic", "e_electronic", "n", "e_ij_max", "weighted_surface_energy_EV_PER_ANG2", "weighted_surface_energy", "weighted_work_function", "surface_anisotropy", "shape_factor", "has_reconstructed", "possible_species", "has_props", "theoretical", "database_IDs"]}