{
  "builder_meta": null,
  "nsites": null,
  "elements": null,
  "nelements": null,
  "composition": null,
  "composition_reduced": null,
  "formula_pretty": "SmGe3",
  "formula_anonymous": "AB3",
  "chemsys": null,
  "volume": 169.38801472160566,
  "density": 7.220620992016914,
  "density_atomic": 21.173501840200707,
  "symmetry": null,
  "property_name": null,
  "material_id": "mp-979013",
  "deprecated": null,
  "deprecation_reasons": null,
  "last_updated": null,
  "origins": null,
  "warnings": null,
  "structure": {
    "@module": "pymatgen.core.structure",
    "@class": "Structure",
    "charge": 0,
    "lattice": {
      "matrix": [
        [3.061784, -5.303166, 0.0],
        [3.061784, 5.303166, 0.0],
        [0.0, 0.0, 5.216064]
      ],
      "pbc": [true, true, true],
      "a": 6.123568476485913,
      "b": 6.123568476485913,
      "c": 5.216064,
      "alpha": 90.0,
      "beta": 90.0,
      "gamma": 120.00000514798748,
      "volume": 169.38801472160566
    },
    "properties": {},
    "sites": [
      {
        "species": [{ "element": "Sm", "occu": 1 }],
        "abc": [0.333333, 0.666667, 0.75],
        "properties": { "magmom": 0.0 },
        "label": "Sm",
        "xyz": [3.0617840000000003, 1.767725535444, 3.9120480000000004]
      },
      {
        "species": [{ "element": "Sm", "occu": 1 }],
        "abc": [0.666667, 0.333333, 0.25],
        "properties": { "magmom": 0.0 },
        "label": "Sm",
        "xyz": [3.0617840000000003, -1.767725535444, 1.304016]
      },
      {
        "species": [{ "element": "Ge", "occu": 1 }],
        "abc": [0.148289, 0.296577, 0.25],
        "properties": { "magmom": -0.0 },
        "label": "Ge",
        "xyz": [1.3620836009439998, 0.7863958798079997, 1.304016]
      },
      {
        "species": [{ "element": "Ge", "occu": 1 }],
        "abc": [0.703423, 0.851711, 0.25],
        "properties": { "magmom": 0.0 },
        "label": "Ge",
        "xyz": [4.761484399056, 0.786395879808, 1.304016]
      },
      {
        "species": [{ "element": "Ge", "occu": 1 }],
        "abc": [0.148289, 0.851711, 0.25],
        "properties": { "magmom": 0.0 },
        "label": "Ge",
        "xyz": [3.061784, 3.730363634052, 1.304016]
      },
      {
        "species": [{ "element": "Ge", "occu": 1 }],
        "abc": [0.851711, 0.703423, 0.75],
        "properties": { "magmom": -0.0 },
        "label": "Ge",
        "xyz": [4.761484399056, -0.786395879808, 3.9120480000000004]
      },
      {
        "species": [{ "element": "Ge", "occu": 1 }],
        "abc": [0.296577, 0.148289, 0.75],
        "properties": { "magmom": 0.0 },
        "label": "Ge",
        "xyz": [1.3620836009439998, -0.7863958798079997, 3.9120480000000004]
      },
      {
        "species": [{ "element": "Ge", "occu": 1 }],
        "abc": [0.851711, 0.148289, 0.75],
        "properties": { "magmom": 0.0 },
        "label": "Ge",
        "xyz": [3.061784, -3.730363634052, 3.9120480000000004]
      }
    ]
  },
  "task_ids": null,
  "uncorrected_energy_per_atom": null,
  "energy_per_atom": -5.04207154375,
  "formation_energy_per_atom": -0.395154118749999,
  "energy_above_hull": 0.100665894166667,
  "is_stable": false,
  "equilibrium_reaction_energy_per_atom": null,
  "decomposes_to": null,
  "xas": null,
  "grain_boundaries": null,
  "band_gap": 0.0,
  "cbm": null,
  "vbm": null,
  "efermi": 5.89294707,
  "is_gap_direct": null,
  "is_metal": null,
  "es_source_calc_id": null,
  "bandstructure": null,
  "dos": null,
  "dos_energy_up": null,
  "dos_energy_down": null,
  "is_magnetic": null,
  "ordering": null,
  "total_magnetization": 0.0060963,
  "total_magnetization_normalized_vol": null,
  "total_magnetization_normalized_formula_units": null,
  "num_magnetic_sites": null,
  "num_unique_magnetic_sites": null,
  "types_of_magnetic_species": null,
  "bulk_modulus": null,
  "shear_modulus": null,
  "universal_anisotropy": null,
  "homogeneous_poisson": null,
  "e_total": null,
  "e_ionic": null,
  "e_electronic": null,
  "n": null,
  "e_ij_max": null,
  "weighted_surface_energy_EV_PER_ANG2": null,
  "weighted_surface_energy": null,
  "weighted_work_function": null,
  "surface_anisotropy": null,
  "shape_factor": null,
  "has_reconstructed": null,
  "possible_species": null,
  "has_props": null,
  "theoretical": null,
  "database_IDs": null,
  "fields_not_requested": [
    "builder_meta",
    "nsites",
    "elements",
    "nelements",
    "composition",
    "composition_reduced",
    "chemsys",
    "symmetry",
    "property_name",
    "deprecated",
    "deprecation_reasons",
    "last_updated",
    "origins",
    "warnings",
    "task_ids",
    "uncorrected_energy_per_atom",
    "equilibrium_reaction_energy_per_atom",
    "decomposes_to",
    "xas",
    "grain_boundaries",
    "cbm",
    "vbm",
    "is_gap_direct",
    "is_metal",
    "es_source_calc_id",
    "bandstructure",
    "dos",
    "dos_energy_up",
    "dos_energy_down",
    "is_magnetic",
    "ordering",
    "total_magnetization_normalized_vol",
    "total_magnetization_normalized_formula_units",
    "num_magnetic_sites",
    "num_unique_magnetic_sites",
    "types_of_magnetic_species",
    "bulk_modulus",
    "shear_modulus",
    "universal_anisotropy",
    "homogeneous_poisson",
    "e_total",
    "e_ionic",
    "e_electronic",
    "n",
    "e_ij_max",
    "weighted_surface_energy_EV_PER_ANG2",
    "weighted_surface_energy",
    "weighted_work_function",
    "surface_anisotropy",
    "shape_factor",
    "has_reconstructed",
    "possible_species",
    "has_props",
    "theoretical",
    "database_IDs"
  ]
}
