{"builder_meta": null, "nsites": null, "elements": null, "nelements": null, "composition": null, "composition_reduced": null, "formula_pretty": "SmH3", "formula_anonymous": "AB3", "chemsys": null, "volume": 252.04734573399784, "density": 6.063142412056437, "density_atomic": 10.501972738916576, "symmetry": null, "property_name": null, "material_id": "mp-1192065", "deprecated": null, "deprecation_reasons": null, "last_updated": null, "origins": null, "warnings": null, "structure": {"@module": "pymatgen.core.structure", "@class": "Structure", "charge": 0, "lattice": {"matrix": [[-3.26969244, -5.66327141, -6.66e-06], [-3.26968904, 5.66326923, 1.42e-06], [-3.29e-06, -5.379999999999998e-06, -6.80578403]], "pbc": [true, true, true], "a": 6.539383129589586, "b": 6.539379541650946, "c": 6.805784030002922, "alpha": 90.0000378173073, "beta": 89.99988857417772, "gamma": 119.99999853928074, "volume": 252.04734573399784}, "properties": {}, "sites": [{"species": [{"element": "Sm", "occu": 1}], "abc": [0.33692622, 0.33692622, 0.7500002], "properties": {"magmom": 0.0}, "label": "Sm", "xyz": [-2.2032915506950634, -4.769500235715794e-06, -5.104341149150199]}, {"species": [{"element": "Sm", "occu": 1}], "abc": [0.66307426, -0.0, 0.74999986], "properties": {"magmom": -0.0}, "label": "Sm", "xyz": [-2.168051362580134, -3.7551735343641535, -5.104341485764807]}, {"species": [{"element": "Sm", "occu": 1}], "abc": [1.8e-07, 0.66307434, 0.75000003], "properties": {"magmom": 0.0}, "label": "Sm", "xyz": [-2.1680499582479715, 3.755163452535543, -5.104337285109157]}, {"species": [{"element": "Sm", "occu": 1}], "abc": [0.33692575, 1e-08, 0.25000022], "properties": {"magmom": 0.0}, "label": "Sm", "xyz": [-1.101644432813944, -1.908103255636299, -1.7014497486979674]}, {"species": [{"element": "Sm", "occu": 1}], "abc": [0.99999984, 0.33692565, 0.25000008], "properties": {"magmom": 0.0}, "label": "Sm", "xyz": [-4.371334844449349, -3.755171182434255, -1.7014527335272338]}, {"species": [{"element": "Sm", "occu": 1}], "abc": [0.663073799999999, 0.6630737800000001, 0.2499999], "properties": {"magmom": 0.0}, "label": "Sm", "xyz": [-4.336093284699111, -2.9037657247325465e-06, -1.7014488014283373]}, {"species": [{"element": "H", "occu": 1}], "abc": [0.67917388, 0.64956937, 0.59162897], "properties": {"magmom": -0.0}, "label": "H", "xyz": [-4.344581497149483, -0.16766297411514397, -4.026502596620884]}, {"species": [{"element": "H", "occu": 1}], "abc": [0.35043028, 0.029604250000000002, 0.59162957], "properties": {"magmom": -0.0}, "label": "H", "xyz": [-1.2425978754867886, -1.8169281307871539, -4.026505371009398]}, {"species": [{"element": "H", "occu": 1}], "abc": [0.97039504, 0.32082616, 0.59162886], "properties": {"magmom": 0.0}, "label": "H", "xyz": [-4.221897051657733, -3.6786887492940163, -4.0265042543329255]}, {"species": [{"element": "H", "occu": 1}], "abc": [0.67917329, 0.02960522, 0.09162884], "properties": {"magmom": 0.0}, "label": "H", "xyz": [-2.3174879365826, -3.6786808371824176, -0.6236105772141242]}, {"species": [{"element": "H", "occu": 1}], "abc": [0.97039456, 0.64956846, 0.09162906], "properties": {"magmom": -0.0}, "label": "H", "xyz": [-5.296778932500413, -1.8169271887353873, -0.6236131336724682]}, {"species": [{"element": "H", "occu": 1}], "abc": [0.35043047, 0.3208262, 0.09162927], "properties": {"magmom": -0.0}, "label": "H", "xyz": [-2.194802069849793, -0.1676582082715094, -0.6236109007402842]}, {"species": [{"element": "H", "occu": 1}], "abc": [0.32082611, 0.35043064, 0.40837122000000003], "properties": {"magmom": 0.0}, "label": "H", "xyz": [-2.1948032728511078, 0.16765552737952877, -2.779287966478001]}, {"species": [{"element": "H", "occu": 1}], "abc": [0.6495697300000001, 0.97039575, 0.40837054], "properties": {"magmom": -0.0}, "label": "H", "xyz": [-5.296786927210498, 1.8169205141538474, -2.779284647626913]}, {"species": [{"element": "H", "occu": 1}], "abc": [0.02960492, 0.67917383, 0.40837123000000003], "properties": {"magmom": -0.0}, "label": "H", "xyz": [-2.3174875548579745, 3.678681359191696, -2.779285628187386]}, {"species": [{"element": "H", "occu": 1}], "abc": [0.32082672, 0.97039484, 0.90837126], "properties": {"magmom": -0.0}, "label": "H", "xyz": [-4.221897062295995, 3.678673560345319, -6.18217937336426]}, {"species": [{"element": "H", "occu": 1}], "abc": [0.029605430000000002, 0.35043152, 0.90837103], "properties": {"magmom": -0.0}, "label": "H", "xyz": [-1.2426057394091785, 1.816919572102232, -6.182176748848057]}, {"species": [{"element": "H", "occu": 1}], "abc": [0.64956948, 0.679173799999999, 0.90837077], "properties": {"magmom": 0.0}, "label": "H", "xyz": [-4.344582536665714, 0.1676509314348587, -6.1821786414907445]}, {"species": [{"element": "H", "occu": 1}], "abc": [4.2e-07, 6.699999999999999e-07, 0.75000081], "properties": {"magmom": -0.0}, "label": "H", "xyz": [-6.0314651464999995e-06, -2.6191879658999985e-06, -5.10434353518691]}, {"species": [{"element": "H", "occu": 1}], "abc": [0.99999958, 0.99999931, 0.249999199999999], "properties": {"magmom": -0.0}, "label": "H", "xyz": [-6.539378673141106, -5.054077472825934e-06, -1.7014458028709518]}, {"species": [{"element": "H", "occu": 1}], "abc": [0.33333379, 0.66666708, 0.6846449], "properties": {"magmom": -0.0}, "label": "H", "xyz": [-3.2696952704460713, 1.8877517545344422, -4.659546599976735]}, {"species": [{"element": "H", "occu": 1}], "abc": [0.33333332, 0.66666646, 0.18464551], "properties": {"magmom": -0.0}, "label": "H", "xyz": [-3.2696900614854267, 1.8877535950418007, -1.2566587365027433]}, {"species": [{"element": "H", "occu": 1}], "abc": [0.66666622, 0.3333329, 0.31535515000000003], "properties": {"magmom": -0.0}, "label": "H", "xyz": [-3.2696894668572365, -1.88775948443281, -2.146243010312562]}, {"species": [{"element": "H", "occu": 1}], "abc": [0.66666671, 0.33333355000000003, 0.81535453], "properties": {"magmom": 0.0}, "label": "H", "xyz": [-3.2696948393023684, -1.887761268307466, -5.549130805728804]}]}, "task_ids": null, "uncorrected_energy_per_atom": null, "energy_per_atom": -10.712435587500002, "formation_energy_per_atom": -0.6878702065625001, "energy_above_hull": 0.0, "is_stable": true, "equilibrium_reaction_energy_per_atom": null, "decomposes_to": null, "xas": null, "grain_boundaries": null, "band_gap": 0.0037, "cbm": null, "vbm": null, "efermi": 2.14868338, "is_gap_direct": null, "is_metal": null, "es_source_calc_id": null, "bandstructure": null, "dos": null, "dos_energy_up": null, "dos_energy_down": null, "is_magnetic": null, "ordering": null, "total_magnetization": 0.0, "total_magnetization_normalized_vol": null, "total_magnetization_normalized_formula_units": null, "num_magnetic_sites": null, "num_unique_magnetic_sites": null, "types_of_magnetic_species": null, "bulk_modulus": null, "shear_modulus": null, "universal_anisotropy": null, "homogeneous_poisson": null, "e_total": null, "e_ionic": null, "e_electronic": null, "n": null, "e_ij_max": null, "weighted_surface_energy_EV_PER_ANG2": null, "weighted_surface_energy": null, "weighted_work_function": null, "surface_anisotropy": null, "shape_factor": null, "has_reconstructed": null, "possible_species": null, "has_props": null, "theoretical": null, "database_IDs": null, "fields_not_requested": ["builder_meta", "nsites", "elements", "nelements", "composition", "composition_reduced", "chemsys", "symmetry", "property_name", "deprecated", "deprecation_reasons", "last_updated", "origins", "warnings", "task_ids", "uncorrected_energy_per_atom", "equilibrium_reaction_energy_per_atom", "decomposes_to", "xas", "grain_boundaries", "cbm", "vbm", "is_gap_direct", "is_metal", "es_source_calc_id", "bandstructure", "dos", "dos_energy_up", "dos_energy_down", "is_magnetic", "ordering", "total_magnetization_normalized_vol", "total_magnetization_normalized_formula_units", "num_magnetic_sites", "num_unique_magnetic_sites", "types_of_magnetic_species", "bulk_modulus", "shear_modulus", "universal_anisotropy", "homogeneous_poisson", "e_total", "e_ionic", "e_electronic", "n", "e_ij_max", "weighted_surface_energy_EV_PER_ANG2", "weighted_surface_energy", "weighted_work_function", "surface_anisotropy", "shape_factor", "has_reconstructed", "possible_species", "has_props", "theoretical", "database_IDs"]}