{"builder_meta": null, "nsites": null, "elements": null, "nelements": null, "composition": null, "composition_reduced": null, "formula_pretty": "SmHg3", "formula_anonymous": "AB3", "chemsys": null, "volume": 194.11223946849276, "density": 12.868238000670527, "density_atomic": 24.264029933561595, "symmetry": null, "property_name": null, "material_id": "mp-867879", "deprecated": null, "deprecation_reasons": null, "last_updated": null, "origins": null, "warnings": null, "structure": {"@module": "pymatgen.core.structure", "@class": "Structure", "charge": 0, "lattice": {"matrix": [[6.69798405, -1.029999999999998e-06, 0.0], [-3.34899255, 5.80062299, -0.0], [0.0, 0.0, 4.99613552]], "pbc": [true, true, true], "a": 6.697984050000079, "b": 6.697983142116143, "c": 4.99613552, "alpha": 90.0, "beta": 90.0, "gamma": 120.00001848032791, "volume": 194.11223946849276}, "properties": {}, "sites": [{"species": [{"element": "Sm", "occu": 1}], "abc": [0.333333999999999, 0.666667, 0.75], "properties": {"magmom": 0.0}, "label": "Sm", "xyz": [2.998991843305987e-06, 3.8670835835403103, 3.7471016400000003]}, {"species": [{"element": "Sm", "occu": 1}], "abc": [0.666667, 0.333333999999999, 0.249999], "properties": {"magmom": 0.0}, "label": "Sm", "xyz": [3.3489918499996527, 1.9335441770816444, 1.24902888386448]}, {"species": [{"element": "Hg", "occu": 1}], "abc": [0.16363911, 0.32727821, 0.249999], "properties": {"magmom": 0.0}, "label": "Hg", "xyz": [-1.3833114032024696e-07, 1.8984173405037645, 1.24902888386448]}, {"species": [{"element": "Hg", "occu": 1}], "abc": [0.6727207900000001, 0.83635989, 0.249999], "properties": {"magmom": 0.0}, "label": "Hg", "xyz": [1.7049100807945798, 4.851407712945457, 1.24902888386448]}, {"species": [{"element": "Hg", "occu": 1}], "abc": [0.16364011, 0.83635989, 0.249999], "properties": {"magmom": 0.0}, "label": "Hg", "xyz": [-1.7049041940085743, 4.851408237298558, 1.24902888386448]}, {"species": [{"element": "Hg", "occu": 1}], "abc": [0.83635989, 0.67272279, 0.75], "properties": {"magmom": 0.0}, "label": "Hg", "xyz": [3.3489815913545398, 3.902210420120255, 3.7471016400000003]}, {"species": [{"element": "Hg", "occu": 1}], "abc": [0.32727921, 0.16364111, 0.75], "properties": {"magmom": 0.0}, "label": "Hg", "xyz": [1.64407807021287, 0.9492200476775327, 3.7471016400000003]}, {"species": [{"element": "Hg", "occu": 1}], "abc": [0.83635989, 0.16364111, 0.75], "properties": {"magmom": 0.0}, "label": "Hg", "xyz": [5.053892345016024, 0.9492195233244323, 3.7471016400000003]}]}, "task_ids": null, "uncorrected_energy_per_atom": null, "energy_per_atom": -44.9059608, "formation_energy_per_atom": -0.446874828125004, "energy_above_hull": 0.0, "is_stable": true, "equilibrium_reaction_energy_per_atom": null, "decomposes_to": null, "xas": null, "grain_boundaries": null, "band_gap": 0.0, "cbm": null, "vbm": null, "efermi": 3.3624005, "is_gap_direct": null, "is_metal": null, "es_source_calc_id": null, "bandstructure": null, "dos": null, "dos_energy_up": null, "dos_energy_down": null, "is_magnetic": null, "ordering": null, "total_magnetization": 5.4900000000000006e-05, "total_magnetization_normalized_vol": null, "total_magnetization_normalized_formula_units": null, "num_magnetic_sites": null, "num_unique_magnetic_sites": null, "types_of_magnetic_species": null, "bulk_modulus": null, "shear_modulus": null, "universal_anisotropy": null, "homogeneous_poisson": null, "e_total": null, "e_ionic": null, "e_electronic": null, "n": null, "e_ij_max": null, "weighted_surface_energy_EV_PER_ANG2": null, "weighted_surface_energy": null, "weighted_work_function": null, "surface_anisotropy": null, "shape_factor": null, "has_reconstructed": null, "possible_species": null, "has_props": null, "theoretical": null, "database_IDs": null, "fields_not_requested": ["builder_meta", "nsites", "elements", "nelements", "composition", "composition_reduced", "chemsys", "symmetry", "property_name", "deprecated", "deprecation_reasons", "last_updated", "origins", "warnings", "task_ids", "uncorrected_energy_per_atom", "equilibrium_reaction_energy_per_atom", "decomposes_to", "xas", "grain_boundaries", "cbm", "vbm", "is_gap_direct", "is_metal", "es_source_calc_id", "bandstructure", "dos", "dos_energy_up", "dos_energy_down", "is_magnetic", "ordering", "total_magnetization_normalized_vol", "total_magnetization_normalized_formula_units", "num_magnetic_sites", "num_unique_magnetic_sites", "types_of_magnetic_species", "bulk_modulus", "shear_modulus", "universal_anisotropy", "homogeneous_poisson", "e_total", "e_ionic", "e_electronic", "n", "e_ij_max", "weighted_surface_energy_EV_PER_ANG2", "weighted_surface_energy", "weighted_work_function", "surface_anisotropy", "shape_factor", "has_reconstructed", "possible_species", "has_props", "theoretical", "database_IDs"]}