{"builder_meta": null, "nsites": null, "elements": null, "nelements": null, "composition": null, "composition_reduced": null, "formula_pretty": "SmHg2", "formula_anonymous": "AB2", "chemsys": null, "volume": 73.98611175737126, "density": 12.378724804406513, "density_atomic": 24.662037252457086, "symmetry": null, "property_name": null, "material_id": "mp-1207109", "deprecated": null, "deprecation_reasons": null, "last_updated": null, "origins": null, "warnings": null, "structure": {"@module": "pymatgen.core.structure", "@class": "Structure", "charge": 0, "lattice": {"matrix": [[0.0, -0.0, -3.47381663], [-2.47957017, -4.29474038, 0.0], [-2.47957017, 4.29474038, 0.0]], "pbc": [true, true, true], "a": 3.47381663, "b": 4.959139356738866, "c": 4.959139356738866, "alpha": 119.99998688239423, "beta": 90.0, "gamma": 90.0, "volume": 73.98611175737125}, "properties": {}, "sites": [{"species": [{"element": "Sm", "occu": 1}], "abc": [0.0, -0.0, -0.0], "properties": {"magmom": 0.091}, "label": "Sm", "xyz": [0.0, 0.0, 0.0]}, {"species": [{"element": "Hg", "occu": 1}], "abc": [0.50060784, 0.666667, 0.333333], "properties": {"magmom": 0.003}, "label": "Hg", "xyz": [-2.47957017, -1.4315829898269203, -1.7390198397003793]}, {"species": [{"element": "Hg", "occu": 1}], "abc": [0.49939216000000003, 0.333333, 0.666667], "properties": {"magmom": 0.003}, "label": "Hg", "xyz": [-2.47957017, 1.4315829898269203, -1.7347967902996209]}]}, "task_ids": null, "uncorrected_energy_per_atom": null, "energy_per_atom": -43.330736513333335, "formation_energy_per_atom": -0.507890725, "energy_above_hull": 0.0, "is_stable": true, "equilibrium_reaction_energy_per_atom": null, "decomposes_to": null, "xas": null, "grain_boundaries": null, "band_gap": 0.0, "cbm": null, "vbm": null, "efermi": 3.48384626, "is_gap_direct": null, "is_metal": null, "es_source_calc_id": null, "bandstructure": null, "dos": null, "dos_energy_up": null, "dos_energy_down": null, "is_magnetic": null, "ordering": null, "total_magnetization": 0.1634241, "total_magnetization_normalized_vol": null, "total_magnetization_normalized_formula_units": null, "num_magnetic_sites": null, "num_unique_magnetic_sites": null, "types_of_magnetic_species": null, "bulk_modulus": null, "shear_modulus": null, "universal_anisotropy": null, "homogeneous_poisson": null, "e_total": null, "e_ionic": null, "e_electronic": null, "n": null, "e_ij_max": null, "weighted_surface_energy_EV_PER_ANG2": null, "weighted_surface_energy": null, "weighted_work_function": null, "surface_anisotropy": null, "shape_factor": null, "has_reconstructed": null, "possible_species": null, "has_props": null, "theoretical": null, "database_IDs": null, "fields_not_requested": ["builder_meta", "nsites", "elements", "nelements", "composition", "composition_reduced", "chemsys", "symmetry", "property_name", "deprecated", "deprecation_reasons", "last_updated", "origins", "warnings", "task_ids", "uncorrected_energy_per_atom", "equilibrium_reaction_energy_per_atom", "decomposes_to", "xas", "grain_boundaries", "cbm", "vbm", "is_gap_direct", "is_metal", "es_source_calc_id", "bandstructure", "dos", "dos_energy_up", "dos_energy_down", "is_magnetic", "ordering", "total_magnetization_normalized_vol", "total_magnetization_normalized_formula_units", "num_magnetic_sites", "num_unique_magnetic_sites", "types_of_magnetic_species", "bulk_modulus", "shear_modulus", "universal_anisotropy", "homogeneous_poisson", "e_total", "e_ionic", "e_electronic", "n", "e_ij_max", "weighted_surface_energy_EV_PER_ANG2", "weighted_surface_energy", "weighted_work_function", "surface_anisotropy", "shape_factor", "has_reconstructed", "possible_species", "has_props", "theoretical", "database_IDs"]}