{
  "builder_meta": null,
  "nsites": null,
  "elements": null,
  "nelements": null,
  "composition": null,
  "composition_reduced": null,
  "formula_pretty": "SmHo3",
  "formula_anonymous": "AB3",
  "chemsys": null,
  "volume": 260.99273425575603,
  "density": 8.209411468785873,
  "density_atomic": 32.624091781969504,
  "symmetry": null,
  "property_name": null,
  "material_id": "mp-1187022",
  "deprecated": null,
  "deprecation_reasons": null,
  "last_updated": null,
  "origins": null,
  "warnings": null,
  "structure": {
    "@module": "pymatgen.core.structure",
    "@class": "Structure",
    "charge": 0,
    "lattice": {
      "matrix": [
        [3.6117144, -6.25567179, -0.0],
        [3.6117144, 6.25567179, 0.0],
        [-0.0, 0.0, 5.77578563]
      ],
      "pbc": [true, true, true],
      "a": 7.223427887877691,
      "b": 7.223427887877691,
      "c": 5.77578563,
      "alpha": 90.0,
      "beta": 90.0,
      "gamma": 119.99999164586006,
      "volume": 260.99273425575603
    },
    "properties": {},
    "sites": [
      {
        "species": [{ "element": "Sm", "occu": 1 }],
        "abc": [0.333333, 0.666667, 0.75],
        "properties": { "magmom": 0.297 },
        "label": "Sm",
        "xyz": [3.6117144000000003, 2.08522810044786, 4.331839222499999]
      },
      {
        "species": [{ "element": "Sm", "occu": 1 }],
        "abc": [0.666667, 0.333333, 0.25],
        "properties": { "magmom": 0.297 },
        "label": "Sm",
        "xyz": [3.6117144000000003, -2.08522810044786, 1.4439464075]
      },
      {
        "species": [{ "element": "Ho", "occu": 1 }],
        "abc": [0.16520349, 0.33040698, 0.25],
        "properties": { "magmom": 0.44 },
        "label": "Ho",
        "xyz": [1.7900034712897681, 1.0334588120025472, 1.4439464075]
      },
      {
        "species": [{ "element": "Ho", "occu": 1 }],
        "abc": [0.66959302, 0.83479651, 0.25],
        "properties": { "magmom": 0.44 },
        "label": "Ho",
        "xyz": [5.433425328710232, 1.0334588120025465, 1.4439464075]
      },
      {
        "species": [{ "element": "Ho", "occu": 1 }],
        "abc": [0.16520349, 0.83479651, 0.25],
        "properties": { "magmom": 0.44 },
        "label": "Ho",
        "xyz": [3.6117144, 4.188754165994905, 1.4439464075]
      },
      {
        "species": [{ "element": "Ho", "occu": 1 }],
        "abc": [0.83479651, 0.66959302, 0.75],
        "properties": { "magmom": 0.44 },
        "label": "Ho",
        "xyz": [5.433425328710232, -1.0334588120025465, 4.331839222499999]
      },
      {
        "species": [{ "element": "Ho", "occu": 1 }],
        "abc": [0.33040698, 0.16520349, 0.75],
        "properties": { "magmom": 0.44 },
        "label": "Ho",
        "xyz": [1.7900034712897681, -1.0334588120025472, 4.331839222499999]
      },
      {
        "species": [{ "element": "Ho", "occu": 1 }],
        "abc": [0.83479651, 0.16520349, 0.75],
        "properties": { "magmom": 0.44 },
        "label": "Ho",
        "xyz": [3.6117144, -4.188754165994905, 4.331839222499999]
      }
    ]
  },
  "task_ids": null,
  "uncorrected_energy_per_atom": null,
  "energy_per_atom": -32.09858346625,
  "formation_energy_per_atom": -0.004344449999997,
  "energy_above_hull": 0.0,
  "is_stable": true,
  "equilibrium_reaction_energy_per_atom": null,
  "decomposes_to": null,
  "xas": null,
  "grain_boundaries": null,
  "band_gap": 0.0,
  "cbm": null,
  "vbm": null,
  "efermi": 2.95520186,
  "is_gap_direct": null,
  "is_metal": null,
  "es_source_calc_id": null,
  "bandstructure": null,
  "dos": null,
  "dos_energy_up": null,
  "dos_energy_down": null,
  "is_magnetic": null,
  "ordering": null,
  "total_magnetization": 4.7697174,
  "total_magnetization_normalized_vol": null,
  "total_magnetization_normalized_formula_units": null,
  "num_magnetic_sites": null,
  "num_unique_magnetic_sites": null,
  "types_of_magnetic_species": null,
  "bulk_modulus": null,
  "shear_modulus": null,
  "universal_anisotropy": null,
  "homogeneous_poisson": null,
  "e_total": null,
  "e_ionic": null,
  "e_electronic": null,
  "n": null,
  "e_ij_max": null,
  "weighted_surface_energy_EV_PER_ANG2": null,
  "weighted_surface_energy": null,
  "weighted_work_function": null,
  "surface_anisotropy": null,
  "shape_factor": null,
  "has_reconstructed": null,
  "possible_species": null,
  "has_props": null,
  "theoretical": null,
  "database_IDs": null,
  "fields_not_requested": [
    "builder_meta",
    "nsites",
    "elements",
    "nelements",
    "composition",
    "composition_reduced",
    "chemsys",
    "symmetry",
    "property_name",
    "deprecated",
    "deprecation_reasons",
    "last_updated",
    "origins",
    "warnings",
    "task_ids",
    "uncorrected_energy_per_atom",
    "equilibrium_reaction_energy_per_atom",
    "decomposes_to",
    "xas",
    "grain_boundaries",
    "cbm",
    "vbm",
    "is_gap_direct",
    "is_metal",
    "es_source_calc_id",
    "bandstructure",
    "dos",
    "dos_energy_up",
    "dos_energy_down",
    "is_magnetic",
    "ordering",
    "total_magnetization_normalized_vol",
    "total_magnetization_normalized_formula_units",
    "num_magnetic_sites",
    "num_unique_magnetic_sites",
    "types_of_magnetic_species",
    "bulk_modulus",
    "shear_modulus",
    "universal_anisotropy",
    "homogeneous_poisson",
    "e_total",
    "e_ionic",
    "e_electronic",
    "n",
    "e_ij_max",
    "weighted_surface_energy_EV_PER_ANG2",
    "weighted_surface_energy",
    "weighted_work_function",
    "surface_anisotropy",
    "shape_factor",
    "has_reconstructed",
    "possible_species",
    "has_props",
    "theoretical",
    "database_IDs"
  ]
}
