{"builder_meta": null, "nsites": null, "elements": null, "nelements": null, "composition": null, "composition_reduced": null, "formula_pretty": "SmI", "formula_anonymous": "AB", "chemsys": null, "volume": 61.811204248255045, "density": 7.448625048073565, "density_atomic": 30.905602124127523, "symmetry": null, "property_name": null, "material_id": "mp-978679", "deprecated": null, "deprecation_reasons": null, "last_updated": null, "origins": null, "warnings": null, "structure": {"@module": "pymatgen.core.structure", "@class": "Structure", "charge": 0, "lattice": {"matrix": [[3.94876433, 5.309999999999997e-06, 4.18e-06], [-1.97437996, 3.419735069999999, -3.15e-06], [4.26e-06, -3.14e-06, 4.57734019]], "pbc": [true, true, true], "a": 3.9487643300057824, "b": 3.948767424836188, "c": 4.57734019000306, "alpha": 90.00010640602406, "beta": 89.99988602554178, "gamma": 119.99986008328045, "volume": 61.81120424825502}, "properties": {}, "sites": [{"species": [{"element": "Sm", "occu": 1}], "abc": [0.333333, 0.666667999999999, 0.249999], "properties": {"magmom": -0.0}, "label": "Sm", "xyz": [-1.4137656483692217e-06, 2.2798289246481263, 1.14432976348755]}, {"species": [{"element": "I", "occu": 1}], "abc": [0.666669, 0.333333999999999, 0.749997999999999], "properties": {"magmom": -0.0}, "label": "I", "xyz": [1.9743939925216119, 1.139915154842046, 3.432997724493936]}]}, "task_ids": null, "uncorrected_energy_per_atom": null, "energy_per_atom": -4.198075415000002, "formation_energy_per_atom": -1.076776040000002, "energy_above_hull": 0.042959022499997, "is_stable": false, "equilibrium_reaction_energy_per_atom": null, "decomposes_to": null, "xas": null, "grain_boundaries": null, "band_gap": 0.0, "cbm": null, "vbm": null, "efermi": 6.49198766, "is_gap_direct": null, "is_metal": null, "es_source_calc_id": null, "bandstructure": null, "dos": null, "dos_energy_up": null, "dos_energy_down": null, "is_magnetic": null, "ordering": null, "total_magnetization": 0.0, "total_magnetization_normalized_vol": null, "total_magnetization_normalized_formula_units": null, "num_magnetic_sites": null, "num_unique_magnetic_sites": null, "types_of_magnetic_species": null, "bulk_modulus": null, "shear_modulus": null, "universal_anisotropy": null, "homogeneous_poisson": null, "e_total": null, "e_ionic": null, "e_electronic": null, "n": null, "e_ij_max": null, "weighted_surface_energy_EV_PER_ANG2": null, "weighted_surface_energy": null, "weighted_work_function": null, "surface_anisotropy": null, "shape_factor": null, "has_reconstructed": null, "possible_species": null, "has_props": null, "theoretical": null, "database_IDs": null, "fields_not_requested": ["builder_meta", "nsites", "elements", "nelements", "composition", "composition_reduced", "chemsys", "symmetry", "property_name", "deprecated", "deprecation_reasons", "last_updated", "origins", "warnings", "task_ids", "uncorrected_energy_per_atom", "equilibrium_reaction_energy_per_atom", "decomposes_to", "xas", "grain_boundaries", "cbm", "vbm", "is_gap_direct", "is_metal", "es_source_calc_id", "bandstructure", "dos", "dos_energy_up", "dos_energy_down", "is_magnetic", "ordering", "total_magnetization_normalized_vol", "total_magnetization_normalized_formula_units", "num_magnetic_sites", "num_unique_magnetic_sites", "types_of_magnetic_species", "bulk_modulus", "shear_modulus", "universal_anisotropy", "homogeneous_poisson", "e_total", "e_ionic", "e_electronic", "n", "e_ij_max", "weighted_surface_energy_EV_PER_ANG2", "weighted_surface_energy", "weighted_work_function", "surface_anisotropy", "shape_factor", "has_reconstructed", "possible_species", "has_props", "theoretical", "database_IDs"]}