{"builder_meta": null, "nsites": null, "elements": null, "nelements": null, "composition": null, "composition_reduced": null, "formula_pretty": "SmI2", "formula_anonymous": "AB2", "chemsys": null, "volume": 862.4588093146438, "density": 6.225348337826211, "density_atomic": 35.93578372144349, "symmetry": null, "property_name": null, "material_id": "mp-581941", "deprecated": null, "deprecation_reasons": null, "last_updated": null, "origins": null, "warnings": null, "structure": {"@module": "pymatgen.core.structure", "@class": "Structure", "charge": 0, "lattice": {"matrix": [[7.400346, 0.0, 0.0], [0.0, 8.247399, 0.0], [0.0, 0.0, 14.130884]], "pbc": [true, true, true], "a": 7.400346, "b": 8.247399, "c": 14.130884, "alpha": 90.0, "beta": 90.0, "gamma": 90.0, "volume": 862.4588093146438}, "properties": {}, "sites": [{"species": [{"element": "Sm", "occu": 1}], "abc": [0.674972, 0.549754, 0.094378999999999], "properties": {"magmom": 0.0}, "label": "Sm", "xyz": [4.995026340312, 4.534040589846, 1.333658701035986]}, {"species": [{"element": "Sm", "occu": 1}], "abc": [0.174972, 0.950245999999999, 0.094378999999999], "properties": {"magmom": 0.0}, "label": "Sm", "xyz": [1.294853340312, 7.837057910153992, 1.333658701035986]}, {"species": [{"element": "Sm", "occu": 1}], "abc": [0.674972, 0.049754, 0.405621], "properties": {"magmom": 0.0}, "label": "Sm", "xyz": [4.995026340312, 0.410341089846, 5.731783298964]}, {"species": [{"element": "Sm", "occu": 1}], "abc": [0.825028, 0.549754, 0.594379], "properties": {"magmom": 0.0}, "label": "Sm", "xyz": [6.105492659688, 4.534040589846, 8.399100701036]}, {"species": [{"element": "Sm", "occu": 1}], "abc": [0.825028, 0.049754, 0.905621], "properties": {"magmom": -0.0}, "label": "Sm", "xyz": [6.105492659688, 0.410341089846, 12.797225298964]}, {"species": [{"element": "Sm", "occu": 1}], "abc": [0.325028, 0.450246, 0.905621], "properties": {"magmom": -0.0}, "label": "Sm", "xyz": [2.4053196596879998, 3.7133584101539996, 12.797225298964]}, {"species": [{"element": "Sm", "occu": 1}], "abc": [0.325028, 0.950245999999999, 0.594379], "properties": {"magmom": 0.0}, "label": "Sm", "xyz": [2.4053196596879998, 7.837057910153992, 8.399100701036]}, {"species": [{"element": "Sm", "occu": 1}], "abc": [0.174972, 0.450246, 0.405621], "properties": {"magmom": 0.0}, "label": "Sm", "xyz": [1.294853340312, 3.7133584101539996, 5.731783298964]}, {"species": [{"element": "I", "occu": 1}], "abc": [0.195186, 0.6158600000000001, 0.704822], "properties": {"magmom": -0.0}, "label": "I", "xyz": [1.444443934356, 5.079243148140001, 9.959757922647999]}, {"species": [{"element": "I", "occu": 1}], "abc": [0.695186, 0.88414, 0.704822], "properties": {"magmom": -0.0}, "label": "I", "xyz": [5.144616934356, 7.29185535186, 9.959757922647999]}, {"species": [{"element": "I", "occu": 1}], "abc": [0.804813999999999, 0.38414000000000004, 0.295178], "properties": {"magmom": -0.0}, "label": "I", "xyz": [5.9559020656439925, 3.1681558518600004, 4.171126077352]}, {"species": [{"element": "I", "occu": 1}], "abc": [0.804813999999999, 0.88414, 0.204822], "properties": {"magmom": -0.0}, "label": "I", "xyz": [5.9559020656439925, 7.29185535186, 2.894315922648]}, {"species": [{"element": "I", "occu": 1}], "abc": [0.304814, 0.6158600000000001, 0.204822], "properties": {"magmom": -0.0}, "label": "I", "xyz": [2.2557290656439997, 5.079243148140001, 2.894315922648]}, {"species": [{"element": "I", "occu": 1}], "abc": [0.9822249999999991, 0.70672, 0.9538359999999991], "properties": {"magmom": -0.0}, "label": "I", "xyz": [7.268804849849993, 5.8286018212799995, 13.478545871023988]}, {"species": [{"element": "I", "occu": 1}], "abc": [0.9822249999999991, 0.20672000000000001, 0.546164], "properties": {"magmom": -0.0}, "label": "I", "xyz": [7.268804849849993, 1.70490232128, 7.717780128976]}, {"species": [{"element": "I", "occu": 1}], "abc": [0.017775, 0.7932800000000001, 0.453835999999999], "properties": {"magmom": -0.0}, "label": "I", "xyz": [0.13154115014999998, 6.542496678720001, 6.413103871023986]}, {"species": [{"element": "I", "occu": 1}], "abc": [0.195186, 0.11586, 0.795177999999999], "properties": {"magmom": -0.0}, "label": "I", "xyz": [1.444443934356, 0.95554364814, 11.236568077351986]}, {"species": [{"element": "I", "occu": 1}], "abc": [0.517775, 0.20672000000000001, 0.046164], "properties": {"magmom": -0.0}, "label": "I", "xyz": [3.83171415015, 1.70490232128, 0.652338128976]}, {"species": [{"element": "I", "occu": 1}], "abc": [0.695186, 0.38414000000000004, 0.795177999999999], "properties": {"magmom": -0.0}, "label": "I", "xyz": [5.144616934356, 3.1681558518600004, 11.236568077351986]}, {"species": [{"element": "I", "occu": 1}], "abc": [0.517775, 0.70672, 0.453835999999999], "properties": {"magmom": -0.0}, "label": "I", "xyz": [3.83171415015, 5.8286018212799995, 6.413103871023986]}, {"species": [{"element": "I", "occu": 1}], "abc": [0.304814, 0.11586, 0.295178], "properties": {"magmom": -0.0}, "label": "I", "xyz": [2.2557290656439997, 0.95554364814, 4.171126077352]}, {"species": [{"element": "I", "occu": 1}], "abc": [0.482224999999999, 0.7932800000000001, 0.9538359999999991], "properties": {"magmom": -0.0}, "label": "I", "xyz": [3.5686318498499925, 6.542496678720001, 13.478545871023988]}, {"species": [{"element": "I", "occu": 1}], "abc": [0.017775, 0.29328000000000004, 0.046164], "properties": {"magmom": -0.0}, "label": "I", "xyz": [0.13154115014999998, 2.41879717872, 0.652338128976]}, {"species": [{"element": "I", "occu": 1}], "abc": [0.482224999999999, 0.29328000000000004, 0.546164], "properties": {"magmom": -0.0}, "label": "I", "xyz": [3.5686318498499925, 2.41879717872, 7.717780128976]}]}, "task_ids": null, "uncorrected_energy_per_atom": null, "energy_per_atom": -3.969387107083333, "formation_energy_per_atom": -1.380516652083333, "energy_above_hull": 0.11246343124999901, "is_stable": false, "equilibrium_reaction_energy_per_atom": null, "decomposes_to": null, "xas": null, "grain_boundaries": null, "band_gap": 0.0, "cbm": null, "vbm": null, "efermi": 5.72669421, "is_gap_direct": null, "is_metal": null, "es_source_calc_id": null, "bandstructure": null, "dos": null, "dos_energy_up": null, "dos_energy_down": null, "is_magnetic": null, "ordering": null, "total_magnetization": 0.0062543, "total_magnetization_normalized_vol": null, "total_magnetization_normalized_formula_units": null, "num_magnetic_sites": null, "num_unique_magnetic_sites": null, "types_of_magnetic_species": null, "bulk_modulus": null, "shear_modulus": null, "universal_anisotropy": null, "homogeneous_poisson": null, "e_total": null, "e_ionic": null, "e_electronic": null, "n": null, "e_ij_max": null, "weighted_surface_energy_EV_PER_ANG2": null, "weighted_surface_energy": null, "weighted_work_function": null, "surface_anisotropy": null, "shape_factor": null, "has_reconstructed": null, "possible_species": null, "has_props": null, "theoretical": null, "database_IDs": null, "fields_not_requested": ["builder_meta", "nsites", "elements", "nelements", "composition", "composition_reduced", "chemsys", "symmetry", "property_name", "deprecated", "deprecation_reasons", "last_updated", "origins", "warnings", "task_ids", "uncorrected_energy_per_atom", "equilibrium_reaction_energy_per_atom", "decomposes_to", "xas", "grain_boundaries", "cbm", "vbm", "is_gap_direct", "is_metal", "es_source_calc_id", "bandstructure", "dos", "dos_energy_up", "dos_energy_down", "is_magnetic", "ordering", "total_magnetization_normalized_vol", "total_magnetization_normalized_formula_units", "num_magnetic_sites", "num_unique_magnetic_sites", "types_of_magnetic_species", "bulk_modulus", "shear_modulus", "universal_anisotropy", "homogeneous_poisson", "e_total", "e_ionic", "e_electronic", "n", "e_ij_max", "weighted_surface_energy_EV_PER_ANG2", "weighted_surface_energy", "weighted_work_function", "surface_anisotropy", "shape_factor", "has_reconstructed", "possible_species", "has_props", "theoretical", "database_IDs"]}