{
  "builder_meta": null,
  "nsites": null,
  "elements": null,
  "nelements": null,
  "composition": null,
  "composition_reduced": null,
  "formula_pretty": "SmI3",
  "formula_anonymous": "AB3",
  "chemsys": null,
  "volume": 440.02231600950785,
  "density": 4.00828827289943,
  "density_atomic": 55.00278950118848,
  "symmetry": null,
  "property_name": null,
  "material_id": "mp-863028",
  "deprecated": null,
  "deprecation_reasons": null,
  "last_updated": null,
  "origins": null,
  "warnings": null,
  "structure": {
    "@module": "pymatgen.core.structure",
    "@class": "Structure",
    "charge": 0,
    "lattice": {
      "matrix": [
        [11.16611543, 1e-8, -0.0],
        [-5.5830567, 9.67013865, -0.0],
        [0.0, 0.0, 4.07511518]
      ],
      "pbc": [true, true, true],
      "a": 11.16611543,
      "b": 11.166114079017763,
      "c": 4.07511518,
      "alpha": 90.0,
      "beta": 90.0,
      "gamma": 119.99999793709037,
      "volume": 440.02231600950785
    },
    "properties": {},
    "sites": [
      {
        "species": [{ "element": "Sm", "occu": 1 }],
        "abc": [0.333333999999999, 0.666667999999999, 0.75],
        "properties": { "magmom": -0.0 },
        "label": "Sm",
        "xyz": [6.7666801406574e-7, 6.44677199685153, 3.056336385]
      },
      {
        "species": [{ "element": "Sm", "occu": 1 }],
        "abc": [0.666667, 0.333333, 0.249999],
        "properties": { "magmom": -0.0 },
        "label": "Sm",
        "xyz": [5.58306363639071, 3.2233763332871197, 1.01877471988482]
      },
      {
        "species": [{ "element": "I", "occu": 1 }],
        "abc": [0.21201128, 0.42402356, 0.249999],
        "properties": { "magmom": 0.0 },
        "label": "I",
        "xyz": [-5.1526738018559115e-6, 4.100366618186707, 1.01877471988482]
      },
      {
        "species": [{ "element": "I", "occu": 1 }],
        "abc": [0.57597644, 0.78798872, 0.249999],
        "properties": { "magmom": 0.0 },
        "label": "I",
        "xyz": [2.0320337112800457, 7.619960182795792, 1.01877471988482]
      },
      {
        "species": [{ "element": "I", "occu": 1 }],
        "abc": [0.21201128, 0.78798872, 0.249999],
        "properties": { "magmom": 0.0 },
        "label": "I",
        "xyz": [-2.0320432777783735, 7.61996017915614, 1.01877471988482]
      },
      {
        "species": [{ "element": "I", "occu": 1 }],
        "abc": [0.78798872, 0.57597644, 0.75],
        "properties": { "magmom": 0.0 },
        "label": "I",
        "xyz": [5.583063882673801, 5.569772041813294, 3.056336385]
      },
      {
        "species": [{ "element": "I", "occu": 1 }],
        "abc": [0.42402456, 0.21201228, 0.75],
        "properties": { "magmom": 0.0 },
        "label": "I",
        "xyz": [3.5510306017786846, 2.0501881473428676, 3.056336385]
      },
      {
        "species": [{ "element": "I", "occu": 1 }],
        "abc": [0.7879877200000001, 0.21201228, 0.75],
        "properties": { "magmom": 0.0 },
        "label": "I",
        "xyz": [7.615085258606244, 2.0501881509824993, 3.056336385]
      }
    ]
  },
  "task_ids": null,
  "uncorrected_energy_per_atom": null,
  "energy_per_atom": -4.002258588749999,
  "formation_energy_per_atom": -1.679602593749999,
  "energy_above_hull": 0.0,
  "is_stable": true,
  "equilibrium_reaction_energy_per_atom": null,
  "decomposes_to": null,
  "xas": null,
  "grain_boundaries": null,
  "band_gap": 2.0143,
  "cbm": null,
  "vbm": null,
  "efermi": -0.17296681,
  "is_gap_direct": null,
  "is_metal": null,
  "es_source_calc_id": null,
  "bandstructure": null,
  "dos": null,
  "dos_energy_up": null,
  "dos_energy_down": null,
  "is_magnetic": null,
  "ordering": null,
  "total_magnetization": 0.0,
  "total_magnetization_normalized_vol": null,
  "total_magnetization_normalized_formula_units": null,
  "num_magnetic_sites": null,
  "num_unique_magnetic_sites": null,
  "types_of_magnetic_species": null,
  "bulk_modulus": null,
  "shear_modulus": null,
  "universal_anisotropy": null,
  "homogeneous_poisson": null,
  "e_total": null,
  "e_ionic": null,
  "e_electronic": null,
  "n": null,
  "e_ij_max": null,
  "weighted_surface_energy_EV_PER_ANG2": null,
  "weighted_surface_energy": null,
  "weighted_work_function": null,
  "surface_anisotropy": null,
  "shape_factor": null,
  "has_reconstructed": null,
  "possible_species": null,
  "has_props": null,
  "theoretical": null,
  "database_IDs": null,
  "fields_not_requested": [
    "builder_meta",
    "nsites",
    "elements",
    "nelements",
    "composition",
    "composition_reduced",
    "chemsys",
    "symmetry",
    "property_name",
    "deprecated",
    "deprecation_reasons",
    "last_updated",
    "origins",
    "warnings",
    "task_ids",
    "uncorrected_energy_per_atom",
    "equilibrium_reaction_energy_per_atom",
    "decomposes_to",
    "xas",
    "grain_boundaries",
    "cbm",
    "vbm",
    "is_gap_direct",
    "is_metal",
    "es_source_calc_id",
    "bandstructure",
    "dos",
    "dos_energy_up",
    "dos_energy_down",
    "is_magnetic",
    "ordering",
    "total_magnetization_normalized_vol",
    "total_magnetization_normalized_formula_units",
    "num_magnetic_sites",
    "num_unique_magnetic_sites",
    "types_of_magnetic_species",
    "bulk_modulus",
    "shear_modulus",
    "universal_anisotropy",
    "homogeneous_poisson",
    "e_total",
    "e_ionic",
    "e_electronic",
    "n",
    "e_ij_max",
    "weighted_surface_energy_EV_PER_ANG2",
    "weighted_surface_energy",
    "weighted_work_function",
    "surface_anisotropy",
    "shape_factor",
    "has_reconstructed",
    "possible_species",
    "has_props",
    "theoretical",
    "database_IDs"
  ]
}
