{
  "builder_meta": null,
  "nsites": null,
  "elements": null,
  "nelements": null,
  "composition": null,
  "composition_reduced": null,
  "formula_pretty": "SmLu3",
  "formula_anonymous": "AB3",
  "chemsys": null,
  "volume": 244.31954709690427,
  "density": 9.178940317916055,
  "density_atomic": 30.539943387113034,
  "symmetry": null,
  "property_name": null,
  "material_id": "mp-972549",
  "deprecated": null,
  "deprecation_reasons": null,
  "last_updated": null,
  "origins": null,
  "warnings": null,
  "structure": {
    "@module": "pymatgen.core.structure",
    "@class": "Structure",
    "charge": 0,
    "lattice": {
      "matrix": [
        [7.14299832, 9e-7, 2.799999999999998e-7],
        [-3.57149788, 6.1860153, -6.000000000000001e-8],
        [2.2e-7, 7e-8, 5.52925533]
      ],
      "pbc": [true, true, true],
      "a": 7.142998320000062,
      "b": 7.142995337999221,
      "c": 5.529255330000004,
      "alpha": 90.00000099294707,
      "beta": 89.99999547434466,
      "gamma": 119.99999473519095,
      "volume": 244.31954709690424
    },
    "properties": {},
    "sites": [
      {
        "species": [{ "element": "Sm", "occu": 1 }],
        "abc": [0.33333365, 0.66666691, 0.75000097],
        "properties": { "magmom": -0.0 },
        "label": "Sm",
        "xyz": [2.411218530525681e-6, 4.124012057764077, 4.146946914211077]
      },
      {
        "species": [{ "element": "Sm", "occu": 1 }],
        "abc": [0.66666756, 0.33333384, 0.25000098],
        "properties": { "magmom": -0.0 },
        "label": "Sm",
        "xyz": [3.5715042131864556, 2.0620088517486246, 1.3823194178371097]
      },
      {
        "species": [{ "element": "Lu", "occu": 1 }],
        "abc": [0.16506761, 0.33013737, 0.25000099],
        "properties": { "magmom": -0.0 },
        "label": "Lu",
        "xyz": [-7.201147142501668e-6, 2.0422349879826793, 1.382319332873465]
      },
      {
        "species": [{ "element": "Lu", "occu": 1 }],
        "abc": [0.66986343, 0.83493166, 0.250001],
        "properties": { "magmom": -0.0 },
        "label": "Lu",
        "xyz": [1.802876756484777, 5.1649006435915545, 1.3823194992211905]
      },
      {
        "species": [{ "element": "Lu", "occu": 1 }],
        "abc": [0.16506846, 0.83492935, 0.25000104],
        "properties": { "magmom": -0.0 },
        "label": "Lu",
        "xyz": [-1.802864616009562, 5.164885899580741, 1.382319579048951]
      },
      {
        "species": [{ "element": "Lu", "occu": 1 }],
        "abc": [0.83493111, 0.66986345, 0.750000999999999],
        "properties": { "magmom": -0.0 },
        "label": "Lu",
        "xyz": [3.5714957894814696, 4.143786354548855, 4.146947220344228]
      },
      {
        "species": [{ "element": "Lu", "occu": 1 }],
        "abc": [0.33013815, 0.16506987, 0.75000102],
        "properties": { "magmom": -0.0 },
        "label": "Lu",
        "xyz": [1.7686297250612568, 1.0211250910134173, 4.146947219874926]
      },
      {
        "species": [{ "element": "Lu", "occu": 1 }],
        "abc": [0.83493103, 0.16506855, 0.750000999999999],
        "properties": { "magmom": -0.0 },
        "label": "Lu",
        "xyz": [5.374369133226416, 1.021117379786812, 4.146947250631899]
      }
    ]
  },
  "task_ids": null,
  "uncorrected_energy_per_atom": null,
  "energy_per_atom": -35.98773783625,
  "formation_energy_per_atom": 0.005403381250005001,
  "energy_above_hull": 0.005403381250005001,
  "is_stable": false,
  "equilibrium_reaction_energy_per_atom": null,
  "decomposes_to": null,
  "xas": null,
  "grain_boundaries": null,
  "band_gap": 0.0,
  "cbm": null,
  "vbm": null,
  "efermi": 2.9327535,
  "is_gap_direct": null,
  "is_metal": null,
  "es_source_calc_id": null,
  "bandstructure": null,
  "dos": null,
  "dos_energy_up": null,
  "dos_energy_down": null,
  "is_magnetic": null,
  "ordering": null,
  "total_magnetization": 5.2600000000000005e-5,
  "total_magnetization_normalized_vol": null,
  "total_magnetization_normalized_formula_units": null,
  "num_magnetic_sites": null,
  "num_unique_magnetic_sites": null,
  "types_of_magnetic_species": null,
  "bulk_modulus": null,
  "shear_modulus": null,
  "universal_anisotropy": null,
  "homogeneous_poisson": null,
  "e_total": null,
  "e_ionic": null,
  "e_electronic": null,
  "n": null,
  "e_ij_max": null,
  "weighted_surface_energy_EV_PER_ANG2": null,
  "weighted_surface_energy": null,
  "weighted_work_function": null,
  "surface_anisotropy": null,
  "shape_factor": null,
  "has_reconstructed": null,
  "possible_species": null,
  "has_props": null,
  "theoretical": null,
  "database_IDs": null,
  "fields_not_requested": [
    "builder_meta",
    "nsites",
    "elements",
    "nelements",
    "composition",
    "composition_reduced",
    "chemsys",
    "symmetry",
    "property_name",
    "deprecated",
    "deprecation_reasons",
    "last_updated",
    "origins",
    "warnings",
    "task_ids",
    "uncorrected_energy_per_atom",
    "equilibrium_reaction_energy_per_atom",
    "decomposes_to",
    "xas",
    "grain_boundaries",
    "cbm",
    "vbm",
    "is_gap_direct",
    "is_metal",
    "es_source_calc_id",
    "bandstructure",
    "dos",
    "dos_energy_up",
    "dos_energy_down",
    "is_magnetic",
    "ordering",
    "total_magnetization_normalized_vol",
    "total_magnetization_normalized_formula_units",
    "num_magnetic_sites",
    "num_unique_magnetic_sites",
    "types_of_magnetic_species",
    "bulk_modulus",
    "shear_modulus",
    "universal_anisotropy",
    "homogeneous_poisson",
    "e_total",
    "e_ionic",
    "e_electronic",
    "n",
    "e_ij_max",
    "weighted_surface_energy_EV_PER_ANG2",
    "weighted_surface_energy",
    "weighted_work_function",
    "surface_anisotropy",
    "shape_factor",
    "has_reconstructed",
    "possible_species",
    "has_props",
    "theoretical",
    "database_IDs"
  ]
}
