{"builder_meta": null, "nsites": null, "elements": null, "nelements": null, "composition": null, "composition_reduced": null, "formula_pretty": "SmMg3", "formula_anonymous": "AB3", "chemsys": null, "volume": 99.26328362748143, "density": 3.735085588005568, "density_atomic": 24.815820906870357, "symmetry": null, "property_name": null, "material_id": "mp-30779", "deprecated": null, "deprecation_reasons": null, "last_updated": null, "origins": null, "warnings": null, "structure": {"@module": "pymatgen.core.structure", "@class": "Structure", "charge": 0, "lattice": {"matrix": [[4.50089069, -1e-08, 2.59859013], [1.50029655, 4.24348059, 2.59859013], [-1e-08, -1e-08, 5.1971823]], "pbc": [true, true, true], "a": 5.1971807421968785, "b": 5.197180766471575, "c": 5.1971823, "alpha": 60.0000033643471, "beta": 60.00000317939717, "gamma": 60.000006126338626, "volume": 99.26328362748144}, "properties": {}, "sites": [{"species": [{"element": "Sm", "occu": 1}], "abc": [0.0, -0.0, -0.0], "properties": {"magmom": -0.0}, "label": "Sm", "xyz": [0.0, 0.0, 0.0]}, {"species": [{"element": "Mg", "occu": 1}], "abc": [0.5, 0.5, 0.5], "properties": {"magmom": 0.0}, "label": "Mg", "xyz": [3.000593615, 2.121740285, 5.19718128]}, {"species": [{"element": "Mg", "occu": 1}], "abc": [0.25, 0.25, 0.25], "properties": {"magmom": -0.0}, "label": "Mg", "xyz": [1.5002968075, 1.0608701425, 2.59859064]}, {"species": [{"element": "Mg", "occu": 1}], "abc": [0.75, 0.75, 0.75], "properties": {"magmom": -0.0}, "label": "Mg", "xyz": [4.5008904225, 3.1826104274999993, 7.79577192]}]}, "task_ids": null, "uncorrected_energy_per_atom": null, "energy_per_atom": -2.4852065824999983, "formation_energy_per_atom": -0.08270753749999801, "energy_above_hull": 0.0, "is_stable": true, "equilibrium_reaction_energy_per_atom": null, "decomposes_to": null, "xas": null, "grain_boundaries": null, "band_gap": 0.0, "cbm": null, "vbm": null, "efermi": 2.71446295, "is_gap_direct": null, "is_metal": null, "es_source_calc_id": null, "bandstructure": null, "dos": null, "dos_energy_up": null, "dos_energy_down": null, "is_magnetic": null, "ordering": null, "total_magnetization": 0.0, "total_magnetization_normalized_vol": null, "total_magnetization_normalized_formula_units": null, "num_magnetic_sites": null, "num_unique_magnetic_sites": null, "types_of_magnetic_species": null, "bulk_modulus": null, "shear_modulus": null, "universal_anisotropy": null, "homogeneous_poisson": null, "e_total": null, "e_ionic": null, "e_electronic": null, "n": null, "e_ij_max": null, "weighted_surface_energy_EV_PER_ANG2": null, "weighted_surface_energy": null, "weighted_work_function": null, "surface_anisotropy": null, "shape_factor": null, "has_reconstructed": null, "possible_species": null, "has_props": null, "theoretical": null, "database_IDs": null, "fields_not_requested": ["builder_meta", "nsites", "elements", "nelements", "composition", "composition_reduced", "chemsys", "symmetry", "property_name", "deprecated", "deprecation_reasons", "last_updated", "origins", "warnings", "task_ids", "uncorrected_energy_per_atom", "equilibrium_reaction_energy_per_atom", "decomposes_to", "xas", "grain_boundaries", "cbm", "vbm", "is_gap_direct", "is_metal", "es_source_calc_id", "bandstructure", "dos", "dos_energy_up", "dos_energy_down", "is_magnetic", "ordering", "total_magnetization_normalized_vol", "total_magnetization_normalized_formula_units", "num_magnetic_sites", "num_unique_magnetic_sites", "types_of_magnetic_species", "bulk_modulus", "shear_modulus", "universal_anisotropy", "homogeneous_poisson", "e_total", "e_ionic", "e_electronic", "n", "e_ij_max", "weighted_surface_energy_EV_PER_ANG2", "weighted_surface_energy", "weighted_work_function", "surface_anisotropy", "shape_factor", "has_reconstructed", "possible_species", "has_props", "theoretical", "database_IDs"]}