{
  "builder_meta": null,
  "nsites": null,
  "elements": null,
  "nelements": null,
  "composition": null,
  "composition_reduced": null,
  "formula_pretty": "SmMg5",
  "formula_anonymous": "AB5",
  "chemsys": null,
  "volume": 148.25569347896754,
  "density": 3.045250091434701,
  "density_atomic": 24.709282246494592,
  "symmetry": null,
  "property_name": null,
  "material_id": "mp-1187021",
  "deprecated": null,
  "deprecation_reasons": null,
  "last_updated": null,
  "origins": null,
  "warnings": null,
  "structure": {
    "@module": "pymatgen.core.structure",
    "@class": "Structure",
    "charge": 0,
    "lattice": {
      "matrix": [
        [1.5971988, 7.073573, -0.051922420000000004],
        [-1.5971988, 7.073573, -0.051922420000000004],
        [-0.0, 1.56656622, 6.54970531]
      ],
      "pbc": [true, true, true],
      "a": 7.251839417054757,
      "b": 7.251839417054757,
      "c": 6.7344464783297,
      "alpha": 77.29460313048628,
      "beta": 77.29460313048628,
      "gamma": 25.447129169496318,
      "volume": 148.25569347896754
    },
    "properties": {},
    "sites": [
      {
        "species": [{ "element": "Sm", "occu": 1 }],
        "abc": [0.5, 0.5, 0.5],
        "properties": { "magmom": 0.0 },
        "label": "Sm",
        "xyz": [0.0, 7.85685611, 3.222930235]
      },
      {
        "species": [{ "element": "Mg", "occu": 1 }],
        "abc": [0.17420592000000001, 0.17420592000000001, 0.67043006],
        "properties": { "magmom": -0.0 },
        "label": "Mg",
        "xyz": [0.0, 3.5147896691728935, 4.373028938076167]
      },
      {
        "species": [{ "element": "Mg", "occu": 1 }],
        "abc": [0.83090006, 0.83090006, 0.84299733],
        "properties": { "magmom": 0.0 },
        "label": "Mg",
        "xyz": [0.0, 13.075475600956953, 5.435099404830132]
      },
      {
        "species": [{ "element": "Mg", "occu": 1 }],
        "abc": [0.5, 0.5, 0.0],
        "properties": { "magmom": 0.0 },
        "label": "Mg",
        "xyz": [0.0, 7.073573, -0.051922420000000004]
      },
      {
        "species": [{ "element": "Mg", "occu": 1 }],
        "abc": [0.16909994, 0.16909994, 0.15700267],
        "properties": { "magmom": 0.0 },
        "label": "Mg",
        "xyz": [0.0, 2.638236619043047, 1.0107610651698682]
      },
      {
        "species": [{ "element": "Mg", "occu": 1 }],
        "abc": [0.82579408, 0.82579408, 0.32956994],
        "properties": { "magmom": -0.0 },
        "label": "Mg",
        "xyz": [0.0, 12.198922550827106, 2.0728315319238346]
      }
    ]
  },
  "task_ids": null,
  "uncorrected_energy_per_atom": null,
  "energy_per_atom": -2.132104911666667,
  "formation_energy_per_atom": 0.013051123333333001,
  "energy_above_hull": 0.06818948166666501,
  "is_stable": false,
  "equilibrium_reaction_energy_per_atom": null,
  "decomposes_to": null,
  "xas": null,
  "grain_boundaries": null,
  "band_gap": 0.0,
  "cbm": null,
  "vbm": null,
  "efermi": 3.19750429,
  "is_gap_direct": null,
  "is_metal": null,
  "es_source_calc_id": null,
  "bandstructure": null,
  "dos": null,
  "dos_energy_up": null,
  "dos_energy_down": null,
  "is_magnetic": null,
  "ordering": null,
  "total_magnetization": 4.4200000000000004e-5,
  "total_magnetization_normalized_vol": null,
  "total_magnetization_normalized_formula_units": null,
  "num_magnetic_sites": null,
  "num_unique_magnetic_sites": null,
  "types_of_magnetic_species": null,
  "bulk_modulus": null,
  "shear_modulus": null,
  "universal_anisotropy": null,
  "homogeneous_poisson": null,
  "e_total": null,
  "e_ionic": null,
  "e_electronic": null,
  "n": null,
  "e_ij_max": null,
  "weighted_surface_energy_EV_PER_ANG2": null,
  "weighted_surface_energy": null,
  "weighted_work_function": null,
  "surface_anisotropy": null,
  "shape_factor": null,
  "has_reconstructed": null,
  "possible_species": null,
  "has_props": null,
  "theoretical": null,
  "database_IDs": null,
  "fields_not_requested": [
    "builder_meta",
    "nsites",
    "elements",
    "nelements",
    "composition",
    "composition_reduced",
    "chemsys",
    "symmetry",
    "property_name",
    "deprecated",
    "deprecation_reasons",
    "last_updated",
    "origins",
    "warnings",
    "task_ids",
    "uncorrected_energy_per_atom",
    "equilibrium_reaction_energy_per_atom",
    "decomposes_to",
    "xas",
    "grain_boundaries",
    "cbm",
    "vbm",
    "is_gap_direct",
    "is_metal",
    "es_source_calc_id",
    "bandstructure",
    "dos",
    "dos_energy_up",
    "dos_energy_down",
    "is_magnetic",
    "ordering",
    "total_magnetization_normalized_vol",
    "total_magnetization_normalized_formula_units",
    "num_magnetic_sites",
    "num_unique_magnetic_sites",
    "types_of_magnetic_species",
    "bulk_modulus",
    "shear_modulus",
    "universal_anisotropy",
    "homogeneous_poisson",
    "e_total",
    "e_ionic",
    "e_electronic",
    "n",
    "e_ij_max",
    "weighted_surface_energy_EV_PER_ANG2",
    "weighted_surface_energy",
    "weighted_work_function",
    "surface_anisotropy",
    "shape_factor",
    "has_reconstructed",
    "possible_species",
    "has_props",
    "theoretical",
    "database_IDs"
  ]
}
