{
  "builder_meta": null,
  "nsites": null,
  "elements": null,
  "nelements": null,
  "composition": null,
  "composition_reduced": null,
  "formula_pretty": "SmMn3",
  "formula_anonymous": "AB3",
  "chemsys": null,
  "volume": 145.41791029472816,
  "density": 7.1979986906514615,
  "density_atomic": 18.17723878684102,
  "symmetry": null,
  "property_name": null,
  "material_id": "mp-979923",
  "deprecated": null,
  "deprecation_reasons": null,
  "last_updated": null,
  "origins": null,
  "warnings": null,
  "structure": {
    "@module": "pymatgen.core.structure",
    "@class": "Structure",
    "charge": 0,
    "lattice": {
      "matrix": [
        [3.011444, -5.215975, 0.0],
        [3.011444, 5.215975, 0.0],
        [0.0, 0.0, 4.6288979999999995]
      ],
      "pbc": [true, true, true],
      "a": 6.022888855504558,
      "b": 6.022888855504558,
      "c": 4.6288979999999995,
      "alpha": 90.0,
      "beta": 90.0,
      "gamma": 120.00000939743802,
      "volume": 145.41791029472813
    },
    "properties": {},
    "sites": [
      {
        "species": [{ "element": "Sm", "occu": 1 }],
        "abc": [0.666667, 0.333333, 0.25],
        "properties": { "magmom": -0.20600000000000002 },
        "label": "Sm",
        "xyz": [3.011444, -1.73866181065, 1.1572244999999999]
      },
      {
        "species": [{ "element": "Sm", "occu": 1 }],
        "abc": [0.333333, 0.666667, 0.75],
        "properties": { "magmom": -0.20700000000000002 },
        "label": "Sm",
        "xyz": [3.011444, 1.73866181065, 3.4716734999999996]
      },
      {
        "species": [{ "element": "Mn", "occu": 1 }],
        "abc": [0.853464999999999, 0.146535, 0.75],
        "properties": { "magmom": 3.26 },
        "label": "Mn",
        "xyz": [3.0114439999999973, -3.687329206749995, 3.4716734999999996]
      },
      {
        "species": [{ "element": "Mn", "occu": 1 }],
        "abc": [0.29307, 0.146535, 0.75],
        "properties": { "magmom": 3.11 },
        "label": "Mn",
        "xyz": [1.32384583962, -0.7643228966250001, 3.4716734999999996]
      },
      {
        "species": [{ "element": "Mn", "occu": 1 }],
        "abc": [0.853464999999999, 0.7069300000000001, 0.75],
        "properties": { "magmom": 3.211 },
        "label": "Mn",
        "xyz": [4.699042160379998, -0.7643228966249946, 3.4716734999999996]
      },
      {
        "species": [{ "element": "Mn", "occu": 1 }],
        "abc": [0.146535, 0.853464999999999, 0.25],
        "properties": { "magmom": 3.2640000000000002 },
        "label": "Mn",
        "xyz": [3.0114439999999973, 3.687329206749995, 1.1572244999999999]
      },
      {
        "species": [{ "element": "Mn", "occu": 1 }],
        "abc": [0.7069300000000001, 0.853464999999999, 0.25],
        "properties": { "magmom": 3.11 },
        "label": "Mn",
        "xyz": [4.699042160379998, 0.7643228966249946, 1.1572244999999999]
      },
      {
        "species": [{ "element": "Mn", "occu": 1 }],
        "abc": [0.146535, 0.29307, 0.25],
        "properties": { "magmom": 3.216 },
        "label": "Mn",
        "xyz": [1.32384583962, 0.7643228966250001, 1.1572244999999999]
      }
    ]
  },
  "task_ids": null,
  "uncorrected_energy_per_atom": null,
  "energy_per_atom": -18.09958428008621,
  "formation_energy_per_atom": 0.346147806551723,
  "energy_above_hull": 0.346147806551723,
  "is_stable": false,
  "equilibrium_reaction_energy_per_atom": null,
  "decomposes_to": null,
  "xas": null,
  "grain_boundaries": null,
  "band_gap": 0.0,
  "cbm": null,
  "vbm": null,
  "efermi": 4.01763394,
  "is_gap_direct": null,
  "is_metal": null,
  "es_source_calc_id": null,
  "bandstructure": null,
  "dos": null,
  "dos_energy_up": null,
  "dos_energy_down": null,
  "is_magnetic": null,
  "ordering": null,
  "total_magnetization": 19.4392331,
  "total_magnetization_normalized_vol": null,
  "total_magnetization_normalized_formula_units": null,
  "num_magnetic_sites": null,
  "num_unique_magnetic_sites": null,
  "types_of_magnetic_species": null,
  "bulk_modulus": null,
  "shear_modulus": null,
  "universal_anisotropy": null,
  "homogeneous_poisson": null,
  "e_total": null,
  "e_ionic": null,
  "e_electronic": null,
  "n": null,
  "e_ij_max": null,
  "weighted_surface_energy_EV_PER_ANG2": null,
  "weighted_surface_energy": null,
  "weighted_work_function": null,
  "surface_anisotropy": null,
  "shape_factor": null,
  "has_reconstructed": null,
  "possible_species": null,
  "has_props": null,
  "theoretical": null,
  "database_IDs": null,
  "fields_not_requested": [
    "builder_meta",
    "nsites",
    "elements",
    "nelements",
    "composition",
    "composition_reduced",
    "chemsys",
    "symmetry",
    "property_name",
    "deprecated",
    "deprecation_reasons",
    "last_updated",
    "origins",
    "warnings",
    "task_ids",
    "uncorrected_energy_per_atom",
    "equilibrium_reaction_energy_per_atom",
    "decomposes_to",
    "xas",
    "grain_boundaries",
    "cbm",
    "vbm",
    "is_gap_direct",
    "is_metal",
    "es_source_calc_id",
    "bandstructure",
    "dos",
    "dos_energy_up",
    "dos_energy_down",
    "is_magnetic",
    "ordering",
    "total_magnetization_normalized_vol",
    "total_magnetization_normalized_formula_units",
    "num_magnetic_sites",
    "num_unique_magnetic_sites",
    "types_of_magnetic_species",
    "bulk_modulus",
    "shear_modulus",
    "universal_anisotropy",
    "homogeneous_poisson",
    "e_total",
    "e_ionic",
    "e_electronic",
    "n",
    "e_ij_max",
    "weighted_surface_energy_EV_PER_ANG2",
    "weighted_surface_energy",
    "weighted_work_function",
    "surface_anisotropy",
    "shape_factor",
    "has_reconstructed",
    "possible_species",
    "has_props",
    "theoretical",
    "database_IDs"
  ]
}
