{"builder_meta": null, "nsites": null, "elements": null, "nelements": null, "composition": null, "composition_reduced": null, "formula_pretty": "SmMn2", "formula_anonymous": "AB2", "chemsys": null, "volume": 217.89204316397195, "density": 7.932959601632407, "density_atomic": 18.15767026366433, "symmetry": null, "property_name": null, "material_id": "mp-1102799", "deprecated": null, "deprecation_reasons": null, "last_updated": null, "origins": null, "warnings": null, "structure": {"@module": "pymatgen.core.structure", "@class": "Structure", "charge": 0, "lattice": {"matrix": [[-2.778045, -4.371475, 0.0], [-2.778045, 4.371475, 0.0], [0.0, 0.0, -8.971067]], "pbc": [true, true, true], "a": 5.179510372385598, "b": 5.179510372385598, "c": 8.971067, "alpha": 90.0, "beta": 90.0, "gamma": 115.12859400582622, "volume": 217.89204316397195}, "properties": {}, "sites": [{"species": [{"element": "Sm", "occu": 1}], "abc": [0.665391, 0.334609, 0.563543], "properties": {"magmom": -0.224}, "label": "Sm", "xyz": [-2.778045, -1.4460052434499997, -5.055582010381]}, {"species": [{"element": "Sm", "occu": 1}], "abc": [0.334609, 0.665391, 0.436457], "properties": {"magmom": -0.224}, "label": "Sm", "xyz": [-2.778045, 1.4460052434499997, -3.915484989619]}, {"species": [{"element": "Sm", "occu": 1}], "abc": [0.334609, 0.665391, 0.063543], "properties": {"magmom": -0.224}, "label": "Sm", "xyz": [-2.778045, 1.4460052434499997, -0.570048510381]}, {"species": [{"element": "Sm", "occu": 1}], "abc": [0.665391, 0.334609, 0.936457], "properties": {"magmom": -0.224}, "label": "Sm", "xyz": [-2.778045, -1.4460052434499997, -8.401018489619]}, {"species": [{"element": "Mn", "occu": 1}], "abc": [0.0, 0.0, 0.5], "properties": {"magmom": 2.657}, "label": "Mn", "xyz": [0.0, 0.0, -4.4855335]}, {"species": [{"element": "Mn", "occu": 1}], "abc": [0.0, 0.0, 0.0], "properties": {"magmom": 2.657}, "label": "Mn", "xyz": [0.0, 0.0, 0.0]}, {"species": [{"element": "Mn", "occu": 1}], "abc": [0.15137, 0.335432, 0.75], "properties": {"magmom": 2.722}, "label": "Mn", "xyz": [-1.35235786209, 0.80462243145, -6.72830025]}, {"species": [{"element": "Mn", "occu": 1}], "abc": [0.158528, 0.841472, 0.75], "properties": {"magmom": -2.75}, "label": "Mn", "xyz": [-2.778045, 2.9854726224000006, -6.72830025]}, {"species": [{"element": "Mn", "occu": 1}], "abc": [0.664567999999999, 0.8486300000000001, 0.75], "properties": {"magmom": 2.722}, "label": "Mn", "xyz": [-4.203732137909998, 0.8046224314500043, -6.72830025]}, {"species": [{"element": "Mn", "occu": 1}], "abc": [0.8486300000000001, 0.664567999999999, 0.25], "properties": {"magmom": 2.722}, "label": "Mn", "xyz": [-4.203732137909998, -0.8046224314500043, -2.24276675]}, {"species": [{"element": "Mn", "occu": 1}], "abc": [0.841472, 0.158528, 0.25], "properties": {"magmom": -2.75}, "label": "Mn", "xyz": [-2.778045, -2.9854726224000006, -2.24276675]}, {"species": [{"element": "Mn", "occu": 1}], "abc": [0.335432, 0.15137, 0.25], "properties": {"magmom": 2.722}, "label": "Mn", "xyz": [-1.35235786209, -0.80462243145, -2.24276675]}]}, "task_ids": null, "uncorrected_energy_per_atom": null, "energy_per_atom": -19.553883230632184, "formation_energy_per_atom": 0.14598132637930802, "energy_above_hull": 0.14598132637931002, "is_stable": false, "equilibrium_reaction_energy_per_atom": null, "decomposes_to": null, "xas": null, "grain_boundaries": null, "band_gap": 0.0, "cbm": null, "vbm": null, "efermi": 4.24135022, "is_gap_direct": null, "is_metal": null, "es_source_calc_id": null, "bandstructure": null, "dos": null, "dos_energy_up": null, "dos_energy_down": null, "is_magnetic": null, "ordering": null, "total_magnetization": 9.7714387, "total_magnetization_normalized_vol": null, "total_magnetization_normalized_formula_units": null, "num_magnetic_sites": null, "num_unique_magnetic_sites": null, "types_of_magnetic_species": null, "bulk_modulus": null, "shear_modulus": null, "universal_anisotropy": null, "homogeneous_poisson": null, "e_total": null, "e_ionic": null, "e_electronic": null, "n": null, "e_ij_max": null, "weighted_surface_energy_EV_PER_ANG2": null, "weighted_surface_energy": null, "weighted_work_function": null, "surface_anisotropy": null, "shape_factor": null, "has_reconstructed": null, "possible_species": null, "has_props": null, "theoretical": null, "database_IDs": null, "fields_not_requested": ["builder_meta", "nsites", "elements", "nelements", "composition", "composition_reduced", "chemsys", "symmetry", "property_name", "deprecated", "deprecation_reasons", "last_updated", "origins", "warnings", "task_ids", "uncorrected_energy_per_atom", "equilibrium_reaction_energy_per_atom", "decomposes_to", "xas", "grain_boundaries", "cbm", "vbm", "is_gap_direct", "is_metal", "es_source_calc_id", "bandstructure", "dos", "dos_energy_up", "dos_energy_down", "is_magnetic", "ordering", "total_magnetization_normalized_vol", "total_magnetization_normalized_formula_units", "num_magnetic_sites", "num_unique_magnetic_sites", "types_of_magnetic_species", "bulk_modulus", "shear_modulus", "universal_anisotropy", "homogeneous_poisson", "e_total", "e_ionic", "e_electronic", "n", "e_ij_max", "weighted_surface_energy_EV_PER_ANG2", "weighted_surface_energy", "weighted_work_function", "surface_anisotropy", "shape_factor", "has_reconstructed", "possible_species", "has_props", "theoretical", "database_IDs"]}