{
  "builder_meta": null,
  "nsites": null,
  "elements": null,
  "nelements": null,
  "composition": null,
  "composition_reduced": null,
  "formula_pretty": "SmNi3",
  "formula_anonymous": "AB3",
  "chemsys": null,
  "volume": 173.18663176661101,
  "density": 9.389870906535352,
  "density_atomic": 14.432219313884252,
  "symmetry": null,
  "property_name": null,
  "material_id": "mp-1095619",
  "deprecated": null,
  "deprecation_reasons": null,
  "last_updated": null,
  "origins": null,
  "warnings": null,
  "structure": {
    "@module": "pymatgen.core.structure",
    "@class": "Structure",
    "charge": 0,
    "lattice": {
      "matrix": [
        [-2.48392663, -4.29989816, -0.00088413],
        [2.48394196, -4.29990735, -0.00088922],
        [-3.049999999999998e-6, -2.86492482, 8.1068845]
      ],
      "pbc": [true, true, true],
      "a": 4.965784577615142,
      "b": 4.965800204392528,
      "c": 8.598219031904316,
      "alpha": 73.24079563121211,
      "beta": 73.24069916858382,
      "gamma": 60.02766321726708,
      "volume": 173.18663176661101
    },
    "properties": {},
    "sites": [
      {
        "species": [{ "element": "Sm", "occu": 1 }],
        "abc": [0.13891974, 0.13891974, 0.58386359],
        "properties": { "magmom": -0.066 },
        "label": "Sm",
        "xyz": [3.488556647123099e-7, -2.867408035985071, 4.733068334564426]
      },
      {
        "species": [{ "element": "Sm", "occu": 1 }],
        "abc": [0.86108026, 0.86108026, 0.41613641],
        "properties": { "magmom": -0.066 },
        "label": "Sm",
        "xyz": [1.1931144335156751e-5, -8.597322294014928, 3.372042815435574]
      },
      {
        "species": [{ "element": "Sm", "occu": 1 }],
        "abc": [0.0, 0.0, -0.0],
        "properties": { "magmom": -0.068 },
        "label": "Sm",
        "xyz": [0.0, 0.0, 0.0]
      },
      {
        "species": [{ "element": "Ni", "occu": 1 }],
        "abc": [0.08085543, 0.5814437, 0.757802499999999],
        "properties": { "magmom": 0.263 },
        "label": "Ni",
        "xyz": [1.243431136752926, -5.018871344832251, 6.1428288232330015]
      },
      {
        "species": [{ "element": "Ni", "occu": 1 }],
        "abc": [0.581346199999999, 0.581346199999999, 0.75767392],
        "properties": { "magmom": 0.259 },
        "label": "Ni",
        "xyz": [6.601131790178175e-6, -7.170143072852248, 6.141344027818469]
      },
      {
        "species": [{ "element": "Ni", "occu": 1 }],
        "abc": [0.5814437, 0.08085543, 0.7578015],
        "properties": { "magmom": 0.263 },
        "label": "Ni",
        "xyz": [-1.2434256062994633, -5.018863879501232, 6.1428232643428045]
      },
      {
        "species": [{ "element": "Ni", "occu": 1 }],
        "abc": [0.91914457, 0.4185563, 0.242196499999999],
        "properties": { "magmom": 0.263 },
        "label": "Ni",
        "xyz": [-1.2434188567498763, -6.445856120242923, 1.9622742198824819]
      },
      {
        "species": [{ "element": "Ni", "occu": 1 }],
        "abc": [0.418653799999999, 0.418653799999999, 0.24232508],
        "properties": { "magmom": 0.259 },
        "label": "Ni",
        "xyz": [5.678871260134977e-6, -4.294584392222915, 1.96375901529703]
      },
      {
        "species": [{ "element": "Ni", "occu": 1 }],
        "abc": [0.4185563, 0.91914457, 0.242197499999999],
        "properties": { "magmom": 0.263 },
        "label": "Ni",
        "xyz": [1.2434378863025135, -6.445863585573944, 1.9622797787726873]
      },
      {
        "species": [{ "element": "Ni", "occu": 1 }],
        "abc": [0.33321506, 0.33321606, 0.00076213],
        "properties": { "magmom": 0.379 },
        "label": "Ni",
        "xyz": [7.589804333225375e-6, -2.8677724540633966, 0.005587592068113999]
      },
      {
        "species": [{ "element": "Ni", "occu": 1 }],
        "abc": [0.66678494, 0.66678394, 0.99923787],
        "properties": { "magmom": 0.379 },
        "label": "Ni",
        "xyz": [4.690195666754709e-6, -8.596957875936603, 8.099523557931885]
      },
      {
        "species": [{ "element": "Ni", "occu": 1 }],
        "abc": [0.5, 0.5, 0.5],
        "properties": { "magmom": 0.097 },
        "label": "Ni",
        "xyz": [6.140000000045553e-6, -5.732365165, 4.0525555749999995]
      }
    ]
  },
  "task_ids": null,
  "uncorrected_energy_per_atom": null,
  "energy_per_atom": -5.866586358333332,
  "formation_energy_per_atom": -0.351837314583331,
  "energy_above_hull": 0.0,
  "is_stable": true,
  "equilibrium_reaction_energy_per_atom": null,
  "decomposes_to": null,
  "xas": null,
  "grain_boundaries": null,
  "band_gap": 0.0,
  "cbm": null,
  "vbm": null,
  "efermi": 6.05593285,
  "is_gap_direct": null,
  "is_metal": null,
  "es_source_calc_id": null,
  "bandstructure": null,
  "dos": null,
  "dos_energy_up": null,
  "dos_energy_down": null,
  "is_magnetic": null,
  "ordering": null,
  "total_magnetization": 1.8315136,
  "total_magnetization_normalized_vol": null,
  "total_magnetization_normalized_formula_units": null,
  "num_magnetic_sites": null,
  "num_unique_magnetic_sites": null,
  "types_of_magnetic_species": null,
  "bulk_modulus": null,
  "shear_modulus": null,
  "universal_anisotropy": null,
  "homogeneous_poisson": null,
  "e_total": null,
  "e_ionic": null,
  "e_electronic": null,
  "n": null,
  "e_ij_max": null,
  "weighted_surface_energy_EV_PER_ANG2": null,
  "weighted_surface_energy": null,
  "weighted_work_function": null,
  "surface_anisotropy": null,
  "shape_factor": null,
  "has_reconstructed": null,
  "possible_species": null,
  "has_props": null,
  "theoretical": null,
  "database_IDs": null,
  "fields_not_requested": [
    "builder_meta",
    "nsites",
    "elements",
    "nelements",
    "composition",
    "composition_reduced",
    "chemsys",
    "symmetry",
    "property_name",
    "deprecated",
    "deprecation_reasons",
    "last_updated",
    "origins",
    "warnings",
    "task_ids",
    "uncorrected_energy_per_atom",
    "equilibrium_reaction_energy_per_atom",
    "decomposes_to",
    "xas",
    "grain_boundaries",
    "cbm",
    "vbm",
    "is_gap_direct",
    "is_metal",
    "es_source_calc_id",
    "bandstructure",
    "dos",
    "dos_energy_up",
    "dos_energy_down",
    "is_magnetic",
    "ordering",
    "total_magnetization_normalized_vol",
    "total_magnetization_normalized_formula_units",
    "num_magnetic_sites",
    "num_unique_magnetic_sites",
    "types_of_magnetic_species",
    "bulk_modulus",
    "shear_modulus",
    "universal_anisotropy",
    "homogeneous_poisson",
    "e_total",
    "e_ionic",
    "e_electronic",
    "n",
    "e_ij_max",
    "weighted_surface_energy_EV_PER_ANG2",
    "weighted_surface_energy",
    "weighted_work_function",
    "surface_anisotropy",
    "shape_factor",
    "has_reconstructed",
    "possible_species",
    "has_props",
    "theoretical",
    "database_IDs"
  ]
}
