{
  "builder_meta": null,
  "nsites": null,
  "elements": null,
  "nelements": null,
  "composition": null,
  "composition_reduced": null,
  "formula_pretty": "SmNi",
  "formula_anonymous": "AB",
  "chemsys": null,
  "volume": 83.11887123157929,
  "density": 8.35288864157884,
  "density_atomic": 20.779717807894823,
  "symmetry": null,
  "property_name": null,
  "material_id": "mp-999145",
  "deprecated": null,
  "deprecation_reasons": null,
  "last_updated": null,
  "origins": null,
  "warnings": null,
  "structure": {
    "@module": "pymatgen.core.structure",
    "@class": "Structure",
    "charge": 0,
    "lattice": {
      "matrix": [
        [-3.78448012, -0.00218999, -1e-8],
        [-1e-8, -1e-8, -4.29449388],
        [-1.89522386, -5.11534044, -3.0000000000000004e-8]
      ],
      "pbc": [true, true, true],
      "a": 3.784480753647905,
      "b": 4.29449388,
      "c": 5.455142646770357,
      "alpha": 89.99999951344981,
      "beta": 69.63727267290486,
      "gamma": 89.99999971510931,
      "volume": 83.11887123157929
    },
    "properties": {},
    "sites": [
      {
        "species": [{ "element": "Sm", "occu": 1 }],
        "abc": [0.13866081, 0.75000002, 0.72313457],
        "properties": { "magmom": -0.0 },
        "label": "Sm",
        "xyz": [-1.8952609774229376, -3.699383182770303, -3.220870518970523]
      },
      {
        "species": [{ "element": "Sm", "occu": 1 }],
        "abc": [0.86133285, 0.25000001, 0.27687817],
        "properties": { "magmom": -0.0 },
        "label": "Sm",
        "xyz": [-3.7844431641250784, -1.4182124127823663, -1.0736235298646124]
      },
      {
        "species": [{ "element": "Ni", "occu": 1 }],
        "abc": [0.4299514, 0.74999996, 0.14111023],
        "properties": { "magmom": 0.0 },
        "label": "Ni",
        "xyz": [-1.8945780081522554, -0.7227684627831868, -3.220870246753066]
      },
      {
        "species": [{ "element": "Ni", "occu": 1 }],
        "abc": [0.57005494, 0.25000001, 0.85887703],
        "properties": { "magmom": 0.0 },
        "label": "Ni",
        "xyz": [-3.7851258302997293, -4.3946968216641435, -1.073623544411799]
      }
    ]
  },
  "task_ids": null,
  "uncorrected_energy_per_atom": null,
  "energy_per_atom": -5.617437517500001,
  "formation_energy_per_atom": -0.36807611,
  "energy_above_hull": 0.0,
  "is_stable": true,
  "equilibrium_reaction_energy_per_atom": null,
  "decomposes_to": null,
  "xas": null,
  "grain_boundaries": null,
  "band_gap": 0.0,
  "cbm": null,
  "vbm": null,
  "efermi": 4.51065513,
  "is_gap_direct": null,
  "is_metal": null,
  "es_source_calc_id": null,
  "bandstructure": null,
  "dos": null,
  "dos_energy_up": null,
  "dos_energy_down": null,
  "is_magnetic": null,
  "ordering": null,
  "total_magnetization": 0.0,
  "total_magnetization_normalized_vol": null,
  "total_magnetization_normalized_formula_units": null,
  "num_magnetic_sites": null,
  "num_unique_magnetic_sites": null,
  "types_of_magnetic_species": null,
  "bulk_modulus": null,
  "shear_modulus": null,
  "universal_anisotropy": null,
  "homogeneous_poisson": null,
  "e_total": null,
  "e_ionic": null,
  "e_electronic": null,
  "n": null,
  "e_ij_max": null,
  "weighted_surface_energy_EV_PER_ANG2": null,
  "weighted_surface_energy": null,
  "weighted_work_function": null,
  "surface_anisotropy": null,
  "shape_factor": null,
  "has_reconstructed": null,
  "possible_species": null,
  "has_props": null,
  "theoretical": null,
  "database_IDs": null,
  "fields_not_requested": [
    "builder_meta",
    "nsites",
    "elements",
    "nelements",
    "composition",
    "composition_reduced",
    "chemsys",
    "symmetry",
    "property_name",
    "deprecated",
    "deprecation_reasons",
    "last_updated",
    "origins",
    "warnings",
    "task_ids",
    "uncorrected_energy_per_atom",
    "equilibrium_reaction_energy_per_atom",
    "decomposes_to",
    "xas",
    "grain_boundaries",
    "cbm",
    "vbm",
    "is_gap_direct",
    "is_metal",
    "es_source_calc_id",
    "bandstructure",
    "dos",
    "dos_energy_up",
    "dos_energy_down",
    "is_magnetic",
    "ordering",
    "total_magnetization_normalized_vol",
    "total_magnetization_normalized_formula_units",
    "num_magnetic_sites",
    "num_unique_magnetic_sites",
    "types_of_magnetic_species",
    "bulk_modulus",
    "shear_modulus",
    "universal_anisotropy",
    "homogeneous_poisson",
    "e_total",
    "e_ionic",
    "e_electronic",
    "n",
    "e_ij_max",
    "weighted_surface_energy_EV_PER_ANG2",
    "weighted_surface_energy",
    "weighted_work_function",
    "surface_anisotropy",
    "shape_factor",
    "has_reconstructed",
    "possible_species",
    "has_props",
    "theoretical",
    "database_IDs"
  ]
}
