{
  "builder_meta": null,
  "nsites": null,
  "elements": null,
  "nelements": null,
  "composition": null,
  "composition_reduced": null,
  "formula_pretty": "SmO2",
  "formula_anonymous": "AB2",
  "chemsys": null,
  "volume": 98.80726740094929,
  "density": 6.1293854086564235,
  "density_atomic": 16.467877900158214,
  "symmetry": null,
  "property_name": null,
  "material_id": "mp-1077235",
  "deprecated": null,
  "deprecation_reasons": null,
  "last_updated": null,
  "origins": null,
  "warnings": null,
  "structure": {
    "@module": "pymatgen.core.structure",
    "@class": "Structure",
    "charge": 0,
    "lattice": {
      "matrix": [
        [3.788861, 0.0, 0.0],
        [0.0, 4.26257, 0.0],
        [0.0, 1.567235999999999, 6.117989]
      ],
      "pbc": [true, true, true],
      "a": 3.788861,
      "b": 4.26257,
      "c": 6.315537830131096,
      "alpha": 75.63160384829834,
      "beta": 90.0,
      "gamma": 90.0,
      "volume": 98.80726740094929
    },
    "properties": {},
    "sites": [
      {
        "species": [{ "element": "Sm", "occu": 1 }],
        "abc": [0.25, 0.820349, 0.309664],
        "properties": { "magmom": -0.009000000000000001 },
        "label": "Sm",
        "xyz": [0.94721525, 3.9821116056339996, 1.894520945696]
      },
      {
        "species": [{ "element": "Sm", "occu": 1 }],
        "abc": [0.75, 0.179651, 0.690336],
        "properties": { "magmom": -0.009000000000000001 },
        "label": "Sm",
        "xyz": [2.8416457499999996, 1.8476943943659991, 4.223468054303999]
      },
      {
        "species": [{ "element": "O", "occu": 1 }],
        "abc": [0.25, 0.260733999999999, 0.461487999999999],
        "properties": { "magmom": 0.065 },
        "label": "O",
        "xyz": [0.94721525, 1.8346575335479938, 2.8233785076319937]
      },
      {
        "species": [{ "element": "O", "occu": 1 }],
        "abc": [0.75, 0.739266, 0.538512],
        "properties": { "magmom": 0.065 },
        "label": "O",
        "xyz": [2.8416457499999996, 3.995148466451999, 3.2946104923679997]
      },
      {
        "species": [{ "element": "O", "occu": 1 }],
        "abc": [0.75, 0.825857, 0.050296],
        "properties": { "magmom": 0.771 },
        "label": "O",
        "xyz": [2.8416457499999996, 3.599098974346, 0.307710374744]
      },
      {
        "species": [{ "element": "O", "occu": 1 }],
        "abc": [0.25, 0.174143, 0.949704],
        "properties": { "magmom": 0.771 },
        "label": "O",
        "xyz": [0.94721525, 2.230707025653999, 5.810278625255999]
      }
    ]
  },
  "task_ids": null,
  "uncorrected_energy_per_atom": null,
  "energy_per_atom": -7.933741891666666,
  "formation_energy_per_atom": -3.062239176666666,
  "energy_above_hull": 0.15605454604166502,
  "is_stable": false,
  "equilibrium_reaction_energy_per_atom": null,
  "decomposes_to": null,
  "xas": null,
  "grain_boundaries": null,
  "band_gap": 0.0,
  "cbm": null,
  "vbm": null,
  "efermi": 0.36841055,
  "is_gap_direct": null,
  "is_metal": null,
  "es_source_calc_id": null,
  "bandstructure": null,
  "dos": null,
  "dos_energy_up": null,
  "dos_energy_down": null,
  "is_magnetic": null,
  "ordering": null,
  "total_magnetization": 2.0005539,
  "total_magnetization_normalized_vol": null,
  "total_magnetization_normalized_formula_units": null,
  "num_magnetic_sites": null,
  "num_unique_magnetic_sites": null,
  "types_of_magnetic_species": null,
  "bulk_modulus": null,
  "shear_modulus": null,
  "universal_anisotropy": null,
  "homogeneous_poisson": null,
  "e_total": null,
  "e_ionic": null,
  "e_electronic": null,
  "n": null,
  "e_ij_max": null,
  "weighted_surface_energy_EV_PER_ANG2": null,
  "weighted_surface_energy": null,
  "weighted_work_function": null,
  "surface_anisotropy": null,
  "shape_factor": null,
  "has_reconstructed": null,
  "possible_species": null,
  "has_props": null,
  "theoretical": null,
  "database_IDs": null,
  "fields_not_requested": [
    "builder_meta",
    "nsites",
    "elements",
    "nelements",
    "composition",
    "composition_reduced",
    "chemsys",
    "symmetry",
    "property_name",
    "deprecated",
    "deprecation_reasons",
    "last_updated",
    "origins",
    "warnings",
    "task_ids",
    "uncorrected_energy_per_atom",
    "equilibrium_reaction_energy_per_atom",
    "decomposes_to",
    "xas",
    "grain_boundaries",
    "cbm",
    "vbm",
    "is_gap_direct",
    "is_metal",
    "es_source_calc_id",
    "bandstructure",
    "dos",
    "dos_energy_up",
    "dos_energy_down",
    "is_magnetic",
    "ordering",
    "total_magnetization_normalized_vol",
    "total_magnetization_normalized_formula_units",
    "num_magnetic_sites",
    "num_unique_magnetic_sites",
    "types_of_magnetic_species",
    "bulk_modulus",
    "shear_modulus",
    "universal_anisotropy",
    "homogeneous_poisson",
    "e_total",
    "e_ionic",
    "e_electronic",
    "n",
    "e_ij_max",
    "weighted_surface_energy_EV_PER_ANG2",
    "weighted_surface_energy",
    "weighted_work_function",
    "surface_anisotropy",
    "shape_factor",
    "has_reconstructed",
    "possible_species",
    "has_props",
    "theoretical",
    "database_IDs"
  ]
}
