{"builder_meta": null, "nsites": null, "elements": null, "nelements": null, "composition": null, "composition_reduced": null, "formula_pretty": "SmO3", "formula_anonymous": "AB3", "chemsys": null, "volume": 137.5450010755193, "density": 4.7894367327767675, "density_atomic": 17.193125134439914, "symmetry": null, "property_name": null, "material_id": "mp-1025421", "deprecated": null, "deprecation_reasons": null, "last_updated": null, "origins": null, "warnings": null, "structure": {"@module": "pymatgen.core.structure", "@class": "Structure", "charge": 0, "lattice": {"matrix": [[0.0, 0.0, -3.51995], [-3.358604, -5.817274, 0.0], [-3.358604, 5.817274, 0.0]], "pbc": [true, true, true], "a": 3.51995, "b": 6.717209064774745, "c": 6.717209064774745, "alpha": 120.00001048723176, "beta": 90.0, "gamma": 90.0, "volume": 137.5450010755193}, "properties": {}, "sites": [{"species": [{"element": "Sm", "occu": 1}], "abc": [0.25, 0.333333, 0.666667], "properties": {"magmom": 0.028}, "label": "Sm", "xyz": [-3.3586040000000006, 1.9390952115160003, -0.8799875]}, {"species": [{"element": "Sm", "occu": 1}], "abc": [0.75, 0.666667, 0.333333], "properties": {"magmom": 0.028}, "label": "Sm", "xyz": [-3.3586040000000006, -1.9390952115160003, -2.6399625]}, {"species": [{"element": "O", "occu": 1}], "abc": [0.25, 0.942221, 0.570404], "properties": {"magmom": -0.836}, "label": "O", "xyz": [-5.0803083755000005, -2.162961366858, -0.8799875]}, {"species": [{"element": "O", "occu": 1}], "abc": [0.75, 0.057779, 0.429596], "properties": {"magmom": -0.836}, "label": "O", "xyz": [-1.6368996245, 2.162961366858, -2.6399625]}, {"species": [{"element": "O", "occu": 1}], "abc": [0.25, 0.628182999999999, 0.057779], "properties": {"magmom": -0.836}, "label": "O", "xyz": [-2.303874717047997, -3.318196358695995, -0.8799875]}, {"species": [{"element": "O", "occu": 1}], "abc": [0.75, 0.371817, 0.942221], "properties": {"magmom": -0.836}, "label": "O", "xyz": [-4.413333282952, 3.3181963586960004, -2.6399625]}, {"species": [{"element": "O", "occu": 1}], "abc": [0.25, 0.429596, 0.371817], "properties": {"magmom": -0.836}, "label": "O", "xyz": [-2.6916289074520003, -0.3361162744459998, -0.8799875]}, {"species": [{"element": "O", "occu": 1}], "abc": [0.75, 0.570404, 0.628182999999999], "properties": {"magmom": -0.836}, "label": "O", "xyz": [-4.025579092547997, 0.33611627444599446, -2.6399625]}]}, "task_ids": null, "uncorrected_energy_per_atom": null, "energy_per_atom": -6.8766667575, "formation_energy_per_atom": -1.9860494700000002, "energy_above_hull": 0.42767082203125, "is_stable": false, "equilibrium_reaction_energy_per_atom": null, "decomposes_to": null, "xas": null, "grain_boundaries": null, "band_gap": 0.15380000000000002, "cbm": null, "vbm": null, "efermi": -0.725795099999999, "is_gap_direct": null, "is_metal": null, "es_source_calc_id": null, "bandstructure": null, "dos": null, "dos_energy_up": null, "dos_energy_down": null, "is_magnetic": null, "ordering": null, "total_magnetization": 6.001003, "total_magnetization_normalized_vol": null, "total_magnetization_normalized_formula_units": null, "num_magnetic_sites": null, "num_unique_magnetic_sites": null, "types_of_magnetic_species": null, "bulk_modulus": null, "shear_modulus": null, "universal_anisotropy": null, "homogeneous_poisson": null, "e_total": null, "e_ionic": null, "e_electronic": null, "n": null, "e_ij_max": null, "weighted_surface_energy_EV_PER_ANG2": null, "weighted_surface_energy": null, "weighted_work_function": null, "surface_anisotropy": null, "shape_factor": null, "has_reconstructed": null, "possible_species": null, "has_props": null, "theoretical": null, "database_IDs": null, "fields_not_requested": ["builder_meta", "nsites", "elements", "nelements", "composition", "composition_reduced", "chemsys", "symmetry", "property_name", "deprecated", "deprecation_reasons", "last_updated", "origins", "warnings", "task_ids", "uncorrected_energy_per_atom", "equilibrium_reaction_energy_per_atom", "decomposes_to", "xas", "grain_boundaries", "cbm", "vbm", "is_gap_direct", "is_metal", "es_source_calc_id", "bandstructure", "dos", "dos_energy_up", "dos_energy_down", "is_magnetic", "ordering", "total_magnetization_normalized_vol", "total_magnetization_normalized_formula_units", "num_magnetic_sites", "num_unique_magnetic_sites", "types_of_magnetic_species", "bulk_modulus", "shear_modulus", "universal_anisotropy", "homogeneous_poisson", "e_total", "e_ionic", "e_electronic", "n", "e_ij_max", "weighted_surface_energy_EV_PER_ANG2", "weighted_surface_energy", "weighted_work_function", "surface_anisotropy", "shape_factor", "has_reconstructed", "possible_species", "has_props", "theoretical", "database_IDs"]}