{"builder_meta": null, "nsites": null, "elements": null, "nelements": null, "composition": null, "composition_reduced": null, "formula_pretty": "SmOs2", "formula_anonymous": "AB2", "chemsys": null, "volume": 221.2721144540786, "density": 15.934178592857288, "density_atomic": 18.439342871173217, "symmetry": null, "property_name": null, "material_id": "mp-570007", "deprecated": null, "deprecation_reasons": null, "last_updated": null, "origins": null, "warnings": null, "structure": {"@module": "pymatgen.core.structure", "@class": "Structure", "charge": 0, "lattice": {"matrix": [[5.30927245, 0.0, -0.0], [-2.65463572, 4.59796487, -0.0], [0.0, 0.0, 9.0641279]], "pbc": [true, true, true], "a": 5.30927245, "b": 5.309272243128435, "c": 9.0641279, "alpha": 90.0, "beta": 90.0, "gamma": 119.99999499606108, "volume": 221.2721144540786}, "properties": {}, "sites": [{"species": [{"element": "Sm", "occu": 1}], "abc": [0.333333, 0.666667, 0.43509977], "properties": {"magmom": 0.0}, "label": "Sm", "xyz": [-2.3179693899866294e-06, 3.06531144598829, 3.9437999645405832]}, {"species": [{"element": "Sm", "occu": 1}], "abc": [0.666667, 0.333333, 0.56490023], "properties": {"magmom": 0.0}, "label": "Sm", "xyz": [2.6546390479693898, 1.53265342401171, 5.120327935459417]}, {"species": [{"element": "Sm", "occu": 1}], "abc": [0.666667, 0.333333, 0.93509977], "properties": {"magmom": 0.0}, "label": "Sm", "xyz": [2.6546390479693898, 1.53265342401171, 8.475863914540584]}, {"species": [{"element": "Sm", "occu": 1}], "abc": [0.333333, 0.666667, 0.06490023], "properties": {"magmom": 0.0}, "label": "Sm", "xyz": [-2.3179693899866294e-06, 3.06531144598829, 0.588263985459417]}, {"species": [{"element": "Os", "occu": 1}], "abc": [0.17006712000000002, 0.34013725, 0.75], "properties": {"magmom": -0.0}, "label": "Os", "xyz": [-7.818685725968777e-06, 1.5639391264784075, 6.798095925]}, {"species": [{"element": "Os", "occu": 1}], "abc": [0.17006712000000002, 0.82993288, 0.75], "properties": {"magmom": -0.0}, "label": "Os", "xyz": [-1.3002367935836294, 3.816002226697926, 6.798095925]}, {"species": [{"element": "Os", "occu": 1}], "abc": [0.34013725, 0.17006712000000002, 0.25], "properties": {"magmom": -0.0}, "label": "Os", "xyz": [1.354415079094236, 0.7819626433020745, 2.266031975]}, {"species": [{"element": "Os", "occu": 1}], "abc": [0.82993288, 0.65986275, 0.25], "properties": {"magmom": -0.0}, "label": "Os", "xyz": [2.6546445486857255, 3.034025743521593, 2.266031975]}, {"species": [{"element": "Os", "occu": 1}], "abc": [0.65986275, 0.82993288, 0.75], "properties": {"magmom": -0.0}, "label": "Os", "xyz": [1.3002216509057645, 3.816002226697926, 6.798095925]}, {"species": [{"element": "Os", "occu": 1}], "abc": [0.0, 0.0, 0.0], "properties": {"magmom": -0.0}, "label": "Os", "xyz": [0.0, 0.0, 0.0]}, {"species": [{"element": "Os", "occu": 1}], "abc": [0.82993288, 0.17006712000000002, 0.25], "properties": {"magmom": -0.0}, "label": "Os", "xyz": [3.9548735235836294, 0.7819626433020745, 2.266031975]}, {"species": [{"element": "Os", "occu": 1}], "abc": [0.0, 0.0, 0.5], "properties": {"magmom": -0.0}, "label": "Os", "xyz": [0.0, 0.0, 4.53206395]}]}, "task_ids": null, "uncorrected_energy_per_atom": null, "energy_per_atom": -45.48858404916667, "formation_energy_per_atom": -0.25412337583334, "energy_above_hull": 0.0, "is_stable": true, "equilibrium_reaction_energy_per_atom": null, "decomposes_to": null, "xas": null, "grain_boundaries": null, "band_gap": 0.0, "cbm": null, "vbm": null, "efermi": 6.01808938, "is_gap_direct": null, "is_metal": null, "es_source_calc_id": null, "bandstructure": null, "dos": null, "dos_energy_up": null, "dos_energy_down": null, "is_magnetic": null, "ordering": null, "total_magnetization": 8.8e-06, "total_magnetization_normalized_vol": null, "total_magnetization_normalized_formula_units": null, "num_magnetic_sites": null, "num_unique_magnetic_sites": null, "types_of_magnetic_species": null, "bulk_modulus": null, "shear_modulus": null, "universal_anisotropy": null, "homogeneous_poisson": null, "e_total": null, "e_ionic": null, "e_electronic": null, "n": null, "e_ij_max": null, "weighted_surface_energy_EV_PER_ANG2": null, "weighted_surface_energy": null, "weighted_work_function": null, "surface_anisotropy": null, "shape_factor": null, "has_reconstructed": null, "possible_species": null, "has_props": null, "theoretical": null, "database_IDs": null, "fields_not_requested": ["builder_meta", "nsites", "elements", "nelements", "composition", "composition_reduced", "chemsys", "symmetry", "property_name", "deprecated", "deprecation_reasons", "last_updated", "origins", "warnings", "task_ids", "uncorrected_energy_per_atom", "equilibrium_reaction_energy_per_atom", "decomposes_to", "xas", "grain_boundaries", "cbm", "vbm", "is_gap_direct", "is_metal", "es_source_calc_id", "bandstructure", "dos", "dos_energy_up", "dos_energy_down", "is_magnetic", "ordering", "total_magnetization_normalized_vol", "total_magnetization_normalized_formula_units", "num_magnetic_sites", "num_unique_magnetic_sites", "types_of_magnetic_species", "bulk_modulus", "shear_modulus", "universal_anisotropy", "homogeneous_poisson", "e_total", "e_ionic", "e_electronic", "n", "e_ij_max", "weighted_surface_energy_EV_PER_ANG2", "weighted_surface_energy", "weighted_work_function", "surface_anisotropy", "shape_factor", "has_reconstructed", "possible_species", "has_props", "theoretical", "database_IDs"]}