{"builder_meta": null, "nsites": null, "elements": null, "nelements": null, "composition": null, "composition_reduced": null, "formula_pretty": "SmP5", "formula_anonymous": "AB5", "chemsys": null, "volume": 252.67004153333383, "density": 4.011907072014017, "density_atomic": 21.055836794444485, "symmetry": null, "property_name": null, "material_id": "mp-9849", "deprecated": null, "deprecation_reasons": null, "last_updated": null, "origins": null, "warnings": null, "structure": {"@module": "pymatgen.core.structure", "@class": "Structure", "charge": 0, "lattice": {"matrix": [[5.01931234, 0.03928171, 0.0], [-1.1869879, 5.28740724, 0.0], [0.0, 0.0, 9.5039561]], "pbc": [true, true, true], "a": 5.019466049214477, "b": 5.419005037490815, "c": 9.5039561, "alpha": 90.0, "beta": 90.0, "gamma": 102.20435762479414, "volume": 252.67004153333383}, "properties": {}, "sites": [{"species": [{"element": "Sm", "occu": 1}], "abc": [0.0069311400000000006, 0.349014799999999, 0.25], "properties": {"magmom": -0.0}, "label": "Sm", "xyz": [-0.37948678798865126, 1.8456556474185963, 2.375989025]}, {"species": [{"element": "Sm", "occu": 1}], "abc": [0.99306886, 0.650985199999999, 0.75], "properties": {"magmom": -0.0}, "label": "Sm", "xyz": [4.211811227988654, 3.4810333025813938, 7.127967075]}, {"species": [{"element": "P", "occu": 1}], "abc": [0.28866216, 0.89967955, 0.25], "properties": {"magmom": 0.0}, "label": "P", "xyz": [0.38097680205160933, 4.768311309607036, 2.375989025]}, {"species": [{"element": "P", "occu": 1}], "abc": [0.71133784, 0.10032045, 0.75], "properties": {"magmom": 0.0}, "label": "P", "xyz": [3.4513476379483907, 0.5583776403929644, 7.127967075]}, {"species": [{"element": "P", "occu": 1}], "abc": [0.61410262, 0.95297843, 0.40919361], "properties": {"magmom": 0.0}, "label": "P", "xyz": [1.9511989932213338, 5.062908051374914, 3.888958105840521]}, {"species": [{"element": "P", "occu": 1}], "abc": [0.38589738, 0.04702157, 0.90919361], "properties": {"magmom": 0.0}, "label": "P", "xyz": [1.8811254467786662, 0.2637808986250866, 8.64093615584052]}, {"species": [{"element": "P", "occu": 1}], "abc": [0.38589738, 0.04702157, 0.59080639], "properties": {"magmom": 0.0}, "label": "P", "xyz": [1.8811254467786662, 0.2637808986250866, 5.614997994159479]}, {"species": [{"element": "P", "occu": 1}], "abc": [0.61410262, 0.95297843, 0.09080639], "properties": {"magmom": 0.0}, "label": "P", "xyz": [1.9511989932213338, 5.062908051374914, 0.863019944159479]}, {"species": [{"element": "P", "occu": 1}], "abc": [0.7073907700000001, 0.5981829200000001, 0.46997516], "properties": {"magmom": -0.0}, "label": "P", "xyz": [2.840579333036434, 3.190624221136158, 4.466623288730476]}, {"species": [{"element": "P", "occu": 1}], "abc": [0.29260923, 0.40181708, 0.9699751600000001], "properties": {"magmom": -0.0}, "label": "P", "xyz": [0.9917451069635662, 2.1360647288638424, 9.218601338730476]}, {"species": [{"element": "P", "occu": 1}], "abc": [0.29260923, 0.40181708, 0.53002484], "properties": {"magmom": -0.0}, "label": "P", "xyz": [0.9917451069635662, 2.1360647288638424, 5.037332811269525]}, {"species": [{"element": "P", "occu": 1}], "abc": [0.7073907700000001, 0.5981829200000001, 0.03002484], "properties": {"magmom": -0.0}, "label": "P", "xyz": [2.840579333036434, 3.190624221136158, 0.285354761269524]}]}, "task_ids": null, "uncorrected_energy_per_atom": null, "energy_per_atom": -13.102422322499999, "formation_energy_per_atom": -0.6452046758134901, "energy_above_hull": 0.0, "is_stable": true, "equilibrium_reaction_energy_per_atom": null, "decomposes_to": null, "xas": null, "grain_boundaries": null, "band_gap": 0.009399999999999001, "cbm": null, "vbm": null, "efermi": 5.33805015, "is_gap_direct": null, "is_metal": null, "es_source_calc_id": null, "bandstructure": null, "dos": null, "dos_energy_up": null, "dos_energy_down": null, "is_magnetic": null, "ordering": null, "total_magnetization": 0.0, "total_magnetization_normalized_vol": null, "total_magnetization_normalized_formula_units": null, "num_magnetic_sites": null, "num_unique_magnetic_sites": null, "types_of_magnetic_species": null, "bulk_modulus": null, "shear_modulus": null, "universal_anisotropy": null, "homogeneous_poisson": null, "e_total": null, "e_ionic": null, "e_electronic": null, "n": null, "e_ij_max": null, "weighted_surface_energy_EV_PER_ANG2": null, "weighted_surface_energy": null, "weighted_work_function": null, "surface_anisotropy": null, "shape_factor": null, "has_reconstructed": null, "possible_species": null, "has_props": null, "theoretical": null, "database_IDs": null, "fields_not_requested": ["builder_meta", "nsites", "elements", "nelements", "composition", "composition_reduced", "chemsys", "symmetry", "property_name", "deprecated", "deprecation_reasons", "last_updated", "origins", "warnings", "task_ids", "uncorrected_energy_per_atom", "equilibrium_reaction_energy_per_atom", "decomposes_to", "xas", "grain_boundaries", "cbm", "vbm", "is_gap_direct", "is_metal", "es_source_calc_id", "bandstructure", "dos", "dos_energy_up", "dos_energy_down", "is_magnetic", "ordering", "total_magnetization_normalized_vol", "total_magnetization_normalized_formula_units", "num_magnetic_sites", "num_unique_magnetic_sites", "types_of_magnetic_species", "bulk_modulus", "shear_modulus", "universal_anisotropy", "homogeneous_poisson", "e_total", "e_ionic", "e_electronic", "n", "e_ij_max", "weighted_surface_energy_EV_PER_ANG2", "weighted_surface_energy", "weighted_work_function", "surface_anisotropy", "shape_factor", "has_reconstructed", "possible_species", "has_props", "theoretical", "database_IDs"]}