{"builder_meta": null, "nsites": null, "elements": null, "nelements": null, "composition": null, "composition_reduced": null, "formula_pretty": "SmPb3", "formula_anonymous": "AB3", "chemsys": null, "volume": 116.5572745922803, "density": 10.997766911902685, "density_atomic": 29.139318648070073, "symmetry": null, "property_name": null, "material_id": "mp-867238", "deprecated": null, "deprecation_reasons": null, "last_updated": null, "origins": null, "warnings": null, "structure": {"@module": "pymatgen.core.structure", "@class": "Structure", "charge": 0, "lattice": {"matrix": [[4.88663977, 0.0042020600000000005, 0.00260944], [0.00422182, 4.88147679, 0.00042655], [0.00263878, 0.00040633, 4.8862792299999995]], "pbc": [true, true, true], "a": 4.8866422734052275, "b": 4.881478634288766, "c": 4.8862799594162984, "alpha": 89.99020209750356, "beta": 89.9384583464765, "gamma": 89.90117514086165, "volume": 116.55727459228027}, "properties": {}, "sites": [{"species": [{"element": "Sm", "occu": 1}], "abc": [0.99988527, 7.878e-05, 3.8020000000000005e-05], "properties": {"magmom": 0.0}, "label": "Sm", "xyz": [4.886079558740584, 0.004586156087839001, 0.0027949505588824005]}, {"species": [{"element": "Pb", "occu": 1}], "abc": [0.00015753, 0.50018741, 0.49971799], "properties": {"magmom": 0.0}, "label": "Pb", "xyz": [0.0042001394119065005, 2.4418569449266023, 2.441975401399166]}, {"species": [{"element": "Pb", "occu": 1}], "abc": [0.50004581, 0.99988393, 0.50010649], "properties": {"magmom": -0.0}, "label": "Pb", "xyz": [2.4490847429448985, 4.883214627755435, 2.44539129490399]}, {"species": [{"element": "Pb", "occu": 1}], "abc": [0.49991339999999906, 0.49985488, 0.0001405], "properties": {"magmom": 0.0}, "label": "Pb", "xyz": [2.445007370073985, 2.442130718279204, 0.0022042293533749975]}]}, "task_ids": null, "uncorrected_energy_per_atom": null, "energy_per_atom": -50.083560365, "formation_energy_per_atom": -0.43647870249999704, "energy_above_hull": 0.0, "is_stable": true, "equilibrium_reaction_energy_per_atom": null, "decomposes_to": null, "xas": null, "grain_boundaries": null, "band_gap": 0.0, "cbm": null, "vbm": null, "efermi": 6.54164828, "is_gap_direct": null, "is_metal": null, "es_source_calc_id": null, "bandstructure": null, "dos": null, "dos_energy_up": null, "dos_energy_down": null, "is_magnetic": null, "ordering": null, "total_magnetization": 1e-06, "total_magnetization_normalized_vol": null, "total_magnetization_normalized_formula_units": null, "num_magnetic_sites": null, "num_unique_magnetic_sites": null, "types_of_magnetic_species": null, "bulk_modulus": null, "shear_modulus": null, "universal_anisotropy": null, "homogeneous_poisson": null, "e_total": null, "e_ionic": null, "e_electronic": null, "n": null, "e_ij_max": null, "weighted_surface_energy_EV_PER_ANG2": null, "weighted_surface_energy": null, "weighted_work_function": null, "surface_anisotropy": null, "shape_factor": null, "has_reconstructed": null, "possible_species": null, "has_props": null, "theoretical": null, "database_IDs": null, "fields_not_requested": ["builder_meta", "nsites", "elements", "nelements", "composition", "composition_reduced", "chemsys", "symmetry", "property_name", "deprecated", "deprecation_reasons", "last_updated", "origins", "warnings", "task_ids", "uncorrected_energy_per_atom", "equilibrium_reaction_energy_per_atom", "decomposes_to", "xas", "grain_boundaries", "cbm", "vbm", "is_gap_direct", "is_metal", "es_source_calc_id", "bandstructure", "dos", "dos_energy_up", "dos_energy_down", "is_magnetic", "ordering", "total_magnetization_normalized_vol", "total_magnetization_normalized_formula_units", "num_magnetic_sites", "num_unique_magnetic_sites", "types_of_magnetic_species", "bulk_modulus", "shear_modulus", "universal_anisotropy", "homogeneous_poisson", "e_total", "e_ionic", "e_electronic", "n", "e_ij_max", "weighted_surface_energy_EV_PER_ANG2", "weighted_surface_energy", "weighted_work_function", "surface_anisotropy", "shape_factor", "has_reconstructed", "possible_species", "has_props", "theoretical", "database_IDs"]}