{
  "builder_meta": null,
  "nsites": null,
  "elements": null,
  "nelements": null,
  "composition": null,
  "composition_reduced": null,
  "formula_pretty": "SmPd",
  "formula_anonymous": "AB",
  "chemsys": null,
  "volume": 93.73888486793108,
  "density": 9.097467334336105,
  "density_atomic": 23.43472121698277,
  "symmetry": null,
  "property_name": null,
  "material_id": "mp-31380",
  "deprecated": null,
  "deprecation_reasons": null,
  "last_updated": null,
  "origins": null,
  "warnings": null,
  "structure": {
    "@module": "pymatgen.core.structure",
    "@class": "Structure",
    "charge": 0,
    "lattice": {
      "matrix": [
        [3.58512038, -0.0, -1.26910014],
        [-0.0, 4.61000701, -0.0],
        [-0.00839863, -0.0, 5.67468875]
      ],
      "pbc": [true, true, true],
      "a": 3.803117576993823,
      "b": 4.61000701,
      "c": 5.674694965049878,
      "alpha": 90.0,
      "beta": 109.57830047958518,
      "gamma": 90.0,
      "volume": 93.73888486793108
    },
    "properties": {},
    "sites": [
      {
        "species": [{ "element": "Sm", "occu": 1 }],
        "abc": [0.13667499, 0.75, 0.27335097],
        "properties": { "magmom": -0.0 },
        "label": "Sm",
        "xyz": [0.4877005184281251, 3.4575052575000003, 1.3777274253170888]
      },
      {
        "species": [{ "element": "Sm", "occu": 1 }],
        "abc": [0.8633250100000001, 0.25, 0.72664903],
        "properties": { "magmom": -0.0 },
        "label": "Sm",
        "xyz": [3.0890212315718752, 1.1525017525, 3.0278611846829104]
      },
      {
        "species": [{ "element": "Pd", "occu": 1 }],
        "abc": [0.414331399999999, 0.75, 0.82866279],
        "properties": { "magmom": 0.0 },
        "label": "Pd",
        "xyz": [1.478468314045951, 3.4575052575000003, 4.176575374210217]
      },
      {
        "species": [{ "element": "Pd", "occu": 1 }],
        "abc": [0.5856686, 0.25, 0.17133721],
        "properties": { "magmom": 0.0 },
        "label": "Pd",
        "xyz": [2.098253435954046, 1.1525017525, 0.2290132357897834]
      }
    ]
  },
  "task_ids": null,
  "uncorrected_energy_per_atom": null,
  "energy_per_atom": -27.2310453325,
  "formation_energy_per_atom": -0.8843563675,
  "energy_above_hull": 0.0,
  "is_stable": true,
  "equilibrium_reaction_energy_per_atom": null,
  "decomposes_to": null,
  "xas": null,
  "grain_boundaries": null,
  "band_gap": 0.0,
  "cbm": null,
  "vbm": null,
  "efermi": 3.98740853,
  "is_gap_direct": null,
  "is_metal": null,
  "es_source_calc_id": null,
  "bandstructure": null,
  "dos": null,
  "dos_energy_up": null,
  "dos_energy_down": null,
  "is_magnetic": null,
  "ordering": null,
  "total_magnetization": 5e-7,
  "total_magnetization_normalized_vol": null,
  "total_magnetization_normalized_formula_units": null,
  "num_magnetic_sites": null,
  "num_unique_magnetic_sites": null,
  "types_of_magnetic_species": null,
  "bulk_modulus": null,
  "shear_modulus": null,
  "universal_anisotropy": null,
  "homogeneous_poisson": null,
  "e_total": null,
  "e_ionic": null,
  "e_electronic": null,
  "n": null,
  "e_ij_max": null,
  "weighted_surface_energy_EV_PER_ANG2": null,
  "weighted_surface_energy": null,
  "weighted_work_function": null,
  "surface_anisotropy": null,
  "shape_factor": null,
  "has_reconstructed": null,
  "possible_species": null,
  "has_props": null,
  "theoretical": null,
  "database_IDs": null,
  "fields_not_requested": [
    "builder_meta",
    "nsites",
    "elements",
    "nelements",
    "composition",
    "composition_reduced",
    "chemsys",
    "symmetry",
    "property_name",
    "deprecated",
    "deprecation_reasons",
    "last_updated",
    "origins",
    "warnings",
    "task_ids",
    "uncorrected_energy_per_atom",
    "equilibrium_reaction_energy_per_atom",
    "decomposes_to",
    "xas",
    "grain_boundaries",
    "cbm",
    "vbm",
    "is_gap_direct",
    "is_metal",
    "es_source_calc_id",
    "bandstructure",
    "dos",
    "dos_energy_up",
    "dos_energy_down",
    "is_magnetic",
    "ordering",
    "total_magnetization_normalized_vol",
    "total_magnetization_normalized_formula_units",
    "num_magnetic_sites",
    "num_unique_magnetic_sites",
    "types_of_magnetic_species",
    "bulk_modulus",
    "shear_modulus",
    "universal_anisotropy",
    "homogeneous_poisson",
    "e_total",
    "e_ionic",
    "e_electronic",
    "n",
    "e_ij_max",
    "weighted_surface_energy_EV_PER_ANG2",
    "weighted_surface_energy",
    "weighted_work_function",
    "surface_anisotropy",
    "shape_factor",
    "has_reconstructed",
    "possible_species",
    "has_props",
    "theoretical",
    "database_IDs"
  ]
}
