{
  "builder_meta": null,
  "nsites": null,
  "elements": null,
  "nelements": null,
  "composition": null,
  "composition_reduced": null,
  "formula_pretty": "SmPt",
  "formula_anonymous": "AB",
  "chemsys": null,
  "volume": 185.89072638882305,
  "density": 12.34323558718549,
  "density_atomic": 23.236340798602882,
  "symmetry": null,
  "property_name": null,
  "material_id": "mp-1025431",
  "deprecated": null,
  "deprecation_reasons": null,
  "last_updated": null,
  "origins": null,
  "warnings": null,
  "structure": {
    "@module": "pymatgen.core.structure",
    "@class": "Structure",
    "charge": 0,
    "lattice": {
      "matrix": [
        [0.0, -4.54495118, -0.0],
        [-7.24419316, 0.0, 0.0],
        [0.0, -0.0, -5.64596888]
      ],
      "pbc": [true, true, true],
      "a": 4.54495118,
      "b": 7.24419316,
      "c": 5.64596888,
      "alpha": 90.0,
      "beta": 90.0,
      "gamma": 90.0,
      "volume": 185.89072638882305
    },
    "properties": {},
    "sites": [
      {
        "species": [{ "element": "Sm", "occu": 1 }],
        "abc": [0.75, 0.81742362, 0.36139407],
        "properties": { "magmom": 0.0 },
        "label": "Sm",
        "xyz": [-5.9215745968264395, -3.408713385, -2.0404196726365416]
      },
      {
        "species": [{ "element": "Sm", "occu": 1 }],
        "abc": [0.25, 0.18257638, 0.63860593],
        "properties": { "magmom": 0.0 },
        "label": "Sm",
        "xyz": [-1.322618563173561, -1.136237795, -3.6055492073634583]
      },
      {
        "species": [{ "element": "Sm", "occu": 1 }],
        "abc": [0.25, 0.68257638, 0.86139407],
        "properties": { "magmom": 0.0 },
        "label": "Sm",
        "xyz": [-4.9447151431735605, -1.136237795, -4.863404112636542]
      },
      {
        "species": [{ "element": "Sm", "occu": 1 }],
        "abc": [0.75, 0.31742362, 0.13860593000000002],
        "properties": { "magmom": 0.0 },
        "label": "Sm",
        "xyz": [-2.2994780168264395, -3.408713385, -0.7825647673634585]
      },
      {
        "species": [{ "element": "Pt", "occu": 1 }],
        "abc": [0.75, 0.9559597200000001, 0.84687815],
        "properties": { "magmom": -0.0 },
        "label": "Pt",
        "xyz": [-6.925156864859516, -3.408713385, -4.781447680051972]
      },
      {
        "species": [{ "element": "Pt", "occu": 1 }],
        "abc": [0.25, 0.04404028, 0.15312185],
        "properties": { "magmom": -0.0 },
        "label": "Pt",
        "xyz": [-0.3190362951404848, -1.136237795, -0.864521199948028]
      },
      {
        "species": [{ "element": "Pt", "occu": 1 }],
        "abc": [0.25, 0.54404028, 0.34687815],
        "properties": { "magmom": -0.0 },
        "label": "Pt",
        "xyz": [-3.941132875140485, -1.136237795, -1.958463240051972]
      },
      {
        "species": [{ "element": "Pt", "occu": 1 }],
        "abc": [0.75, 0.45595972, 0.65312185],
        "properties": { "magmom": -0.0 },
        "label": "Pt",
        "xyz": [-3.3030602848595154, -3.408713385, -3.6875056399480277]
      }
    ]
  },
  "task_ids": null,
  "uncorrected_energy_per_atom": null,
  "energy_per_atom": -6.587741139999998,
  "formation_energy_per_atom": -1.192881412499998,
  "energy_above_hull": 0.0,
  "is_stable": true,
  "equilibrium_reaction_energy_per_atom": null,
  "decomposes_to": null,
  "xas": null,
  "grain_boundaries": null,
  "band_gap": 0.0,
  "cbm": null,
  "vbm": null,
  "efermi": 4.8319025700000005,
  "is_gap_direct": null,
  "is_metal": null,
  "es_source_calc_id": null,
  "bandstructure": null,
  "dos": null,
  "dos_energy_up": null,
  "dos_energy_down": null,
  "is_magnetic": null,
  "ordering": null,
  "total_magnetization": 0.0,
  "total_magnetization_normalized_vol": null,
  "total_magnetization_normalized_formula_units": null,
  "num_magnetic_sites": null,
  "num_unique_magnetic_sites": null,
  "types_of_magnetic_species": null,
  "bulk_modulus": null,
  "shear_modulus": null,
  "universal_anisotropy": null,
  "homogeneous_poisson": null,
  "e_total": null,
  "e_ionic": null,
  "e_electronic": null,
  "n": null,
  "e_ij_max": null,
  "weighted_surface_energy_EV_PER_ANG2": null,
  "weighted_surface_energy": null,
  "weighted_work_function": null,
  "surface_anisotropy": null,
  "shape_factor": null,
  "has_reconstructed": null,
  "possible_species": null,
  "has_props": null,
  "theoretical": null,
  "database_IDs": null,
  "fields_not_requested": [
    "builder_meta",
    "nsites",
    "elements",
    "nelements",
    "composition",
    "composition_reduced",
    "chemsys",
    "symmetry",
    "property_name",
    "deprecated",
    "deprecation_reasons",
    "last_updated",
    "origins",
    "warnings",
    "task_ids",
    "uncorrected_energy_per_atom",
    "equilibrium_reaction_energy_per_atom",
    "decomposes_to",
    "xas",
    "grain_boundaries",
    "cbm",
    "vbm",
    "is_gap_direct",
    "is_metal",
    "es_source_calc_id",
    "bandstructure",
    "dos",
    "dos_energy_up",
    "dos_energy_down",
    "is_magnetic",
    "ordering",
    "total_magnetization_normalized_vol",
    "total_magnetization_normalized_formula_units",
    "num_magnetic_sites",
    "num_unique_magnetic_sites",
    "types_of_magnetic_species",
    "bulk_modulus",
    "shear_modulus",
    "universal_anisotropy",
    "homogeneous_poisson",
    "e_total",
    "e_ionic",
    "e_electronic",
    "n",
    "e_ij_max",
    "weighted_surface_energy_EV_PER_ANG2",
    "weighted_surface_energy",
    "weighted_work_function",
    "surface_anisotropy",
    "shape_factor",
    "has_reconstructed",
    "possible_species",
    "has_props",
    "theoretical",
    "database_IDs"
  ]
}
