{"builder_meta": null, "nsites": null, "elements": null, "nelements": null, "composition": null, "composition_reduced": null, "formula_pretty": "SmRe2", "formula_anonymous": "AB2", "chemsys": null, "volume": 229.86022173783553, "density": 15.106339730113628, "density_atomic": 19.15501847815296, "symmetry": null, "property_name": null, "material_id": "mp-1102035", "deprecated": null, "deprecation_reasons": null, "last_updated": null, "origins": null, "warnings": null, "structure": {"@module": "pymatgen.core.structure", "@class": "Structure", "charge": 0, "lattice": {"matrix": [[-2.72657826, -4.72255446, -0.0], [-2.72657826, 4.72255446, 0.0], [0.0, 0.0, -8.92563007]], "pbc": [true, true, true], "a": 5.453141263122616, "b": 5.453141263122616, "c": 8.92563007, "alpha": 90.0, "beta": 90.0, "gamma": 119.99981489800012, "volume": 229.86022173783553}, "properties": {}, "sites": [{"species": [{"element": "Sm", "occu": 1}], "abc": [0.66666361, 0.33333639, 0.56228186], "properties": {"magmom": 0.0}, "label": "Sm", "xyz": [-2.72657826, -1.5741559494504007, -5.018719877431531]}, {"species": [{"element": "Sm", "occu": 1}], "abc": [0.33333639, 0.66666361, 0.43771814000000003], "properties": {"magmom": 0.0}, "label": "Sm", "xyz": [-2.72657826, 1.5741559494504007, -3.9069101925684704]}, {"species": [{"element": "Sm", "occu": 1}], "abc": [0.33333639, 0.66666361, 0.06228186], "properties": {"magmom": 0.0}, "label": "Sm", "xyz": [-2.72657826, 1.5741559494504007, -0.5559048424315303]}, {"species": [{"element": "Sm", "occu": 1}], "abc": [0.66666361, 0.33333639, 0.93771814], "properties": {"magmom": 0.0}, "label": "Sm", "xyz": [-2.72657826, -1.5741559494504007, -8.36972522756847]}, {"species": [{"element": "Re", "occu": 1}], "abc": [-0.0, -0.0, 0.5], "properties": {"magmom": -0.0}, "label": "Re", "xyz": [0.0, 0.0, -4.462815035]}, {"species": [{"element": "Re", "occu": 1}], "abc": [-0.0, -0.0, 0.0], "properties": {"magmom": -0.0}, "label": "Re", "xyz": [0.0, 0.0, 0.0]}, {"species": [{"element": "Re", "occu": 1}], "abc": [0.17013435, 0.34028261, 0.75], "properties": {"magmom": 0.0}, "label": "Re", "xyz": [-1.3916917866712897, 0.8035344241242396, -6.6942225525]}, {"species": [{"element": "Re", "occu": 1}], "abc": [0.17013074, 0.82987026, 0.75], "properties": {"magmom": 0.0}, "label": "Re", "xyz": [-2.72658098657826, 3.115655812614259, -6.6942225525]}, {"species": [{"element": "Re", "occu": 1}], "abc": [0.65971739, 0.82986565, 0.75], "properties": {"magmom": 0.0}, "label": "Re", "xyz": [-4.061464733328711, 0.8035344241242397, -6.6942225525]}, {"species": [{"element": "Re", "occu": 1}], "abc": [0.82986565, 0.65971739, 0.25], "properties": {"magmom": 0.0}, "label": "Re", "xyz": [-4.061464733328711, -0.8035344241242397, -2.2314075175]}, {"species": [{"element": "Re", "occu": 1}], "abc": [0.82986926, 0.17012974, 0.25], "properties": {"magmom": 0.0}, "label": "Re", "xyz": [-2.72657553342174, -3.1156558126142593, -2.2314075175]}, {"species": [{"element": "Re", "occu": 1}], "abc": [0.34028261, 0.17013435, 0.25], "properties": {"magmom": 0.0}, "label": "Re", "xyz": [-1.3916917866712897, -0.8035344241242396, -2.2314075175]}]}, "task_ids": null, "uncorrected_energy_per_atom": null, "energy_per_atom": -44.96471324416667, "formation_energy_per_atom": -0.113328665833336, "energy_above_hull": 0.0, "is_stable": true, "equilibrium_reaction_energy_per_atom": null, "decomposes_to": null, "xas": null, "grain_boundaries": null, "band_gap": 0.0, "cbm": null, "vbm": null, "efermi": 5.47776115, "is_gap_direct": null, "is_metal": null, "es_source_calc_id": null, "bandstructure": null, "dos": null, "dos_energy_up": null, "dos_energy_down": null, "is_magnetic": null, "ordering": null, "total_magnetization": 2.8e-06, "total_magnetization_normalized_vol": null, "total_magnetization_normalized_formula_units": null, "num_magnetic_sites": null, "num_unique_magnetic_sites": null, "types_of_magnetic_species": null, "bulk_modulus": null, "shear_modulus": null, "universal_anisotropy": null, "homogeneous_poisson": null, "e_total": null, "e_ionic": null, "e_electronic": null, "n": null, "e_ij_max": null, "weighted_surface_energy_EV_PER_ANG2": null, "weighted_surface_energy": null, "weighted_work_function": null, "surface_anisotropy": null, "shape_factor": null, "has_reconstructed": null, "possible_species": null, "has_props": null, "theoretical": null, "database_IDs": null, "fields_not_requested": ["builder_meta", "nsites", "elements", "nelements", "composition", "composition_reduced", "chemsys", "symmetry", "property_name", "deprecated", "deprecation_reasons", "last_updated", "origins", "warnings", "task_ids", "uncorrected_energy_per_atom", "equilibrium_reaction_energy_per_atom", "decomposes_to", "xas", "grain_boundaries", "cbm", "vbm", "is_gap_direct", "is_metal", "es_source_calc_id", "bandstructure", "dos", "dos_energy_up", "dos_energy_down", "is_magnetic", "ordering", "total_magnetization_normalized_vol", "total_magnetization_normalized_formula_units", "num_magnetic_sites", "num_unique_magnetic_sites", "types_of_magnetic_species", "bulk_modulus", "shear_modulus", "universal_anisotropy", "homogeneous_poisson", "e_total", "e_ionic", "e_electronic", "n", "e_ij_max", "weighted_surface_energy_EV_PER_ANG2", "weighted_surface_energy", "weighted_work_function", "surface_anisotropy", "shape_factor", "has_reconstructed", "possible_species", "has_props", "theoretical", "database_IDs"]}