{"builder_meta": null, "nsites": null, "elements": null, "nelements": null, "composition": null, "composition_reduced": null, "formula_pretty": "SmRh3", "formula_anonymous": "AB3", "chemsys": null, "volume": 420.02761022653334, "density": 10.88949075128927, "density_atomic": 17.501150426105557, "symmetry": null, "property_name": null, "material_id": "mp-1191108", "deprecated": null, "deprecation_reasons": null, "last_updated": null, "origins": null, "warnings": null, "structure": {"@module": "pymatgen.core.structure", "@class": "Structure", "charge": 0, "lattice": {"matrix": [[-2.63298627, -4.56043147, 0.0], [-2.63298627, 4.56043147, -0.0], [0.0, -0.0, -17.49014119]], "pbc": [true, true, true], "a": 5.265942640266306, "b": 5.265942640266306, "c": 17.49014119, "alpha": 90.0, "beta": 90.0, "gamma": 119.99962434981444, "volume": 420.02761022653334}, "properties": {}, "sites": [{"species": [{"element": "Sm", "occu": 1}], "abc": [0.666668399999999, 0.3333316, 0.04202923], "properties": {"magmom": 0.0}, "label": "Sm", "xyz": [-2.6329862699999973, -1.5201596328290916, -0.7350971668069837]}, {"species": [{"element": "Sm", "occu": 1}], "abc": [0.3333316, 0.666668399999999, 0.95797077], "properties": {"magmom": 0.0}, "label": "Sm", "xyz": [-2.6329862699999973, 1.5201596328290916, -16.755044023193015]}, {"species": [{"element": "Sm", "occu": 1}], "abc": [0.3333316, 0.666668399999999, 0.54202923], "properties": {"magmom": 0.0}, "label": "Sm", "xyz": [-2.6329862699999973, 1.5201596328290916, -9.480167761806984]}, {"species": [{"element": "Sm", "occu": 1}], "abc": [0.666668399999999, 0.3333316, 0.45797077], "properties": {"magmom": 0.0}, "label": "Sm", "xyz": [-2.6329862699999973, -1.5201596328290916, -8.009973428193016]}, {"species": [{"element": "Sm", "occu": 1}], "abc": [0.6666763800000001, 0.33332362, 0.25], "properties": {"magmom": 0.0}, "label": "Sm", "xyz": [-2.63298627, -1.5202324173153579, -4.3725352975]}, {"species": [{"element": "Sm", "occu": 1}], "abc": [0.33332362, 0.6666763800000001, 0.75], "properties": {"magmom": 0.0}, "label": "Sm", "xyz": [-2.63298627, 1.5202324173153579, -13.117605892499999]}, {"species": [{"element": "Rh", "occu": 1}], "abc": [0.83316269, 0.6663341500000001, 0.62737642], "properties": {"magmom": -0.0}, "label": "Rh", "xyz": [-3.948154591628387, -0.7608101239101535, -10.97290216507674]}, {"species": [{"element": "Rh", "occu": 1}], "abc": [0.8331630600000001, 0.16683694000000002, 0.62737255], "properties": {"magmom": 0.0}, "label": "Rh", "xyz": [-2.6329862700000004, -3.038734606930997, -10.972834478230334]}, {"species": [{"element": "Rh", "occu": 1}], "abc": [0.33366585, 0.16683731000000002, 0.62737642], "properties": {"magmom": -0.0}, "label": "Rh", "xyz": [-1.317817948371613, -0.7608101239101538, -10.97290216507674]}, {"species": [{"element": "Rh", "occu": 1}], "abc": [0.16683731000000002, 0.33366585, 0.37262358], "properties": {"magmom": -0.0}, "label": "Rh", "xyz": [-1.317817948371613, 0.7608101239101538, -6.51723902492326]}, {"species": [{"element": "Rh", "occu": 1}], "abc": [0.16683694000000002, 0.8331630600000001, 0.37262745], "properties": {"magmom": 0.0}, "label": "Rh", "xyz": [-2.6329862700000004, 3.038734606930997, -6.517306711769666]}, {"species": [{"element": "Rh", "occu": 1}], "abc": [0.6663341500000001, 0.83316269, 0.37262358], "properties": {"magmom": -0.0}, "label": "Rh", "xyz": [-3.948154591628387, 0.7608101239101535, -6.51723902492326]}, {"species": [{"element": "Rh", "occu": 1}], "abc": [0.16683731000000002, 0.33366585, 0.12737642], "properties": {"magmom": -0.0}, "label": "Rh", "xyz": [-1.317817948371613, 0.7608101239101538, -2.2278315700767397]}, {"species": [{"element": "Rh", "occu": 1}], "abc": [0.16683694000000002, 0.8331630600000001, 0.12737255], "properties": {"magmom": 0.0}, "label": "Rh", "xyz": [-2.6329862700000004, 3.038734606930997, -2.2277638832303346]}, {"species": [{"element": "Rh", "occu": 1}], "abc": [0.6663341500000001, 0.83316269, 0.12737642], "properties": {"magmom": -0.0}, "label": "Rh", "xyz": [-3.948154591628387, 0.7608101239101535, -2.2278315700767397]}, {"species": [{"element": "Rh", "occu": 1}], "abc": [0.83316269, 0.6663341500000001, 0.8726235800000001], "properties": {"magmom": -0.0}, "label": "Rh", "xyz": [-3.948154591628387, -0.7608101239101535, -15.262309619923261]}, {"species": [{"element": "Rh", "occu": 1}], "abc": [0.8331630600000001, 0.16683694000000002, 0.87262745], "properties": {"magmom": 0.0}, "label": "Rh", "xyz": [-2.6329862700000004, -3.038734606930997, -15.262377306769665]}, {"species": [{"element": "Rh", "occu": 1}], "abc": [0.33366585, 0.16683731000000002, 0.8726235800000001], "properties": {"magmom": -0.0}, "label": "Rh", "xyz": [-1.317817948371613, -0.7608101239101538, -15.262309619923261]}, {"species": [{"element": "Rh", "occu": 1}], "abc": [0.66667272, 0.33332728, 0.75], "properties": {"magmom": 0.0}, "label": "Rh", "xyz": [-2.63298627, -1.520199034956997, -13.117605892499999]}, {"species": [{"element": "Rh", "occu": 1}], "abc": [0.33332728, 0.66667272, 0.25], "properties": {"magmom": 0.0}, "label": "Rh", "xyz": [-2.63298627, 1.520199034956997, -4.3725352975]}, {"species": [{"element": "Rh", "occu": 1}], "abc": [0.9999887999999991, 1.1200000000000001e-05, 0.75], "properties": {"magmom": 0.0}, "label": "Rh", "xyz": [-2.6329862699999977, -4.560329316335068, -13.117605892499999]}, {"species": [{"element": "Rh", "occu": 1}], "abc": [1.1200000000000001e-05, 0.9999887999999991, 0.25], "properties": {"magmom": 0.0}, "label": "Rh", "xyz": [-2.6329862699999977, 4.560329316335068, -4.3725352975]}, {"species": [{"element": "Rh", "occu": 1}], "abc": [0.0, 0.0, 0.5], "properties": {"magmom": -0.0}, "label": "Rh", "xyz": [0.0, 0.0, -8.745070595]}, {"species": [{"element": "Rh", "occu": 1}], "abc": [0.0, 0.0, 0.0], "properties": {"magmom": -0.0}, "label": "Rh", "xyz": [0.0, 0.0, 0.0]}]}, "task_ids": null, "uncorrected_energy_per_atom": null, "energy_per_atom": -7.233732154999998, "formation_energy_per_atom": -0.530854718749997, "energy_above_hull": 0.0, "is_stable": true, "equilibrium_reaction_energy_per_atom": null, "decomposes_to": null, "xas": null, "grain_boundaries": null, "band_gap": 0.0, "cbm": null, "vbm": null, "efermi": 5.20391802, "is_gap_direct": null, "is_metal": null, "es_source_calc_id": null, "bandstructure": null, "dos": null, "dos_energy_up": null, "dos_energy_down": null, "is_magnetic": null, "ordering": null, "total_magnetization": 9e-07, "total_magnetization_normalized_vol": null, "total_magnetization_normalized_formula_units": null, "num_magnetic_sites": null, "num_unique_magnetic_sites": null, "types_of_magnetic_species": null, "bulk_modulus": null, "shear_modulus": null, "universal_anisotropy": null, "homogeneous_poisson": null, "e_total": null, "e_ionic": null, "e_electronic": null, "n": null, "e_ij_max": null, "weighted_surface_energy_EV_PER_ANG2": null, "weighted_surface_energy": null, "weighted_work_function": null, "surface_anisotropy": null, "shape_factor": null, "has_reconstructed": null, "possible_species": null, "has_props": null, "theoretical": null, "database_IDs": null, "fields_not_requested": ["builder_meta", "nsites", "elements", "nelements", "composition", "composition_reduced", "chemsys", "symmetry", "property_name", "deprecated", "deprecation_reasons", "last_updated", "origins", "warnings", "task_ids", "uncorrected_energy_per_atom", "equilibrium_reaction_energy_per_atom", "decomposes_to", "xas", "grain_boundaries", "cbm", "vbm", "is_gap_direct", "is_metal", "es_source_calc_id", "bandstructure", "dos", "dos_energy_up", "dos_energy_down", "is_magnetic", "ordering", "total_magnetization_normalized_vol", "total_magnetization_normalized_formula_units", "num_magnetic_sites", "num_unique_magnetic_sites", "types_of_magnetic_species", "bulk_modulus", "shear_modulus", "universal_anisotropy", "homogeneous_poisson", "e_total", "e_ionic", "e_electronic", "n", "e_ij_max", "weighted_surface_energy_EV_PER_ANG2", "weighted_surface_energy", "weighted_work_function", "surface_anisotropy", "shape_factor", "has_reconstructed", "possible_species", "has_props", "theoretical", "database_IDs"]}