{
  "builder_meta": null,
  "nsites": null,
  "elements": null,
  "nelements": null,
  "composition": null,
  "composition_reduced": null,
  "formula_pretty": "SmRu2",
  "formula_anonymous": "AB2",
  "chemsys": null,
  "volume": 217.5740129148603,
  "density": 10.761212024076636,
  "density_atomic": 18.131167742905024,
  "symmetry": null,
  "property_name": null,
  "material_id": "mp-1102438",
  "deprecated": null,
  "deprecation_reasons": null,
  "last_updated": null,
  "origins": null,
  "warnings": null,
  "structure": {
    "@module": "pymatgen.core.structure",
    "@class": "Structure",
    "charge": 0,
    "lattice": {
      "matrix": [
        [-2.63247473, -4.55974566, -1.601e-5],
        [-2.63247372, 4.55974565, 1.602e-5],
        [1.02e-6, -3.194e-5, -9.06300627]
      ],
      "pbc": [true, true, true],
      "a": 5.265092942031862,
      "b": 5.265092428385394,
      "c": 9.06300627005634,
      "alpha": 90.00035242875703,
      "beta": 89.99965412830053,
      "gamma": 120.00181240513585,
      "volume": 217.5740129148603
    },
    "properties": {},
    "sites": [
      {
        "species": [{ "element": "Sm", "occu": 1 }],
        "abc": [0.66666624, 0.33333476, 0.56752801],
        "properties": { "magmom": -0.0 },
        "label": "Sm",
        "xyz": [-2.632476446928052, -1.5199248994493635, -5.14351524633427]
      },
      {
        "species": [{ "element": "Sm", "occu": 1 }],
        "abc": [0.33333461000000003, 0.66666539, 0.43236611],
        "properties": { "magmom": -0.0 },
        "label": "Sm",
        "xyz": [-2.6324736156545243, 1.5198897610092073, -3.9185314225730683]
      },
      {
        "species": [{ "element": "Sm", "occu": 1 }],
        "abc": [0.33333431, 0.66666569, 0.06759791],
        "properties": { "magmom": -0.0 },
        "label": "Sm",
        "xyz": [-2.632473987717785, 1.519904147552908, -0.6126349388668451]
      },
      {
        "species": [{ "element": "Sm", "occu": 1 }],
        "abc": [0.6666653, 0.3333347, 0.93251408],
        "properties": { "magmom": -0.0 },
        "label": "Sm",
        "xyz": [-2.6324734421675915, -1.5199325445282585, -8.451386287192841]
      },
      {
        "species": [{ "element": "Ru", "occu": 1 }],
        "abc": [-2.4920000000000002e-5, 2.5920000000000003e-5, 0.49993274],
        "properties": { "magmom": 0.0 },
        "label": "Ru",
        "xyz": [
          -2.122517156000003e-6, 0.00021584961737960003, -4.530893556384073
        ]
      },
      {
        "species": [{ "element": "Ru", "occu": 1 }],
        "abc": [0.99997451, 2.549e-5, 6.902000000000001e-5],
        "properties": { "magmom": 0.0 },
        "label": "Ru",
        "xyz": [-2.6324747299038544, -4.559513206371007, -0.0006415378763107002]
      },
      {
        "species": [{ "element": "Ru", "occu": 1 }],
        "abc": [0.16939293, 0.33877813, 0.75006518],
        "properties": { "magmom": 0.0 },
        "label": "Ru",
        "xyz": [-1.337746366734919, 0.7723294700986016, -6.7978427140038455]
      },
      {
        "species": [{ "element": "Ru", "occu": 1 }],
        "abc": [0.16936389000000002, 0.83063611, 0.7500641],
        "properties": { "magmom": 0.0 },
        "label": "Ru",
        "xyz": [-2.632473125992147, 3.01520916986985, -6.797825045927304]
      },
      {
        "species": [{ "element": "Ru", "occu": 1 }],
        "abc": [0.66122087, 0.83060707, 0.75006518],
        "properties": { "magmom": 0.0 },
        "label": "Ru",
        "xyz": [-3.927197749578332, 0.7723340249259725, -6.797842709069546]
      },
      {
        "species": [{ "element": "Ru", "occu": 1 }],
        "abc": [0.83063169, 0.66123267, 0.24993286],
        "properties": { "magmom": 0.0 },
        "label": "Ru",
        "xyz": [-3.927294305511109, -0.7724244357211283, -2.2651457827250163]
      },
      {
        "species": [{ "element": "Ru", "occu": 1 }],
        "abc": [0.8306722400000001, 0.16932676, 0.24993394],
        "properties": { "magmom": 0.0 },
        "label": "Ru",
        "xyz": [-2.6324716715726235, -3.015575166773928, -2.265163451753671]
      },
      {
        "species": [{ "element": "Ru", "occu": 1 }],
        "abc": [0.33876633, 0.16936731, 0.24993286],
        "properties": { "magmom": 0.0 },
        "label": "Ru",
        "xyz": [-1.337648540770417, -0.7724244308024748, -2.26514578764367]
      }
    ]
  },
  "task_ids": null,
  "uncorrected_energy_per_atom": null,
  "energy_per_atom": -27.097007765833336,
  "formation_energy_per_atom": -0.236342795833337,
  "energy_above_hull": 0.0,
  "is_stable": true,
  "equilibrium_reaction_energy_per_atom": null,
  "decomposes_to": null,
  "xas": null,
  "grain_boundaries": null,
  "band_gap": 0.0,
  "cbm": null,
  "vbm": null,
  "efermi": 5.67960392,
  "is_gap_direct": null,
  "is_metal": null,
  "es_source_calc_id": null,
  "bandstructure": null,
  "dos": null,
  "dos_energy_up": null,
  "dos_energy_down": null,
  "is_magnetic": null,
  "ordering": null,
  "total_magnetization": 0.0014611,
  "total_magnetization_normalized_vol": null,
  "total_magnetization_normalized_formula_units": null,
  "num_magnetic_sites": null,
  "num_unique_magnetic_sites": null,
  "types_of_magnetic_species": null,
  "bulk_modulus": null,
  "shear_modulus": null,
  "universal_anisotropy": null,
  "homogeneous_poisson": null,
  "e_total": null,
  "e_ionic": null,
  "e_electronic": null,
  "n": null,
  "e_ij_max": null,
  "weighted_surface_energy_EV_PER_ANG2": null,
  "weighted_surface_energy": null,
  "weighted_work_function": null,
  "surface_anisotropy": null,
  "shape_factor": null,
  "has_reconstructed": null,
  "possible_species": null,
  "has_props": null,
  "theoretical": null,
  "database_IDs": null,
  "fields_not_requested": [
    "builder_meta",
    "nsites",
    "elements",
    "nelements",
    "composition",
    "composition_reduced",
    "chemsys",
    "symmetry",
    "property_name",
    "deprecated",
    "deprecation_reasons",
    "last_updated",
    "origins",
    "warnings",
    "task_ids",
    "uncorrected_energy_per_atom",
    "equilibrium_reaction_energy_per_atom",
    "decomposes_to",
    "xas",
    "grain_boundaries",
    "cbm",
    "vbm",
    "is_gap_direct",
    "is_metal",
    "es_source_calc_id",
    "bandstructure",
    "dos",
    "dos_energy_up",
    "dos_energy_down",
    "is_magnetic",
    "ordering",
    "total_magnetization_normalized_vol",
    "total_magnetization_normalized_formula_units",
    "num_magnetic_sites",
    "num_unique_magnetic_sites",
    "types_of_magnetic_species",
    "bulk_modulus",
    "shear_modulus",
    "universal_anisotropy",
    "homogeneous_poisson",
    "e_total",
    "e_ionic",
    "e_electronic",
    "n",
    "e_ij_max",
    "weighted_surface_energy_EV_PER_ANG2",
    "weighted_surface_energy",
    "weighted_work_function",
    "surface_anisotropy",
    "shape_factor",
    "has_reconstructed",
    "possible_species",
    "has_props",
    "theoretical",
    "database_IDs"
  ]
}
