{
  "builder_meta": null,
  "nsites": null,
  "elements": null,
  "nelements": null,
  "composition": null,
  "composition_reduced": null,
  "formula_pretty": "SmS2",
  "formula_anonymous": "AB2",
  "chemsys": null,
  "volume": 256.1952466143972,
  "density": 5.560899807498905,
  "density_atomic": 21.3496038845331,
  "symmetry": null,
  "property_name": null,
  "material_id": "mp-1232280",
  "deprecated": null,
  "deprecation_reasons": null,
  "last_updated": null,
  "origins": null,
  "warnings": null,
  "structure": {
    "@module": "pymatgen.core.structure",
    "@class": "Structure",
    "charge": 0,
    "lattice": {
      "matrix": [
        [-9.49e-6, -3.99468526, 3.089999999999999e-6],
        [-7.98039302, -1.9990000000000003e-5, -0.00212989],
        [-0.01307813, 5.23e-6, -8.036453]
      ],
      "pbc": [true, true, true],
      "a": 3.994685260012467,
      "b": 7.98039330424859,
      "c": 8.036463641348766,
      "alpha": 89.89146804597391,
      "beta": 90.00008138547403,
      "gamma": 89.99972037717029,
      "volume": 256.1952466143972
    },
    "properties": {},
    "sites": [
      {
        "species": [{ "element": "Sm", "occu": 1 }],
        "abc": [0.28898781, 0.37071053, 0.27565374],
        "properties": { "magmom": 0.0 },
        "label": "Sm",
        "xyz": [-2.9620235039935237, -1.154421313761115, -2.2160670054626284]
      },
      {
        "species": [{ "element": "Sm", "occu": 1 }],
        "abc": [0.78898738, 0.12928869, 0.72434568],
        "properties": { "magmom": 0.0 },
        "label": "Sm",
        "xyz": [-1.0412551336991587, -3.1517550533650254, -5.82144294578998]
      },
      {
        "species": [{ "element": "Sm", "occu": 1 }],
        "abc": [0.7110116200000001, 0.62928869, 0.72434668],
        "properties": { "magmom": 0.0 },
        "label": "Sm",
        "xyz": [-5.031450916787326, -2.8402764292504976, -5.822516168188078]
      },
      {
        "species": [{ "element": "Sm", "occu": 1 }],
        "abc": [0.21101319000000002, 0.87071153, 0.27565474],
        "properties": { "magmom": 0.0 },
        "label": "Sm",
        "xyz": [-6.95222726748553, -0.842947243607774, -2.217140229987095]
      },
      {
        "species": [{ "element": "S", "occu": 1 }],
        "abc": [0.84386066, 0.39179464, 0.00297812],
        "properties": { "magmom": -0.0 },
        "label": "S",
        "xyz": [-3.1267221668075917, -3.3709655563951575, -0.024765393364710196]
      },
      {
        "species": [{ "element": "S", "occu": 1 }],
        "abc": [0.34386273, 0.10820446, 0.99702201],
        "properties": { "magmom": -0.0 },
        "label": "S",
        "xyz": [-0.8765565640338182, -1.3736203275764027, -8.012749924392002]
      },
      {
        "species": [{ "element": "S", "occu": 1 }],
        "abc": [0.15613827, 0.60820546, 0.99702201],
        "properties": { "magmom": -0.0 },
        "label": "S",
        "xyz": [-4.866759272921713, -0.6237301892929332, -8.013815451590474]
      },
      {
        "species": [{ "element": "S", "occu": 1 }],
        "abc": [0.65613834, 0.89179564, 0.00297812],
        "properties": { "magmom": -0.0 },
        "label": "S",
        "xyz": [-7.116924875715795, -2.6210839667381443, -0.025830920556569]
      },
      {
        "species": [{ "element": "S", "occu": 1 }],
        "abc": [0.26131247, 0.37440315, 0.6323364],
        "properties": { "magmom": 0.0 },
        "label": "S",
        "xyz": [-2.9961565424242855, -1.043865249362789, -5.082538388858822]
      },
      {
        "species": [{ "element": "S", "occu": 1 }],
        "abc": [0.76131255, 0.12559654, 0.36766406],
        "properties": { "magmom": -0.0 },
        "label": "S",
        "xyz": [-1.0071253343812583, -3.0412046095298138, -2.954980092337981]
      },
      {
        "species": [{ "element": "S", "occu": 1 }],
        "abc": [0.73868745, 0.62559654, 0.36766406],
        "properties": { "magmom": -0.0 },
        "label": "S",
        "xyz": [-4.9973216296690595, -2.950834451053788, -2.9560451072495404]
      },
      {
        "species": [{ "element": "S", "occu": 1 }],
        "abc": [0.23868753, 0.87440315, 0.6323364],
        "properties": { "magmom": 0.0 },
        "label": "S",
        "xyz": [-6.986352837713604, -0.9534957300364042, -5.083603403769886]
      }
    ]
  },
  "task_ids": null,
  "uncorrected_energy_per_atom": null,
  "energy_per_atom": -6.402192468333332,
  "formation_energy_per_atom": -2.070424044999999,
  "energy_above_hull": 0.0,
  "is_stable": true,
  "equilibrium_reaction_energy_per_atom": null,
  "decomposes_to": null,
  "xas": null,
  "grain_boundaries": null,
  "band_gap": 0.5285000000000001,
  "cbm": null,
  "vbm": null,
  "efermi": 4.79596054,
  "is_gap_direct": null,
  "is_metal": null,
  "es_source_calc_id": null,
  "bandstructure": null,
  "dos": null,
  "dos_energy_up": null,
  "dos_energy_down": null,
  "is_magnetic": null,
  "ordering": null,
  "total_magnetization": 0.0,
  "total_magnetization_normalized_vol": null,
  "total_magnetization_normalized_formula_units": null,
  "num_magnetic_sites": null,
  "num_unique_magnetic_sites": null,
  "types_of_magnetic_species": null,
  "bulk_modulus": null,
  "shear_modulus": null,
  "universal_anisotropy": null,
  "homogeneous_poisson": null,
  "e_total": null,
  "e_ionic": null,
  "e_electronic": null,
  "n": null,
  "e_ij_max": null,
  "weighted_surface_energy_EV_PER_ANG2": null,
  "weighted_surface_energy": null,
  "weighted_work_function": null,
  "surface_anisotropy": null,
  "shape_factor": null,
  "has_reconstructed": null,
  "possible_species": null,
  "has_props": null,
  "theoretical": null,
  "database_IDs": null,
  "fields_not_requested": [
    "builder_meta",
    "nsites",
    "elements",
    "nelements",
    "composition",
    "composition_reduced",
    "chemsys",
    "symmetry",
    "property_name",
    "deprecated",
    "deprecation_reasons",
    "last_updated",
    "origins",
    "warnings",
    "task_ids",
    "uncorrected_energy_per_atom",
    "equilibrium_reaction_energy_per_atom",
    "decomposes_to",
    "xas",
    "grain_boundaries",
    "cbm",
    "vbm",
    "is_gap_direct",
    "is_metal",
    "es_source_calc_id",
    "bandstructure",
    "dos",
    "dos_energy_up",
    "dos_energy_down",
    "is_magnetic",
    "ordering",
    "total_magnetization_normalized_vol",
    "total_magnetization_normalized_formula_units",
    "num_magnetic_sites",
    "num_unique_magnetic_sites",
    "types_of_magnetic_species",
    "bulk_modulus",
    "shear_modulus",
    "universal_anisotropy",
    "homogeneous_poisson",
    "e_total",
    "e_ionic",
    "e_electronic",
    "n",
    "e_ij_max",
    "weighted_surface_energy_EV_PER_ANG2",
    "weighted_surface_energy",
    "weighted_work_function",
    "surface_anisotropy",
    "shape_factor",
    "has_reconstructed",
    "possible_species",
    "has_props",
    "theoretical",
    "database_IDs"
  ]
}
