{
  "builder_meta": null,
  "nsites": null,
  "elements": null,
  "nelements": null,
  "composition": null,
  "composition_reduced": null,
  "formula_pretty": "SmSb2",
  "formula_anonymous": "AB2",
  "chemsys": null,
  "volume": 347.26667004463593,
  "density": 7.533727638973694,
  "density_atomic": 28.93888917038633,
  "symmetry": null,
  "property_name": null,
  "material_id": "mp-29647",
  "deprecated": null,
  "deprecation_reasons": null,
  "last_updated": null,
  "origins": null,
  "warnings": null,
  "structure": {
    "@module": "pymatgen.core.structure",
    "@class": "Structure",
    "charge": 0,
    "lattice": {
      "matrix": [
        [4.35304685, -0.00985929, 0.0],
        [-0.09532917, 4.35201444, 0.0],
        [-0.0, 0.0, 18.33162567]
      ],
      "pbc": [true, true, true],
      "a": 4.353058015222658,
      "b": 4.353058388836681,
      "c": 18.33162567,
      "alpha": 90.0,
      "beta": 90.0,
      "gamma": 91.38461088153826,
      "volume": 347.26667004463593
    },
    "properties": {},
    "sites": [
      {
        "species": [{ "element": "Sm", "occu": 1 }],
        "abc": [0.64004198, 0.64004198, 0.61143179],
        "properties": { "magmom": 0.0 },
        "label": "Sm",
        "xyz": [2.7251180541882065, 2.7791615796731968, 11.208538697018051]
      },
      {
        "species": [{ "element": "Sm", "occu": 1 }],
        "abc": [0.85995802, 0.85995802, 0.11143179],
        "properties": { "magmom": 0.0 },
        "label": "Sm",
        "xyz": [3.6614584658117932, 3.7340711453268027, 2.0427258620180493]
      },
      {
        "species": [{ "element": "Sm", "occu": 1 }],
        "abc": [0.14004198, 0.14004198, 0.88856821],
        "properties": { "magmom": 0.0 },
        "label": "Sm",
        "xyz": [0.5962592141882065, 0.608084004673197, 16.288899807981952]
      },
      {
        "species": [{ "element": "Sm", "occu": 1 }],
        "abc": [0.35995802, 0.35995802, 0.38856821],
        "properties": { "magmom": 0.0 },
        "label": "Sm",
        "xyz": [1.5325996258117935, 1.5629935703268028, 7.123086972981952]
      },
      {
        "species": [{ "element": "Sb", "occu": 1 }],
        "abc": [0.87919896, 0.37919896000000003, 0.25],
        "properties": { "magmom": 0.0 },
        "label": "Sb",
        "xyz": [3.7910455412296127, 1.641611072038644, 4.5829064175]
      },
      {
        "species": [{ "element": "Sb", "occu": 1 }],
        "abc": [0.62080104, 0.12080104, 0.75],
        "properties": { "magmom": 0.0 },
        "label": "Sb",
        "xyz": [2.6908601487703874, 0.5196072129613559, 13.7487192525]
      },
      {
        "species": [{ "element": "Sb", "occu": 1 }],
        "abc": [0.12080104, 0.62080104, 0.75],
        "properties": { "magmom": 0.0 },
        "label": "Sb",
        "xyz": [0.4666721387703872, 2.700544077961356, 13.7487192525]
      },
      {
        "species": [{ "element": "Sb", "occu": 1 }],
        "abc": [0.37919896000000003, 0.87919896, 0.25],
        "properties": { "magmom": 0.0 },
        "label": "Sb",
        "xyz": [1.5668575312296131, 3.8225479370386433, 4.5829064175]
      },
      {
        "species": [{ "element": "Sb", "occu": 1 }],
        "abc": [0.86482591, 0.86482591, 0.43735137],
        "properties": { "magmom": 0.0 },
        "label": "Sb",
        "xyz": [3.682184567129089, 3.755208278959936, 8.017361601101669]
      },
      {
        "species": [{ "element": "Sb", "occu": 1 }],
        "abc": [0.63517409, 0.63517409, 0.93735137],
        "properties": { "magmom": 0.0 },
        "label": "Sb",
        "xyz": [2.7043919528709113, 2.7580244460400634, 17.18317443610167]
      },
      {
        "species": [{ "element": "Sb", "occu": 1 }],
        "abc": [0.36482591000000003, 0.36482591000000003, 0.06264863],
        "properties": { "magmom": 0.0 },
        "label": "Sb",
        "xyz": [1.553325727129089, 1.5841307039599364, 1.1484512338983321]
      },
      {
        "species": [{ "element": "Sb", "occu": 1 }],
        "abc": [0.13517409, 0.13517409, 0.56264863],
        "properties": { "magmom": 0.0 },
        "label": "Sb",
        "xyz": [0.5755331128709112, 0.5869468710400635, 10.314264068898332]
      }
    ]
  },
  "task_ids": null,
  "uncorrected_energy_per_atom": null,
  "energy_per_atom": -27.96505736916667,
  "formation_energy_per_atom": -0.9165387758333351,
  "energy_above_hull": 0.028956077499998,
  "is_stable": false,
  "equilibrium_reaction_energy_per_atom": null,
  "decomposes_to": null,
  "xas": null,
  "grain_boundaries": null,
  "band_gap": 0.0,
  "cbm": null,
  "vbm": null,
  "efermi": 6.02846778,
  "is_gap_direct": null,
  "is_metal": null,
  "es_source_calc_id": null,
  "bandstructure": null,
  "dos": null,
  "dos_energy_up": null,
  "dos_energy_down": null,
  "is_magnetic": null,
  "ordering": null,
  "total_magnetization": 3e-7,
  "total_magnetization_normalized_vol": null,
  "total_magnetization_normalized_formula_units": null,
  "num_magnetic_sites": null,
  "num_unique_magnetic_sites": null,
  "types_of_magnetic_species": null,
  "bulk_modulus": null,
  "shear_modulus": null,
  "universal_anisotropy": null,
  "homogeneous_poisson": null,
  "e_total": null,
  "e_ionic": null,
  "e_electronic": null,
  "n": null,
  "e_ij_max": null,
  "weighted_surface_energy_EV_PER_ANG2": null,
  "weighted_surface_energy": null,
  "weighted_work_function": null,
  "surface_anisotropy": null,
  "shape_factor": null,
  "has_reconstructed": null,
  "possible_species": null,
  "has_props": null,
  "theoretical": null,
  "database_IDs": null,
  "fields_not_requested": [
    "builder_meta",
    "nsites",
    "elements",
    "nelements",
    "composition",
    "composition_reduced",
    "chemsys",
    "symmetry",
    "property_name",
    "deprecated",
    "deprecation_reasons",
    "last_updated",
    "origins",
    "warnings",
    "task_ids",
    "uncorrected_energy_per_atom",
    "equilibrium_reaction_energy_per_atom",
    "decomposes_to",
    "xas",
    "grain_boundaries",
    "cbm",
    "vbm",
    "is_gap_direct",
    "is_metal",
    "es_source_calc_id",
    "bandstructure",
    "dos",
    "dos_energy_up",
    "dos_energy_down",
    "is_magnetic",
    "ordering",
    "total_magnetization_normalized_vol",
    "total_magnetization_normalized_formula_units",
    "num_magnetic_sites",
    "num_unique_magnetic_sites",
    "types_of_magnetic_species",
    "bulk_modulus",
    "shear_modulus",
    "universal_anisotropy",
    "homogeneous_poisson",
    "e_total",
    "e_ionic",
    "e_electronic",
    "n",
    "e_ij_max",
    "weighted_surface_energy_EV_PER_ANG2",
    "weighted_surface_energy",
    "weighted_work_function",
    "surface_anisotropy",
    "shape_factor",
    "has_reconstructed",
    "possible_species",
    "has_props",
    "theoretical",
    "database_IDs"
  ]
}
