{"builder_meta": null, "nsites": null, "elements": null, "nelements": null, "composition": null, "composition_reduced": null, "formula_pretty": "SmSi2", "formula_anonymous": "AB2", "chemsys": null, "volume": 121.1909375363492, "density": 5.659710221502357, "density_atomic": 20.19848958939153, "symmetry": null, "property_name": null, "material_id": "mp-13955", "deprecated": null, "deprecation_reasons": null, "last_updated": null, "origins": null, "warnings": null, "structure": {"@module": "pymatgen.core.structure", "@class": "Structure", "charge": 0, "lattice": {"matrix": [[4.08447716, -4e-08, -1.18466656], [-0.34360286, 4.06999976, -1.18466657], [-0.08412717, -0.09153002, 7.34348091]], "pbc": [true, true, true], "a": 4.252809486556375, "b": 4.252810347743689, "c": 7.344533137022927, "alpha": 106.82934976366276, "beta": 106.82934293220586, "gamma": 90.00001053753095, "volume": 121.1909375363492}, "properties": {}, "sites": [{"species": [{"element": "Sm", "occu": 1}], "abc": [0.875, 0.625, 0.25], "properties": {"magmom": -0.0}, "label": "Sm", "xyz": [3.3381339349999997, 2.5208673100000003, 0.058870381250000214]}, {"species": [{"element": "Sm", "occu": 1}], "abc": [0.125, 0.375, 0.75], "properties": {"magmom": -0.0}, "label": "Sm", "xyz": [0.31861319499999996, 1.45760239, 4.91527739875]}, {"species": [{"element": "Si", "occu": 1}], "abc": [0.71114961, 0.96114961, 0.92229922], "properties": {"magmom": 0.0}, "label": "Si", "xyz": [2.4968301612322152, 3.8274605875255245, 4.79176974151831]}, {"species": [{"element": "Si", "occu": 1}], "abc": [0.46114961, 0.21114961000000002, 0.42229922000000003], "properties": {"magmom": 0.0}, "label": "Si", "xyz": [1.7754766012322154, 0.8207257875255248, 2.304695854018311]}, {"species": [{"element": "Si", "occu": 1}], "abc": [0.53885039, 0.78885039, 0.57770078], "properties": {"magmom": 0.0}, "label": "Si", "xyz": [1.8812705287677842, 3.1577439124744755, 2.6694519259816896]}, {"species": [{"element": "Si", "occu": 1}], "abc": [0.28885039, 0.03885039, 0.07770078], "properties": {"magmom": 0.0}, "label": "Si", "xyz": [1.1599169687677842, 0.15100911247447518, 0.18237803848168915]}]}, "task_ids": null, "uncorrected_energy_per_atom": null, "energy_per_atom": -16.384877306666667, "formation_energy_per_atom": -0.6247261366666661, "energy_above_hull": 0.0, "is_stable": true, "equilibrium_reaction_energy_per_atom": null, "decomposes_to": null, "xas": null, "grain_boundaries": null, "band_gap": 0.0, "cbm": null, "vbm": null, "efermi": 6.73100186, "is_gap_direct": null, "is_metal": null, "es_source_calc_id": null, "bandstructure": null, "dos": null, "dos_energy_up": null, "dos_energy_down": null, "is_magnetic": null, "ordering": null, "total_magnetization": 1e-07, "total_magnetization_normalized_vol": null, "total_magnetization_normalized_formula_units": null, "num_magnetic_sites": null, "num_unique_magnetic_sites": null, "types_of_magnetic_species": null, "bulk_modulus": null, "shear_modulus": null, "universal_anisotropy": null, "homogeneous_poisson": null, "e_total": null, "e_ionic": null, "e_electronic": null, "n": null, "e_ij_max": null, "weighted_surface_energy_EV_PER_ANG2": null, "weighted_surface_energy": null, "weighted_work_function": null, "surface_anisotropy": null, "shape_factor": null, "has_reconstructed": null, "possible_species": null, "has_props": null, "theoretical": null, "database_IDs": null, "fields_not_requested": ["builder_meta", "nsites", "elements", "nelements", "composition", "composition_reduced", "chemsys", "symmetry", "property_name", "deprecated", "deprecation_reasons", "last_updated", "origins", "warnings", "task_ids", "uncorrected_energy_per_atom", "equilibrium_reaction_energy_per_atom", "decomposes_to", "xas", "grain_boundaries", "cbm", "vbm", "is_gap_direct", "is_metal", "es_source_calc_id", "bandstructure", "dos", "dos_energy_up", "dos_energy_down", "is_magnetic", "ordering", "total_magnetization_normalized_vol", "total_magnetization_normalized_formula_units", "num_magnetic_sites", "num_unique_magnetic_sites", "types_of_magnetic_species", "bulk_modulus", "shear_modulus", "universal_anisotropy", "homogeneous_poisson", "e_total", "e_ionic", "e_electronic", "n", "e_ij_max", "weighted_surface_energy_EV_PER_ANG2", "weighted_surface_energy", "weighted_work_function", "surface_anisotropy", "shape_factor", "has_reconstructed", "possible_species", "has_props", "theoretical", "database_IDs"]}