{"builder_meta": null, "nsites": null, "elements": null, "nelements": null, "composition": null, "composition_reduced": null, "formula_pretty": "SmSn2", "formula_anonymous": "AB2", "chemsys": null, "volume": 163.22155977941827, "density": 7.890181176020653, "density_atomic": 27.20359329656971, "symmetry": null, "property_name": null, "material_id": "mp-1077593", "deprecated": null, "deprecation_reasons": null, "last_updated": null, "origins": null, "warnings": null, "structure": {"@module": "pymatgen.core.structure", "@class": "Structure", "charge": 0, "lattice": {"matrix": [[-4.44015671, -2e-08, 0.0], [0.0, 0.0, -4.52907917], [2.2200768, -8.11650971, 0.0]], "pbc": [true, true, true], "a": 4.44015671, "b": 4.52907917, "c": 8.414658095871902, "alpha": 90.0, "beta": 105.2977076455853, "gamma": 90.0, "volume": 163.22155977941824}, "properties": {}, "sites": [{"species": [{"element": "Sm", "occu": 1}], "abc": [0.14390874, 0.0, 0.28781847], "properties": {"magmom": -0.0}, "label": "Sm", "xyz": [1.7503198505020023e-06, -2.3360814093505184, 0.0]}, {"species": [{"element": "Sm", "occu": 1}], "abc": [0.85609126, 0.0, 0.7121815300000001], "properties": {"magmom": -0.0}, "label": "Sm", "xyz": [-2.2200816603198503, -5.780428320649483, 0.0]}, {"species": [{"element": "Sn", "occu": 1}], "abc": [0.5, 0.0, 0.0], "properties": {"magmom": -0.0}, "label": "Sn", "xyz": [-2.220078355, -1e-08, 0.0]}, {"species": [{"element": "Sn", "occu": 1}], "abc": [0.0, 0.5, 0.0], "properties": {"magmom": 0.0}, "label": "Sn", "xyz": [0.0, 0.0, -2.264539585]}, {"species": [{"element": "Sn", "occu": 1}], "abc": [0.31236625, 0.5, 0.62473151], "properties": {"magmom": 0.0}, "label": "Sn", "xyz": [-3.169335069275192e-06, -5.070639373305288, -2.264539585]}, {"species": [{"element": "Sn", "occu": 1}], "abc": [0.68763375, 0.5, 0.37526849], "properties": {"magmom": 0.0}, "label": "Sn", "xyz": [-2.220076740664931, -3.045870356694713, -2.264539585]}]}, "task_ids": null, "uncorrected_energy_per_atom": null, "energy_per_atom": -4.855958319999999, "formation_energy_per_atom": -0.610048371666665, "energy_above_hull": 0.0, "is_stable": true, "equilibrium_reaction_energy_per_atom": null, "decomposes_to": null, "xas": null, "grain_boundaries": null, "band_gap": 0.0, "cbm": null, "vbm": null, "efermi": 6.8417834, "is_gap_direct": null, "is_metal": null, "es_source_calc_id": null, "bandstructure": null, "dos": null, "dos_energy_up": null, "dos_energy_down": null, "is_magnetic": null, "ordering": null, "total_magnetization": 0.0, "total_magnetization_normalized_vol": null, "total_magnetization_normalized_formula_units": null, "num_magnetic_sites": null, "num_unique_magnetic_sites": null, "types_of_magnetic_species": null, "bulk_modulus": null, "shear_modulus": null, "universal_anisotropy": null, "homogeneous_poisson": null, "e_total": null, "e_ionic": null, "e_electronic": null, "n": null, "e_ij_max": null, "weighted_surface_energy_EV_PER_ANG2": null, "weighted_surface_energy": null, "weighted_work_function": null, "surface_anisotropy": null, "shape_factor": null, "has_reconstructed": null, "possible_species": null, "has_props": null, "theoretical": null, "database_IDs": null, "fields_not_requested": ["builder_meta", "nsites", "elements", "nelements", "composition", "composition_reduced", "chemsys", "symmetry", "property_name", "deprecated", "deprecation_reasons", "last_updated", "origins", "warnings", "task_ids", "uncorrected_energy_per_atom", "equilibrium_reaction_energy_per_atom", "decomposes_to", "xas", "grain_boundaries", "cbm", "vbm", "is_gap_direct", "is_metal", "es_source_calc_id", "bandstructure", "dos", "dos_energy_up", "dos_energy_down", "is_magnetic", "ordering", "total_magnetization_normalized_vol", "total_magnetization_normalized_formula_units", "num_magnetic_sites", "num_unique_magnetic_sites", "types_of_magnetic_species", "bulk_modulus", "shear_modulus", "universal_anisotropy", "homogeneous_poisson", "e_total", "e_ionic", "e_electronic", "n", "e_ij_max", "weighted_surface_energy_EV_PER_ANG2", "weighted_surface_energy", "weighted_work_function", "surface_anisotropy", "shape_factor", "has_reconstructed", "possible_species", "has_props", "theoretical", "database_IDs"]}