{"builder_meta": null, "nsites": null, "elements": null, "nelements": null, "composition": null, "composition_reduced": null, "formula_pretty": "SmTe3", "formula_anonymous": "AB3", "chemsys": null, "volume": 253.7856596130574, "density": 6.97701367443935, "density_atomic": 31.723207451632174, "symmetry": null, "property_name": null, "material_id": "mp-9399", "deprecated": null, "deprecation_reasons": null, "last_updated": null, "origins": null, "warnings": null, "structure": {"@module": "pymatgen.core.structure", "@class": "Structure", "charge": 0, "lattice": {"matrix": [[4.30417382, 0.0, -0.72587437], [0.0, 4.36623132, 0.0], [0.06584489, 0.0, 13.49314771]], "pbc": [true, true, true], "a": 4.364951989861549, "b": 4.36623132, "c": 13.49330836649846, "alpha": 90.0, "beta": 99.29294010548196, "gamma": 90.0, "volume": 253.7856596130574}, "properties": {}, "sites": [{"species": [{"element": "Sm", "occu": 1}], "abc": [0.829330399999999, 0.25, 0.65857968], "properties": {"magmom": 0.0}, "label": "Sm", "xyz": [3.612946302395959, 1.09155783, 8.284323219422687]}, {"species": [{"element": "Sm", "occu": 1}], "abc": [0.1706696, 0.75, 0.34142032], "properties": {"magmom": 0.0}, "label": "Sm", "xyz": [0.7570724076040368, 3.2746734899999996, 4.482950120577315]}, {"species": [{"element": "Te", "occu": 1}], "abc": [0.7062302500000001, 0.25, 0.41278672], "properties": {"magmom": -0.0}, "label": "Te", "xyz": [3.066917649113916, 1.09155783, 5.057157747892719]}, {"species": [{"element": "Te", "occu": 1}], "abc": [0.29376975, 0.75, 0.5872132800000001], "properties": {"magmom": -0.0}, "label": "Te", "xyz": [1.303101060886084, 3.2746734899999996, 7.710115592107282]}, {"species": [{"element": "Te", "occu": 1}], "abc": [0.07454235000000001, 0.25, 0.14917255000000001], "properties": {"magmom": 0.0}, "label": "Te", "xyz": [0.3306654814970465, 1.09155783, 1.9586988700827912]}, {"species": [{"element": "Te", "occu": 1}], "abc": [0.92545765, 0.75, 0.85082745], "properties": {"magmom": 0.0}, "label": "Te", "xyz": [4.039353228502954, 3.2746734899999996, 10.808574469917211]}, {"species": [{"element": "Te", "occu": 1}], "abc": [0.57448813, 0.75, 0.14908248], "properties": {"magmom": 0.0}, "label": "Te", "xyz": [2.482513088543284, 3.2746734899999996, 1.5945857141768927]}, {"species": [{"element": "Te", "occu": 1}], "abc": [0.42551187, 0.25, 0.85091752], "properties": {"magmom": 0.0}, "label": "Te", "xyz": [1.8875056214567163, 1.09155783, 11.172687625823107]}]}, "task_ids": null, "uncorrected_energy_per_atom": null, "energy_per_atom": -27.61356050125, "formation_energy_per_atom": -1.1174111887500011, "energy_above_hull": 0.0, "is_stable": true, "equilibrium_reaction_energy_per_atom": null, "decomposes_to": null, "xas": null, "grain_boundaries": null, "band_gap": 0.0, "cbm": null, "vbm": null, "efermi": 4.97521604, "is_gap_direct": null, "is_metal": null, "es_source_calc_id": null, "bandstructure": null, "dos": null, "dos_energy_up": null, "dos_energy_down": null, "is_magnetic": null, "ordering": null, "total_magnetization": 0.0, "total_magnetization_normalized_vol": null, "total_magnetization_normalized_formula_units": null, "num_magnetic_sites": null, "num_unique_magnetic_sites": null, "types_of_magnetic_species": null, "bulk_modulus": null, "shear_modulus": null, "universal_anisotropy": null, "homogeneous_poisson": null, "e_total": null, "e_ionic": null, "e_electronic": null, "n": null, "e_ij_max": null, "weighted_surface_energy_EV_PER_ANG2": null, "weighted_surface_energy": null, "weighted_work_function": null, "surface_anisotropy": null, "shape_factor": null, "has_reconstructed": null, "possible_species": null, "has_props": null, "theoretical": null, "database_IDs": null, "fields_not_requested": ["builder_meta", "nsites", "elements", "nelements", "composition", "composition_reduced", "chemsys", "symmetry", "property_name", "deprecated", "deprecation_reasons", "last_updated", "origins", "warnings", "task_ids", "uncorrected_energy_per_atom", "equilibrium_reaction_energy_per_atom", "decomposes_to", "xas", "grain_boundaries", "cbm", "vbm", "is_gap_direct", "is_metal", "es_source_calc_id", "bandstructure", "dos", "dos_energy_up", "dos_energy_down", "is_magnetic", "ordering", "total_magnetization_normalized_vol", "total_magnetization_normalized_formula_units", "num_magnetic_sites", "num_unique_magnetic_sites", "types_of_magnetic_species", "bulk_modulus", "shear_modulus", "universal_anisotropy", "homogeneous_poisson", "e_total", "e_ionic", "e_electronic", "n", "e_ij_max", "weighted_surface_energy_EV_PER_ANG2", "weighted_surface_energy", "weighted_work_function", "surface_anisotropy", "shape_factor", "has_reconstructed", "possible_species", "has_props", "theoretical", "database_IDs"]}