{"builder_meta": null, "nsites": null, "elements": null, "nelements": null, "composition": null, "composition_reduced": null, "formula_pretty": "SmTm3", "formula_anonymous": "AB3", "chemsys": null, "volume": 250.47616031516867, "density": 8.71335794074384, "density_atomic": 31.309520039396084, "symmetry": null, "property_name": null, "material_id": "mp-979026", "deprecated": null, "deprecation_reasons": null, "last_updated": null, "origins": null, "warnings": null, "structure": {"@module": "pymatgen.core.structure", "@class": "Structure", "charge": 0, "lattice": {"matrix": [[7.20851996, 3.16e-06, 0.0], [-3.604257849999999, 6.24276158, 0.0], [0.0, -0.0, 5.5660029600000005]], "pbc": [true, true, true], "a": 7.208519960000693, "b": 7.208519043049738, "c": 5.5660029600000005, "alpha": 90.0, "beta": 90.0, "gamma": 119.99995954206057, "volume": 250.47616031516873}, "properties": {}, "sites": [{"species": [{"element": "Sm", "occu": 1}], "abc": [0.333333, 0.666667, 0.750000999999999], "properties": {"magmom": -0.0}, "label": "Sm", "xyz": [-2.184259269011335e-06, 4.16184418758614, 4.174507786002955]}, {"species": [{"element": "Sm", "occu": 1}], "abc": [0.666667, 0.333333, 0.25], "properties": {"magmom": -0.0}, "label": "Sm", "xyz": [3.6042642942592704, 2.08092055241386, 1.3915007400000001]}, {"species": [{"element": "Tm", "occu": 1}], "abc": [0.164754999999999, 0.32950899, 0.25], "properties": {"magmom": -0.0}, "label": "Tm", "xyz": [4.3421567217372115e-06, 2.057046583662404, 1.3915007400000001]}, {"species": [{"element": "Tm", "occu": 1}], "abc": [0.67049001, 0.835245, 0.25], "properties": {"magmom": -0.0}, "label": "Tm", "xyz": [1.8228022721423507, 5.214237514635531, 1.3915007400000001]}, {"species": [{"element": "Tm", "occu": 1}], "abc": [0.164753999999999, 0.835245, 0.25], "properties": {"magmom": -0.0}, "label": "Tm", "xyz": [-1.8228058504334161, 5.21423591650974, 1.3915007400000001]}, {"species": [{"element": "Tm", "occu": 1}], "abc": [0.835245, 0.67049001, 0.750000999999999], "properties": {"magmom": -0.0}, "label": "Tm", "xyz": [3.604261372101123, 4.185711913576015, 4.174507786002955]}, {"species": [{"element": "Tm", "occu": 1}], "abc": [0.32950999000000003, 0.164754999999999, 0.750000999999999], "properties": {"magmom": -0.0}, "label": "Tm", "xyz": [1.7814598378576543, 1.0285272253644622, 4.174507786002955]}, {"species": [{"element": "Tm", "occu": 1}], "abc": [0.835245, 0.164754999999999, 0.750000999999999], "properties": {"magmom": -0.0}, "label": "Tm", "xyz": [5.427060751913454, 1.028528823487094, 4.174507786002955]}]}, "task_ids": null, "uncorrected_energy_per_atom": null, "energy_per_atom": -33.7656603425, "formation_energy_per_atom": 0.008356954999996, "energy_above_hull": 0.008356954999996, "is_stable": false, "equilibrium_reaction_energy_per_atom": null, "decomposes_to": null, "xas": null, "grain_boundaries": null, "band_gap": 0.0, "cbm": null, "vbm": null, "efermi": 3.01184457, "is_gap_direct": null, "is_metal": null, "es_source_calc_id": null, "bandstructure": null, "dos": null, "dos_energy_up": null, "dos_energy_down": null, "is_magnetic": null, "ordering": null, "total_magnetization": 0.0001216, "total_magnetization_normalized_vol": null, "total_magnetization_normalized_formula_units": null, "num_magnetic_sites": null, "num_unique_magnetic_sites": null, "types_of_magnetic_species": null, "bulk_modulus": null, "shear_modulus": null, "universal_anisotropy": null, "homogeneous_poisson": null, "e_total": null, "e_ionic": null, "e_electronic": null, "n": null, "e_ij_max": null, "weighted_surface_energy_EV_PER_ANG2": null, "weighted_surface_energy": null, "weighted_work_function": null, "surface_anisotropy": null, "shape_factor": null, "has_reconstructed": null, "possible_species": null, "has_props": null, "theoretical": null, "database_IDs": null, "fields_not_requested": ["builder_meta", "nsites", "elements", "nelements", "composition", "composition_reduced", "chemsys", "symmetry", "property_name", "deprecated", "deprecation_reasons", "last_updated", "origins", "warnings", "task_ids", "uncorrected_energy_per_atom", "equilibrium_reaction_energy_per_atom", "decomposes_to", "xas", "grain_boundaries", "cbm", "vbm", "is_gap_direct", "is_metal", "es_source_calc_id", "bandstructure", "dos", "dos_energy_up", "dos_energy_down", "is_magnetic", "ordering", "total_magnetization_normalized_vol", "total_magnetization_normalized_formula_units", "num_magnetic_sites", "num_unique_magnetic_sites", "types_of_magnetic_species", "bulk_modulus", "shear_modulus", "universal_anisotropy", "homogeneous_poisson", "e_total", "e_ionic", "e_electronic", "n", "e_ij_max", "weighted_surface_energy_EV_PER_ANG2", "weighted_surface_energy", "weighted_work_function", "surface_anisotropy", "shape_factor", "has_reconstructed", "possible_species", "has_props", "theoretical", "database_IDs"]}