{
  "builder_meta": null,
  "nsites": null,
  "elements": null,
  "nelements": null,
  "composition": null,
  "composition_reduced": null,
  "formula_pretty": "SmY3",
  "formula_anonymous": "AB3",
  "chemsys": null,
  "volume": 272.951452021531,
  "density": 5.074701456595901,
  "density_atomic": 34.118931502691375,
  "symmetry": null,
  "property_name": null,
  "material_id": "mp-979292",
  "deprecated": null,
  "deprecation_reasons": null,
  "last_updated": null,
  "origins": null,
  "warnings": null,
  "structure": {
    "@module": "pymatgen.core.structure",
    "@class": "Structure",
    "charge": 0,
    "lattice": {
      "matrix": [
        [7.3236136, 1.759999999999998e-6, -1.7000000000000001e-7],
        [-3.66180448, 6.34243704, 9e-8],
        [-1e-7, 1e-8, 5.87629732]
      ],
      "pbc": [true, true, true],
      "a": 7.323613600000213,
      "b": 7.323613838543922,
      "c": 5.876297320000001,
      "alpha": 89.99999872393536,
      "beta": 90.00000230501512,
      "gamma": 119.99996419506859,
      "volume": 272.951452021531
    },
    "properties": {},
    "sites": [
      {
        "species": [{ "element": "Sm", "occu": 1 }],
        "abc": [0.33333521, 0.6666679, 0.74999856],
        "properties": { "magmom": 0.28800000000000003 },
        "label": "Sm",
        "xyz": [1.0699422808283634e-5, 4.228299776508971, 4.407214531464984]
      },
      {
        "species": [{ "element": "Sm", "occu": 1 }],
        "abc": [0.66666906, 0.33333425, 0.25000259],
        "properties": { "magmom": 0.28800000000000003 },
        "label": "Sm",
        "xyz": [3.661821719527517, 2.114152669738192, 1.4690894662764011]
      },
      {
        "species": [{ "element": "Y", "occu": 1 }],
        "abc": [0.16603185, 0.33206784, 0.25000203],
        "properties": { "magmom": 0.375 },
        "label": "Y",
        "xyz": [-1.4414482966110806e-5, 2.1061196629248697, 1.4690862605442507]
      },
      {
        "species": [{ "element": "Y", "occu": 1 }],
        "abc": [0.66793259, 0.83396566, 0.25000211],
        "properties": { "magmom": 0.375 },
        "label": "Y",
        "xyz": [1.8378609850528564, 5.289375870133427, 1.4690866904957143]
      },
      {
        "species": [{ "element": "Y", "occu": 1 }],
        "abc": [0.16603175, 0.83396414, 0.2500021],
        "properties": { "magmom": 0.375 },
        "label": "Y",
        "xyz": [-1.837861266679757, 5.289365346283646, 1.4690867170557471]
      },
      {
        "species": [{ "element": "Y", "occu": 1 }],
        "abc": [0.83397182, 0.66794586, 0.74999884],
        "properties": { "magmom": 0.375 },
        "label": "Y",
        "xyz": [3.6618001454234155, 4.236406038469045, 4.407216091835027]
      },
      {
        "species": [{ "element": "Y", "occu": 1 }],
        "abc": [0.33205455, 0.16602642, 0.74999887],
        "properties": { "magmom": 0.375 },
        "label": "Y",
        "xyz": [1.8238828547676313, 1.0530127077425935, 4.407216308277133]
      },
      {
        "species": [{ "element": "Y", "occu": 1 }],
        "abc": [0.83397116, 0.16602393000000001, 0.74999888],
        "properties": { "magmom": 0.375 },
        "label": "Y",
        "xyz": [5.499735283722682, 1.0529977984475978, 4.407216281714058]
      }
    ]
  },
  "task_ids": null,
  "uncorrected_energy_per_atom": null,
  "energy_per_atom": -22.66005587125,
  "formation_energy_per_atom": 0.008375928749995001,
  "energy_above_hull": 0.008375928749995001,
  "is_stable": false,
  "equilibrium_reaction_energy_per_atom": null,
  "decomposes_to": null,
  "xas": null,
  "grain_boundaries": null,
  "band_gap": 0.0,
  "cbm": null,
  "vbm": null,
  "efermi": 3.07462865,
  "is_gap_direct": null,
  "is_metal": null,
  "es_source_calc_id": null,
  "bandstructure": null,
  "dos": null,
  "dos_energy_up": null,
  "dos_energy_down": null,
  "is_magnetic": null,
  "ordering": null,
  "total_magnetization": 5.0287683,
  "total_magnetization_normalized_vol": null,
  "total_magnetization_normalized_formula_units": null,
  "num_magnetic_sites": null,
  "num_unique_magnetic_sites": null,
  "types_of_magnetic_species": null,
  "bulk_modulus": null,
  "shear_modulus": null,
  "universal_anisotropy": null,
  "homogeneous_poisson": null,
  "e_total": null,
  "e_ionic": null,
  "e_electronic": null,
  "n": null,
  "e_ij_max": null,
  "weighted_surface_energy_EV_PER_ANG2": null,
  "weighted_surface_energy": null,
  "weighted_work_function": null,
  "surface_anisotropy": null,
  "shape_factor": null,
  "has_reconstructed": null,
  "possible_species": null,
  "has_props": null,
  "theoretical": null,
  "database_IDs": null,
  "fields_not_requested": [
    "builder_meta",
    "nsites",
    "elements",
    "nelements",
    "composition",
    "composition_reduced",
    "chemsys",
    "symmetry",
    "property_name",
    "deprecated",
    "deprecation_reasons",
    "last_updated",
    "origins",
    "warnings",
    "task_ids",
    "uncorrected_energy_per_atom",
    "equilibrium_reaction_energy_per_atom",
    "decomposes_to",
    "xas",
    "grain_boundaries",
    "cbm",
    "vbm",
    "is_gap_direct",
    "is_metal",
    "es_source_calc_id",
    "bandstructure",
    "dos",
    "dos_energy_up",
    "dos_energy_down",
    "is_magnetic",
    "ordering",
    "total_magnetization_normalized_vol",
    "total_magnetization_normalized_formula_units",
    "num_magnetic_sites",
    "num_unique_magnetic_sites",
    "types_of_magnetic_species",
    "bulk_modulus",
    "shear_modulus",
    "universal_anisotropy",
    "homogeneous_poisson",
    "e_total",
    "e_ionic",
    "e_electronic",
    "n",
    "e_ij_max",
    "weighted_surface_energy_EV_PER_ANG2",
    "weighted_surface_energy",
    "weighted_work_function",
    "surface_anisotropy",
    "shape_factor",
    "has_reconstructed",
    "possible_species",
    "has_props",
    "theoretical",
    "database_IDs"
  ]
}
