{"builder_meta": null, "nsites": null, "elements": null, "nelements": null, "composition": null, "composition_reduced": null, "formula_pretty": "SmZn5", "formula_anonymous": "AB5", "chemsys": null, "volume": 101.71480058835482, "density": 7.793847586630709, "density_atomic": 16.952466764725802, "symmetry": null, "property_name": null, "material_id": "mp-567406", "deprecated": null, "deprecation_reasons": null, "last_updated": null, "origins": null, "warnings": null, "structure": {"@module": "pymatgen.core.structure", "@class": "Structure", "charge": 0, "lattice": {"matrix": [[5.29025404, 0.0, -0.0], [-2.64512651, 4.58149347, 0.0], [-0.0, -0.0, 4.19662876]], "pbc": [true, true, true], "a": 5.29025404, "b": 5.2902529872925195, "c": 4.19662876, "alpha": 90.0, "beta": 90.0, "gamma": 120.00000020451851, "volume": 101.71480058835482}, "properties": {}, "sites": [{"species": [{"element": "Sm", "occu": 1}], "abc": [-0.0, 0.0, -0.0], "properties": {"magmom": 0.0}, "label": "Sm", "xyz": [0.0, 0.0, 0.0]}, {"species": [{"element": "Zn", "occu": 1}], "abc": [0.5, 0.0, 0.5], "properties": {"magmom": -0.0}, "label": "Zn", "xyz": [2.64512702, 0.0, 2.09831438]}, {"species": [{"element": "Zn", "occu": 1}], "abc": [-0.0, 0.5, 0.5], "properties": {"magmom": -0.0}, "label": "Zn", "xyz": [-1.322563255, 2.290746735, 2.09831438]}, {"species": [{"element": "Zn", "occu": 1}], "abc": [0.666667, 0.333333, -0.0], "properties": {"magmom": 0.0}, "label": "Zn", "xyz": [2.64512983512685, 1.52716296283551, 0.0]}, {"species": [{"element": "Zn", "occu": 1}], "abc": [0.5, 0.5, 0.5], "properties": {"magmom": -0.0}, "label": "Zn", "xyz": [1.322563765, 2.290746735, 2.09831438]}, {"species": [{"element": "Zn", "occu": 1}], "abc": [0.333333, 0.666667, -0.0], "properties": {"magmom": 0.0}, "label": "Zn", "xyz": [-2.3051268500662303e-06, 3.0543305071644897, 0.0]}]}, "task_ids": null, "uncorrected_energy_per_atom": null, "energy_per_atom": -2.138487046666666, "formation_energy_per_atom": -0.302269682499999, "energy_above_hull": 0.006163156515143001, "is_stable": false, "equilibrium_reaction_energy_per_atom": null, "decomposes_to": null, "xas": null, "grain_boundaries": null, "band_gap": 0.0, "cbm": null, "vbm": null, "efermi": 3.14617615, "is_gap_direct": null, "is_metal": null, "es_source_calc_id": null, "bandstructure": null, "dos": null, "dos_energy_up": null, "dos_energy_down": null, "is_magnetic": null, "ordering": null, "total_magnetization": 0.0, "total_magnetization_normalized_vol": null, "total_magnetization_normalized_formula_units": null, "num_magnetic_sites": null, "num_unique_magnetic_sites": null, "types_of_magnetic_species": null, "bulk_modulus": null, "shear_modulus": null, "universal_anisotropy": null, "homogeneous_poisson": null, "e_total": null, "e_ionic": null, "e_electronic": null, "n": null, "e_ij_max": null, "weighted_surface_energy_EV_PER_ANG2": null, "weighted_surface_energy": null, "weighted_work_function": null, "surface_anisotropy": null, "shape_factor": null, "has_reconstructed": null, "possible_species": null, "has_props": null, "theoretical": null, "database_IDs": null, "fields_not_requested": ["builder_meta", "nsites", "elements", "nelements", "composition", "composition_reduced", "chemsys", "symmetry", "property_name", "deprecated", "deprecation_reasons", "last_updated", "origins", "warnings", "task_ids", "uncorrected_energy_per_atom", "equilibrium_reaction_energy_per_atom", "decomposes_to", "xas", "grain_boundaries", "cbm", "vbm", "is_gap_direct", "is_metal", "es_source_calc_id", "bandstructure", "dos", "dos_energy_up", "dos_energy_down", "is_magnetic", "ordering", "total_magnetization_normalized_vol", "total_magnetization_normalized_formula_units", "num_magnetic_sites", "num_unique_magnetic_sites", "types_of_magnetic_species", "bulk_modulus", "shear_modulus", "universal_anisotropy", "homogeneous_poisson", "e_total", "e_ionic", "e_electronic", "n", "e_ij_max", "weighted_surface_energy_EV_PER_ANG2", "weighted_surface_energy", "weighted_work_function", "surface_anisotropy", "shape_factor", "has_reconstructed", "possible_species", "has_props", "theoretical", "database_IDs"]}