{"builder_meta": null, "nsites": null, "elements": null, "nelements": null, "composition": null, "composition_reduced": null, "formula_pretty": "SmZn2", "formula_anonymous": "AB2", "chemsys": null, "volume": 123.25551968025502, "density": 7.576245751584806, "density_atomic": 20.542586613375835, "symmetry": null, "property_name": null, "material_id": "mp-962", "deprecated": null, "deprecation_reasons": null, "last_updated": null, "origins": null, "warnings": null, "structure": {"@module": "pymatgen.core.structure", "@class": "Structure", "charge": 0, "lattice": {"matrix": [[4.15425217, -0.0, 1.79581495], [2.01386825, 5.21682197, 1.04424124], [0.00622024, -0.04454486, 5.68852383]], "pbc": [true, true, true], "a": 4.525788597205267, "b": 5.688702537692534, "c": 5.688701635735166, "alpha": 79.81864117053802, "beta": 66.56007527709599, "gamma": 66.56006952551435, "volume": 123.255519680255}, "properties": {}, "sites": [{"species": [{"element": "Sm", "occu": 1}], "abc": [0.53655956, 0.7134404400000001, 0.21344044], "properties": {"magmom": 0.0}, "label": "Sm", "xyz": [3.6671064176087813, 3.7123840871603284, 2.922726638370853]}, {"species": [{"element": "Sm", "occu": 1}], "abc": [0.46344044, 0.28655956, 0.78655956], "properties": {"magmom": 0.0}, "label": "Sm", "xyz": [2.507234242391219, 1.4598930228396714, 5.605853381629148]}, {"species": [{"element": "Zn", "occu": 1}], "abc": [0.83486947, 0.71894605, 0.61131501], "properties": {"magmom": -0.0}, "label": "Zn", "xyz": [4.919923457049965, 3.72338260734837, 5.727504192291367]}, {"species": [{"element": "Zn", "occu": 1}], "abc": [0.16513053, 0.28105395, 0.38868499], "properties": {"magmom": -0.0}, "label": "Zn", "xyz": [1.2544172029500351, 1.44889450265163, 2.801075827708633]}, {"species": [{"element": "Zn", "occu": 1}], "abc": [0.83486947, 0.11131501, 0.21894605], "properties": {"magmom": -0.0}, "label": "Zn", "xyz": [3.6937939687797345, 0.5709576686139667, 2.860990622506961]}, {"species": [{"element": "Zn", "occu": 1}], "abc": [0.16513053, 0.88868499, 0.78105395], "properties": {"magmom": -0.0}, "label": "Zn", "xyz": [2.480546691220266, 4.601319441386033, 5.667589397493041]}]}, "task_ids": null, "uncorrected_energy_per_atom": null, "energy_per_atom": -2.7910240833333333, "formation_energy_per_atom": -0.378332965, "energy_above_hull": 0.0, "is_stable": true, "equilibrium_reaction_energy_per_atom": null, "decomposes_to": null, "xas": null, "grain_boundaries": null, "band_gap": 0.0, "cbm": null, "vbm": null, "efermi": 2.91549876, "is_gap_direct": null, "is_metal": null, "es_source_calc_id": null, "bandstructure": null, "dos": null, "dos_energy_up": null, "dos_energy_down": null, "is_magnetic": null, "ordering": null, "total_magnetization": 0.0, "total_magnetization_normalized_vol": null, "total_magnetization_normalized_formula_units": null, "num_magnetic_sites": null, "num_unique_magnetic_sites": null, "types_of_magnetic_species": null, "bulk_modulus": null, "shear_modulus": null, "universal_anisotropy": null, "homogeneous_poisson": null, "e_total": null, "e_ionic": null, "e_electronic": null, "n": null, "e_ij_max": null, "weighted_surface_energy_EV_PER_ANG2": null, "weighted_surface_energy": null, "weighted_work_function": null, "surface_anisotropy": null, "shape_factor": null, "has_reconstructed": null, "possible_species": null, "has_props": null, "theoretical": null, "database_IDs": null, "fields_not_requested": ["builder_meta", "nsites", "elements", "nelements", "composition", "composition_reduced", "chemsys", "symmetry", "property_name", "deprecated", "deprecation_reasons", "last_updated", "origins", "warnings", "task_ids", "uncorrected_energy_per_atom", "equilibrium_reaction_energy_per_atom", "decomposes_to", "xas", "grain_boundaries", "cbm", "vbm", "is_gap_direct", "is_metal", "es_source_calc_id", "bandstructure", "dos", "dos_energy_up", "dos_energy_down", "is_magnetic", "ordering", "total_magnetization_normalized_vol", "total_magnetization_normalized_formula_units", "num_magnetic_sites", "num_unique_magnetic_sites", "types_of_magnetic_species", "bulk_modulus", "shear_modulus", "universal_anisotropy", "homogeneous_poisson", "e_total", "e_ionic", "e_electronic", "n", "e_ij_max", "weighted_surface_energy_EV_PER_ANG2", "weighted_surface_energy", "weighted_work_function", "surface_anisotropy", "shape_factor", "has_reconstructed", "possible_species", "has_props", "theoretical", "database_IDs"]}