{
  "builder_meta": null,
  "nsites": null,
  "elements": null,
  "nelements": null,
  "composition": null,
  "composition_reduced": null,
  "formula_pretty": "SmZn3",
  "formula_anonymous": "AB3",
  "chemsys": null,
  "volume": 299.9580490739341,
  "density": 7.67468991417315,
  "density_atomic": 18.74737806712088,
  "symmetry": null,
  "property_name": null,
  "material_id": "mp-1106231",
  "deprecated": null,
  "deprecation_reasons": null,
  "last_updated": null,
  "origins": null,
  "warnings": null,
  "structure": {
    "@module": "pymatgen.core.structure",
    "@class": "Structure",
    "charge": 0,
    "lattice": {
      "matrix": [
        [4.43691308, 0.0, 0.0],
        [0.0, 6.7023253700000005, 0.0],
        [0.0, 0.0, 10.08681585]
      ],
      "pbc": [true, true, true],
      "a": 4.43691308,
      "b": 6.7023253700000005,
      "c": 10.08681585,
      "alpha": 90.0,
      "beta": 90.0,
      "gamma": 90.0,
      "volume": 299.95804907393415
    },
    "properties": {},
    "sites": [
      {
        "species": [{ "element": "Sm", "occu": 1 }],
        "abc": [0.25, 0.28242387, 0.65787784],
        "properties": { "magmom": -0.0 },
        "label": "Sm",
        "xyz": [1.10922827, 1.892896668994582, 6.6358926238757645]
      },
      {
        "species": [{ "element": "Sm", "occu": 1 }],
        "abc": [0.25, 0.78242387, 0.8421221600000001],
        "properties": { "magmom": -0.0 },
        "label": "Sm",
        "xyz": [1.10922827, 5.244059353994582, 8.494331151124237]
      },
      {
        "species": [{ "element": "Sm", "occu": 1 }],
        "abc": [0.75, 0.71761199, 0.34219031],
        "properties": { "magmom": 0.0 },
        "label": "Sm",
        "xyz": [3.32768481, 4.809669046393187, 3.4516106426244137]
      },
      {
        "species": [{ "element": "Sm", "occu": 1 }],
        "abc": [0.75, 0.21761199, 0.15780969],
        "properties": { "magmom": 0.0 },
        "label": "Sm",
        "xyz": [3.32768481, 1.4585063613931863, 1.5917972823755866]
      },
      {
        "species": [{ "element": "Zn", "occu": 1 }],
        "abc": [0.25, 0.53403701, 0.10555253],
        "properties": { "magmom": -0.0 },
        "label": "Zn",
        "xyz": [1.10922827, 3.579289800641944, 1.0646889326116007]
      },
      {
        "species": [{ "element": "Zn", "occu": 1 }],
        "abc": [0.25, 0.03403701, 0.39444747],
        "properties": { "magmom": -0.0 },
        "label": "Zn",
        "xyz": [1.10922827, 0.2281271156419437, 3.9787189923884]
      },
      {
        "species": [{ "element": "Zn", "occu": 1 }],
        "abc": [0.75, 0.4659355, 0.89425024],
        "properties": { "magmom": 0.0 },
        "label": "Zn",
        "xyz": [3.32768481, 3.122851322433635, 9.020137494698304]
      },
      {
        "species": [{ "element": "Zn", "occu": 1 }],
        "abc": [0.75, 0.9659355, 0.60574976],
        "properties": { "magmom": 0.0 },
        "label": "Zn",
        "xyz": [3.32768481, 6.474014007433635, 6.110086280301696]
      },
      {
        "species": [{ "element": "Zn", "occu": 1 }],
        "abc": [0.25, 0.9113082, 0.14738264],
        "properties": { "magmom": 0.0 },
        "label": "Zn",
        "xyz": [1.10922827, 6.107884068749034, 1.4866215491668442]
      },
      {
        "species": [{ "element": "Zn", "occu": 1 }],
        "abc": [0.25, 0.411308199999999, 0.35261736],
        "properties": { "magmom": 0.0 },
        "label": "Zn",
        "xyz": [1.10922827, 2.7567213837490274, 3.556786375833156]
      },
      {
        "species": [{ "element": "Zn", "occu": 1 }],
        "abc": [0.75, 0.08869959000000001, 0.85240961],
        "properties": { "magmom": -0.0 },
        "label": "Zn",
        "xyz": [3.32768481, 0.5944935123655984, 8.59809876484032]
      },
      {
        "species": [{ "element": "Zn", "occu": 1 }],
        "abc": [0.75, 0.58869959, 0.64759039],
        "properties": { "magmom": -0.0 },
        "label": "Zn",
        "xyz": [3.32768481, 3.945656197365599, 6.532125010159682]
      },
      {
        "species": [{ "element": "Zn", "occu": 1 }],
        "abc": [0.25, 0.22221143000000002, 0.95410544],
        "properties": { "magmom": 0.0 },
        "label": "Zn",
        "xyz": [1.10922827, 1.4893333047929793, 9.623885874763225]
      },
      {
        "species": [{ "element": "Zn", "occu": 1 }],
        "abc": [0.25, 0.72221143, 0.54589456],
        "properties": { "magmom": 0.0 },
        "label": "Zn",
        "xyz": [1.10922827, 4.84049598979298, 5.506337900236777]
      },
      {
        "species": [{ "element": "Zn", "occu": 1 }],
        "abc": [0.75, 0.77777143, 0.04563367],
        "properties": { "magmom": -0.0 },
        "label": "Zn",
        "xyz": [3.32768481, 5.21287718735018, 0.46029842584966957]
      },
      {
        "species": [{ "element": "Zn", "occu": 1 }],
        "abc": [0.75, 0.27777143, 0.45436633],
        "properties": { "magmom": -0.0 },
        "label": "Zn",
        "xyz": [3.32768481, 1.861714502350179, 4.58310949915033]
      }
    ]
  },
  "task_ids": null,
  "uncorrected_energy_per_atom": null,
  "energy_per_atom": -2.482010369999999,
  "formation_energy_per_atom": -0.35755612874999904,
  "energy_above_hull": 0.0,
  "is_stable": true,
  "equilibrium_reaction_energy_per_atom": null,
  "decomposes_to": null,
  "xas": null,
  "grain_boundaries": null,
  "band_gap": 0.0,
  "cbm": null,
  "vbm": null,
  "efermi": 2.85069455,
  "is_gap_direct": null,
  "is_metal": null,
  "es_source_calc_id": null,
  "bandstructure": null,
  "dos": null,
  "dos_energy_up": null,
  "dos_energy_down": null,
  "is_magnetic": null,
  "ordering": null,
  "total_magnetization": 2e-7,
  "total_magnetization_normalized_vol": null,
  "total_magnetization_normalized_formula_units": null,
  "num_magnetic_sites": null,
  "num_unique_magnetic_sites": null,
  "types_of_magnetic_species": null,
  "bulk_modulus": null,
  "shear_modulus": null,
  "universal_anisotropy": null,
  "homogeneous_poisson": null,
  "e_total": null,
  "e_ionic": null,
  "e_electronic": null,
  "n": null,
  "e_ij_max": null,
  "weighted_surface_energy_EV_PER_ANG2": null,
  "weighted_surface_energy": null,
  "weighted_work_function": null,
  "surface_anisotropy": null,
  "shape_factor": null,
  "has_reconstructed": null,
  "possible_species": null,
  "has_props": null,
  "theoretical": null,
  "database_IDs": null,
  "fields_not_requested": [
    "builder_meta",
    "nsites",
    "elements",
    "nelements",
    "composition",
    "composition_reduced",
    "chemsys",
    "symmetry",
    "property_name",
    "deprecated",
    "deprecation_reasons",
    "last_updated",
    "origins",
    "warnings",
    "task_ids",
    "uncorrected_energy_per_atom",
    "equilibrium_reaction_energy_per_atom",
    "decomposes_to",
    "xas",
    "grain_boundaries",
    "cbm",
    "vbm",
    "is_gap_direct",
    "is_metal",
    "es_source_calc_id",
    "bandstructure",
    "dos",
    "dos_energy_up",
    "dos_energy_down",
    "is_magnetic",
    "ordering",
    "total_magnetization_normalized_vol",
    "total_magnetization_normalized_formula_units",
    "num_magnetic_sites",
    "num_unique_magnetic_sites",
    "types_of_magnetic_species",
    "bulk_modulus",
    "shear_modulus",
    "universal_anisotropy",
    "homogeneous_poisson",
    "e_total",
    "e_ionic",
    "e_electronic",
    "n",
    "e_ij_max",
    "weighted_surface_energy_EV_PER_ANG2",
    "weighted_surface_energy",
    "weighted_work_function",
    "surface_anisotropy",
    "shape_factor",
    "has_reconstructed",
    "possible_species",
    "has_props",
    "theoretical",
    "database_IDs"
  ]
}
