{
  "builder_meta": null,
  "nsites": null,
  "elements": null,
  "nelements": null,
  "composition": null,
  "composition_reduced": null,
  "formula_pretty": "SN",
  "formula_anonymous": "AB",
  "chemsys": null,
  "volume": 168.31045382545676,
  "density": 1.8181605711553042,
  "density_atomic": 21.038806728182095,
  "symmetry": null,
  "property_name": null,
  "material_id": "mp-235",
  "deprecated": null,
  "deprecation_reasons": null,
  "last_updated": null,
  "origins": null,
  "warnings": null,
  "structure": {
    "@module": "pymatgen.core.structure",
    "@class": "Structure",
    "charge": 0,
    "lattice": {
      "matrix": [
        [4.533511, 0.0, 0.0],
        [0.0, 4.757116, 0.0],
        [0.0, 3.16522, 7.804277]
      ],
      "pbc": [true, true, true],
      "a": 4.533511,
      "b": 4.757116,
      "c": 8.421719369649466,
      "alpha": 67.9237532375369,
      "beta": 90.0,
      "gamma": 90.0,
      "volume": 168.31045382545676
    },
    "properties": {},
    "sites": [
      {
        "species": [{ "element": "S", "occu": 1 }],
        "abc": [0.28424699999999903, 0.166516, 0.164801],
        "properties": { "magmom": 0.0 },
        "label": "S",
        "xyz": [1.2886369012169956, 1.313767349076, 1.286152653877]
      },
      {
        "species": [{ "element": "S", "occu": 1 }],
        "abc": [0.784246999999999, 0.833484, 0.335198999999999],
        "properties": { "magmom": 0.0 },
        "label": "S",
        "xyz": [3.5553924012169955, 5.025958650923997, 2.6159858461229923]
      },
      {
        "species": [{ "element": "S", "occu": 1 }],
        "abc": [0.715753, 0.833484, 0.835198999999999],
        "properties": { "magmom": 0.0 },
        "label": "S",
        "xyz": [3.244874098783, 6.608568650923997, 6.518124346122993]
      },
      {
        "species": [{ "element": "S", "occu": 1 }],
        "abc": [0.215753, 0.166516, 0.664801],
        "properties": { "magmom": 0.0 },
        "label": "S",
        "xyz": [0.978118598783, 2.896377349076, 5.188291153877]
      },
      {
        "species": [{ "element": "N", "occu": 1 }],
        "abc": [0.9349459999999991, 0.12284199999999901, 0.187225],
        "properties": { "magmom": 0.0 },
        "label": "N",
        "xyz": [4.238587975405996, 1.1769819581719954, 1.461155761325]
      },
      {
        "species": [{ "element": "N", "occu": 1 }],
        "abc": [0.434946, 0.877158, 0.312774999999999],
        "properties": { "magmom": 0.0 },
        "label": "N",
        "xyz": [1.971832475406, 5.162744041827996, 2.4409827386749923]
      },
      {
        "species": [{ "element": "N", "occu": 1 }],
        "abc": [0.065054, 0.877158, 0.812774999999999],
        "properties": { "magmom": 0.0 },
        "label": "N",
        "xyz": [0.294923024594, 6.745354041827996, 6.343121238674993]
      },
      {
        "species": [{ "element": "N", "occu": 1 }],
        "abc": [0.565054, 0.12284199999999901, 0.687225],
        "properties": { "magmom": 0.0 },
        "label": "N",
        "xyz": [2.5616785245939995, 2.7595919581719954, 5.363294261325]
      }
    ]
  },
  "task_ids": null,
  "uncorrected_energy_per_atom": null,
  "energy_per_atom": -8.21876317078125,
  "formation_energy_per_atom": 0.36311170593750003,
  "energy_above_hull": 0.36311170593750003,
  "is_stable": false,
  "equilibrium_reaction_energy_per_atom": null,
  "decomposes_to": null,
  "xas": null,
  "grain_boundaries": null,
  "band_gap": 0.0,
  "cbm": null,
  "vbm": null,
  "efermi": 1.97603354,
  "is_gap_direct": null,
  "is_metal": null,
  "es_source_calc_id": null,
  "bandstructure": null,
  "dos": null,
  "dos_energy_up": null,
  "dos_energy_down": null,
  "is_magnetic": null,
  "ordering": null,
  "total_magnetization": 3e-7,
  "total_magnetization_normalized_vol": null,
  "total_magnetization_normalized_formula_units": null,
  "num_magnetic_sites": null,
  "num_unique_magnetic_sites": null,
  "types_of_magnetic_species": null,
  "bulk_modulus": null,
  "shear_modulus": null,
  "universal_anisotropy": null,
  "homogeneous_poisson": null,
  "e_total": null,
  "e_ionic": null,
  "e_electronic": null,
  "n": null,
  "e_ij_max": null,
  "weighted_surface_energy_EV_PER_ANG2": null,
  "weighted_surface_energy": null,
  "weighted_work_function": null,
  "surface_anisotropy": null,
  "shape_factor": null,
  "has_reconstructed": null,
  "possible_species": null,
  "has_props": null,
  "theoretical": null,
  "database_IDs": null,
  "fields_not_requested": [
    "builder_meta",
    "nsites",
    "elements",
    "nelements",
    "composition",
    "composition_reduced",
    "chemsys",
    "symmetry",
    "property_name",
    "deprecated",
    "deprecation_reasons",
    "last_updated",
    "origins",
    "warnings",
    "task_ids",
    "uncorrected_energy_per_atom",
    "equilibrium_reaction_energy_per_atom",
    "decomposes_to",
    "xas",
    "grain_boundaries",
    "cbm",
    "vbm",
    "is_gap_direct",
    "is_metal",
    "es_source_calc_id",
    "bandstructure",
    "dos",
    "dos_energy_up",
    "dos_energy_down",
    "is_magnetic",
    "ordering",
    "total_magnetization_normalized_vol",
    "total_magnetization_normalized_formula_units",
    "num_magnetic_sites",
    "num_unique_magnetic_sites",
    "types_of_magnetic_species",
    "bulk_modulus",
    "shear_modulus",
    "universal_anisotropy",
    "homogeneous_poisson",
    "e_total",
    "e_ionic",
    "e_electronic",
    "n",
    "e_ij_max",
    "weighted_surface_energy_EV_PER_ANG2",
    "weighted_surface_energy",
    "weighted_work_function",
    "surface_anisotropy",
    "shape_factor",
    "has_reconstructed",
    "possible_species",
    "has_props",
    "theoretical",
    "database_IDs"
  ]
}
