{"builder_meta": null, "nsites": null, "elements": null, "nelements": null, "composition": null, "composition_reduced": null, "formula_pretty": "Sn2Au", "formula_anonymous": "AB2", "chemsys": null, "volume": 591.6425241929887, "density": 9.753401262895693, "density_atomic": 24.65177184137453, "symmetry": null, "property_name": null, "material_id": "mp-1462", "deprecated": null, "deprecation_reasons": null, "last_updated": null, "origins": null, "warnings": null, "structure": {"@module": "pymatgen.core.structure", "@class": "Structure", "charge": 0, "lattice": {"matrix": [[6.95608227, 0.0, 0.0], [-0.0, 7.06648085, 0.0], [0.0, 0.0, 12.03625791]], "pbc": [true, true, true], "a": 6.95608227, "b": 7.06648085, "c": 12.03625791, "alpha": 90.0, "beta": 90.0, "gamma": 90.0, "volume": 591.6425241929887}, "properties": {}, "sites": [{"species": [{"element": "Sn", "occu": 1}], "abc": [0.62887777, 0.51899849, 0.32617936000000003], "properties": {"magmom": -0.0}, "label": "Sn", "xyz": [4.3745255058941375, 3.667492890763916, 3.925978901878738]}, {"species": [{"element": "Sn", "occu": 1}], "abc": [0.12887777, 0.98100151, 0.67382064], "properties": {"magmom": -0.0}, "label": "Sn", "xyz": [0.8964843708941379, 6.932228384236083, 8.110279008121262]}, {"species": [{"element": "Sn", "occu": 1}], "abc": [0.37112223, 0.01899849, 0.17382064], "properties": {"magmom": -0.0}, "label": "Sn", "xyz": [2.581556764105862, 0.1342524657639165, 2.0921500531212622]}, {"species": [{"element": "Sn", "occu": 1}], "abc": [0.87112223, 0.48100151, 0.82617936], "properties": {"magmom": -0.0}, "label": "Sn", "xyz": [6.059597899105862, 3.3989879592360834, 9.944107856878738]}, {"species": [{"element": "Sn", "occu": 1}], "abc": [0.37112223, 0.48100151, 0.67382064], "properties": {"magmom": -0.0}, "label": "Sn", "xyz": [2.581556764105862, 3.3989879592360834, 8.110279008121262]}, {"species": [{"element": "Sn", "occu": 1}], "abc": [0.87112223, 0.01899849, 0.32617936000000003], "properties": {"magmom": -0.0}, "label": "Sn", "xyz": [6.059597899105862, 0.1342524657639165, 3.925978901878738]}, {"species": [{"element": "Sn", "occu": 1}], "abc": [0.62887777, 0.98100151, 0.82617936], "properties": {"magmom": -0.0}, "label": "Sn", "xyz": [4.3745255058941375, 6.932228384236083, 9.944107856878738]}, {"species": [{"element": "Sn", "occu": 1}], "abc": [0.12887777, 0.51899849, 0.17382064], "properties": {"magmom": -0.0}, "label": "Sn", "xyz": [0.8964843708941379, 3.667492890763916, 2.0921500531212622]}, {"species": [{"element": "Sn", "occu": 1}], "abc": [0.8557093100000001, 0.24298098, 0.08765998], "properties": {"magmom": 0.0}, "label": "Sn", "xyz": [5.952384359564934, 1.717020442084233, 1.0550981276654419]}, {"species": [{"element": "Sn", "occu": 1}], "abc": [0.35570931, 0.25701902, 0.91234002], "properties": {"magmom": 0.0}, "label": "Sn", "xyz": [2.4743432245649335, 1.8162199829157668, 10.981159782334558]}, {"species": [{"element": "Sn", "occu": 1}], "abc": [0.14429069, 0.74298098, 0.41234002000000003], "properties": {"magmom": 0.0}, "label": "Sn", "xyz": [1.0036979104350663, 5.250260867084233, 4.963030827334558]}, {"species": [{"element": "Sn", "occu": 1}], "abc": [0.64429069, 0.75701902, 0.58765998], "properties": {"magmom": 0.0}, "label": "Sn", "xyz": [4.4817390454350665, 5.349460407915767, 7.073227082665442]}, {"species": [{"element": "Sn", "occu": 1}], "abc": [0.14429069, 0.75701902, 0.91234002], "properties": {"magmom": 0.0}, "label": "Sn", "xyz": [1.0036979104350663, 5.349460407915767, 10.981159782334558]}, {"species": [{"element": "Sn", "occu": 1}], "abc": [0.64429069, 0.74298098, 0.08765998], "properties": {"magmom": 0.0}, "label": "Sn", "xyz": [4.4817390454350665, 5.250260867084233, 1.0550981276654419]}, {"species": [{"element": "Sn", "occu": 1}], "abc": [0.8557093100000001, 0.25701902, 0.58765998], "properties": {"magmom": 0.0}, "label": "Sn", "xyz": [5.952384359564934, 1.8162199829157668, 7.073227082665442]}, {"species": [{"element": "Sn", "occu": 1}], "abc": [0.35570931, 0.24298098, 0.41234002000000003], "properties": {"magmom": 0.0}, "label": "Sn", "xyz": [2.4743432245649335, 1.717020442084233, 4.963030827334558]}, {"species": [{"element": "Au", "occu": 1}], "abc": [0.51023315, 0.88297424, 0.38122503], "properties": {"magmom": -0.0}, "label": "Au", "xyz": [3.5492237682812506, 6.239520558003304, 4.5885227828274875]}, {"species": [{"element": "Au", "occu": 1}], "abc": [0.01023315, 0.61702576, 0.61877497], "properties": {"magmom": -0.0}, "label": "Au", "xyz": [0.07118263328125049, 4.360200716996696, 7.447735127172513]}, {"species": [{"element": "Au", "occu": 1}], "abc": [0.48976685000000003, 0.38297424, 0.11877497000000001], "properties": {"magmom": -0.0}, "label": "Au", "xyz": [3.4068585017187494, 2.706280133003304, 1.4296061721725128]}, {"species": [{"element": "Au", "occu": 1}], "abc": [0.98976685, 0.11702576, 0.88122503], "properties": {"magmom": -0.0}, "label": "Au", "xyz": [6.884899636718749, 0.826960291996696, 10.606651737827487]}, {"species": [{"element": "Au", "occu": 1}], "abc": [0.48976685000000003, 0.11702576, 0.61877497], "properties": {"magmom": -0.0}, "label": "Au", "xyz": [3.4068585017187494, 0.826960291996696, 7.447735127172513]}, {"species": [{"element": "Au", "occu": 1}], "abc": [0.98976685, 0.38297424, 0.38122503], "properties": {"magmom": -0.0}, "label": "Au", "xyz": [6.884899636718749, 2.706280133003304, 4.5885227828274875]}, {"species": [{"element": "Au", "occu": 1}], "abc": [0.51023315, 0.61702576, 0.88122503], "properties": {"magmom": -0.0}, "label": "Au", "xyz": [3.5492237682812506, 4.360200716996696, 10.606651737827487]}, {"species": [{"element": "Au", "occu": 1}], "abc": [0.01023315, 0.88297424, 0.11877497000000001], "properties": {"magmom": -0.0}, "label": "Au", "xyz": [0.07118263328125049, 6.239520558003304, 1.4296061721725128]}]}, "task_ids": null, "uncorrected_energy_per_atom": null, "energy_per_atom": -33.454592652500004, "formation_energy_per_atom": -0.09548341583333701, "energy_above_hull": 0.00021170416666600002, "is_stable": false, "equilibrium_reaction_energy_per_atom": null, "decomposes_to": null, "xas": null, "grain_boundaries": null, "band_gap": 0.0, "cbm": null, "vbm": null, "efermi": 6.67276872, "is_gap_direct": null, "is_metal": null, "es_source_calc_id": null, "bandstructure": null, "dos": null, "dos_energy_up": null, "dos_energy_down": null, "is_magnetic": null, "ordering": null, "total_magnetization": 1e-07, "total_magnetization_normalized_vol": null, "total_magnetization_normalized_formula_units": null, "num_magnetic_sites": null, "num_unique_magnetic_sites": null, "types_of_magnetic_species": null, "bulk_modulus": null, "shear_modulus": null, "universal_anisotropy": null, "homogeneous_poisson": null, "e_total": null, "e_ionic": null, "e_electronic": null, "n": null, "e_ij_max": null, "weighted_surface_energy_EV_PER_ANG2": null, "weighted_surface_energy": null, "weighted_work_function": null, "surface_anisotropy": null, "shape_factor": null, "has_reconstructed": null, "possible_species": null, "has_props": null, "theoretical": null, "database_IDs": null, "fields_not_requested": ["builder_meta", "nsites", "elements", "nelements", "composition", "composition_reduced", "chemsys", "symmetry", "property_name", "deprecated", "deprecation_reasons", "last_updated", "origins", "warnings", "task_ids", "uncorrected_energy_per_atom", "equilibrium_reaction_energy_per_atom", "decomposes_to", "xas", "grain_boundaries", "cbm", "vbm", "is_gap_direct", "is_metal", "es_source_calc_id", "bandstructure", "dos", "dos_energy_up", "dos_energy_down", "is_magnetic", "ordering", "total_magnetization_normalized_vol", "total_magnetization_normalized_formula_units", "num_magnetic_sites", "num_unique_magnetic_sites", "types_of_magnetic_species", "bulk_modulus", "shear_modulus", "universal_anisotropy", "homogeneous_poisson", "e_total", "e_ionic", "e_electronic", "n", "e_ij_max", "weighted_surface_energy_EV_PER_ANG2", "weighted_surface_energy", "weighted_work_function", "surface_anisotropy", "shape_factor", "has_reconstructed", "possible_species", "has_props", "theoretical", "database_IDs"]}