{
  "builder_meta": null,
  "nsites": null,
  "elements": null,
  "nelements": null,
  "composition": null,
  "composition_reduced": null,
  "formula_pretty": "Sn2Mo",
  "formula_anonymous": "AB2",
  "chemsys": null,
  "volume": 375.60679926912917,
  "density": 8.842608349778171,
  "density_atomic": 20.86704440384051,
  "symmetry": null,
  "property_name": null,
  "material_id": "mp-30047",
  "deprecated": null,
  "deprecation_reasons": null,
  "last_updated": null,
  "origins": null,
  "warnings": null,
  "structure": {
    "@module": "pymatgen.core.structure",
    "@class": "Structure",
    "charge": 0,
    "lattice": {
      "matrix": [
        [5.51722159, -1e-8, -0.0],
        [-2.7586113, 4.77805498, -0.0],
        [0.0, -0.0, 14.24826146]
      ],
      "pbc": [true, true, true],
      "a": 5.51722159,
      "b": 5.517222643358748,
      "c": 14.24826146,
      "alpha": 90.0,
      "beta": 90.0,
      "gamma": 119.999999843882,
      "volume": 375.60679926912917
    },
    "properties": {},
    "sites": [
      {
        "species": [{ "element": "Sn", "occu": 1 }],
        "abc": [0.5, 0.0, 0.39683887],
        "properties": { "magmom": -0.0 },
        "label": "Sn",
        "xyz": [2.758610795, -5e-9, 5.654263977250951]
      },
      {
        "species": [{ "element": "Sn", "occu": 1 }],
        "abc": [0.5, 0.5, 0.7301718700000001],
        "properties": { "magmom": -0.0 },
        "label": "Sn",
        "xyz": [1.379305145, 2.389027485, 10.40367971449713]
      },
      {
        "species": [{ "element": "Sn", "occu": 1 }],
        "abc": [0.0, 0.5, 0.06350487],
        "properties": { "magmom": -0.0 },
        "label": "Sn",
        "xyz": [-1.37930565, 2.38902749, 0.9048339917433103]
      },
      {
        "species": [{ "element": "Sn", "occu": 1 }],
        "abc": [0.5, 0.0, 0.60316113],
        "properties": { "magmom": -0.0 },
        "label": "Sn",
        "xyz": [2.758610795, -5e-9, 8.593997482749051]
      },
      {
        "species": [{ "element": "Sn", "occu": 1 }],
        "abc": [0.5, 0.5, 0.9364951300000001],
        "properties": { "magmom": -0.0 },
        "label": "Sn",
        "xyz": [1.379305145, 2.389027485, 13.34342746825669]
      },
      {
        "species": [{ "element": "Sn", "occu": 1 }],
        "abc": [0.0, 0.5, 0.26982813],
        "properties": { "magmom": -0.0 },
        "label": "Sn",
        "xyz": [-1.37930565, 2.38902749, 3.84458174550287]
      },
      {
        "species": [{ "element": "Sn", "occu": 1 }],
        "abc": [0.16738144, 0.33476288, 0.5],
        "properties": { "magmom": -0.0 },
        "label": "Sn",
        "xyz": [-1.6905525435095825e-7, 1.599515444229328, 7.12413073]
      },
      {
        "species": [{ "element": "Sn", "occu": 1 }],
        "abc": [0.83261856, 0.16738144, 0.833333],
        "properties": { "magmom": -0.0 },
        "label": "Sn",
        "xyz": [4.132000763672439, 0.7997577146253856, 11.87354646724618]
      },
      {
        "species": [{ "element": "Sn", "occu": 1 }],
        "abc": [0.33476288, 0.16738144, 0.166666999999999],
        "properties": { "magmom": -0.0 },
        "label": "Sn",
        "xyz": [1.3852206572723071, 0.7997577196039424, 2.374714992753806]
      },
      {
        "species": [{ "element": "Sn", "occu": 1 }],
        "abc": [0.66523712, 0.83261856, 0.166666999999999],
        "properties": { "magmom": -0.0 },
        "label": "Sn",
        "xyz": [1.3733896327276929, 3.978297250396058, 2.374714992753806]
      },
      {
        "species": [{ "element": "Sn", "occu": 1 }],
        "abc": [0.16738144, 0.83261856, 0.833333],
        "properties": { "magmom": -0.0 },
        "label": "Sn",
        "xyz": [-1.3733904736724387, 3.9782972553746148, 11.87354646724618]
      },
      {
        "species": [{ "element": "Sn", "occu": 1 }],
        "abc": [0.83261856, 0.66523712, 0.5],
        "properties": { "magmom": -0.0 },
        "label": "Sn",
        "xyz": [2.7586104590552543, 3.1785395257706726, 7.12413073]
      },
      {
        "species": [{ "element": "Mo", "occu": 1 }],
        "abc": [0.0, 0.0, 0.0],
        "properties": { "magmom": -0.0 },
        "label": "Mo",
        "xyz": [0.0, 0.0, 0.0]
      },
      {
        "species": [{ "element": "Mo", "occu": 1 }],
        "abc": [0.0, 0.0, 0.333333],
        "properties": { "magmom": -0.0 },
        "label": "Mo",
        "xyz": [0.0, 0.0, 4.74941573724618]
      },
      {
        "species": [{ "element": "Mo", "occu": 1 }],
        "abc": [0.0, 0.0, 0.666667],
        "properties": { "magmom": -0.0 },
        "label": "Mo",
        "xyz": [0.0, 0.0, 9.49884572275382]
      },
      {
        "species": [{ "element": "Mo", "occu": 1 }],
        "abc": [0.5, 0.0, 0.0],
        "properties": { "magmom": 0.0 },
        "label": "Mo",
        "xyz": [2.758610795, -5e-9, 0.0]
      },
      {
        "species": [{ "element": "Mo", "occu": 1 }],
        "abc": [0.5, 0.5, 0.333333],
        "properties": { "magmom": 0.0 },
        "label": "Mo",
        "xyz": [1.379305145, 2.389027485, 4.74941573724618]
      },
      {
        "species": [{ "element": "Mo", "occu": 1 }],
        "abc": [0.0, 0.5, 0.666667],
        "properties": { "magmom": 0.0 },
        "label": "Mo",
        "xyz": [-1.37930565, 2.38902749, 9.49884572275382]
      }
    ]
  },
  "task_ids": null,
  "uncorrected_energy_per_atom": null,
  "energy_per_atom": -25.127581390000003,
  "formation_energy_per_atom": 0.06053427666666401,
  "energy_above_hull": 0.060534276666665006,
  "is_stable": false,
  "equilibrium_reaction_energy_per_atom": null,
  "decomposes_to": null,
  "xas": null,
  "grain_boundaries": null,
  "band_gap": 0.0,
  "cbm": null,
  "vbm": null,
  "efermi": 9.11007844,
  "is_gap_direct": null,
  "is_metal": null,
  "es_source_calc_id": null,
  "bandstructure": null,
  "dos": null,
  "dos_energy_up": null,
  "dos_energy_down": null,
  "is_magnetic": null,
  "ordering": null,
  "total_magnetization": 4e-7,
  "total_magnetization_normalized_vol": null,
  "total_magnetization_normalized_formula_units": null,
  "num_magnetic_sites": null,
  "num_unique_magnetic_sites": null,
  "types_of_magnetic_species": null,
  "bulk_modulus": null,
  "shear_modulus": null,
  "universal_anisotropy": null,
  "homogeneous_poisson": null,
  "e_total": null,
  "e_ionic": null,
  "e_electronic": null,
  "n": null,
  "e_ij_max": null,
  "weighted_surface_energy_EV_PER_ANG2": null,
  "weighted_surface_energy": null,
  "weighted_work_function": null,
  "surface_anisotropy": null,
  "shape_factor": null,
  "has_reconstructed": null,
  "possible_species": null,
  "has_props": null,
  "theoretical": null,
  "database_IDs": null,
  "fields_not_requested": [
    "builder_meta",
    "nsites",
    "elements",
    "nelements",
    "composition",
    "composition_reduced",
    "chemsys",
    "symmetry",
    "property_name",
    "deprecated",
    "deprecation_reasons",
    "last_updated",
    "origins",
    "warnings",
    "task_ids",
    "uncorrected_energy_per_atom",
    "equilibrium_reaction_energy_per_atom",
    "decomposes_to",
    "xas",
    "grain_boundaries",
    "cbm",
    "vbm",
    "is_gap_direct",
    "is_metal",
    "es_source_calc_id",
    "bandstructure",
    "dos",
    "dos_energy_up",
    "dos_energy_down",
    "is_magnetic",
    "ordering",
    "total_magnetization_normalized_vol",
    "total_magnetization_normalized_formula_units",
    "num_magnetic_sites",
    "num_unique_magnetic_sites",
    "types_of_magnetic_species",
    "bulk_modulus",
    "shear_modulus",
    "universal_anisotropy",
    "homogeneous_poisson",
    "e_total",
    "e_ionic",
    "e_electronic",
    "n",
    "e_ij_max",
    "weighted_surface_energy_EV_PER_ANG2",
    "weighted_surface_energy",
    "weighted_work_function",
    "surface_anisotropy",
    "shape_factor",
    "has_reconstructed",
    "possible_species",
    "has_props",
    "theoretical",
    "database_IDs"
  ]
}
