{"builder_meta": null, "nsites": null, "elements": null, "nelements": null, "composition": null, "composition_reduced": null, "formula_pretty": "Sn2O3", "formula_anonymous": "A2B3", "chemsys": null, "volume": 354.94434662395867, "density": 5.341097283859774, "density_atomic": 17.747217331197934, "symmetry": null, "property_name": null, "material_id": "mp-1046850", "deprecated": null, "deprecation_reasons": null, "last_updated": null, "origins": null, "warnings": null, "structure": {"@module": "pymatgen.core.structure", "@class": "Structure", "charge": 0, "lattice": {"matrix": [[1.654408, -5.102096, 0.0], [1.654408, 5.102096, 0.0], [0.0, 0.0, 21.025146]], "pbc": [true, true, true], "a": 5.363622789093208, "b": 5.363622789093208, "c": 21.025146, "alpha": 90.0, "beta": 90.0, "gamma": 144.0683423519608, "volume": 354.94434662395867}, "properties": {}, "sites": [{"species": [{"element": "Sn", "occu": 1}], "abc": [0.636305999999999, 0.363693999999999, 0.040469], "properties": {"magmom": -0.0}, "label": "Sn", "xyz": [1.654407999999997, -1.390892594752, 0.8508666334739999]}, {"species": [{"element": "Sn", "occu": 1}], "abc": [0.363693999999999, 0.636305999999999, 0.959530999999999], "properties": {"magmom": -0.0}, "label": "Sn", "xyz": [1.654407999999997, 1.390892594752, 20.17427936652598]}, {"species": [{"element": "Sn", "occu": 1}], "abc": [0.636305999999999, 0.363693999999999, 0.459530999999999], "properties": {"magmom": -0.0}, "label": "Sn", "xyz": [1.654407999999997, -1.390892594752, 9.66170636652598]}, {"species": [{"element": "Sn", "occu": 1}], "abc": [0.363693999999999, 0.636305999999999, 0.540469], "properties": {"magmom": -0.0}, "label": "Sn", "xyz": [1.654407999999997, 1.390892594752, 11.363439633474]}, {"species": [{"element": "Sn", "occu": 1}], "abc": [0.081203, 0.918797, 0.662999], "properties": {"magmom": -0.0}, "label": "Sn", "xyz": [1.654408, 4.273484997024, 13.939650772854]}, {"species": [{"element": "Sn", "occu": 1}], "abc": [0.918797, 0.081203, 0.337001], "properties": {"magmom": -0.0}, "label": "Sn", "xyz": [1.654408, -4.273484997024, 7.085495227146]}, {"species": [{"element": "Sn", "occu": 1}], "abc": [0.918797, 0.081203, 0.162999], "properties": {"magmom": -0.0}, "label": "Sn", "xyz": [1.654408, -4.273484997024, 3.427077772854]}, {"species": [{"element": "Sn", "occu": 1}], "abc": [0.081203, 0.918797, 0.837001], "properties": {"magmom": -0.0}, "label": "Sn", "xyz": [1.654408, 4.273484997024, 17.598068227146]}, {"species": [{"element": "O", "occu": 1}], "abc": [0.0, 0.0, 0.5], "properties": {"magmom": 0.0}, "label": "O", "xyz": [0.0, 0.0, 10.512573]}, {"species": [{"element": "O", "occu": 1}], "abc": [0.0, 0.0, 0.0], "properties": {"magmom": 0.0}, "label": "O", "xyz": [0.0, 0.0, 0.0]}, {"species": [{"element": "O", "occu": 1}], "abc": [0.45363000000000003, 0.54637, 0.876088], "properties": {"magmom": 0.0}, "label": "O", "xyz": [1.654408, 0.47316838304, 18.419878108848]}, {"species": [{"element": "O", "occu": 1}], "abc": [0.54637, 0.45363000000000003, 0.123912], "properties": {"magmom": 0.0}, "label": "O", "xyz": [1.654408, -0.47316838304, 2.6052678911519997]}, {"species": [{"element": "O", "occu": 1}], "abc": [0.54637, 0.45363000000000003, 0.376088], "properties": {"magmom": 0.0}, "label": "O", "xyz": [1.654408, -0.47316838304, 7.907305108847999]}, {"species": [{"element": "O", "occu": 1}], "abc": [0.45363000000000003, 0.54637, 0.623912], "properties": {"magmom": 0.0}, "label": "O", "xyz": [1.654408, 0.47316838304, 13.117840891152]}, {"species": [{"element": "O", "occu": 1}], "abc": [0.739414999999999, 0.260585, 0.9501000000000001], "properties": {"magmom": 0.0}, "label": "O", "xyz": [1.6544079999999985, -2.4430366276799953, 19.9759912146]}, {"species": [{"element": "O", "occu": 1}], "abc": [0.260585, 0.739414999999999, 0.0499], "properties": {"magmom": 0.0}, "label": "O", "xyz": [1.6544079999999985, 2.4430366276799953, 1.0491547854]}, {"species": [{"element": "O", "occu": 1}], "abc": [0.260585, 0.739414999999999, 0.4501], "properties": {"magmom": 0.0}, "label": "O", "xyz": [1.6544079999999985, 2.4430366276799953, 9.463418214599999]}, {"species": [{"element": "O", "occu": 1}], "abc": [0.739414999999999, 0.260585, 0.5499], "properties": {"magmom": 0.0}, "label": "O", "xyz": [1.6544079999999985, -2.4430366276799953, 11.5617277854]}, {"species": [{"element": "O", "occu": 1}], "abc": [0.001414, 0.998586, 0.75], "properties": {"magmom": -0.0}, "label": "O", "xyz": [1.654408, 5.087667272512, 15.7688595]}, {"species": [{"element": "O", "occu": 1}], "abc": [0.998586, 0.001414, 0.25], "properties": {"magmom": -0.0}, "label": "O", "xyz": [1.654408, -5.087667272512, 5.2562865]}]}, "task_ids": null, "uncorrected_energy_per_atom": null, "energy_per_atom": -6.2233693635, "formation_energy_per_atom": -1.650764018499999, "energy_above_hull": 0.266812213750003, "is_stable": false, "equilibrium_reaction_energy_per_atom": null, "decomposes_to": null, "xas": null, "grain_boundaries": null, "band_gap": 0.0, "cbm": null, "vbm": null, "efermi": 4.47320701, "is_gap_direct": null, "is_metal": null, "es_source_calc_id": null, "bandstructure": null, "dos": null, "dos_energy_up": null, "dos_energy_down": null, "is_magnetic": null, "ordering": null, "total_magnetization": 0.0014751, "total_magnetization_normalized_vol": null, "total_magnetization_normalized_formula_units": null, "num_magnetic_sites": null, "num_unique_magnetic_sites": null, "types_of_magnetic_species": null, "bulk_modulus": null, "shear_modulus": null, "universal_anisotropy": null, "homogeneous_poisson": null, "e_total": null, "e_ionic": null, "e_electronic": null, "n": null, "e_ij_max": null, "weighted_surface_energy_EV_PER_ANG2": null, "weighted_surface_energy": null, "weighted_work_function": null, "surface_anisotropy": null, "shape_factor": null, "has_reconstructed": null, "possible_species": null, "has_props": null, "theoretical": null, "database_IDs": null, "fields_not_requested": ["builder_meta", "nsites", "elements", "nelements", "composition", "composition_reduced", "chemsys", "symmetry", "property_name", "deprecated", "deprecation_reasons", "last_updated", "origins", "warnings", "task_ids", "uncorrected_energy_per_atom", "equilibrium_reaction_energy_per_atom", "decomposes_to", "xas", "grain_boundaries", "cbm", "vbm", "is_gap_direct", "is_metal", "es_source_calc_id", "bandstructure", "dos", "dos_energy_up", "dos_energy_down", "is_magnetic", "ordering", "total_magnetization_normalized_vol", "total_magnetization_normalized_formula_units", "num_magnetic_sites", "num_unique_magnetic_sites", "types_of_magnetic_species", "bulk_modulus", "shear_modulus", "universal_anisotropy", "homogeneous_poisson", "e_total", "e_ionic", "e_electronic", "n", "e_ij_max", "weighted_surface_energy_EV_PER_ANG2", "weighted_surface_energy", "weighted_work_function", "surface_anisotropy", "shape_factor", "has_reconstructed", "possible_species", "has_props", "theoretical", "database_IDs"]}