{"builder_meta": null, "nsites": null, "elements": null, "nelements": null, "composition": null, "composition_reduced": null, "formula_pretty": "Sn2Pd", "formula_anonymous": "AB2", "chemsys": null, "volume": 526.449627349608, "density": 8.676381906230544, "density_atomic": 21.935401139567002, "symmetry": null, "property_name": null, "material_id": "mp-1573", "deprecated": null, "deprecation_reasons": null, "last_updated": null, "origins": null, "warnings": null, "structure": {"@module": "pymatgen.core.structure", "@class": "Structure", "charge": 0, "lattice": {"matrix": [[6.33419472, -0.00210399, -1.63325136], [-0.42220107, 6.32010686, -1.6332574], [0.00477379, 0.00508925, 13.14811901]], "pbc": [true, true, true], "a": 6.541371200489363, "b": 6.541370972508971, "c": 13.148120861577898, "alpha": 104.4379057650929, "beta": 104.43779675652522, "gamma": 90.02688921979174, "volume": 526.449627349608}, "properties": {}, "sites": [{"species": [{"element": "Sn", "occu": 1}], "abc": [0.71646802, 0.28350913, 0.2499768], "properties": {"magmom": 0.0}, "label": "Sn", "xyz": [4.419743428040157, 1.791572750265632, 1.6535089635373987]}, {"species": [{"element": "Sn", "occu": 1}], "abc": [0.4665003, 0.2164774, 0.75003944], "properties": {"magmom": 0.0}, "label": "Sn", "xyz": [2.867087278005876, 1.370995927028787, 8.746132254415587]}, {"species": [{"element": "Sn", "occu": 1}], "abc": [0.7835463500000001, 0.53352109, 0.75000723], "properties": {"magmom": 0.0}, "label": "Sn", "xyz": [4.7414623549942085, 3.374078701474019, 7.710078908341341]}, {"species": [{"element": "Sn", "occu": 1}], "abc": [0.03351012, 0.96646772, 0.24997682000000002], "properties": {"magmom": -0.0}, "label": "Sn", "xyz": [-0.1945907434903462, 6.109380956714365, 1.6535039744864573]}, {"species": [{"element": "Sn", "occu": 1}], "abc": [0.28353056, 0.716492599999999, 0.7500233900000001], "properties": {"magmom": 0.0}, "label": "Sn", "xyz": [1.4970142879025097, 4.5315303074738535, 8.228103278286845]}, {"species": [{"element": "Sn", "occu": 1}], "abc": [0.53350019, 0.78352348, 0.24996082], "properties": {"magmom": -0.0}, "label": "Sn", "xyz": [3.049682895453781, 4.9521017549575, 1.1354791765356778]}, {"species": [{"element": "Sn", "occu": 1}], "abc": [0.21645377000000002, 0.46647737, 0.24999289], "properties": {"magmom": 0.0}, "label": "Sn", "xyz": [1.1753064958716617, 2.9490036859196485, 2.1715352386591737]}, {"species": [{"element": "Sn", "occu": 1}], "abc": [0.96649141, 0.03353078, 0.75002337], "properties": {"magmom": 0.0}, "label": "Sn", "xyz": [6.111368509016893, 0.2137016808731974, 8.228108724667674]}, {"species": [{"element": "Sn", "occu": 1}], "abc": [0.25001573, 0.50057911, 0.49996609000000003], "properties": {"magmom": -0.0}, "label": "Sn", "xyz": [1.374690014142079, 3.1657318889114645, 5.347700585547565]}, {"species": [{"element": "Sn", "occu": 1}], "abc": [0.4994209, 0.7499848100000001, 3.419e-05], "properties": {"magmom": -0.0}, "label": "Sn", "xyz": [2.846785001787781, 4.738933539998864, -2.040148570768566]}, {"species": [{"element": "Sn", "occu": 1}], "abc": [0.00052989, 0.25001365000000003, 2.9210000000000007e-05], "properties": {"magmom": 0.0}, "label": "Sn", "xyz": [-0.10219946466201882, 1.5801120182323707, -0.40881803097037833]}, {"species": [{"element": "Sn", "occu": 1}], "abc": [0.74998635, 0.99947029, 0.49997103], "properties": {"magmom": 0.0}, "label": "Sn", "xyz": [4.330968909074166, 6.31772554997908, 3.716370130650698]}, {"species": [{"element": "Sn", "occu": 1}], "abc": [0.74996448, 0.49939909, 0.49999031], "properties": {"magmom": 0.0}, "label": "Sn", "xyz": [4.541961067990495, 3.1572222725056496, 4.533404333519334]}, {"species": [{"element": "Sn", "occu": 1}], "abc": [0.50060134, 0.25003538000000003, 9.95e-06], "properties": {"magmom": 0.0}, "label": "Sn", "xyz": [3.0653412071782786, 1.579197110805398, -1.225849130235485]}, {"species": [{"element": "Sn", "occu": 1}], "abc": [0.99949672, 0.75000739, 1.541e-05], "properties": {"magmom": 0.0}, "label": "Sn", "xyz": [6.014352997479515, 4.738023997911125, -2.857181884513781]}, {"species": [{"element": "Sn", "occu": 1}], "abc": [0.249993, 0.0005032600000000001, 0.49998488], "properties": {"magmom": 0.0}, "label": "Sn", "xyz": [1.5856786865467671, 0.0051992222568336, 6.164737345080965]}, {"species": [{"element": "Pd", "occu": 1}], "abc": [0.06676454, 0.31682916, 0.63357683], "properties": {"magmom": 0.0}, "label": "Pd", "xyz": [0.29215854912731326, 2.0054781065216005, 7.703836716957979]}, {"species": [{"element": "Pd", "occu": 1}], "abc": [0.81681439, 0.56682716, 0.13358366], "properties": {"magmom": 0.0}, "label": "Pd", "xyz": [4.9351840632412305, 3.5813694936835563, -0.5034640074546781]}, {"species": [{"element": "Pd", "occu": 1}], "abc": [0.433160999999999, 0.18317551, 0.366394699999999], "properties": {"magmom": 0.0}, "label": "Pd", "xyz": [2.6681383141450317, 1.1586421051495837, 3.810767570678002]}, {"species": [{"element": "Pd", "occu": 1}], "abc": [0.68317994, 0.93324461, 0.8664424], "properties": {"magmom": 0.0}, "label": "Pd", "xyz": [3.9375141099088804, 5.901177799941264, 8.752054559087691]}, {"species": [{"element": "Pd", "occu": 1}], "abc": [0.93322503, 0.6831668200000001, 0.3664115], "properties": {"magmom": 0.0}, "label": "Pd", "xyz": [5.62454446675993, 4.317588569201891, 2.1776436949996056]}, {"species": [{"element": "Pd", "occu": 1}], "abc": [0.18319496, 0.43318074, 0.86643548], "properties": {"magmom": 0.0}, "label": "Pd", "xyz": [0.9816393574612886, 2.741772632896576, 10.385297738818853]}, {"species": [{"element": "Pd", "occu": 1}], "abc": [0.56682848, 0.81681424, 0.6335839], "properties": {"magmom": 0.0}, "label": "Pd", "xyz": [3.2485667155283697, 5.164385146979126, 6.07059523226783]}, {"species": [{"element": "Pd", "occu": 1}], "abc": [0.31682351000000003, 0.06676619, 0.13356968], "properties": {"magmom": 0.0}, "label": "Pd", "xyz": [1.9792706809587313, 0.4219826314321985, 1.129691246292837]}]}, "task_ids": null, "uncorrected_energy_per_atom": null, "energy_per_atom": -24.478461639583333, "formation_energy_per_atom": -0.327521249583336, "energy_above_hull": 0.007036855416668, "is_stable": false, "equilibrium_reaction_energy_per_atom": null, "decomposes_to": null, "xas": null, "grain_boundaries": null, "band_gap": 0.0, "cbm": null, "vbm": null, "efermi": 7.88117714, "is_gap_direct": null, "is_metal": null, "es_source_calc_id": null, "bandstructure": null, "dos": null, "dos_energy_up": null, "dos_energy_down": null, "is_magnetic": null, "ordering": null, "total_magnetization": 3e-07, "total_magnetization_normalized_vol": null, "total_magnetization_normalized_formula_units": null, "num_magnetic_sites": null, "num_unique_magnetic_sites": null, "types_of_magnetic_species": null, "bulk_modulus": null, "shear_modulus": null, "universal_anisotropy": null, "homogeneous_poisson": null, "e_total": null, "e_ionic": null, "e_electronic": null, "n": null, "e_ij_max": null, "weighted_surface_energy_EV_PER_ANG2": null, "weighted_surface_energy": null, "weighted_work_function": null, "surface_anisotropy": null, "shape_factor": null, "has_reconstructed": null, "possible_species": null, "has_props": null, "theoretical": null, "database_IDs": null, "fields_not_requested": ["builder_meta", "nsites", "elements", "nelements", "composition", "composition_reduced", "chemsys", "symmetry", "property_name", "deprecated", "deprecation_reasons", "last_updated", "origins", "warnings", "task_ids", "uncorrected_energy_per_atom", "equilibrium_reaction_energy_per_atom", "decomposes_to", "xas", "grain_boundaries", "cbm", "vbm", "is_gap_direct", "is_metal", "es_source_calc_id", "bandstructure", "dos", "dos_energy_up", "dos_energy_down", "is_magnetic", "ordering", "total_magnetization_normalized_vol", "total_magnetization_normalized_formula_units", "num_magnetic_sites", "num_unique_magnetic_sites", "types_of_magnetic_species", "bulk_modulus", "shear_modulus", "universal_anisotropy", "homogeneous_poisson", "e_total", "e_ionic", "e_electronic", "n", "e_ij_max", "weighted_surface_energy_EV_PER_ANG2", "weighted_surface_energy", "weighted_work_function", "surface_anisotropy", "shape_factor", "has_reconstructed", "possible_species", "has_props", "theoretical", "database_IDs"]}