{"builder_meta": null, "nsites": null, "elements": null, "nelements": null, "composition": null, "composition_reduced": null, "formula_pretty": "Sn2Rh", "formula_anonymous": "AB2", "chemsys": null, "volume": 246.95785706344574, "density": 9.153363976024343, "density_atomic": 20.579821421953813, "symmetry": null, "property_name": null, "material_id": "mp-1103044", "deprecated": null, "deprecation_reasons": null, "last_updated": null, "origins": null, "warnings": null, "structure": {"@module": "pymatgen.core.structure", "@class": "Structure", "charge": 0, "lattice": {"matrix": [[0.0, 6.3364451, 0.0], [6.32526697, 0.0, 0.0], [0.0, -3.16822255, -6.16166824]], "pbc": [true, true, true], "a": 6.3364451, "b": 6.32526697, "c": 6.928476717587583, "alpha": 90.0, "beta": 117.21143877247071, "gamma": 90.0, "volume": 246.95785706344574}, "properties": {}, "sites": [{"species": [{"element": "Sn", "occu": 1}], "abc": [0.21113353, 0.83660425, 0.7506671500000001], "properties": {"magmom": -0.0}, "label": "Sn", "xyz": [5.291745229486623, -1.0404445705600294, -4.625361936966317]}, {"species": [{"element": "Sn", "occu": 1}], "abc": [0.53953362, 0.16339575, 0.7506671500000001], "properties": {"magmom": -0.0}, "label": "Sn", "xyz": [1.0335217405133776, 1.0404445705600298, -4.625361936966317]}, {"species": [{"element": "Sn", "occu": 1}], "abc": [0.71113353, 0.6633957500000001, 0.7506671500000001], "properties": {"magmom": -0.0}, "label": "Sn", "xyz": [4.196155225513378, 2.12777797943997, -4.625361936966317]}, {"species": [{"element": "Sn", "occu": 1}], "abc": [0.03953362, 0.33660425, 0.7506671500000001], "properties": {"magmom": -0.0}, "label": "Sn", "xyz": [2.1291117444866225, -2.1277779794399705, -4.625361936966317]}, {"species": [{"element": "Sn", "occu": 1}], "abc": [0.3717933, 0.75000358, 0.25066192], "properties": {"magmom": -0.0}, "label": "Sn", "xyz": [4.743972871955753, 1.5616950866275339, -1.5444955914414207]}, {"species": [{"element": "Sn", "occu": 1}], "abc": [0.87886862, 0.24999642, 0.25066192], "properties": {"magmom": -0.0}, "label": "Sn", "xyz": [1.5812940980442474, 4.774750013372466, -1.5444955914414207]}, {"species": [{"element": "Sn", "occu": 1}], "abc": [0.8717933, 0.74999642, 0.25066192], "properties": {"magmom": -0.0}, "label": "Sn", "xyz": [4.743927583044248, 4.729917636627534, -1.5444955914414207]}, {"species": [{"element": "Sn", "occu": 1}], "abc": [0.37886862, 0.25000358, 0.25066192], "properties": {"magmom": -0.0}, "label": "Sn", "xyz": [1.5813393869557528, 1.606527463372466, -1.5444955914414207]}, {"species": [{"element": "Rh", "occu": 1}], "abc": [0.49325568000000003, 0.5, 0.98651035], "properties": {"magmom": 0.0}, "label": "Rh", "xyz": [3.162633485, 3.199904775819107e-06, -6.0785494920262835]}, {"species": [{"element": "Rh", "occu": 1}], "abc": [0.99325568, -0.0, 0.98651035], "properties": {"magmom": 0.0}, "label": "Rh", "xyz": [0.0, 3.168225749904775, -6.0785494920262835]}, {"species": [{"element": "Rh", "occu": 1}], "abc": [0.25741526, 0.5, 0.51483152], "properties": {"magmom": 0.0}, "label": "Rh", "xyz": [3.162633485, -3.1682225500873074e-06, -3.172221025734925]}, {"species": [{"element": "Rh", "occu": 1}], "abc": [0.75741526, -0.0, 0.51483152], "properties": {"magmom": 0.0}, "label": "Rh", "xyz": [0.0, 3.16821938177745, -3.172221025734925]}]}, "task_ids": null, "uncorrected_energy_per_atom": null, "energy_per_atom": -5.5423845541666665, "formation_energy_per_atom": -0.414567360833332, "energy_above_hull": 0.0, "is_stable": true, "equilibrium_reaction_energy_per_atom": null, "decomposes_to": null, "xas": null, "grain_boundaries": null, "band_gap": 0.0, "cbm": null, "vbm": null, "efermi": 8.29716098, "is_gap_direct": null, "is_metal": null, "es_source_calc_id": null, "bandstructure": null, "dos": null, "dos_energy_up": null, "dos_energy_down": null, "is_magnetic": null, "ordering": null, "total_magnetization": 1e-07, "total_magnetization_normalized_vol": null, "total_magnetization_normalized_formula_units": null, "num_magnetic_sites": null, "num_unique_magnetic_sites": null, "types_of_magnetic_species": null, "bulk_modulus": null, "shear_modulus": null, "universal_anisotropy": null, "homogeneous_poisson": null, "e_total": null, "e_ionic": null, "e_electronic": null, "n": null, "e_ij_max": null, "weighted_surface_energy_EV_PER_ANG2": null, "weighted_surface_energy": null, "weighted_work_function": null, "surface_anisotropy": null, "shape_factor": null, "has_reconstructed": null, "possible_species": null, "has_props": null, "theoretical": null, "database_IDs": null, "fields_not_requested": ["builder_meta", "nsites", "elements", "nelements", "composition", "composition_reduced", "chemsys", "symmetry", "property_name", "deprecated", "deprecation_reasons", "last_updated", "origins", "warnings", "task_ids", "uncorrected_energy_per_atom", "equilibrium_reaction_energy_per_atom", "decomposes_to", "xas", "grain_boundaries", "cbm", "vbm", "is_gap_direct", "is_metal", "es_source_calc_id", "bandstructure", "dos", "dos_energy_up", "dos_energy_down", "is_magnetic", "ordering", "total_magnetization_normalized_vol", "total_magnetization_normalized_formula_units", "num_magnetic_sites", "num_unique_magnetic_sites", "types_of_magnetic_species", "bulk_modulus", "shear_modulus", "universal_anisotropy", "homogeneous_poisson", "e_total", "e_ionic", "e_electronic", "n", "e_ij_max", "weighted_surface_energy_EV_PER_ANG2", "weighted_surface_energy", "weighted_work_function", "surface_anisotropy", "shape_factor", "has_reconstructed", "possible_species", "has_props", "theoretical", "database_IDs"]}