{
  "builder_meta": null,
  "nsites": null,
  "elements": null,
  "nelements": null,
  "composition": null,
  "composition_reduced": null,
  "formula_pretty": "Sn2Ru",
  "formula_anonymous": "AB2",
  "chemsys": null,
  "volume": 117.7907554567728,
  "density": 9.543632969731759,
  "density_atomic": 19.6317925761288,
  "symmetry": null,
  "property_name": null,
  "material_id": "mp-510219",
  "deprecated": null,
  "deprecation_reasons": null,
  "last_updated": null,
  "origins": null,
  "warnings": null,
  "structure": {
    "@module": "pymatgen.core.structure",
    "@class": "Structure",
    "charge": 0,
    "lattice": {
      "matrix": [
        [5.13469651, 0.0308604, -1.53907657],
        [-2.83653968, 4.28019892, -1.53907657],
        [-0.01645122, -0.0308604, 5.36037326]
      ],
      "pbc": [true, true, true],
      "a": 5.3604866665646425,
      "b": 5.360486623367941,
      "c": 5.360487337309051,
      "alpha": 106.86285437724162,
      "beta": 106.86285480770267,
      "gamma": 114.82426554742156,
      "volume": 117.7907554567728
    },
    "properties": {},
    "sites": [
      {
        "species": [{ "element": "Sn", "occu": 1 }],
        "abc": [0.66270757, 0.16270757, 0.82541515],
        "properties": { "magmom": -0.0 },
        "label": "Sn",
        "xyz": [2.9276966820642203, 0.6913995443879924, 3.154156195961619]
      },
      {
        "species": [{ "element": "Sn", "occu": 1 }],
        "abc": [0.16270757, 0.33729243000000003, 0.5],
        "properties": { "magmom": -0.0 },
        "label": "Sn",
        "xyz": [-0.1295149796290418, 1.433269715303404, 1.9106483450000002]
      },
      {
        "species": [{ "element": "Sn", "occu": 1 }],
        "abc": [0.83729243, 0.66270757, 0.5],
        "properties": { "magmom": -0.0 },
        "label": "Sn",
        "xyz": [2.4112205896290417, 2.846929204696597, 0.37157177500000005]
      },
      {
        "species": [{ "element": "Sn", "occu": 1 }],
        "abc": [0.33729243000000003, 0.83729243, 0.17458485],
        "properties": { "magmom": -0.0 },
        "label": "Sn",
        "xyz": [-0.6459910720642198, 3.5887993756120076, -0.8719360759616192]
      },
      {
        "species": [{ "element": "Ru", "occu": 1 }],
        "abc": [0.25, 0.25, 0.0],
        "properties": { "magmom": 0.0 },
        "label": "Ru",
        "xyz": [0.5745392075000001, 1.07776483, -0.769538285]
      },
      {
        "species": [{ "element": "Ru", "occu": 1 }],
        "abc": [0.75, 0.75, 0.0],
        "properties": { "magmom": 0.0 },
        "label": "Ru",
        "xyz": [1.7236176225, 3.23329449, -2.308614855]
      }
    ]
  },
  "task_ids": null,
  "uncorrected_energy_per_atom": null,
  "energy_per_atom": -25.06590273,
  "formation_energy_per_atom": -0.09360177833333601,
  "energy_above_hull": 0.066702943166667,
  "is_stable": false,
  "equilibrium_reaction_energy_per_atom": null,
  "decomposes_to": null,
  "xas": null,
  "grain_boundaries": null,
  "band_gap": 0.0,
  "cbm": null,
  "vbm": null,
  "efermi": 9.12400797,
  "is_gap_direct": null,
  "is_metal": null,
  "es_source_calc_id": null,
  "bandstructure": null,
  "dos": null,
  "dos_energy_up": null,
  "dos_energy_down": null,
  "is_magnetic": null,
  "ordering": null,
  "total_magnetization": 1e-7,
  "total_magnetization_normalized_vol": null,
  "total_magnetization_normalized_formula_units": null,
  "num_magnetic_sites": null,
  "num_unique_magnetic_sites": null,
  "types_of_magnetic_species": null,
  "bulk_modulus": null,
  "shear_modulus": null,
  "universal_anisotropy": null,
  "homogeneous_poisson": null,
  "e_total": null,
  "e_ionic": null,
  "e_electronic": null,
  "n": null,
  "e_ij_max": null,
  "weighted_surface_energy_EV_PER_ANG2": null,
  "weighted_surface_energy": null,
  "weighted_work_function": null,
  "surface_anisotropy": null,
  "shape_factor": null,
  "has_reconstructed": null,
  "possible_species": null,
  "has_props": null,
  "theoretical": null,
  "database_IDs": null,
  "fields_not_requested": [
    "builder_meta",
    "nsites",
    "elements",
    "nelements",
    "composition",
    "composition_reduced",
    "chemsys",
    "symmetry",
    "property_name",
    "deprecated",
    "deprecation_reasons",
    "last_updated",
    "origins",
    "warnings",
    "task_ids",
    "uncorrected_energy_per_atom",
    "equilibrium_reaction_energy_per_atom",
    "decomposes_to",
    "xas",
    "grain_boundaries",
    "cbm",
    "vbm",
    "is_gap_direct",
    "is_metal",
    "es_source_calc_id",
    "bandstructure",
    "dos",
    "dos_energy_up",
    "dos_energy_down",
    "is_magnetic",
    "ordering",
    "total_magnetization_normalized_vol",
    "total_magnetization_normalized_formula_units",
    "num_magnetic_sites",
    "num_unique_magnetic_sites",
    "types_of_magnetic_species",
    "bulk_modulus",
    "shear_modulus",
    "universal_anisotropy",
    "homogeneous_poisson",
    "e_total",
    "e_ionic",
    "e_electronic",
    "n",
    "e_ij_max",
    "weighted_surface_energy_EV_PER_ANG2",
    "weighted_surface_energy",
    "weighted_work_function",
    "surface_anisotropy",
    "shape_factor",
    "has_reconstructed",
    "possible_species",
    "has_props",
    "theoretical",
    "database_IDs"
  ]
}
