{"builder_meta": null, "nsites": null, "elements": null, "nelements": null, "composition": null, "composition_reduced": null, "formula_pretty": "Sn2S3", "formula_anonymous": "A2B3", "chemsys": null, "volume": 496.657169252844, "density": 4.461675175551384, "density_atomic": 24.8328584626422, "symmetry": null, "property_name": null, "material_id": "mp-1509", "deprecated": null, "deprecation_reasons": null, "last_updated": null, "origins": null, "warnings": null, "structure": {"@module": "pymatgen.core.structure", "@class": "Structure", "charge": 0, "lattice": {"matrix": [[3.76347324, -0.0, 0.0], [0.0, 9.11779358, 0.0], [0.0, 0.0, 14.47365181]], "pbc": [true, true, true], "a": 3.76347324, "b": 9.11779358, "c": 14.47365181, "alpha": 90.0, "beta": 90.0, "gamma": 90.0, "volume": 496.657169252844}, "properties": {}, "sites": [{"species": [{"element": "Sn", "occu": 1}], "abc": [0.75, 0.8408265500000001, 0.05098051], "properties": {"magmom": 0.0}, "label": "Sn", "xyz": [2.8226049300000002, 7.66648291948355, 0.7378741508362231]}, {"species": [{"element": "Sn", "occu": 1}], "abc": [0.25, 0.15917345, 0.94901949], "properties": {"magmom": 0.0}, "label": "Sn", "xyz": [0.94086831, 1.451310660516451, 13.735777659163777]}, {"species": [{"element": "Sn", "occu": 1}], "abc": [0.75, 0.34082655, 0.44901949], "properties": {"magmom": 0.0}, "label": "Sn", "xyz": [2.8226049300000002, 3.107586129483549, 6.498951754163777]}, {"species": [{"element": "Sn", "occu": 1}], "abc": [0.25, 0.65917345, 0.55098051], "properties": {"magmom": 0.0}, "label": "Sn", "xyz": [0.94086831, 6.010207450516452, 7.974700055836223]}, {"species": [{"element": "Sn", "occu": 1}], "abc": [0.75, 0.4699624, 0.83553696], "properties": {"magmom": 0.0}, "label": "Sn", "xyz": [2.8226049300000002, 4.285020153561392, 12.093271033425898]}, {"species": [{"element": "Sn", "occu": 1}], "abc": [0.25, 0.5300376, 0.16446304], "properties": {"magmom": 0.0}, "label": "Sn", "xyz": [0.94086831, 4.832773426438608, 2.3803807765741025]}, {"species": [{"element": "Sn", "occu": 1}], "abc": [0.75, 0.9699624, 0.66446304], "properties": {"magmom": 0.0}, "label": "Sn", "xyz": [2.8226049300000002, 8.843916943561393, 9.617206681574102]}, {"species": [{"element": "Sn", "occu": 1}], "abc": [0.25, 0.030037599999999002, 0.33553696], "properties": {"magmom": 0.0}, "label": "Sn", "xyz": [0.94086831, 0.27387663643859894, 4.856445128425897]}, {"species": [{"element": "S", "occu": 1}], "abc": [0.75, 0.97918754, 0.896015599999999], "properties": {"magmom": -0.0}, "label": "S", "xyz": [2.8226049300000002, 8.928029865827993, 12.968617810728222]}, {"species": [{"element": "S", "occu": 1}], "abc": [0.25, 0.02081246, 0.103984399999999], "properties": {"magmom": -0.0}, "label": "S", "xyz": [0.94086831, 0.18976371417200683, 1.5050339992717496]}, {"species": [{"element": "S", "occu": 1}], "abc": [0.75, 0.47918754, 0.6039844], "properties": {"magmom": -0.0}, "label": "S", "xyz": [2.8226049300000002, 4.369133075827993, 8.741859904271763]}, {"species": [{"element": "S", "occu": 1}], "abc": [0.25, 0.52081246, 0.396015599999999], "properties": {"magmom": -0.0}, "label": "S", "xyz": [0.94086831, 4.748660504172007, 5.731791905728222]}, {"species": [{"element": "S", "occu": 1}], "abc": [0.75, 0.33279959000000003, 0.00174614], "properties": {"magmom": -0.0}, "label": "S", "xyz": [2.8226049300000002, 3.034397965128633, 0.0252730223715134]}, {"species": [{"element": "S", "occu": 1}], "abc": [0.25, 0.66720041, 0.99825386], "properties": {"magmom": -0.0}, "label": "S", "xyz": [0.94086831, 6.083395614871368, 14.448378787628487]}, {"species": [{"element": "S", "occu": 1}], "abc": [0.75, 0.83279959, 0.49825386], "properties": {"magmom": -0.0}, "label": "S", "xyz": [2.8226049300000002, 7.593294755128633, 7.211552882628486]}, {"species": [{"element": "S", "occu": 1}], "abc": [0.25, 0.16720041, 0.5017461400000001], "properties": {"magmom": -0.0}, "label": "S", "xyz": [0.94086831, 1.5244988248713678, 7.262098927371515]}, {"species": [{"element": "S", "occu": 1}], "abc": [0.75, 0.71970132, 0.20752498], "properties": {"magmom": -0.0}, "label": "S", "xyz": [2.8226049300000002, 6.562088075013526, 3.003644302397214]}, {"species": [{"element": "S", "occu": 1}], "abc": [0.25, 0.28029868, 0.79247502], "properties": {"magmom": -0.0}, "label": "S", "xyz": [0.94086831, 2.555705504986475, 11.470007507602787]}, {"species": [{"element": "S", "occu": 1}], "abc": [0.75, 0.21970132, 0.29247502000000003], "properties": {"magmom": -0.0}, "label": "S", "xyz": [2.8226049300000002, 2.003191285013526, 4.233181602602786]}, {"species": [{"element": "S", "occu": 1}], "abc": [0.25, 0.78029868, 0.70752498], "properties": {"magmom": -0.0}, "label": "S", "xyz": [0.94086831, 7.114602294986475, 10.240470207397212]}]}, "task_ids": null, "uncorrected_energy_per_atom": null, "energy_per_atom": -15.1927878425, "formation_energy_per_atom": -0.47331488118749904, "energy_above_hull": 0.0, "is_stable": true, "equilibrium_reaction_energy_per_atom": null, "decomposes_to": null, "xas": null, "grain_boundaries": null, "band_gap": 0.7774000000000001, "cbm": null, "vbm": null, "efermi": 4.78514416, "is_gap_direct": null, "is_metal": null, "es_source_calc_id": null, "bandstructure": null, "dos": null, "dos_energy_up": null, "dos_energy_down": null, "is_magnetic": null, "ordering": null, "total_magnetization": 0.0, "total_magnetization_normalized_vol": null, "total_magnetization_normalized_formula_units": null, "num_magnetic_sites": null, "num_unique_magnetic_sites": null, "types_of_magnetic_species": null, "bulk_modulus": null, "shear_modulus": null, "universal_anisotropy": null, "homogeneous_poisson": null, "e_total": null, "e_ionic": null, "e_electronic": null, "n": null, "e_ij_max": null, "weighted_surface_energy_EV_PER_ANG2": null, "weighted_surface_energy": null, "weighted_work_function": null, "surface_anisotropy": null, "shape_factor": null, "has_reconstructed": null, "possible_species": null, "has_props": null, "theoretical": null, "database_IDs": null, "fields_not_requested": ["builder_meta", "nsites", "elements", "nelements", "composition", "composition_reduced", "chemsys", "symmetry", "property_name", "deprecated", "deprecation_reasons", "last_updated", "origins", "warnings", "task_ids", "uncorrected_energy_per_atom", "equilibrium_reaction_energy_per_atom", "decomposes_to", "xas", "grain_boundaries", "cbm", "vbm", "is_gap_direct", "is_metal", "es_source_calc_id", "bandstructure", "dos", "dos_energy_up", "dos_energy_down", "is_magnetic", "ordering", "total_magnetization_normalized_vol", "total_magnetization_normalized_formula_units", "num_magnetic_sites", "num_unique_magnetic_sites", "types_of_magnetic_species", "bulk_modulus", "shear_modulus", "universal_anisotropy", "homogeneous_poisson", "e_total", "e_ionic", "e_electronic", "n", "e_ij_max", "weighted_surface_energy_EV_PER_ANG2", "weighted_surface_energy", "weighted_work_function", "surface_anisotropy", "shape_factor", "has_reconstructed", "possible_species", "has_props", "theoretical", "database_IDs"]}