{"builder_meta": null, "nsites": null, "elements": null, "nelements": null, "composition": null, "composition_reduced": null, "formula_pretty": "Sn3As", "formula_anonymous": "AB3", "chemsys": null, "volume": 206.3424552203931, "density": 6.937767806978146, "density_atomic": 25.792806902549138, "symmetry": null, "property_name": null, "material_id": "mp-1187050", "deprecated": null, "deprecation_reasons": null, "last_updated": null, "origins": null, "warnings": null, "structure": {"@module": "pymatgen.core.structure", "@class": "Structure", "charge": 0, "lattice": {"matrix": [[3.255596, -5.638858, 0.0], [3.255596, 5.638858, 0.0], [0.0, 0.0, 5.620008]], "pbc": [true, true, true], "a": 6.511192276333114, "b": 6.511192276333114, "c": 5.620008, "alpha": 90.0, "beta": 90.0, "gamma": 120.00000280778862, "volume": 206.3424552203931}, "properties": {}, "sites": [{"species": [{"element": "Sn", "occu": 1}], "abc": [0.16836399999999901, 0.336727, 0.25], "properties": {"magmom": -0.0}, "label": "Sn", "xyz": [1.644372239235997, 0.9493750494540056, 1.405002]}, {"species": [{"element": "Sn", "occu": 1}], "abc": [0.663273, 0.831635999999999, 0.25], "properties": {"magmom": -0.0}, "label": "Sn", "xyz": [4.866819760763997, 0.9493750494539945, 1.405002]}, {"species": [{"element": "Sn", "occu": 1}], "abc": [0.16836399999999901, 0.831635999999999, 0.25], "properties": {"magmom": -0.0}, "label": "Sn", "xyz": [3.255595999999994, 3.740096623376, 1.405002]}, {"species": [{"element": "Sn", "occu": 1}], "abc": [0.831635999999999, 0.663273, 0.75], "properties": {"magmom": -0.0}, "label": "Sn", "xyz": [4.866819760763997, -0.9493750494539945, 4.215006000000001]}, {"species": [{"element": "Sn", "occu": 1}], "abc": [0.336727, 0.16836399999999901, 0.75], "properties": {"magmom": -0.0}, "label": "Sn", "xyz": [1.644372239235997, -0.9493750494540056, 4.215006000000001]}, {"species": [{"element": "Sn", "occu": 1}], "abc": [0.831635999999999, 0.16836399999999901, 0.75], "properties": {"magmom": -0.0}, "label": "Sn", "xyz": [3.255595999999994, -3.740096623376, 4.215006000000001]}, {"species": [{"element": "As", "occu": 1}], "abc": [0.333333, 0.666667, 0.75], "properties": {"magmom": 0.0}, "label": "As", "xyz": [3.255596, 1.879623092572, 4.215006000000001]}, {"species": [{"element": "As", "occu": 1}], "abc": [0.666667, 0.333333, 0.25], "properties": {"magmom": 0.0}, "label": "As", "xyz": [3.255596, -1.879623092572, 1.405002]}]}, "task_ids": null, "uncorrected_energy_per_atom": null, "energy_per_atom": -22.077231251249998, "formation_energy_per_atom": 0.159289330625, "energy_above_hull": 0.18872424375000202, "is_stable": false, "equilibrium_reaction_energy_per_atom": null, "decomposes_to": null, "xas": null, "grain_boundaries": null, "band_gap": 0.0, "cbm": null, "vbm": null, "efermi": 7.61397624, "is_gap_direct": null, "is_metal": null, "es_source_calc_id": null, "bandstructure": null, "dos": null, "dos_energy_up": null, "dos_energy_down": null, "is_magnetic": null, "ordering": null, "total_magnetization": 0.0243283, "total_magnetization_normalized_vol": null, "total_magnetization_normalized_formula_units": null, "num_magnetic_sites": null, "num_unique_magnetic_sites": null, "types_of_magnetic_species": null, "bulk_modulus": null, "shear_modulus": null, "universal_anisotropy": null, "homogeneous_poisson": null, "e_total": null, "e_ionic": null, "e_electronic": null, "n": null, "e_ij_max": null, "weighted_surface_energy_EV_PER_ANG2": null, "weighted_surface_energy": null, "weighted_work_function": null, "surface_anisotropy": null, "shape_factor": null, "has_reconstructed": null, "possible_species": null, "has_props": null, "theoretical": null, "database_IDs": null, "fields_not_requested": ["builder_meta", "nsites", "elements", "nelements", "composition", "composition_reduced", "chemsys", "symmetry", "property_name", "deprecated", "deprecation_reasons", "last_updated", "origins", "warnings", "task_ids", "uncorrected_energy_per_atom", "equilibrium_reaction_energy_per_atom", "decomposes_to", "xas", "grain_boundaries", "cbm", "vbm", "is_gap_direct", "is_metal", "es_source_calc_id", "bandstructure", "dos", "dos_energy_up", "dos_energy_down", "is_magnetic", "ordering", "total_magnetization_normalized_vol", "total_magnetization_normalized_formula_units", "num_magnetic_sites", "num_unique_magnetic_sites", "types_of_magnetic_species", "bulk_modulus", "shear_modulus", "universal_anisotropy", "homogeneous_poisson", "e_total", "e_ionic", "e_electronic", "n", "e_ij_max", "weighted_surface_energy_EV_PER_ANG2", "weighted_surface_energy", "weighted_work_function", "surface_anisotropy", "shape_factor", "has_reconstructed", "possible_species", "has_props", "theoretical", "database_IDs"]}