{"builder_meta": null, "nsites": null, "elements": null, "nelements": null, "composition": null, "composition_reduced": null, "formula_pretty": "Sn3Au", "formula_anonymous": "AB3", "chemsys": null, "volume": 201.64050535252753, "density": 9.109662355003714, "density_atomic": 25.20506316906594, "symmetry": null, "property_name": null, "material_id": "mp-1187048", "deprecated": null, "deprecation_reasons": null, "last_updated": null, "origins": null, "warnings": null, "structure": {"@module": "pymatgen.core.structure", "@class": "Structure", "charge": 0, "lattice": {"matrix": [[3.33427, -5.775124, 0.0], [3.33427, 5.775124, 0.0], [0.0, 0.0, 5.235832]], "pbc": [true, true, true], "a": 6.668539094005223, "b": 6.668539094005223, "c": 5.235832, "alpha": 90.0, "beta": 90.0, "gamma": 119.99999101150455, "volume": 201.64050535252753}, "properties": {}, "sites": [{"species": [{"element": "Sn", "occu": 1}], "abc": [0.171185, 0.342371, 0.25], "properties": {"magmom": 0.0}, "label": "Sn", "xyz": [1.71233436412, 0.9886203770639997, 1.308958]}, {"species": [{"element": "Sn", "occu": 1}], "abc": [0.657629, 0.828815, 0.25], "properties": {"magmom": 0.0}, "label": "Sn", "xyz": [4.95620563588, 0.9886203770639996, 1.308958]}, {"species": [{"element": "Sn", "occu": 1}], "abc": [0.171185, 0.828815, 0.25], "properties": {"magmom": 0.0}, "label": "Sn", "xyz": [3.33427, 3.7978947961199996, 1.308958]}, {"species": [{"element": "Sn", "occu": 1}], "abc": [0.828815, 0.657629, 0.75], "properties": {"magmom": 0.0}, "label": "Sn", "xyz": [4.95620563588, -0.9886203770639996, 3.926874]}, {"species": [{"element": "Sn", "occu": 1}], "abc": [0.342371, 0.171185, 0.75], "properties": {"magmom": 0.0}, "label": "Sn", "xyz": [1.71233436412, -0.9886203770639997, 3.926874]}, {"species": [{"element": "Sn", "occu": 1}], "abc": [0.828815, 0.171185, 0.75], "properties": {"magmom": 0.0}, "label": "Sn", "xyz": [3.33427, -3.7978947961199996, 3.926874]}, {"species": [{"element": "Au", "occu": 1}], "abc": [0.333333, 0.666667, 0.75], "properties": {"magmom": -0.0}, "label": "Au", "xyz": [3.33427, 1.9250451834160003, 3.926874]}, {"species": [{"element": "Au", "occu": 1}], "abc": [0.666667, 0.333333, 0.25], "properties": {"magmom": -0.0}, "label": "Au", "xyz": [3.33427, -1.9250451834160003, 1.308958]}]}, "task_ids": null, "uncorrected_energy_per_atom": null, "energy_per_atom": -31.129491979062504, "formation_energy_per_atom": 0.07638589343749601, "energy_above_hull": 0.148157233437498, "is_stable": false, "equilibrium_reaction_energy_per_atom": null, "decomposes_to": null, "xas": null, "grain_boundaries": null, "band_gap": 0.0, "cbm": null, "vbm": null, "efermi": 7.39025969, "is_gap_direct": null, "is_metal": null, "es_source_calc_id": null, "bandstructure": null, "dos": null, "dos_energy_up": null, "dos_energy_down": null, "is_magnetic": null, "ordering": null, "total_magnetization": 0.001226699999999, "total_magnetization_normalized_vol": null, "total_magnetization_normalized_formula_units": null, "num_magnetic_sites": null, "num_unique_magnetic_sites": null, "types_of_magnetic_species": null, "bulk_modulus": null, "shear_modulus": null, "universal_anisotropy": null, "homogeneous_poisson": null, "e_total": null, "e_ionic": null, "e_electronic": null, "n": null, "e_ij_max": null, "weighted_surface_energy_EV_PER_ANG2": null, "weighted_surface_energy": null, "weighted_work_function": null, "surface_anisotropy": null, "shape_factor": null, "has_reconstructed": null, "possible_species": null, "has_props": null, "theoretical": null, "database_IDs": null, "fields_not_requested": ["builder_meta", "nsites", "elements", "nelements", "composition", "composition_reduced", "chemsys", "symmetry", "property_name", "deprecated", "deprecation_reasons", "last_updated", "origins", "warnings", "task_ids", "uncorrected_energy_per_atom", "equilibrium_reaction_energy_per_atom", "decomposes_to", "xas", "grain_boundaries", "cbm", "vbm", "is_gap_direct", "is_metal", "es_source_calc_id", "bandstructure", "dos", "dos_energy_up", "dos_energy_down", "is_magnetic", "ordering", "total_magnetization_normalized_vol", "total_magnetization_normalized_formula_units", "num_magnetic_sites", "num_unique_magnetic_sites", "types_of_magnetic_species", "bulk_modulus", "shear_modulus", "universal_anisotropy", "homogeneous_poisson", "e_total", "e_ionic", "e_electronic", "n", "e_ij_max", "weighted_surface_energy_EV_PER_ANG2", "weighted_surface_energy", "weighted_work_function", "surface_anisotropy", "shape_factor", "has_reconstructed", "possible_species", "has_props", "theoretical", "database_IDs"]}