{"builder_meta": null, "nsites": null, "elements": null, "nelements": null, "composition": null, "composition_reduced": null, "formula_pretty": "Sn3F8", "formula_anonymous": "A3B8", "chemsys": null, "volume": 339.9788703162375, "density": 4.9635349557834445, "density_atomic": 15.453585014374429, "symmetry": null, "property_name": null, "material_id": "mp-1443", "deprecated": null, "deprecation_reasons": null, "last_updated": null, "origins": null, "warnings": null, "structure": {"@module": "pymatgen.core.structure", "@class": "Structure", "charge": 0, "lattice": {"matrix": [[5.14784139, 0.0, -0.02410457], [0.0, 5.314029749999999, 0.0], [0.09106904, 0.0, 12.42761773]], "pbc": [true, true, true], "a": 5.147897824053234, "b": 5.314029749999999, "c": 12.427951400494647, "alpha": 90.0, "beta": 89.84842987578892, "gamma": 90.0, "volume": 339.9788703162373}, "properties": {}, "sites": [{"species": [{"element": "Sn", "occu": 1}], "abc": [0.47960913, 0.45046979000000004, 0.83245676], "properties": {"magmom": -0.0}, "label": "Sn", "xyz": [2.544762768410601, 2.393809865536252, 10.33389361818763]}, {"species": [{"element": "Sn", "occu": 1}], "abc": [0.020390870000000002, 0.95046979, 0.66754324], "properties": {"magmom": -0.0}, "label": "Sn", "xyz": [0.1657614865893989, 5.050824740536251, 8.295480691812369]}, {"species": [{"element": "Sn", "occu": 1}], "abc": [0.5203908700000001, 0.54953021, 0.16754324], "properties": {"magmom": -0.0}, "label": "Sn", "xyz": [2.694147661589399, 2.920219884463747, 2.0696195418123695]}, {"species": [{"element": "Sn", "occu": 1}], "abc": [0.97960913, 0.04953021, 0.33245676], "properties": {"magmom": -0.0}, "label": "Sn", "xyz": [5.073148943410601, 0.2632050094637474, 4.1080324681876315]}, {"species": [{"element": "Sn", "occu": 1}], "abc": [0.5, 0.5, 0.5], "properties": {"magmom": 0.0}, "label": "Sn", "xyz": [2.619455215, 2.6570148749999993, 6.20175658]}, {"species": [{"element": "Sn", "occu": 1}], "abc": [-0.0, -0.0, -0.0], "properties": {"magmom": 0.0}, "label": "Sn", "xyz": [0.0, 0.0, 0.0]}, {"species": [{"element": "F", "occu": 1}], "abc": [0.33262312, 0.11188912000000001, 0.75337776], "properties": {"magmom": -0.0}, "label": "F", "xyz": [1.780900453767487, 0.5945821123813199, 9.354673070284026]}, {"species": [{"element": "F", "occu": 1}], "abc": [0.16737688, 0.6118891200000001, 0.74662224], "properties": {"magmom": -0.0}, "label": "F", "xyz": [0.9296238012325128, 3.2515969873813195, 9.274701239715974]}, {"species": [{"element": "F", "occu": 1}], "abc": [0.6673768800000001, 0.88811088, 0.24662224], "properties": {"magmom": -0.0}, "label": "F", "xyz": [3.4580099762325127, 4.719447637618679, 3.0488400897159735]}, {"species": [{"element": "F", "occu": 1}], "abc": [0.83262312, 0.38811088, 0.25337776], "properties": {"magmom": -0.0}, "label": "F", "xyz": [4.309286628767487, 2.0624327626186796, 3.128811920284026]}, {"species": [{"element": "F", "occu": 1}], "abc": [0.19082448, 0.30621067, 0.54364658], "properties": {"magmom": -0.0}, "label": "F", "xyz": [1.0318435285091103, 1.6272126101474322, 6.751632134425989]}, {"species": [{"element": "F", "occu": 1}], "abc": [0.30917552, 0.80621067, 0.95635342], "properties": {"magmom": -0.0}, "label": "F", "xyz": [1.6786807264908894, 4.284227485147431, 11.87774217557401]}, {"species": [{"element": "F", "occu": 1}], "abc": [0.15513369, 0.03859142, 0.14515353], "properties": {"magmom": -0.0}, "label": "F", "xyz": [0.8118226229951402, 0.20507595397474496, 1.8001731521101236]}, {"species": [{"element": "F", "occu": 1}], "abc": [0.34486631, 0.53859142, 0.35484647], "properties": {"magmom": -0.0}, "label": "F", "xyz": [1.8076325920048597, 2.8620908289747446, 4.401583427889876]}, {"species": [{"element": "F", "occu": 1}], "abc": [0.84486631, 0.9614085800000001, 0.85484647], "properties": {"magmom": -0.0}, "label": "F", "xyz": [4.42708780700486, 5.108953796025254, 10.603340007889877]}, {"species": [{"element": "F", "occu": 1}], "abc": [0.65513369, 0.46140858, 0.64515353], "properties": {"magmom": -0.0}, "label": "F", "xyz": [3.4312778379951405, 2.4519389210252545, 8.001929732110124]}, {"species": [{"element": "F", "occu": 1}], "abc": [0.66889889, 0.18415481, 0.44692598], "properties": {"magmom": 0.0}, "label": "F", "xyz": [3.4840865116167166, 0.9786041389455973, 5.538101712928698]}, {"species": [{"element": "F", "occu": 1}], "abc": [0.83110111, 0.68415481, 0.05307402], "properties": {"magmom": 0.0}, "label": "F", "xyz": [4.283210093383284, 3.6356190139455964, 0.6395502970713018]}, {"species": [{"element": "F", "occu": 1}], "abc": [0.33110111000000003, 0.81584519, 0.55307402], "properties": {"magmom": 0.0}, "label": "F", "xyz": [1.7548239183832839, 4.335425611054402, 6.865411447071303]}, {"species": [{"element": "F", "occu": 1}], "abc": [0.16889889, 0.31584519, 0.9469259800000001], "properties": {"magmom": 0.0}, "label": "F", "xyz": [0.9557003366167163, 1.678410736054402, 11.763962862928699]}, {"species": [{"element": "F", "occu": 1}], "abc": [0.69082448, 0.19378933, 0.043646580000000004], "properties": {"magmom": -0.0}, "label": "F", "xyz": [3.56022970350911, 1.0298022648525673, 0.5257709844259898]}, {"species": [{"element": "F", "occu": 1}], "abc": [0.80917552, 0.69378933, 0.45635442], "properties": {"magmom": -0.0}, "label": "F", "xyz": [4.20706699255993, 3.6868171398525664, 5.65189345319174]}]}, "task_ids": null, "uncorrected_energy_per_atom": null, "energy_per_atom": -11.560362732272727, "formation_energy_per_atom": -2.537928646818182, "energy_above_hull": 0.0, "is_stable": true, "equilibrium_reaction_energy_per_atom": null, "decomposes_to": null, "xas": null, "grain_boundaries": null, "band_gap": 3.1684, "cbm": null, "vbm": null, "efermi": 0.98731589, "is_gap_direct": null, "is_metal": null, "es_source_calc_id": null, "bandstructure": null, "dos": null, "dos_energy_up": null, "dos_energy_down": null, "is_magnetic": null, "ordering": null, "total_magnetization": 0.0, "total_magnetization_normalized_vol": null, "total_magnetization_normalized_formula_units": null, "num_magnetic_sites": null, "num_unique_magnetic_sites": null, "types_of_magnetic_species": null, "bulk_modulus": null, "shear_modulus": null, "universal_anisotropy": null, "homogeneous_poisson": null, "e_total": null, "e_ionic": null, "e_electronic": null, "n": null, "e_ij_max": null, "weighted_surface_energy_EV_PER_ANG2": null, "weighted_surface_energy": null, "weighted_work_function": null, "surface_anisotropy": null, "shape_factor": null, "has_reconstructed": null, "possible_species": null, "has_props": null, "theoretical": null, "database_IDs": null, "fields_not_requested": ["builder_meta", "nsites", "elements", "nelements", "composition", "composition_reduced", "chemsys", "symmetry", "property_name", "deprecated", "deprecation_reasons", "last_updated", "origins", "warnings", "task_ids", "uncorrected_energy_per_atom", "equilibrium_reaction_energy_per_atom", "decomposes_to", "xas", "grain_boundaries", "cbm", "vbm", "is_gap_direct", "is_metal", "es_source_calc_id", "bandstructure", "dos", "dos_energy_up", "dos_energy_down", "is_magnetic", "ordering", "total_magnetization_normalized_vol", "total_magnetization_normalized_formula_units", "num_magnetic_sites", "num_unique_magnetic_sites", "types_of_magnetic_species", "bulk_modulus", "shear_modulus", "universal_anisotropy", "homogeneous_poisson", "e_total", "e_ionic", "e_electronic", "n", "e_ij_max", "weighted_surface_energy_EV_PER_ANG2", "weighted_surface_energy", "weighted_work_function", "surface_anisotropy", "shape_factor", "has_reconstructed", "possible_species", "has_props", "theoretical", "database_IDs"]}