{
  "builder_meta": null,
  "nsites": null,
  "elements": null,
  "nelements": null,
  "composition": null,
  "composition_reduced": null,
  "formula_pretty": "Sn3N",
  "formula_anonymous": "AB3",
  "chemsys": null,
  "volume": 174.44700844591324,
  "density": 7.046569107809805,
  "density_atomic": 21.805876055739155,
  "symmetry": null,
  "property_name": null,
  "material_id": "mp-1187056",
  "deprecated": null,
  "deprecation_reasons": null,
  "last_updated": null,
  "origins": null,
  "warnings": null,
  "structure": {
    "@module": "pymatgen.core.structure",
    "@class": "Structure",
    "charge": 0,
    "lattice": {
      "matrix": [
        [3.082962, -5.339847, 0.0],
        [3.082962, 5.339847, 0.0],
        [0.0, 0.0, 5.2983]
      ],
      "pbc": [true, true, true],
      "a": 6.1659241543221235,
      "b": 6.1659241543221235,
      "c": 5.2983,
      "alpha": 90.0,
      "beta": 90.0,
      "gamma": 120.00000165585391,
      "volume": 174.44700844591324
    },
    "properties": {},
    "sites": [
      {
        "species": [{ "element": "Sn", "occu": 1 }],
        "abc": [0.171591, 0.343182999999999, 0.25],
        "properties": { "magmom": 0.0 },
        "label": "Sn",
        "xyz": [1.587028680587997, 0.9162750264239947, 1.324575]
      },
      {
        "species": [{ "element": "Sn", "occu": 1 }],
        "abc": [0.656817, 0.828409, 0.25],
        "properties": { "magmom": 0.0 },
        "label": "Sn",
        "xyz": [4.578895319412, 0.9162750264239996, 1.324575]
      },
      {
        "species": [{ "element": "Sn", "occu": 1 }],
        "abc": [0.171591, 0.828409, 0.25],
        "properties": { "magmom": -0.0 },
        "label": "Sn",
        "xyz": [3.082962, 3.5073076268459995, 1.324575]
      },
      {
        "species": [{ "element": "Sn", "occu": 1 }],
        "abc": [0.828409, 0.656817, 0.75],
        "properties": { "magmom": 0.0 },
        "label": "Sn",
        "xyz": [4.578895319412, -0.9162750264239996, 3.973725]
      },
      {
        "species": [{ "element": "Sn", "occu": 1 }],
        "abc": [0.343182999999999, 0.171591, 0.75],
        "properties": { "magmom": 0.0 },
        "label": "Sn",
        "xyz": [1.587028680587997, -0.9162750264239947, 3.973725]
      },
      {
        "species": [{ "element": "Sn", "occu": 1 }],
        "abc": [0.828409, 0.171591, 0.75],
        "properties": { "magmom": -0.0 },
        "label": "Sn",
        "xyz": [3.082962, -3.5073076268459995, 3.973725]
      },
      {
        "species": [{ "element": "N", "occu": 1 }],
        "abc": [0.333333, 0.666667, 0.75],
        "properties": { "magmom": 0.001 },
        "label": "N",
        "xyz": [3.082962, 1.779952559898, 3.973725]
      },
      {
        "species": [{ "element": "N", "occu": 1 }],
        "abc": [0.666667, 0.333333, 0.25],
        "properties": { "magmom": 0.001 },
        "label": "N",
        "xyz": [3.082962, -1.779952559898, 1.324575]
      }
    ]
  },
  "task_ids": null,
  "uncorrected_energy_per_atom": null,
  "energy_per_atom": -19.920701735312498,
  "formation_energy_per_atom": 0.921123767499999,
  "energy_above_hull": 0.921123767499999,
  "is_stable": false,
  "equilibrium_reaction_energy_per_atom": null,
  "decomposes_to": null,
  "xas": null,
  "grain_boundaries": null,
  "band_gap": 0.0,
  "cbm": null,
  "vbm": null,
  "efermi": 7.96187805,
  "is_gap_direct": null,
  "is_metal": null,
  "es_source_calc_id": null,
  "bandstructure": null,
  "dos": null,
  "dos_energy_up": null,
  "dos_energy_down": null,
  "is_magnetic": null,
  "ordering": null,
  "total_magnetization": 0.004607,
  "total_magnetization_normalized_vol": null,
  "total_magnetization_normalized_formula_units": null,
  "num_magnetic_sites": null,
  "num_unique_magnetic_sites": null,
  "types_of_magnetic_species": null,
  "bulk_modulus": null,
  "shear_modulus": null,
  "universal_anisotropy": null,
  "homogeneous_poisson": null,
  "e_total": null,
  "e_ionic": null,
  "e_electronic": null,
  "n": null,
  "e_ij_max": null,
  "weighted_surface_energy_EV_PER_ANG2": null,
  "weighted_surface_energy": null,
  "weighted_work_function": null,
  "surface_anisotropy": null,
  "shape_factor": null,
  "has_reconstructed": null,
  "possible_species": null,
  "has_props": null,
  "theoretical": null,
  "database_IDs": null,
  "fields_not_requested": [
    "builder_meta",
    "nsites",
    "elements",
    "nelements",
    "composition",
    "composition_reduced",
    "chemsys",
    "symmetry",
    "property_name",
    "deprecated",
    "deprecation_reasons",
    "last_updated",
    "origins",
    "warnings",
    "task_ids",
    "uncorrected_energy_per_atom",
    "equilibrium_reaction_energy_per_atom",
    "decomposes_to",
    "xas",
    "grain_boundaries",
    "cbm",
    "vbm",
    "is_gap_direct",
    "is_metal",
    "es_source_calc_id",
    "bandstructure",
    "dos",
    "dos_energy_up",
    "dos_energy_down",
    "is_magnetic",
    "ordering",
    "total_magnetization_normalized_vol",
    "total_magnetization_normalized_formula_units",
    "num_magnetic_sites",
    "num_unique_magnetic_sites",
    "types_of_magnetic_species",
    "bulk_modulus",
    "shear_modulus",
    "universal_anisotropy",
    "homogeneous_poisson",
    "e_total",
    "e_ionic",
    "e_electronic",
    "n",
    "e_ij_max",
    "weighted_surface_energy_EV_PER_ANG2",
    "weighted_surface_energy",
    "weighted_work_function",
    "surface_anisotropy",
    "shape_factor",
    "has_reconstructed",
    "possible_species",
    "has_props",
    "theoretical",
    "database_IDs"
  ]
}
