{"builder_meta": null, "nsites": null, "elements": null, "nelements": null, "composition": null, "composition_reduced": null, "formula_pretty": "Sn3N4", "formula_anonymous": "A3B4", "chemsys": null, "volume": 185.18249814186595, "density": 7.391653907169249, "density_atomic": 13.227321295847569, "symmetry": null, "property_name": null, "material_id": "mp-16031", "deprecated": null, "deprecation_reasons": null, "last_updated": null, "origins": null, "warnings": null, "structure": {"@module": "pymatgen.core.structure", "@class": "Structure", "charge": 0, "lattice": {"matrix": [[5.54075521, -0.0, 3.1989562], [1.846918399999999, 5.2238739, 3.1989562], [-0.0, 0.0, 6.39791241]], "pbc": [true, true, true], "a": 6.397912868010988, "b": 6.397912696253225, "c": 6.39791241, "alpha": 60.000001531746086, "beta": 60.000002419801426, "gamma": 60.000000754996826, "volume": 185.18249814186595}, "properties": {}, "sites": [{"species": [{"element": "Sn", "occu": 1}], "abc": [0.5, -0.0, 0.5], "properties": {"magmom": -0.0}, "label": "Sn", "xyz": [2.770377605, 0.0, 4.798434305]}, {"species": [{"element": "Sn", "occu": 1}], "abc": [0.0, 0.5, 0.5], "properties": {"magmom": -0.0}, "label": "Sn", "xyz": [0.9234591999999995, 2.61193695, 4.798434305]}, {"species": [{"element": "Sn", "occu": 1}], "abc": [0.5, 0.5, 0.0], "properties": {"magmom": -0.0}, "label": "Sn", "xyz": [3.6938368049999997, 2.61193695, 3.1989562]}, {"species": [{"element": "Sn", "occu": 1}], "abc": [0.5, 0.5, 0.5], "properties": {"magmom": -0.0}, "label": "Sn", "xyz": [3.6938368049999997, 2.61193695, 6.397912405]}, {"species": [{"element": "Sn", "occu": 1}], "abc": [0.875, 0.875, 0.875], "properties": {"magmom": 0.0}, "label": "Sn", "xyz": [6.464214408749999, 4.5708896625, 11.19634670875]}, {"species": [{"element": "Sn", "occu": 1}], "abc": [0.125, 0.125, 0.125], "properties": {"magmom": 0.0}, "label": "Sn", "xyz": [0.9234592012499999, 0.6529842375, 1.59947810125]}, {"species": [{"element": "N", "occu": 1}], "abc": [0.74104467, 0.74104467, 0.74104467], "properties": {"magmom": -0.0}, "label": "N", "xyz": [5.474596152390157, 3.8711239103471127, 9.482277773704261]}, {"species": [{"element": "N", "occu": 1}], "abc": [0.25895533, 0.25895533, 0.72313501], "properties": {"magmom": -0.0}, "label": "N", "xyz": [1.913077457609841, 1.352749989652887, 6.283327971437567]}, {"species": [{"element": "N", "occu": 1}], "abc": [0.25895533, 0.72313501, 0.25895533], "properties": {"magmom": -0.0}, "label": "N", "xyz": [2.770379449507953, 3.7775661049152394, 4.798437501545753]}, {"species": [{"element": "N", "occu": 1}], "abc": [0.72313501, 0.25895533, 0.25895533], "properties": {"magmom": -0.0}, "label": "N", "xyz": [4.484983437945974, 1.352749989652887, 4.798437501545753]}, {"species": [{"element": "N", "occu": 1}], "abc": [0.74104467, 0.27686499000000003, 0.74104467], "properties": {"magmom": -0.0}, "label": "N", "xyz": [4.6172941604920466, 1.4463077950847611, 7.997387308454247]}, {"species": [{"element": "N", "occu": 1}], "abc": [0.27686499000000003, 0.74104467, 0.74104467], "properties": {"magmom": -0.0}, "label": "N", "xyz": [2.902690172054025, 3.8711239103471127, 7.997387308454247]}, {"species": [{"element": "N", "occu": 1}], "abc": [0.25895533, 0.25895533, 0.25895533], "properties": {"magmom": -0.0}, "label": "N", "xyz": [1.913077457609841, 1.352749989652887, 3.313547036295737]}, {"species": [{"element": "N", "occu": 1}], "abc": [0.74104467, 0.74104467, 0.27686499000000003], "properties": {"magmom": -0.0}, "label": "N", "xyz": [5.474596152390157, 3.8711239103471127, 6.512496838562434]}]}, "task_ids": null, "uncorrected_energy_per_atom": null, "energy_per_atom": -15.769608320714285, "formation_energy_per_atom": 0.052327968571428005, "energy_above_hull": 0.052327968571429004, "is_stable": false, "equilibrium_reaction_energy_per_atom": null, "decomposes_to": null, "xas": null, "grain_boundaries": null, "band_gap": 0.23439999999999903, "cbm": null, "vbm": null, "efermi": 7.87746255, "is_gap_direct": null, "is_metal": null, "es_source_calc_id": null, "bandstructure": null, "dos": null, "dos_energy_up": null, "dos_energy_down": null, "is_magnetic": null, "ordering": null, "total_magnetization": 0.0, "total_magnetization_normalized_vol": null, "total_magnetization_normalized_formula_units": null, "num_magnetic_sites": null, "num_unique_magnetic_sites": null, "types_of_magnetic_species": null, "bulk_modulus": null, "shear_modulus": null, "universal_anisotropy": null, "homogeneous_poisson": null, "e_total": null, "e_ionic": null, "e_electronic": null, "n": null, "e_ij_max": null, "weighted_surface_energy_EV_PER_ANG2": null, "weighted_surface_energy": null, "weighted_work_function": null, "surface_anisotropy": null, "shape_factor": null, "has_reconstructed": null, "possible_species": null, "has_props": null, "theoretical": null, "database_IDs": null, "fields_not_requested": ["builder_meta", "nsites", "elements", "nelements", "composition", "composition_reduced", "chemsys", "symmetry", "property_name", "deprecated", "deprecation_reasons", "last_updated", "origins", "warnings", "task_ids", "uncorrected_energy_per_atom", "equilibrium_reaction_energy_per_atom", "decomposes_to", "xas", "grain_boundaries", "cbm", "vbm", "is_gap_direct", "is_metal", "es_source_calc_id", "bandstructure", "dos", "dos_energy_up", "dos_energy_down", "is_magnetic", "ordering", "total_magnetization_normalized_vol", "total_magnetization_normalized_formula_units", "num_magnetic_sites", "num_unique_magnetic_sites", "types_of_magnetic_species", "bulk_modulus", "shear_modulus", "universal_anisotropy", "homogeneous_poisson", "e_total", "e_ionic", "e_electronic", "n", "e_ij_max", "weighted_surface_energy_EV_PER_ANG2", "weighted_surface_energy", "weighted_work_function", "surface_anisotropy", "shape_factor", "has_reconstructed", "possible_species", "has_props", "theoretical", "database_IDs"]}