{"builder_meta": null, "nsites": null, "elements": null, "nelements": null, "composition": null, "composition_reduced": null, "formula_pretty": "Sn3O4", "formula_anonymous": "A3B4", "chemsys": null, "volume": 256.9440637315071, "density": 5.430273676109468, "density_atomic": 18.353147409393358, "symmetry": null, "property_name": null, "material_id": "mp-1104544", "deprecated": null, "deprecation_reasons": null, "last_updated": null, "origins": null, "warnings": null, "structure": {"@module": "pymatgen.core.structure", "@class": "Structure", "charge": 0, "lattice": {"matrix": [[-0.548751, 0.0, -6.078878], [0.0, -5.853911, 0.0], [-7.160839, 0.0, 0.661231]], "pbc": [true, true, true], "a": 6.103596103846076, "b": 5.853911, "c": 7.1913031933914455, "alpha": 90.0, "beta": 90.1175148528336, "gamma": 90.0, "volume": 256.9440637315071}, "properties": {}, "sites": [{"species": [{"element": "Sn", "occu": 1}], "abc": [0.758517999999999, 0.500674, 0.200504], "properties": {"magmom": -0.0}, "label": "Sn", "xyz": [-1.8520143738739994, -2.9309010360139998, -4.478358922379994]}, {"species": [{"element": "Sn", "occu": 1}], "abc": [0.741482, 0.500674, 0.799496], "properties": {"magmom": -0.0}, "label": "Sn", "xyz": [-6.131951126126, -2.9309010360139998, -3.9787270776199994]}, {"species": [{"element": "Sn", "occu": 1}], "abc": [0.241482, 0.499326, 0.799496], "properties": {"magmom": -0.0}, "label": "Sn", "xyz": [-5.857575626126001, -2.923009963986, -0.93928807762]}, {"species": [{"element": "Sn", "occu": 1}], "abc": [0.258517999999999, 0.499326, 0.200504], "properties": {"magmom": -0.0}, "label": "Sn", "xyz": [-1.5776388738739995, -2.923009963986, -1.438919922379994]}, {"species": [{"element": "Sn", "occu": 1}], "abc": [0.0, 0.0, 0.5], "properties": {"magmom": -0.0}, "label": "Sn", "xyz": [-3.5804195, 0.0, 0.3306155]}, {"species": [{"element": "Sn", "occu": 1}], "abc": [0.5, 0.0, 0.5], "properties": {"magmom": -0.0}, "label": "Sn", "xyz": [-3.854795, 0.0, -2.7088235]}, {"species": [{"element": "O", "occu": 1}], "abc": [0.008716999999999, 0.718716999999999, 0.288852], "properties": {"magmom": 0.0}, "label": "O", "xyz": [-2.0732061292949995, -4.207305352186994, 0.13800831728600607]}, {"species": [{"element": "O", "occu": 1}], "abc": [0.491282999999999, 0.718716999999999, 0.711148], "properties": {"magmom": 0.0}, "label": "O", "xyz": [-5.3620083707049995, -4.207305352186994, -2.516216317285994]}, {"species": [{"element": "O", "occu": 1}], "abc": [0.991282999999999, 0.281283, 0.711148], "properties": {"magmom": 0.0}, "label": "O", "xyz": [-5.636383870705, -1.646605647813, -5.555655317285994]}, {"species": [{"element": "O", "occu": 1}], "abc": [0.508717, 0.281283, 0.288852], "properties": {"magmom": 0.0}, "label": "O", "xyz": [-2.347581629295, -1.646605647813, -2.9014306827139995]}, {"species": [{"element": "O", "occu": 1}], "abc": [0.9921359999999991, 0.732584999999999, 0.728895], "properties": {"magmom": 0.0}, "label": "O", "xyz": [-5.763935365040999, -4.2884873899349945, -5.549105733662994]}, {"species": [{"element": "O", "occu": 1}], "abc": [0.507864, 0.732584999999999, 0.271105], "properties": {"magmom": 0.0}, "label": "O", "xyz": [-2.220030134959, -4.2884873899349945, -2.907980266337]}, {"species": [{"element": "O", "occu": 1}], "abc": [0.007864, 0.267415, 0.271105], "properties": {"magmom": 0.0}, "label": "O", "xyz": [-1.9456546349589998, -1.565423610065, 0.13145873366299998]}, {"species": [{"element": "O", "occu": 1}], "abc": [0.492135999999999, 0.267415, 0.728895], "properties": {"magmom": 0.0}, "label": "O", "xyz": [-5.489559865040999, -1.565423610065, -2.509666733662994]}]}, "task_ids": null, "uncorrected_energy_per_atom": null, "energy_per_atom": -6.125189877142857, "formation_energy_per_atom": -1.5793956507142841, "energy_above_hull": 0.25679239321429004, "is_stable": false, "equilibrium_reaction_energy_per_atom": null, "decomposes_to": null, "xas": null, "grain_boundaries": null, "band_gap": 0.9344999999999991, "cbm": null, "vbm": null, "efermi": 5.21784008, "is_gap_direct": null, "is_metal": null, "es_source_calc_id": null, "bandstructure": null, "dos": null, "dos_energy_up": null, "dos_energy_down": null, "is_magnetic": null, "ordering": null, "total_magnetization": 0.0011021, "total_magnetization_normalized_vol": null, "total_magnetization_normalized_formula_units": null, "num_magnetic_sites": null, "num_unique_magnetic_sites": null, "types_of_magnetic_species": null, "bulk_modulus": null, "shear_modulus": null, "universal_anisotropy": null, "homogeneous_poisson": null, "e_total": null, "e_ionic": null, "e_electronic": null, "n": null, "e_ij_max": null, "weighted_surface_energy_EV_PER_ANG2": null, "weighted_surface_energy": null, "weighted_work_function": null, "surface_anisotropy": null, "shape_factor": null, "has_reconstructed": null, "possible_species": null, "has_props": null, "theoretical": null, "database_IDs": null, "fields_not_requested": ["builder_meta", "nsites", "elements", "nelements", "composition", "composition_reduced", "chemsys", "symmetry", "property_name", "deprecated", "deprecation_reasons", "last_updated", "origins", "warnings", "task_ids", "uncorrected_energy_per_atom", "equilibrium_reaction_energy_per_atom", "decomposes_to", "xas", "grain_boundaries", "cbm", "vbm", "is_gap_direct", "is_metal", "es_source_calc_id", "bandstructure", "dos", "dos_energy_up", "dos_energy_down", "is_magnetic", "ordering", "total_magnetization_normalized_vol", "total_magnetization_normalized_formula_units", "num_magnetic_sites", "num_unique_magnetic_sites", "types_of_magnetic_species", "bulk_modulus", "shear_modulus", "universal_anisotropy", "homogeneous_poisson", "e_total", "e_ionic", "e_electronic", "n", "e_ij_max", "weighted_surface_energy_EV_PER_ANG2", "weighted_surface_energy", "weighted_work_function", "surface_anisotropy", "shape_factor", "has_reconstructed", "possible_species", "has_props", "theoretical", "database_IDs"]}