{
  "builder_meta": null,
  "nsites": null,
  "elements": null,
  "nelements": null,
  "composition": null,
  "composition_reduced": null,
  "formula_pretty": "Sn3O8",
  "formula_anonymous": "A3B8",
  "chemsys": null,
  "volume": 156.66819151307462,
  "density": 5.131282872174143,
  "density_atomic": 14.242562864824965,
  "symmetry": null,
  "property_name": null,
  "material_id": "mp-1219002",
  "deprecated": null,
  "deprecation_reasons": null,
  "last_updated": null,
  "origins": null,
  "warnings": null,
  "structure": {
    "@module": "pymatgen.core.structure",
    "@class": "Structure",
    "charge": 0,
    "lattice": {
      "matrix": [
        [-3.330389, 3.420448, 3.438293],
        [3.330389, -3.420448, 3.438293],
        [3.330389, 3.420448, -3.438293]
      ],
      "pbc": [true, true, true],
      "a": 5.883265603886501,
      "b": 5.883265603886501,
      "c": 5.883265603886501,
      "alpha": 111.04559192781824,
      "beta": 108.90383482983813,
      "gamma": 108.47606957291097,
      "volume": 156.66819151307462
    },
    "properties": {},
    "sites": [
      {
        "species": [{ "element": "Sn", "occu": 1 }],
        "abc": [0.5, 0.759313999999999, 0.259314],
        "properties": { "magmom": -0.04 },
        "label": "Sn",
        "xyz": [1.7272329862919964, 3.3306690738754696e-15, 3.438292999999997]
      },
      {
        "species": [{ "element": "Sn", "occu": 1 }],
        "abc": [0.5, 0.240685999999999, 0.740686],
        "properties": { "magmom": -0.04 },
        "label": "Sn",
        "xyz": [1.6031560137079968, 3.420448000000003, -3.1086244689504383e-15]
      },
      {
        "species": [{ "element": "Sn", "occu": 1 }],
        "abc": [0.0, 0.0, 0.0],
        "properties": { "magmom": -0.022 },
        "label": "Sn",
        "xyz": [0.0, 0.0, 0.0]
      },
      {
        "species": [{ "element": "O", "occu": 1 }],
        "abc": [0.794059, 0.016208999999999002, 0.22215000000000001],
        "properties": { "magmom": 0.448 },
        "label": "O",
        "xyz": [-1.8506971673000032, 3.420448000000003, 2.022122002573996]
      },
      {
        "species": [{ "element": "O", "occu": 1 }],
        "abc": [0.794059, 0.571909, 0.77785],
        "properties": { "magmom": 0.448 },
        "label": "O",
        "xyz": [1.8506971673000001, 3.4204479999999995, 2.022122002573999]
      },
      {
        "species": [{ "element": "O", "occu": 1 }],
        "abc": [0.205940999999999, 0.428091, 0.22215000000000001],
        "properties": { "magmom": 0.448 },
        "label": "O",
        "xyz": [1.4796918327000033, -3.219646771412954e-15, 1.4161709974259966]
      },
      {
        "species": [{ "element": "O", "occu": 1 }],
        "abc": [0.205940999999999, 0.983791, 0.77785],
        "properties": { "magmom": 0.448 },
        "label": "O",
        "xyz": [5.181086167300003, -2.6645352591003757e-15, 1.4161709974259962]
      },
      {
        "species": [{ "element": "O", "occu": 1 }],
        "abc": [0.692060999999999, 0.0, 0.692060999999999],
        "properties": { "magmom": 0.021 },
        "label": "O",
        "xyz": [0.0, 4.734317326655994, 0.0]
      },
      {
        "species": [{ "element": "O", "occu": 1 }],
        "abc": [0.683761, 0.5, 0.183760999999999],
        "properties": { "magmom": 0.781 },
        "label": "O",
        "xyz": [-2.9976021664879227e-15, 1.2570898898559966, 3.4382930000000034]
      },
      {
        "species": [{ "element": "O", "occu": 1 }],
        "abc": [0.307938999999999, 0.0, 0.307938999999999],
        "properties": { "magmom": 0.021 },
        "label": "O",
        "xyz": [0.0, 2.1065786733439933, 0.0]
      },
      {
        "species": [{ "element": "O", "occu": 1 }],
        "abc": [0.316239, 0.5, 0.816238999999999],
        "properties": { "magmom": 0.781 },
        "label": "O",
        "xyz": [3.3303889999999967, 2.1633581101439967, 3.1086244689504383e-15]
      }
    ]
  },
  "task_ids": null,
  "uncorrected_energy_per_atom": null,
  "energy_per_atom": -5.962268102727273,
  "formation_energy_per_atom": -1.270231411363636,
  "energy_above_hull": 0.45407204727272704,
  "is_stable": false,
  "equilibrium_reaction_energy_per_atom": null,
  "decomposes_to": null,
  "xas": null,
  "grain_boundaries": null,
  "band_gap": 0.0,
  "cbm": null,
  "vbm": null,
  "efermi": 2.20400749,
  "is_gap_direct": null,
  "is_metal": null,
  "es_source_calc_id": null,
  "bandstructure": null,
  "dos": null,
  "dos_energy_up": null,
  "dos_energy_down": null,
  "is_magnetic": null,
  "ordering": null,
  "total_magnetization": 3.9999118,
  "total_magnetization_normalized_vol": null,
  "total_magnetization_normalized_formula_units": null,
  "num_magnetic_sites": null,
  "num_unique_magnetic_sites": null,
  "types_of_magnetic_species": null,
  "bulk_modulus": null,
  "shear_modulus": null,
  "universal_anisotropy": null,
  "homogeneous_poisson": null,
  "e_total": null,
  "e_ionic": null,
  "e_electronic": null,
  "n": null,
  "e_ij_max": null,
  "weighted_surface_energy_EV_PER_ANG2": null,
  "weighted_surface_energy": null,
  "weighted_work_function": null,
  "surface_anisotropy": null,
  "shape_factor": null,
  "has_reconstructed": null,
  "possible_species": null,
  "has_props": null,
  "theoretical": null,
  "database_IDs": null,
  "fields_not_requested": [
    "builder_meta",
    "nsites",
    "elements",
    "nelements",
    "composition",
    "composition_reduced",
    "chemsys",
    "symmetry",
    "property_name",
    "deprecated",
    "deprecation_reasons",
    "last_updated",
    "origins",
    "warnings",
    "task_ids",
    "uncorrected_energy_per_atom",
    "equilibrium_reaction_energy_per_atom",
    "decomposes_to",
    "xas",
    "grain_boundaries",
    "cbm",
    "vbm",
    "is_gap_direct",
    "is_metal",
    "es_source_calc_id",
    "bandstructure",
    "dos",
    "dos_energy_up",
    "dos_energy_down",
    "is_magnetic",
    "ordering",
    "total_magnetization_normalized_vol",
    "total_magnetization_normalized_formula_units",
    "num_magnetic_sites",
    "num_unique_magnetic_sites",
    "types_of_magnetic_species",
    "bulk_modulus",
    "shear_modulus",
    "universal_anisotropy",
    "homogeneous_poisson",
    "e_total",
    "e_ionic",
    "e_electronic",
    "n",
    "e_ij_max",
    "weighted_surface_energy_EV_PER_ANG2",
    "weighted_surface_energy",
    "weighted_work_function",
    "surface_anisotropy",
    "shape_factor",
    "has_reconstructed",
    "possible_species",
    "has_props",
    "theoretical",
    "database_IDs"
  ]
}
