{
  "builder_meta": null,
  "nsites": null,
  "elements": null,
  "nelements": null,
  "composition": null,
  "composition_reduced": null,
  "formula_pretty": "Sn3P4",
  "formula_anonymous": "A3B4",
  "chemsys": null,
  "volume": 189.41633978215225,
  "density": 4.208192102472708,
  "density_atomic": 27.059477111736037,
  "symmetry": null,
  "property_name": null,
  "material_id": "mp-684588",
  "deprecated": null,
  "deprecation_reasons": null,
  "last_updated": null,
  "origins": null,
  "warnings": null,
  "structure": {
    "@module": "pymatgen.core.structure",
    "@class": "Structure",
    "charge": 0,
    "lattice": {
      "matrix": [
        [2.558255, 3.518238, 0.0],
        [-2.558255, 3.518238, 0.0],
        [0.0, 2.765991, 10.522487]
      ],
      "pbc": [true, true, true],
      "a": 4.350019226356247,
      "b": 4.350019226356247,
      "c": 10.879955830666319,
      "alpha": 78.13441738516187,
      "beta": 78.13441738516187,
      "gamma": 72.04487123594892,
      "volume": 189.41633978215225
    },
    "properties": {},
    "sites": [
      {
        "species": [{ "element": "Sn", "occu": 1 }],
        "abc": [0.951697999999999, 0.048302, 0.0],
        "properties": { "magmom": 0.0 },
        "label": "Sn",
        "xyz": [2.3111173339799977, 3.5182379999999966, 0.0]
      },
      {
        "species": [{ "element": "Sn", "occu": 1 }],
        "abc": [0.787250999999999, 0.800827, 0.628053],
        "properties": { "magmom": 0.0 },
        "label": "Sn",
        "xyz": [-0.0347308698800024, 7.324425312086997, 6.608679527811]
      },
      {
        "species": [{ "element": "Sn", "occu": 1 }],
        "abc": [0.199173, 0.212749, 0.37194699999999903],
        "properties": { "magmom": 0.0 },
        "label": "Sn",
        "xyz": [-0.03473086988000007, 2.4780416879129974, 3.91380747218899]
      },
      {
        "species": [{ "element": "P", "occu": 1 }],
        "abc": [0.9624919999999991, 0.477547, 0.145563],
        "properties": { "magmom": -0.0 },
        "label": "P",
        "xyz": [1.2406129709749976, 5.469025879214997, 1.5316847751809999]
      },
      {
        "species": [{ "element": "P", "occu": 1 }],
        "abc": [0.598048, 0.605615, 0.310902],
        "properties": { "magmom": -0.0 },
        "label": "P",
        "xyz": [-0.01935831558500012, 5.0947250396760015, 3.271462253274]
      },
      {
        "species": [{ "element": "P", "occu": 1 }],
        "abc": [0.394385, 0.401952, 0.689098],
        "properties": { "magmom": -0.0 },
        "label": "P",
        "xyz": [-0.01935831558500012, 4.707741960324, 7.251024746725999]
      },
      {
        "species": [{ "element": "P", "occu": 1 }],
        "abc": [0.522453, 0.037508, 0.854437],
        "properties": { "magmom": -0.0 },
        "label": "P",
        "xyz": [1.240612970975, 4.333441120785, 8.990802224819]
      }
    ]
  },
  "task_ids": null,
  "uncorrected_energy_per_atom": null,
  "energy_per_atom": -15.543419838690479,
  "formation_energy_per_atom": 0.206131102465984,
  "energy_above_hull": 0.21134591559523602,
  "is_stable": false,
  "equilibrium_reaction_energy_per_atom": null,
  "decomposes_to": null,
  "xas": null,
  "grain_boundaries": null,
  "band_gap": 0.0,
  "cbm": null,
  "vbm": null,
  "efermi": 5.15082148,
  "is_gap_direct": null,
  "is_metal": null,
  "es_source_calc_id": null,
  "bandstructure": null,
  "dos": null,
  "dos_energy_up": null,
  "dos_energy_down": null,
  "is_magnetic": null,
  "ordering": null,
  "total_magnetization": 1.1200000000000001e-5,
  "total_magnetization_normalized_vol": null,
  "total_magnetization_normalized_formula_units": null,
  "num_magnetic_sites": null,
  "num_unique_magnetic_sites": null,
  "types_of_magnetic_species": null,
  "bulk_modulus": null,
  "shear_modulus": null,
  "universal_anisotropy": null,
  "homogeneous_poisson": null,
  "e_total": null,
  "e_ionic": null,
  "e_electronic": null,
  "n": null,
  "e_ij_max": null,
  "weighted_surface_energy_EV_PER_ANG2": null,
  "weighted_surface_energy": null,
  "weighted_work_function": null,
  "surface_anisotropy": null,
  "shape_factor": null,
  "has_reconstructed": null,
  "possible_species": null,
  "has_props": null,
  "theoretical": null,
  "database_IDs": null,
  "fields_not_requested": [
    "builder_meta",
    "nsites",
    "elements",
    "nelements",
    "composition",
    "composition_reduced",
    "chemsys",
    "symmetry",
    "property_name",
    "deprecated",
    "deprecation_reasons",
    "last_updated",
    "origins",
    "warnings",
    "task_ids",
    "uncorrected_energy_per_atom",
    "equilibrium_reaction_energy_per_atom",
    "decomposes_to",
    "xas",
    "grain_boundaries",
    "cbm",
    "vbm",
    "is_gap_direct",
    "is_metal",
    "es_source_calc_id",
    "bandstructure",
    "dos",
    "dos_energy_up",
    "dos_energy_down",
    "is_magnetic",
    "ordering",
    "total_magnetization_normalized_vol",
    "total_magnetization_normalized_formula_units",
    "num_magnetic_sites",
    "num_unique_magnetic_sites",
    "types_of_magnetic_species",
    "bulk_modulus",
    "shear_modulus",
    "universal_anisotropy",
    "homogeneous_poisson",
    "e_total",
    "e_ionic",
    "e_electronic",
    "n",
    "e_ij_max",
    "weighted_surface_energy_EV_PER_ANG2",
    "weighted_surface_energy",
    "weighted_work_function",
    "surface_anisotropy",
    "shape_factor",
    "has_reconstructed",
    "possible_species",
    "has_props",
    "theoretical",
    "database_IDs"
  ]
}
