{"builder_meta": null, "nsites": null, "elements": null, "nelements": null, "composition": null, "composition_reduced": null, "formula_pretty": "Sn3Pt2", "formula_anonymous": "A2B3", "chemsys": null, "volume": 216.49752371161102, "density": 11.448232414669265, "density_atomic": 21.649752371161103, "symmetry": null, "property_name": null, "material_id": "mp-30846", "deprecated": null, "deprecation_reasons": null, "last_updated": null, "origins": null, "warnings": null, "structure": {"@module": "pymatgen.core.structure", "@class": "Structure", "charge": 0, "lattice": {"matrix": [[4.37376576, 1e-08, 0.0], [-2.18688137, 3.78778986, -0.0], [-0.0, 0.0, 13.0680725]], "pbc": [true, true, true], "a": 4.37376576, "b": 4.373762927957104, "c": 13.0680725, "alpha": 90.0, "beta": 90.0, "gamma": 119.99999844744023, "volume": 216.49752371161102}, "properties": {}, "sites": [{"species": [{"element": "Sn", "occu": 1}], "abc": [0.666667, 0.333333, 0.07117011], "properties": {"magmom": -0.0}, "label": "Sn", "xyz": [2.1868855702157104, 1.26259536407005, 0.9300561573129749]}, {"species": [{"element": "Sn", "occu": 1}], "abc": [0.333333, 0.666667, 0.92882989], "properties": {"magmom": -0.0}, "label": "Sn", "xyz": [-1.1802157098284027e-06, 2.5251945059299503, 12.138016342687026]}, {"species": [{"element": "Sn", "occu": 1}], "abc": [0.666667, 0.333333, 0.42882989], "properties": {"magmom": -0.0}, "label": "Sn", "xyz": [2.1868855702157104, 1.26259536407005, 5.603980092687025]}, {"species": [{"element": "Sn", "occu": 1}], "abc": [0.333333, 0.666667, 0.5711701100000001], "properties": {"magmom": -0.0}, "label": "Sn", "xyz": [-1.1802157098284027e-06, 2.5251945059299503, 7.464092407312975]}, {"species": [{"element": "Sn", "occu": 1}], "abc": [0.0, 0.0, 0.25], "properties": {"magmom": -0.0}, "label": "Sn", "xyz": [0.0, 0.0, 3.267018125]}, {"species": [{"element": "Sn", "occu": 1}], "abc": [0.0, -0.0, 0.75], "properties": {"magmom": -0.0}, "label": "Sn", "xyz": [0.0, 0.0, 9.801054375]}, {"species": [{"element": "Pt", "occu": 1}], "abc": [0.333333, 0.666667, 0.14306497], "properties": {"magmom": 0.0}, "label": "Pt", "xyz": [-1.1802157098284027e-06, 2.5251945059299503, 1.869583400170325]}, {"species": [{"element": "Pt", "occu": 1}], "abc": [0.666667, 0.333333, 0.64306497], "properties": {"magmom": 0.0}, "label": "Pt", "xyz": [2.1868855702157104, 1.26259536407005, 8.403619650170324]}, {"species": [{"element": "Pt", "occu": 1}], "abc": [0.333333, 0.666667, 0.35693503], "properties": {"magmom": 0.0}, "label": "Pt", "xyz": [-1.1802157098284027e-06, 2.5251945059299503, 4.664452849829675]}, {"species": [{"element": "Pt", "occu": 1}], "abc": [0.666667, 0.333333, 0.85693503], "properties": {"magmom": 0.0}, "label": "Pt", "xyz": [2.1868855702157104, 1.26259536407005, 11.198489099829676]}]}, "task_ids": null, "uncorrected_energy_per_atom": null, "energy_per_atom": -35.963563172, "formation_energy_per_atom": -0.520766143999998, "energy_above_hull": 0.0, "is_stable": true, "equilibrium_reaction_energy_per_atom": null, "decomposes_to": null, "xas": null, "grain_boundaries": null, "band_gap": 0.0, "cbm": null, "vbm": null, "efermi": 8.4480934, "is_gap_direct": null, "is_metal": null, "es_source_calc_id": null, "bandstructure": null, "dos": null, "dos_energy_up": null, "dos_energy_down": null, "is_magnetic": null, "ordering": null, "total_magnetization": 0.0, "total_magnetization_normalized_vol": null, "total_magnetization_normalized_formula_units": null, "num_magnetic_sites": null, "num_unique_magnetic_sites": null, "types_of_magnetic_species": null, "bulk_modulus": null, "shear_modulus": null, "universal_anisotropy": null, "homogeneous_poisson": null, "e_total": null, "e_ionic": null, "e_electronic": null, "n": null, "e_ij_max": null, "weighted_surface_energy_EV_PER_ANG2": null, "weighted_surface_energy": null, "weighted_work_function": null, "surface_anisotropy": null, "shape_factor": null, "has_reconstructed": null, "possible_species": null, "has_props": null, "theoretical": null, "database_IDs": null, "fields_not_requested": ["builder_meta", "nsites", "elements", "nelements", "composition", "composition_reduced", "chemsys", "symmetry", "property_name", "deprecated", "deprecation_reasons", "last_updated", "origins", "warnings", "task_ids", "uncorrected_energy_per_atom", "equilibrium_reaction_energy_per_atom", "decomposes_to", "xas", "grain_boundaries", "cbm", "vbm", "is_gap_direct", "is_metal", "es_source_calc_id", "bandstructure", "dos", "dos_energy_up", "dos_energy_down", "is_magnetic", "ordering", "total_magnetization_normalized_vol", "total_magnetization_normalized_formula_units", "num_magnetic_sites", "num_unique_magnetic_sites", "types_of_magnetic_species", "bulk_modulus", "shear_modulus", "universal_anisotropy", "homogeneous_poisson", "e_total", "e_ionic", "e_electronic", "n", "e_ij_max", "weighted_surface_energy_EV_PER_ANG2", "weighted_surface_energy", "weighted_work_function", "surface_anisotropy", "shape_factor", "has_reconstructed", "possible_species", "has_props", "theoretical", "database_IDs"]}