{
  "builder_meta": null,
  "nsites": null,
  "elements": null,
  "nelements": null,
  "composition": null,
  "composition_reduced": null,
  "formula_pretty": "Sn3Pd",
  "formula_anonymous": "AB3",
  "chemsys": null,
  "volume": 368.2534857729771,
  "density": 8.342974336208636,
  "density_atomic": 23.01584286081107,
  "symmetry": null,
  "property_name": null,
  "material_id": "mp-1371",
  "deprecated": null,
  "deprecation_reasons": null,
  "last_updated": null,
  "origins": null,
  "warnings": null,
  "structure": {
    "@module": "pymatgen.core.structure",
    "@class": "Structure",
    "charge": 0,
    "lattice": {
      "matrix": [
        [6.09770114, -0.0, -2.29655176],
        [0.0, 6.52225112, -0.0],
        [0.00526364, -0.0, 9.25742546]
      ],
      "pbc": [true, true, true],
      "a": 6.51583526335008,
      "b": 6.52225112,
      "c": 9.257426956415172,
      "alpha": 90.0,
      "beta": 110.60509258973799,
      "gamma": 90.0,
      "volume": 368.2534857729771
    },
    "properties": {},
    "sites": [
      {
        "species": [{ "element": "Sn", "occu": 1 }],
        "abc": [0.16065991000000002, 0.66194142, -0.0],
        "properties": { "magmom": 0.0 },
        "label": "Sn",
        "xyz": [0.9796561163592975, 4.31734816796939, -0.3689637990719416]
      },
      {
        "species": [{ "element": "Sn", "occu": 1 }],
        "abc": [0.66065991, 0.83805858, -0.0],
        "properties": { "magmom": 0.0 },
        "label": "Sn",
        "xyz": [4.0285066863592975, 5.46602851203061, -1.5172396790719416]
      },
      {
        "species": [{ "element": "Sn", "occu": 1 }],
        "abc": [0.33934009, 0.16194142, 0.0],
        "properties": { "magmom": 0.0 },
        "label": "Sn",
        "xyz": [2.0691944536407023, 1.0562226079693904, -0.7793120809280583]
      },
      {
        "species": [{ "element": "Sn", "occu": 1 }],
        "abc": [0.83934009, 0.33805858, 0.0],
        "properties": { "magmom": 0.0 },
        "label": "Sn",
        "xyz": [5.118045023640702, 2.2049029520306096, -1.9275879609280582]
      },
      {
        "species": [{ "element": "Sn", "occu": 1 }],
        "abc": [0.16282872, 0.82944029, 0.6639592400000001],
        "properties": { "magmom": 0.0 },
        "label": "Sn",
        "xyz": [0.9963757139827745, 5.409817860425624, 5.7726085892837045]
      },
      {
        "species": [{ "element": "Sn", "occu": 1 }],
        "abc": [0.99886948, 0.67055971, 0.33604076],
        "properties": { "magmom": 0.0 },
        "label": "Sn",
        "xyz": [6.092576364493174, 4.3735588195743755, 0.816916824917465]
      },
      {
        "species": [{ "element": "Sn", "occu": 1 }],
        "abc": [0.33717128, 0.32944029, 0.33604076],
        "properties": { "magmom": 0.0 },
        "label": "Sn",
        "xyz": [2.0577384960172256, 2.148692300425625, 2.336540990716297]
      },
      {
        "species": [{ "element": "Sn", "occu": 1 }],
        "abc": [0.50113052, 0.17055971, 0.6639592400000001],
        "properties": { "magmom": 0.0 },
        "label": "Sn",
        "xyz": [3.0592389855068265, 1.112433259574375, 4.995680995082536]
      },
      {
        "species": [{ "element": "Sn", "occu": 1 }],
        "abc": [0.83717128, 0.17055971, 0.33604076],
        "properties": { "magmom": 0.0 },
        "label": "Sn",
        "xyz": [5.106589066017225, 1.112433259574375, 1.188265110716297]
      },
      {
        "species": [{ "element": "Sn", "occu": 1 }],
        "abc": [0.00113052, 0.32944029, 0.6639592400000001],
        "properties": { "magmom": 0.0 },
        "label": "Sn",
        "xyz": [0.0103884155068264, 2.148692300425625, 6.143956875082536]
      },
      {
        "species": [{ "element": "Sn", "occu": 1 }],
        "abc": [0.66282872, 0.67055971, 0.6639592400000001],
        "properties": { "magmom": 0.0 },
        "label": "Sn",
        "xyz": [4.045226283982775, 4.3735588195743755, 4.6243327092837045]
      },
      {
        "species": [{ "element": "Sn", "occu": 1 }],
        "abc": [0.49886948000000003, 0.82944029, 0.33604076],
        "properties": { "magmom": 0.0 },
        "label": "Sn",
        "xyz": [3.0437257944931737, 5.409817860425624, 1.965192704917465]
      },
      {
        "species": [{ "element": "Pd", "occu": 1 }],
        "abc": [0.91447016, -0.0, 0.82894132],
        "properties": { "magmom": -0.0 },
        "label": "Pd",
        "xyz": [5.580528985817587, 0.0, 5.573734425198525]
      },
      {
        "species": [{ "element": "Pd", "occu": 1 }],
        "abc": [0.58552984, 0.5, 0.17105868],
        "properties": { "magmom": -0.0 },
        "label": "Pd",
        "xyz": [3.571286364182413, 3.26112556, 0.23886339480147445]
      },
      {
        "species": [{ "element": "Pd", "occu": 1 }],
        "abc": [0.08552984, -0.0, 0.17105868],
        "properties": { "magmom": -0.0 },
        "label": "Pd",
        "xyz": [0.5224357941824128, 0.0, 1.3871392748014744]
      },
      {
        "species": [{ "element": "Pd", "occu": 1 }],
        "abc": [0.41447016000000003, 0.5, 0.82894132],
        "properties": { "magmom": -0.0 },
        "label": "Pd",
        "xyz": [2.531678415817587, 3.26112556, 6.722010305198525]
      }
    ]
  },
  "task_ids": null,
  "uncorrected_energy_per_atom": null,
  "energy_per_atom": -24.50251144125,
  "formation_energy_per_atom": -0.202760203749999,
  "energy_above_hull": 0.048158374999999004,
  "is_stable": false,
  "equilibrium_reaction_energy_per_atom": null,
  "decomposes_to": null,
  "xas": null,
  "grain_boundaries": null,
  "band_gap": 0.0,
  "cbm": null,
  "vbm": null,
  "efermi": 7.75589388,
  "is_gap_direct": null,
  "is_metal": null,
  "es_source_calc_id": null,
  "bandstructure": null,
  "dos": null,
  "dos_energy_up": null,
  "dos_energy_down": null,
  "is_magnetic": null,
  "ordering": null,
  "total_magnetization": 0.0,
  "total_magnetization_normalized_vol": null,
  "total_magnetization_normalized_formula_units": null,
  "num_magnetic_sites": null,
  "num_unique_magnetic_sites": null,
  "types_of_magnetic_species": null,
  "bulk_modulus": null,
  "shear_modulus": null,
  "universal_anisotropy": null,
  "homogeneous_poisson": null,
  "e_total": null,
  "e_ionic": null,
  "e_electronic": null,
  "n": null,
  "e_ij_max": null,
  "weighted_surface_energy_EV_PER_ANG2": null,
  "weighted_surface_energy": null,
  "weighted_work_function": null,
  "surface_anisotropy": null,
  "shape_factor": null,
  "has_reconstructed": null,
  "possible_species": null,
  "has_props": null,
  "theoretical": null,
  "database_IDs": null,
  "fields_not_requested": [
    "builder_meta",
    "nsites",
    "elements",
    "nelements",
    "composition",
    "composition_reduced",
    "chemsys",
    "symmetry",
    "property_name",
    "deprecated",
    "deprecation_reasons",
    "last_updated",
    "origins",
    "warnings",
    "task_ids",
    "uncorrected_energy_per_atom",
    "equilibrium_reaction_energy_per_atom",
    "decomposes_to",
    "xas",
    "grain_boundaries",
    "cbm",
    "vbm",
    "is_gap_direct",
    "is_metal",
    "es_source_calc_id",
    "bandstructure",
    "dos",
    "dos_energy_up",
    "dos_energy_down",
    "is_magnetic",
    "ordering",
    "total_magnetization_normalized_vol",
    "total_magnetization_normalized_formula_units",
    "num_magnetic_sites",
    "num_unique_magnetic_sites",
    "types_of_magnetic_species",
    "bulk_modulus",
    "shear_modulus",
    "universal_anisotropy",
    "homogeneous_poisson",
    "e_total",
    "e_ionic",
    "e_electronic",
    "n",
    "e_ij_max",
    "weighted_surface_energy_EV_PER_ANG2",
    "weighted_surface_energy",
    "weighted_work_function",
    "surface_anisotropy",
    "shape_factor",
    "has_reconstructed",
    "possible_species",
    "has_props",
    "theoretical",
    "database_IDs"
  ]
}
