{"builder_meta": null, "nsites": null, "elements": null, "nelements": null, "composition": null, "composition_reduced": null, "formula_pretty": "Sn3Ru2", "formula_anonymous": "A2B3", "chemsys": null, "volume": 384.1007763728203, "density": 9.654020004489428, "density_atomic": 19.205038818641015, "symmetry": null, "property_name": null, "material_id": "mp-680677", "deprecated": null, "deprecation_reasons": null, "last_updated": null, "origins": null, "warnings": null, "structure": {"@module": "pymatgen.core.structure", "@class": "Structure", "charge": 0, "lattice": {"matrix": [[6.2044697, 0.00013762, 3.5e-07], [0.00013661, 6.20446413, 2.96e-06], [1.428e-05, 5.68e-06, 9.97783319]], "pbc": [true, true, true], "a": 6.2044697015262695, "b": 6.204464131504646, "c": 9.977833190011836, "alpha": 89.9999400474591, "beta": 89.9999147670262, "gamma": 89.99746759523225, "volume": 384.1007763728203}, "properties": {}, "sites": [{"species": [{"element": "Sn", "occu": 1}], "abc": [0.22162383, 0.34191239, 0.08413431], "properties": {"magmom": -0.0}, "label": "Sn", "xyz": [1.3751062481224956, 2.121414137111936, 0.8394792003647639]}, {"species": [{"element": "Sn", "occu": 1}], "abc": [0.34190383, 0.2216622, 0.41588678], "properties": {"magmom": -0.0}, "label": "Sn", "xyz": [2.1213681736853114, 1.375344583918881, 4.149649692552681]}, {"species": [{"element": "Sn", "occu": 1}], "abc": [0.34191402, 0.7783206500000001, 0.91590202], "properties": {"magmom": -0.0}, "label": "Sn", "xyz": [2.1215145825600357, 4.829114811094191, 9.138719997443076]}, {"species": [{"element": "Sn", "occu": 1}], "abc": [0.65809415, 0.22169581, 0.9159111], "properties": {"magmom": -0.0}, "label": "Sn", "xyz": [4.083168578497367, 1.3755994702082663, 9.138809059221959]}, {"species": [{"element": "Sn", "occu": 1}], "abc": [0.22166538, 0.65810097, 0.58409021], "properties": {"magmom": -0.0}, "label": "Sn", "xyz": [1.3754143777306964, 4.083197685505195, 5.827956708853824]}, {"species": [{"element": "Sn", "occu": 1}], "abc": [0.82057913, 0.82058271, 0.74999884], "properties": {"magmom": -0.0}, "label": "Sn", "xyz": [5.091381158324809, 5.0913931779864745, 7.483366034341017]}, {"species": [{"element": "Sn", "occu": 1}], "abc": [0.65809394, 0.77834481, 0.41588], "properties": {"magmom": -0.0}, "label": "Sn", "xyz": [4.083236178934513, 4.829305383503089, 4.149583801290717]}, {"species": [{"element": "Sn", "occu": 1}], "abc": [0.17943284, 0.8206013600000001, 0.25001022], "properties": {"magmom": 0.0}, "label": "Sn", "xyz": [1.1134012914626792, 5.091417816754707, 2.4945627627367215]}, {"species": [{"element": "Sn", "occu": 1}], "abc": [0.82057295, 0.17939659, 0.25001126], "properties": {"magmom": 0.0}, "label": "Sn", "xyz": [5.091248082443567, 1.1131740550126525, 2.494571466116158]}, {"species": [{"element": "Sn", "occu": 1}], "abc": [0.77833562, 0.34189893, 0.58409208], "properties": {"magmom": -0.0}, "label": "Sn", "xyz": [4.829214818368444, 2.1214100794614197, 5.8279746262784355]}, {"species": [{"element": "Sn", "occu": 1}], "abc": [0.77838428, 0.65808807, 0.08413975], "properties": {"magmom": -0.0}, "label": "Sn", "xyz": [4.829552783143189, 4.0831914238543225, 0.8395346105234877]}, {"species": [{"element": "Sn", "occu": 1}], "abc": [0.17942161, 0.17941822000000002, 0.74999666], "properties": {"magmom": -0.0}, "label": "Sn", "xyz": [1.1132511630455562, 1.1132228622414457, 7.48334216041264]}, {"species": [{"element": "Ru", "occu": 1}], "abc": [0.50000146, 0.99999553, 0.12387012], "properties": {"magmom": -0.0}, "label": "Ru", "xyz": [3.1023822867804287, 6.204505909828545, 1.2359585295725626]}, {"species": [{"element": "Ru", "occu": 1}], "abc": [1.399999999999999e-07, 0.49999986, 0.87614155], "properties": {"magmom": 0.0}, "label": "Ru", "xyz": [8.168490796660002e-05, 3.1022361728782926, 8.74199571672768]}, {"species": [{"element": "Ru", "occu": 1}], "abc": [-6.39e-06, 1.2e-06, 0.49997202], "properties": {"magmom": -0.0}, "label": "Ru", "xyz": [-3.2506797005399995e-05, 1.0284318637799999e-05, 4.988637415228659]}, {"species": [{"element": "Ru", "occu": 1}], "abc": [0.9999948200000001, 0.5000013, 0.37612646], "properties": {"magmom": 0.0}, "label": "Ru", "xyz": [6.204511237110396, 3.10237988648879, 3.7529289062272424]}, {"species": [{"element": "Ru", "occu": 1}], "abc": [0.49999717, 0.99999819, 0.62383923], "properties": {"magmom": 0.0}, "label": "Ru", "xyz": [3.102362809527689, 6.2045252529372865, 6.2245669093116955]}, {"species": [{"element": "Ru", "occu": 1}], "abc": [-4.7e-06, 0.99999707, 1.43e-05], "properties": {"magmom": 0.0}, "label": "Ru", "xyz": [0.00010744879634670001, 6.204445950354509, 0.0001456430042992]}, {"species": [{"element": "Ru", "occu": 1}], "abc": [0.49999439, 0.49998831, 0.25000729], "properties": {"magmom": 0.0}, "label": "Ru", "xyz": [3.1022719164321133, 3.1022297640836793, 2.4945326908673895]}, {"species": [{"element": "Ru", "occu": 1}], "abc": [0.49999955, 0.49999784, 0.749973799999999], "properties": {"magmom": -0.0}, "label": "Ru", "xyz": [3.1023110723194214, 3.102291733146734, 7.4831151282638615]}]}, "task_ids": null, "uncorrected_energy_per_atom": null, "energy_per_atom": -25.1674439635, "formation_energy_per_atom": -0.1499195775, "energy_above_hull": 0.0, "is_stable": true, "equilibrium_reaction_energy_per_atom": null, "decomposes_to": null, "xas": null, "grain_boundaries": null, "band_gap": 0.0, "cbm": null, "vbm": null, "efermi": 9.264445, "is_gap_direct": null, "is_metal": null, "es_source_calc_id": null, "bandstructure": null, "dos": null, "dos_energy_up": null, "dos_energy_down": null, "is_magnetic": null, "ordering": null, "total_magnetization": 2e-07, "total_magnetization_normalized_vol": null, "total_magnetization_normalized_formula_units": null, "num_magnetic_sites": null, "num_unique_magnetic_sites": null, "types_of_magnetic_species": null, "bulk_modulus": null, "shear_modulus": null, "universal_anisotropy": null, "homogeneous_poisson": null, "e_total": null, "e_ionic": null, "e_electronic": null, "n": null, "e_ij_max": null, "weighted_surface_energy_EV_PER_ANG2": null, "weighted_surface_energy": null, "weighted_work_function": null, "surface_anisotropy": null, "shape_factor": null, "has_reconstructed": null, "possible_species": null, "has_props": null, "theoretical": null, "database_IDs": null, "fields_not_requested": ["builder_meta", "nsites", "elements", "nelements", "composition", "composition_reduced", "chemsys", "symmetry", "property_name", "deprecated", "deprecation_reasons", "last_updated", "origins", "warnings", "task_ids", "uncorrected_energy_per_atom", "equilibrium_reaction_energy_per_atom", "decomposes_to", "xas", "grain_boundaries", "cbm", "vbm", "is_gap_direct", "is_metal", "es_source_calc_id", "bandstructure", "dos", "dos_energy_up", "dos_energy_down", "is_magnetic", "ordering", "total_magnetization_normalized_vol", "total_magnetization_normalized_formula_units", "num_magnetic_sites", "num_unique_magnetic_sites", "types_of_magnetic_species", "bulk_modulus", "shear_modulus", "universal_anisotropy", "homogeneous_poisson", "e_total", "e_ionic", "e_electronic", "n", "e_ij_max", "weighted_surface_energy_EV_PER_ANG2", "weighted_surface_energy", "weighted_work_function", "surface_anisotropy", "shape_factor", "has_reconstructed", "possible_species", "has_props", "theoretical", "database_IDs"]}