{"builder_meta": null, "nsites": null, "elements": null, "nelements": null, "composition": null, "composition_reduced": null, "formula_pretty": "Sn3Ru", "formula_anonymous": "AB3", "chemsys": null, "volume": 187.67542036694184, "density": 8.090547603571524, "density_atomic": 23.45942754586773, "symmetry": null, "property_name": null, "material_id": "mp-1187108", "deprecated": null, "deprecation_reasons": null, "last_updated": null, "origins": null, "warnings": null, "structure": {"@module": "pymatgen.core.structure", "@class": "Structure", "charge": 0, "lattice": {"matrix": [[3.49219, -6.04865, 0.0], [3.49219, 6.04865, 0.0], [0.0, 0.0, 4.442435]], "pbc": [true, true, true], "a": 6.98437955860075, "b": 6.98437955860075, "c": 4.442435, "alpha": 90.0, "beta": 90.0, "gamma": 119.99999581884985, "volume": 187.67542036694184}, "properties": {}, "sites": [{"species": [{"element": "Sn", "occu": 1}], "abc": [0.183843999999999, 0.367687999999999, 0.25], "properties": {"magmom": -0.0}, "label": "Sn", "xyz": [1.9260545350799931, 1.1120080105999999, 1.11060875]}, {"species": [{"element": "Sn", "occu": 1}], "abc": [0.632312, 0.816156, 0.25], "properties": {"magmom": -0.0}, "label": "Sn", "xyz": [5.058325464919999, 1.1120080105999999, 1.11060875]}, {"species": [{"element": "Sn", "occu": 1}], "abc": [0.183843999999999, 0.816156, 0.25], "properties": {"magmom": 0.0}, "label": "Sn", "xyz": [3.4921899999999964, 3.824633978800006, 1.11060875]}, {"species": [{"element": "Sn", "occu": 1}], "abc": [0.816156, 0.632312, 0.75], "properties": {"magmom": -0.0}, "label": "Sn", "xyz": [5.058325464919999, -1.1120080105999999, 3.3318262499999998]}, {"species": [{"element": "Sn", "occu": 1}], "abc": [0.367687999999999, 0.183843999999999, 0.75], "properties": {"magmom": -0.0}, "label": "Sn", "xyz": [1.9260545350799931, -1.1120080105999999, 3.3318262499999998]}, {"species": [{"element": "Sn", "occu": 1}], "abc": [0.816156, 0.183843999999999, 0.75], "properties": {"magmom": 0.0}, "label": "Sn", "xyz": [3.4921899999999964, -3.824633978800006, 3.3318262499999998]}, {"species": [{"element": "Ru", "occu": 1}], "abc": [0.333333, 0.666667, 0.75], "properties": {"magmom": 0.0}, "label": "Ru", "xyz": [3.49219, 2.0162206991, 3.3318262499999998]}, {"species": [{"element": "Ru", "occu": 1}], "abc": [0.666667, 0.333333, 0.25], "properties": {"magmom": 0.0}, "label": "Ru", "xyz": [3.49219, -2.0162206991, 1.11060875]}]}, "task_ids": null, "uncorrected_energy_per_atom": null, "energy_per_atom": -24.531413153750005, "formation_energy_per_atom": 0.384358504999994, "energy_above_hull": 0.522272916249999, "is_stable": false, "equilibrium_reaction_energy_per_atom": null, "decomposes_to": null, "xas": null, "grain_boundaries": null, "band_gap": 0.0, "cbm": null, "vbm": null, "efermi": 7.95888189, "is_gap_direct": null, "is_metal": null, "es_source_calc_id": null, "bandstructure": null, "dos": null, "dos_energy_up": null, "dos_energy_down": null, "is_magnetic": null, "ordering": null, "total_magnetization": 0.0001261, "total_magnetization_normalized_vol": null, "total_magnetization_normalized_formula_units": null, "num_magnetic_sites": null, "num_unique_magnetic_sites": null, "types_of_magnetic_species": null, "bulk_modulus": null, "shear_modulus": null, "universal_anisotropy": null, "homogeneous_poisson": null, "e_total": null, "e_ionic": null, "e_electronic": null, "n": null, "e_ij_max": null, "weighted_surface_energy_EV_PER_ANG2": null, "weighted_surface_energy": null, "weighted_work_function": null, "surface_anisotropy": null, "shape_factor": null, "has_reconstructed": null, "possible_species": null, "has_props": null, "theoretical": null, "database_IDs": null, "fields_not_requested": ["builder_meta", "nsites", "elements", "nelements", "composition", "composition_reduced", "chemsys", "symmetry", "property_name", "deprecated", "deprecation_reasons", "last_updated", "origins", "warnings", "task_ids", "uncorrected_energy_per_atom", "equilibrium_reaction_energy_per_atom", "decomposes_to", "xas", "grain_boundaries", "cbm", "vbm", "is_gap_direct", "is_metal", "es_source_calc_id", "bandstructure", "dos", "dos_energy_up", "dos_energy_down", "is_magnetic", "ordering", "total_magnetization_normalized_vol", "total_magnetization_normalized_formula_units", "num_magnetic_sites", "num_unique_magnetic_sites", "types_of_magnetic_species", "bulk_modulus", "shear_modulus", "universal_anisotropy", "homogeneous_poisson", "e_total", "e_ionic", "e_electronic", "n", "e_ij_max", "weighted_surface_energy_EV_PER_ANG2", "weighted_surface_energy", "weighted_work_function", "surface_anisotropy", "shape_factor", "has_reconstructed", "possible_species", "has_props", "theoretical", "database_IDs"]}