{
  "builder_meta": null,
  "nsites": null,
  "elements": null,
  "nelements": null,
  "composition": null,
  "composition_reduced": null,
  "formula_pretty": "Sn3S7",
  "formula_anonymous": "A3B7",
  "chemsys": null,
  "volume": 2384.7410211920874,
  "density": 1.617088086990735,
  "density_atomic": 59.618525529802184,
  "symmetry": null,
  "property_name": null,
  "material_id": "mp-1202007",
  "deprecated": null,
  "deprecation_reasons": null,
  "last_updated": null,
  "origins": null,
  "warnings": null,
  "structure": {
    "@module": "pymatgen.core.structure",
    "@class": "Structure",
    "charge": 0,
    "lattice": {
      "matrix": [
        [6.665407, 11.561355, 0.0],
        [-6.665407, 11.561355, 0.0],
        [0.0, 5.086255, 15.473046]
      ],
      "pbc": [true, true, true],
      "a": 13.34513319197954,
      "b": 13.34513319197954,
      "c": 16.2875763219437,
      "alpha": 74.30374561892599,
      "beta": 74.30374561892599,
      "gamma": 59.9290242512379,
      "volume": 2384.7410211920874
    },
    "properties": {},
    "sites": [
      {
        "species": [{ "element": "Sn", "occu": 1 }],
        "abc": [0.734622999999999, 0.414018, 0.26118],
        "properties": { "magmom": -0.011 },
        "label": "Sn",
        "xyz": [2.136962811234994, 14.60827444945499, 4.04125015428]
      },
      {
        "species": [{ "element": "Sn", "occu": 1 }],
        "abc": [0.585982, 0.265377, 0.23882000000000003],
        "properties": { "magmom": -0.011 },
        "label": "Sn",
        "xyz": [2.1369628112350005, 11.057563050545001, 3.6952728457200004]
      },
      {
        "species": [{ "element": "Sn", "occu": 1 }],
        "abc": [0.265377, 0.585982, 0.73882],
        "properties": { "magmom": -0.011 },
        "label": "Sn",
        "xyz": [-2.1369628112350005, 13.600690550545002, 11.43179584572]
      },
      {
        "species": [{ "element": "Sn", "occu": 1 }],
        "abc": [0.414018, 0.734622999999999, 0.7611800000000001],
        "properties": { "magmom": -0.011 },
        "label": "Sn",
        "xyz": [-2.136962811234994, 17.151401949454993, 11.777773154280002]
      },
      {
        "species": [{ "element": "Sn", "occu": 1 }],
        "abc": [0.747246, 0.67786, 0.259245],
        "properties": { "magmom": -0.008 },
        "label": "Sn",
        "xyz": [0.462485930101999, 17.794742556105003, 4.01130981027]
      },
      {
        "species": [{ "element": "Sn", "occu": 1 }],
        "abc": [0.32214000000000004, 0.252754, 0.240755],
        "properties": { "magmom": -0.013000000000000001 },
        "label": "Sn",
        "xyz": [0.46248593010200056, 7.871094943895001, 3.72521318973]
      },
      {
        "species": [{ "element": "Sn", "occu": 1 }],
        "abc": [0.252754, 0.32214000000000004, 0.740754999999999],
        "properties": { "magmom": -0.008 },
        "label": "Sn",
        "xyz": [-0.46248593010200056, 10.414222443894996, 11.461736189729985]
      },
      {
        "species": [{ "element": "Sn", "occu": 1 }],
        "abc": [0.67786, 0.747246, 0.759245],
        "properties": { "magmom": -0.013000000000000001 },
        "label": "Sn",
        "xyz": [-0.462485930101999, 20.337870056105, 11.74783281027]
      },
      {
        "species": [{ "element": "Sn", "occu": 1 }],
        "abc": [0.010773, 0.40069899999999903, 0.261527],
        "properties": { "magmom": -0.013000000000000001 },
        "label": "Sn",
        "xyz": [-2.5990154898819933, 6.087366875944989, 4.046619301242]
      },
      {
        "species": [{ "element": "Sn", "occu": 1 }],
        "abc": [0.599301, 0.989227, 0.238473],
        "properties": { "magmom": -0.008 },
        "label": "Sn",
        "xyz": [-2.5990154898819995, 19.578470624055, 3.689903698758]
      },
      {
        "species": [{ "element": "Sn", "occu": 1 }],
        "abc": [0.989227, 0.599301, 0.738472999999999],
        "properties": { "magmom": -0.013000000000000001 },
        "label": "Sn",
        "xyz": [2.5990154898819995, 22.121598124054994, 11.426426698757986]
      },
      {
        "species": [{ "element": "Sn", "occu": 1 }],
        "abc": [0.40069899999999903, 0.010773, 0.761527],
        "properties": { "magmom": -0.008 },
        "label": "Sn",
        "xyz": [2.5990154898819933, 8.63049437594499, 11.783142301242]
      },
      {
        "species": [{ "element": "S", "occu": 1 }],
        "abc": [0.854654999999999, 0.520261, 0.154870999999999],
        "properties": { "magmom": 0.20600000000000002 },
        "label": "S",
        "xyz": [2.228872108357994, 16.683605369284987, 2.3963261070659847]
      },
      {
        "species": [{ "element": "S", "occu": 1 }],
        "abc": [0.479738999999999, 0.145345, 0.345128999999999],
        "properties": { "magmom": 0.21 },
        "label": "S",
        "xyz": [2.2288721083579937, 8.982232130714983, 5.340196892933985]
      },
      {
        "species": [{ "element": "S", "occu": 1 }],
        "abc": [0.145345, 0.479738999999999, 0.845128999999999],
        "properties": { "magmom": 0.20600000000000002 },
        "label": "S",
        "xyz": [-2.2288721083579937, 11.525359630714984, 13.076719892933985]
      },
      {
        "species": [{ "element": "S", "occu": 1 }],
        "abc": [0.520261, 0.854654999999999, 0.654871],
        "properties": { "magmom": 0.21 },
        "label": "S",
        "xyz": [-2.228872108357994, 19.22673286928499, 10.132849107065999]
      },
      {
        "species": [{ "element": "S", "occu": 1 }],
        "abc": [0.929063, 0.581692, 0.321824],
        "properties": { "magmom": 0.116 },
        "label": "S",
        "xyz": [2.315369094997, 19.103253802145, 4.979597555904]
      },
      {
        "species": [{ "element": "S", "occu": 1 }],
        "abc": [0.418307999999999, 0.070937, 0.178176],
        "properties": { "magmom": 0.11900000000000001 },
        "label": "S",
        "xyz": [2.3153690949969934, 6.562583697854989, 2.756925444096]
      },
      {
        "species": [{ "element": "S", "occu": 1 }],
        "abc": [0.070937, 0.418307999999999, 0.678176],
        "properties": { "magmom": 0.116 },
        "label": "S",
        "xyz": [-2.3153690949969934, 9.105711197854989, 10.493448444096]
      },
      {
        "species": [{ "element": "S", "occu": 1 }],
        "abc": [0.581692, 0.929063, 0.821824],
        "properties": { "magmom": 0.11900000000000001 },
        "label": "S",
        "xyz": [-2.315369094997, 21.646381302145002, 12.716120555904]
      },
      {
        "species": [{ "element": "S", "occu": 1 }],
        "abc": [0.6093189999999991, 0.595603, 0.323942],
        "properties": { "magmom": 0.108 },
        "label": "S",
        "xyz": [0.09142272241199345, 15.57818260651999, 5.012369467332]
      },
      {
        "species": [{ "element": "S", "occu": 1 }],
        "abc": [0.404397, 0.390681, 0.176058],
        "properties": { "magmom": 0.106 },
        "label": "S",
        "xyz": [0.09142272241200011, 10.087654893480002, 2.7241535326679998]
      },
      {
        "species": [{ "element": "S", "occu": 1 }],
        "abc": [0.390681, 0.404397, 0.676057999999999],
        "properties": { "magmom": 0.108 },
        "label": "S",
        "xyz": [-0.09142272241200011, 12.630782393479997, 10.460676532667986]
      },
      {
        "species": [{ "element": "S", "occu": 1 }],
        "abc": [0.595603, 0.6093189999999991, 0.823942],
        "properties": { "magmom": 0.106 },
        "label": "S",
        "xyz": [-0.09142272241199345, 18.12131010651999, 12.748892467331999]
      },
      {
        "species": [{ "element": "S", "occu": 1 }],
        "abc": [0.914918, 0.274099, 0.322480999999999],
        "properties": { "magmom": 0.112 },
        "label": "S",
        "xyz": [4.271319448333, 15.386868236689995, 4.989763347125985]
      },
      {
        "species": [{ "element": "S", "occu": 1 }],
        "abc": [0.725901, 0.085081999999999, 0.177518999999999],
        "properties": { "magmom": 0.112 },
        "label": "S",
        "xyz": [4.271319448333006, 10.278969263309985, 2.7467596528739846]
      },
      {
        "species": [{ "element": "S", "occu": 1 }],
        "abc": [0.085081999999999, 0.725901, 0.677519],
        "properties": { "magmom": 0.112 },
        "label": "S",
        "xyz": [-4.271319448333006, 12.822096763309991, 10.483282652874]
      },
      {
        "species": [{ "element": "S", "occu": 1 }],
        "abc": [0.274099, 0.914918, 0.822481],
        "properties": { "magmom": 0.112 },
        "label": "S",
        "xyz": [-4.271319448333, 17.92999573669, 12.726286347126]
      },
      {
        "species": [{ "element": "S", "occu": 1 }],
        "abc": [0.711175, 0.838102, 0.135415],
        "properties": { "magmom": 0.234 },
        "label": "S",
        "xyz": [-0.8460201142889998, 18.600496611160004, 2.09528252409]
      },
      {
        "species": [{ "element": "S", "occu": 1 }],
        "abc": [0.161898, 0.288825, 0.364585],
        "properties": { "magmom": 0.219 },
        "label": "S",
        "xyz": [-0.846020114289, 7.065340888840001, 5.64124047591]
      },
      {
        "species": [{ "element": "S", "occu": 1 }],
        "abc": [0.288825, 0.161898, 0.864584999999999],
        "properties": { "magmom": 0.234 },
        "label": "S",
        "xyz": [0.846020114289, 9.608468388839995, 13.377763475909985]
      },
      {
        "species": [{ "element": "S", "occu": 1 }],
        "abc": [0.838102, 0.711175, 0.635415],
        "properties": { "magmom": 0.219 },
        "label": "S",
        "xyz": [0.8460201142889998, 21.14362411116, 9.831805524089999]
      },
      {
        "species": [{ "element": "S", "occu": 1 }],
        "abc": [0.690732, 0.380546, 0.13699],
        "properties": { "magmom": 0.232 },
        "label": "S",
        "xyz": [2.0675159357020005, 13.082191334140001, 2.11965257154]
      },
      {
        "species": [{ "element": "S", "occu": 1 }],
        "abc": [0.619454, 0.309268, 0.36301000000000005],
        "properties": { "magmom": 0.227 },
        "label": "S",
        "xyz": [2.067515935701999, 12.583646165860001, 5.616870428460001]
      },
      {
        "species": [{ "element": "S", "occu": 1 }],
        "abc": [0.309268, 0.619454, 0.86301],
        "properties": { "magmom": 0.232 },
        "label": "S",
        "xyz": [-2.067515935701999, 15.12677366586, 13.35339342846]
      },
      {
        "species": [{ "element": "S", "occu": 1 }],
        "abc": [0.380546, 0.690732, 0.6369900000000001],
        "properties": { "magmom": 0.227 },
        "label": "S",
        "xyz": [-2.0675159357020005, 15.625318834140002, 9.856175571540001]
      },
      {
        "species": [{ "element": "S", "occu": 1 }],
        "abc": [0.647320999999999, 0.829172999999999, 0.362079],
        "properties": { "magmom": 0.246 },
        "label": "S",
        "xyz": [-1.2121175937639999, 18.91189741351498, 5.602465022634]
      },
      {
        "species": [{ "element": "S", "occu": 1 }],
        "abc": [0.170826999999999, 0.352678999999999, 0.137921],
        "properties": { "magmom": 0.231 },
        "label": "S",
        "xyz": [-1.2121175937640003, 6.753940086484978, 2.134057977366]
      },
      {
        "species": [{ "element": "S", "occu": 1 }],
        "abc": [0.352678999999999, 0.170826999999999, 0.637921],
        "properties": { "magmom": 0.246 },
        "label": "S",
        "xyz": [1.2121175937640003, 9.297067586484978, 9.870580977366]
      },
      {
        "species": [{ "element": "S", "occu": 1 }],
        "abc": [0.829172999999999, 0.647320999999999, 0.862078999999999],
        "properties": { "magmom": 0.231 },
        "label": "S",
        "xyz": [1.2121175937639999, 21.455024913514972, 13.338988022633986]
      }
    ]
  },
  "task_ids": null,
  "uncorrected_energy_per_atom": null,
  "energy_per_atom": -13.20383733753125,
  "formation_energy_per_atom": -0.155482845999998,
  "energy_above_hull": 0.2705127966875,
  "is_stable": false,
  "equilibrium_reaction_energy_per_atom": null,
  "decomposes_to": null,
  "xas": null,
  "grain_boundaries": null,
  "band_gap": 0.0,
  "cbm": null,
  "vbm": null,
  "efermi": -2.57000641,
  "is_gap_direct": null,
  "is_metal": null,
  "es_source_calc_id": null,
  "bandstructure": null,
  "dos": null,
  "dos_energy_up": null,
  "dos_energy_down": null,
  "is_magnetic": null,
  "ordering": null,
  "total_magnetization": 8.0120332,
  "total_magnetization_normalized_vol": null,
  "total_magnetization_normalized_formula_units": null,
  "num_magnetic_sites": null,
  "num_unique_magnetic_sites": null,
  "types_of_magnetic_species": null,
  "bulk_modulus": null,
  "shear_modulus": null,
  "universal_anisotropy": null,
  "homogeneous_poisson": null,
  "e_total": null,
  "e_ionic": null,
  "e_electronic": null,
  "n": null,
  "e_ij_max": null,
  "weighted_surface_energy_EV_PER_ANG2": null,
  "weighted_surface_energy": null,
  "weighted_work_function": null,
  "surface_anisotropy": null,
  "shape_factor": null,
  "has_reconstructed": null,
  "possible_species": null,
  "has_props": null,
  "theoretical": null,
  "database_IDs": null,
  "fields_not_requested": [
    "builder_meta",
    "nsites",
    "elements",
    "nelements",
    "composition",
    "composition_reduced",
    "chemsys",
    "symmetry",
    "property_name",
    "deprecated",
    "deprecation_reasons",
    "last_updated",
    "origins",
    "warnings",
    "task_ids",
    "uncorrected_energy_per_atom",
    "equilibrium_reaction_energy_per_atom",
    "decomposes_to",
    "xas",
    "grain_boundaries",
    "cbm",
    "vbm",
    "is_gap_direct",
    "is_metal",
    "es_source_calc_id",
    "bandstructure",
    "dos",
    "dos_energy_up",
    "dos_energy_down",
    "is_magnetic",
    "ordering",
    "total_magnetization_normalized_vol",
    "total_magnetization_normalized_formula_units",
    "num_magnetic_sites",
    "num_unique_magnetic_sites",
    "types_of_magnetic_species",
    "bulk_modulus",
    "shear_modulus",
    "universal_anisotropy",
    "homogeneous_poisson",
    "e_total",
    "e_ionic",
    "e_electronic",
    "n",
    "e_ij_max",
    "weighted_surface_energy_EV_PER_ANG2",
    "weighted_surface_energy",
    "weighted_work_function",
    "surface_anisotropy",
    "shape_factor",
    "has_reconstructed",
    "possible_species",
    "has_props",
    "theoretical",
    "database_IDs"
  ]
}
