{
  "builder_meta": null,
  "nsites": null,
  "elements": null,
  "nelements": null,
  "composition": null,
  "composition_reduced": null,
  "formula_pretty": "Sn4Au",
  "formula_anonymous": "AB4",
  "chemsys": null,
  "volume": 255.13505922105205,
  "density": 8.744866788820842,
  "density_atomic": 25.513505922105203,
  "symmetry": null,
  "property_name": null,
  "material_id": "mp-1393",
  "deprecated": null,
  "deprecation_reasons": null,
  "last_updated": null,
  "origins": null,
  "warnings": null,
  "structure": {
    "@module": "pymatgen.core.structure",
    "@class": "Structure",
    "charge": 0,
    "lattice": {
      "matrix": [
        [6.56703733, 0.0, 0.0],
        [0.0, 5.6739931200000004, -3.15832063],
        [0.0, 0.07279306, 6.8066628]
      ],
      "pbc": [true, true, true],
      "a": 6.56703733,
      "b": 6.4937806497979995,
      "c": 6.807052027308738,
      "alpha": 118.48894999632354,
      "beta": 90.0,
      "gamma": 90.0,
      "volume": 255.1350592210521
    },
    "properties": {},
    "sites": [
      {
        "species": [{ "element": "Sn", "occu": 1 }],
        "abc": [0.16725768, 0.52542667, 0.72193826],
        "properties": { "magmom": 0.0 },
        "label": "Sn",
        "xyz": [1.0983874282891943, 3.033819405720986, 3.254524406825526]
      },
      {
        "species": [{ "element": "Sn", "occu": 1 }],
        "abc": [0.16728914, 0.458546399999999, 0.24589603000000002],
        "properties": { "magmom": 0.0 },
        "label": "Sn",
        "xyz": [1.0985940272835961, 2.6196886432663145, 0.22549480513645515]
      },
      {
        "species": [{ "element": "Sn", "occu": 1 }],
        "abc": [0.33274232, 0.025426670000000002, 0.72193826],
        "properties": { "magmom": 0.0 },
        "label": "Sn",
        "xyz": [2.1851312367108053, 0.19682284572098602, 4.833684721825526]
      },
      {
        "species": [{ "element": "Sn", "occu": 1 }],
        "abc": [0.83274232, 0.19651058, 0.72193826],
        "properties": { "magmom": 0.0 },
        "label": "Sn",
        "xyz": [5.468649901710806, 1.1675517740036851, 4.293346879411462]
      },
      {
        "species": [{ "element": "Sn", "occu": 1 }],
        "abc": [0.6672891400000001, 0.28734963, 0.24589603000000002],
        "properties": { "magmom": 0.0 },
        "label": "Sn",
        "xyz": [4.382112692283596, 1.6483193481200977, 0.7661890956168171]
      },
      {
        "species": [{ "element": "Sn", "occu": 1 }],
        "abc": [0.83271086, 0.78734963, 0.24589603000000002],
        "properties": { "magmom": 0.0 },
        "label": "Sn",
        "xyz": [5.468443302716404, 4.485315908120098, -0.8129712193831831]
      },
      {
        "species": [{ "element": "Sn", "occu": 1 }],
        "abc": [0.66725768, 0.69651058, 0.72193826],
        "properties": { "magmom": 0.0 },
        "label": "Sn",
        "xyz": [4.381906093289194, 4.004548334003686, 2.7141865644114627]
      },
      {
        "species": [{ "element": "Sn", "occu": 1 }],
        "abc": [0.33271086, 0.958546399999999, 0.24589603000000002],
        "properties": { "magmom": 0.0 },
        "label": "Sn",
        "xyz": [2.1849246377164038, 5.456685203266314, -1.3536655098635448]
      },
      {
        "species": [{ "element": "Au", "occu": 1 }],
        "abc": [-0.0, 0.99196571, 0.98393243],
        "properties": { "magmom": 0.0 },
        "label": "Au",
        "xyz": [0.0, 5.700030066228852, 3.564350502849006]
      },
      {
        "species": [{ "element": "Au", "occu": 1 }],
        "abc": [0.5, 0.49196571, 0.98393243],
        "properties": { "magmom": 0.0 },
        "label": "Au",
        "xyz": [3.283518665, 2.863033506228851, 5.143510817849005]
      }
    ]
  },
  "task_ids": null,
  "uncorrected_energy_per_atom": null,
  "energy_per_atom": -29.894186259999998,
  "formation_energy_per_atom": 0.019752794000004,
  "energy_above_hull": 0.077169866000001,
  "is_stable": false,
  "equilibrium_reaction_energy_per_atom": null,
  "decomposes_to": null,
  "xas": null,
  "grain_boundaries": null,
  "band_gap": 0.0,
  "cbm": null,
  "vbm": null,
  "efermi": 7.40560273,
  "is_gap_direct": null,
  "is_metal": null,
  "es_source_calc_id": null,
  "bandstructure": null,
  "dos": null,
  "dos_energy_up": null,
  "dos_energy_down": null,
  "is_magnetic": null,
  "ordering": null,
  "total_magnetization": 1e-7,
  "total_magnetization_normalized_vol": null,
  "total_magnetization_normalized_formula_units": null,
  "num_magnetic_sites": null,
  "num_unique_magnetic_sites": null,
  "types_of_magnetic_species": null,
  "bulk_modulus": null,
  "shear_modulus": null,
  "universal_anisotropy": null,
  "homogeneous_poisson": null,
  "e_total": null,
  "e_ionic": null,
  "e_electronic": null,
  "n": null,
  "e_ij_max": null,
  "weighted_surface_energy_EV_PER_ANG2": null,
  "weighted_surface_energy": null,
  "weighted_work_function": null,
  "surface_anisotropy": null,
  "shape_factor": null,
  "has_reconstructed": null,
  "possible_species": null,
  "has_props": null,
  "theoretical": null,
  "database_IDs": null,
  "fields_not_requested": [
    "builder_meta",
    "nsites",
    "elements",
    "nelements",
    "composition",
    "composition_reduced",
    "chemsys",
    "symmetry",
    "property_name",
    "deprecated",
    "deprecation_reasons",
    "last_updated",
    "origins",
    "warnings",
    "task_ids",
    "uncorrected_energy_per_atom",
    "equilibrium_reaction_energy_per_atom",
    "decomposes_to",
    "xas",
    "grain_boundaries",
    "cbm",
    "vbm",
    "is_gap_direct",
    "is_metal",
    "es_source_calc_id",
    "bandstructure",
    "dos",
    "dos_energy_up",
    "dos_energy_down",
    "is_magnetic",
    "ordering",
    "total_magnetization_normalized_vol",
    "total_magnetization_normalized_formula_units",
    "num_magnetic_sites",
    "num_unique_magnetic_sites",
    "types_of_magnetic_species",
    "bulk_modulus",
    "shear_modulus",
    "universal_anisotropy",
    "homogeneous_poisson",
    "e_total",
    "e_ionic",
    "e_electronic",
    "n",
    "e_ij_max",
    "weighted_surface_energy_EV_PER_ANG2",
    "weighted_surface_energy",
    "weighted_work_function",
    "surface_anisotropy",
    "shape_factor",
    "has_reconstructed",
    "possible_species",
    "has_props",
    "theoretical",
    "database_IDs"
  ]
}
