{
  "builder_meta": null,
  "nsites": null,
  "elements": null,
  "nelements": null,
  "composition": null,
  "composition_reduced": null,
  "formula_pretty": "Sn4As3",
  "formula_anonymous": "A3B4",
  "chemsys": null,
  "volume": 178.22733644787573,
  "density": 6.518198188528928,
  "density_atomic": 25.461048063982247,
  "symmetry": null,
  "property_name": null,
  "material_id": "mp-12531",
  "deprecated": null,
  "deprecation_reasons": null,
  "last_updated": null,
  "origins": null,
  "warnings": null,
  "structure": {
    "@module": "pymatgen.core.structure",
    "@class": "Structure",
    "charge": 0,
    "lattice": {
      "matrix": [
        [12.2217373, -2.0566244, 0.00865609],
        [12.2217373, 2.0566244, 0.00865609],
        [11.87314656, -0.0, 3.55373697]
      ],
      "pbc": [true, true, true],
      "a": 12.393572587465679,
      "b": 12.393572587465679,
      "c": 12.393573160601612,
      "alpha": 19.104019276585653,
      "beta": 19.104019276585653,
      "gamma": 19.10401847915463,
      "volume": 178.22733644787576
    },
    "properties": {},
    "sites": [
      {
        "species": [{ "element": "Sn", "occu": 1 }],
        "abc": [0.36476862, 0.36476862, 0.36476862],
        "properties": { "magmom": -0.0 },
        "label": "Sn",
        "xyz": [13.247163783595997, 0.0, 1.3026066703976729]
      },
      {
        "species": [{ "element": "Sn", "occu": 1 }],
        "abc": [0.63523138, 0.63523138, 0.63523138],
        "properties": { "magmom": -0.0 },
        "label": "Sn",
        "xyz": [23.069457376404003, 0.0, 2.268442479602327]
      },
      {
        "species": [{ "element": "Sn", "occu": 1 }],
        "abc": [0.21086696, 0.21086696, 0.21086696],
        "properties": { "magmom": -0.0 },
        "label": "Sn",
        "xyz": [7.657975501480873, 0.0, 0.753016278271084]
      },
      {
        "species": [{ "element": "Sn", "occu": 1 }],
        "abc": [0.7891330400000001, 0.7891330400000001, 0.7891330400000001],
        "properties": { "magmom": -0.0 },
        "label": "Sn",
        "xyz": [28.658645658519127, 0.0, 2.8180328717289163]
      },
      {
        "species": [{ "element": "As", "occu": 1 }],
        "abc": [0.92997987, 0.92997987, 0.92997987],
        "properties": { "magmom": 0.0 },
        "label": "As",
        "xyz": [33.77372662521605, 0.0, 3.3210038242806106]
      },
      {
        "species": [{ "element": "As", "occu": 1 }],
        "abc": [0.5, 0.5, 0.5],
        "properties": { "magmom": -0.0 },
        "label": "As",
        "xyz": [18.15831058, 0.0, 1.785524575]
      },
      {
        "species": [{ "element": "As", "occu": 1 }],
        "abc": [0.07002013, 0.07002013, 0.07002013],
        "properties": { "magmom": 0.0 },
        "label": "As",
        "xyz": [2.542894534783951, 0.0, 0.2500453257193895]
      }
    ]
  },
  "task_ids": null,
  "uncorrected_energy_per_atom": null,
  "energy_per_atom": -20.494363862857142,
  "formation_energy_per_atom": -0.050459851071427,
  "energy_above_hull": 0.0,
  "is_stable": true,
  "equilibrium_reaction_energy_per_atom": null,
  "decomposes_to": null,
  "xas": null,
  "grain_boundaries": null,
  "band_gap": 0.0,
  "cbm": null,
  "vbm": null,
  "efermi": 6.51757895,
  "is_gap_direct": null,
  "is_metal": null,
  "es_source_calc_id": null,
  "bandstructure": null,
  "dos": null,
  "dos_energy_up": null,
  "dos_energy_down": null,
  "is_magnetic": null,
  "ordering": null,
  "total_magnetization": 0.0,
  "total_magnetization_normalized_vol": null,
  "total_magnetization_normalized_formula_units": null,
  "num_magnetic_sites": null,
  "num_unique_magnetic_sites": null,
  "types_of_magnetic_species": null,
  "bulk_modulus": null,
  "shear_modulus": null,
  "universal_anisotropy": null,
  "homogeneous_poisson": null,
  "e_total": null,
  "e_ionic": null,
  "e_electronic": null,
  "n": null,
  "e_ij_max": null,
  "weighted_surface_energy_EV_PER_ANG2": null,
  "weighted_surface_energy": null,
  "weighted_work_function": null,
  "surface_anisotropy": null,
  "shape_factor": null,
  "has_reconstructed": null,
  "possible_species": null,
  "has_props": null,
  "theoretical": null,
  "database_IDs": null,
  "fields_not_requested": [
    "builder_meta",
    "nsites",
    "elements",
    "nelements",
    "composition",
    "composition_reduced",
    "chemsys",
    "symmetry",
    "property_name",
    "deprecated",
    "deprecation_reasons",
    "last_updated",
    "origins",
    "warnings",
    "task_ids",
    "uncorrected_energy_per_atom",
    "equilibrium_reaction_energy_per_atom",
    "decomposes_to",
    "xas",
    "grain_boundaries",
    "cbm",
    "vbm",
    "is_gap_direct",
    "is_metal",
    "es_source_calc_id",
    "bandstructure",
    "dos",
    "dos_energy_up",
    "dos_energy_down",
    "is_magnetic",
    "ordering",
    "total_magnetization_normalized_vol",
    "total_magnetization_normalized_formula_units",
    "num_magnetic_sites",
    "num_unique_magnetic_sites",
    "types_of_magnetic_species",
    "bulk_modulus",
    "shear_modulus",
    "universal_anisotropy",
    "homogeneous_poisson",
    "e_total",
    "e_ionic",
    "e_electronic",
    "n",
    "e_ij_max",
    "weighted_surface_energy_EV_PER_ANG2",
    "weighted_surface_energy",
    "weighted_work_function",
    "surface_anisotropy",
    "shape_factor",
    "has_reconstructed",
    "possible_species",
    "has_props",
    "theoretical",
    "database_IDs"
  ]
}
