{"builder_meta": null, "nsites": null, "elements": null, "nelements": null, "composition": null, "composition_reduced": null, "formula_pretty": "Sn4Ir", "formula_anonymous": "AB4", "chemsys": null, "volume": 232.34462425691055, "density": 9.534752195722909, "density_atomic": 23.234462425691056, "symmetry": null, "property_name": null, "material_id": "mp-1080586", "deprecated": null, "deprecation_reasons": null, "last_updated": null, "origins": null, "warnings": null, "structure": {"@module": "pymatgen.core.structure", "@class": "Structure", "charge": 0, "lattice": {"matrix": [[6.29834162, 0.0, 0.0], [0.0, 6.34597624, 0.0], [0.0, -3.17298761, 5.81310241]], "pbc": [true, true, true], "a": 6.29834162, "b": 6.34597624, "c": 6.622689031078035, "alpha": 118.62720280023916, "beta": 90.0, "gamma": 90.0, "volume": 232.34462425691055}, "properties": {}, "sites": [{"species": [{"element": "Sn", "occu": 1}], "abc": [0.67533173, 0.30471774, 0.25522548], "properties": {"magmom": 0.0}, "label": "Sn", "xyz": [4.253469942365603, 1.123904252150195, 1.4836518528814069]}, {"species": [{"element": "Sn", "occu": 1}], "abc": [0.32466827, 0.95050674, 0.25522548], "properties": {"magmom": 0.0}, "label": "Sn", "xyz": [2.0448716776343976, 5.222065902203555, 1.4836518528814069]}, {"species": [{"element": "Sn", "occu": 1}], "abc": [0.82466827, 0.8047177400000001, 0.25522548], "properties": {"magmom": 0.0}, "label": "Sn", "xyz": [5.194042487634397, 4.296892372150196, 1.4836518528814069]}, {"species": [{"element": "Sn", "occu": 1}], "abc": [0.17533173, 0.45050674, 0.25522548], "properties": {"magmom": 0.0}, "label": "Sn", "xyz": [1.1042991323656026, 2.049077782203555, 1.4836518528814069]}, {"species": [{"element": "Sn", "occu": 1}], "abc": [0.82466827, 0.19528226, 0.74477452], "properties": {"magmom": 0.0}, "label": "Sn", "xyz": [5.194042487634397, -1.1239037421501945, 4.3294505571185935]}, {"species": [{"element": "Sn", "occu": 1}], "abc": [0.17533173, 0.54949326, 0.74477452], "properties": {"magmom": 0.0}, "label": "Sn", "xyz": [1.1042991323656026, 1.123910847796445, 4.3294505571185935]}, {"species": [{"element": "Sn", "occu": 1}], "abc": [0.67533173, 0.69528226, 0.74477452], "properties": {"magmom": 0.0}, "label": "Sn", "xyz": [4.253469942365603, 2.049084377849806, 4.3294505571185935]}, {"species": [{"element": "Sn", "occu": 1}], "abc": [0.32466827, 0.049493260000000004, 0.74477452], "properties": {"magmom": 0.0}, "label": "Sn", "xyz": [2.0448716776343976, -2.0490772722035544, 4.3294505571185935]}, {"species": [{"element": "Ir", "occu": 1}], "abc": [0.5, 0.5, 0.0], "properties": {"magmom": -0.0}, "label": "Ir", "xyz": [3.14917081, 3.17298812, 0.0]}, {"species": [{"element": "Ir", "occu": 1}], "abc": [-0.0, 0.0, 0.0], "properties": {"magmom": -0.0}, "label": "Ir", "xyz": [0.0, 0.0, 0.0]}]}, "task_ids": null, "uncorrected_energy_per_atom": null, "energy_per_atom": -30.429890138, "formation_energy_per_atom": -0.16107242400000202, "energy_above_hull": 0.025408844000001003, "is_stable": false, "equilibrium_reaction_energy_per_atom": null, "decomposes_to": null, "xas": null, "grain_boundaries": null, "band_gap": 0.0, "cbm": null, "vbm": null, "efermi": 8.50398347, "is_gap_direct": null, "is_metal": null, "es_source_calc_id": null, "bandstructure": null, "dos": null, "dos_energy_up": null, "dos_energy_down": null, "is_magnetic": null, "ordering": null, "total_magnetization": 1e-07, "total_magnetization_normalized_vol": null, "total_magnetization_normalized_formula_units": null, "num_magnetic_sites": null, "num_unique_magnetic_sites": null, "types_of_magnetic_species": null, "bulk_modulus": null, "shear_modulus": null, "universal_anisotropy": null, "homogeneous_poisson": null, "e_total": null, "e_ionic": null, "e_electronic": null, "n": null, "e_ij_max": null, "weighted_surface_energy_EV_PER_ANG2": null, "weighted_surface_energy": null, "weighted_work_function": null, "surface_anisotropy": null, "shape_factor": null, "has_reconstructed": null, "possible_species": null, "has_props": null, "theoretical": null, "database_IDs": null, "fields_not_requested": ["builder_meta", "nsites", "elements", "nelements", "composition", "composition_reduced", "chemsys", "symmetry", "property_name", "deprecated", "deprecation_reasons", "last_updated", "origins", "warnings", "task_ids", "uncorrected_energy_per_atom", "equilibrium_reaction_energy_per_atom", "decomposes_to", "xas", "grain_boundaries", "cbm", "vbm", "is_gap_direct", "is_metal", "es_source_calc_id", "bandstructure", "dos", "dos_energy_up", "dos_energy_down", "is_magnetic", "ordering", "total_magnetization_normalized_vol", "total_magnetization_normalized_formula_units", "num_magnetic_sites", "num_unique_magnetic_sites", "types_of_magnetic_species", "bulk_modulus", "shear_modulus", "universal_anisotropy", "homogeneous_poisson", "e_total", "e_ionic", "e_electronic", "n", "e_ij_max", "weighted_surface_energy_EV_PER_ANG2", "weighted_surface_energy", "weighted_work_function", "surface_anisotropy", "shape_factor", "has_reconstructed", "possible_species", "has_props", "theoretical", "database_IDs"]}