{"builder_meta": null, "nsites": null, "elements": null, "nelements": null, "composition": null, "composition_reduced": null, "formula_pretty": "Sn4Pt", "formula_anonymous": "AB4", "chemsys": null, "volume": 239.38539342838254, "density": 9.294092323020099, "density_atomic": 23.938539342838254, "symmetry": null, "property_name": null, "material_id": "mp-20662", "deprecated": null, "deprecation_reasons": null, "last_updated": null, "origins": null, "warnings": null, "structure": {"@module": "pymatgen.core.structure", "@class": "Structure", "charge": 0, "lattice": {"matrix": [[6.46246995, 0.0, 0.0], [0.0, 5.62286213, -3.17504075], [0.0, 0.0091523, 6.58265127]], "pbc": [true, true, true], "a": 6.46246995, "b": 6.457357222358749, "c": 6.582657632524109, "alpha": 119.37229101410774, "beta": 90.0, "gamma": 90.0, "volume": 239.38539342838254}, "properties": {}, "sites": [{"species": [{"element": "Sn", "occu": 1}], "abc": [0.41507037, 0.5419728500000001, 0.7515294], "properties": {"magmom": -0.0}, "label": "Sn", "xyz": [2.6823797932603815, 3.0543168362807904, 3.226270075208701]}, {"species": [{"element": "Sn", "occu": 1}], "abc": [0.41507037, 0.95802715, 0.24847059999999901], "properties": {"magmom": -0.0}, "label": "Sn", "xyz": [2.6823797932603815, 5.38912865871921, -1.4061799302087072]}, {"species": [{"element": "Sn", "occu": 1}], "abc": [0.91507037, 0.79044245, 0.24847059999999901], "properties": {"magmom": -0.0}, "label": "Sn", "xyz": [5.9136147682603815, 4.446822995521798, -0.874091678632182]}, {"species": [{"element": "Sn", "occu": 1}], "abc": [0.91507037, 0.70955755, 0.7515294], "properties": {"magmom": -0.0}, "label": "Sn", "xyz": [5.9136147682603815, 3.996622499478201, 2.694181823632176]}, {"species": [{"element": "Sn", "occu": 1}], "abc": [0.58492963, 0.04197285, 0.7515294], "properties": {"magmom": -0.0}, "label": "Sn", "xyz": [3.7800901567396186, 0.24288577128079047, 4.813790450208701]}, {"species": [{"element": "Sn", "occu": 1}], "abc": [0.58492963, 0.45802715, 0.24847059999999901], "properties": {"magmom": -0.0}, "label": "Sn", "xyz": [3.7800901567396186, 2.5776975937192095, 0.18134044479129297]}, {"species": [{"element": "Sn", "occu": 1}], "abc": [0.08492963, 0.20955755, 0.7515294], "properties": {"magmom": -0.0}, "label": "Sn", "xyz": [0.5488551817396186, 1.1851914344782015, 4.281702198632177]}, {"species": [{"element": "Sn", "occu": 1}], "abc": [0.08492963, 0.29044245, 0.24847059999999901], "properties": {"magmom": -0.0}, "label": "Sn", "xyz": [0.5488551817396186, 1.6353919305217985, 0.7134286963678179]}, {"species": [{"element": "Pt", "occu": 1}], "abc": [0.25, 0.75, 0.5], "properties": {"magmom": 0.0}, "label": "Pt", "xyz": [1.6156174875, 4.221722747499999, 0.9100450725000004]}, {"species": [{"element": "Pt", "occu": 1}], "abc": [0.75, 0.25, 0.5], "properties": {"magmom": 0.0}, "label": "Pt", "xyz": [4.8468524625, 1.4102916824999998, 2.4975654475000004]}]}, "task_ids": null, "uncorrected_energy_per_atom": null, "energy_per_atom": -30.320274083999998, "formation_energy_per_atom": -0.22578368000000001, "energy_above_hull": 0.044496788000003, "is_stable": false, "equilibrium_reaction_energy_per_atom": null, "decomposes_to": null, "xas": null, "grain_boundaries": null, "band_gap": 0.0, "cbm": null, "vbm": null, "efermi": 8.11553878, "is_gap_direct": null, "is_metal": null, "es_source_calc_id": null, "bandstructure": null, "dos": null, "dos_energy_up": null, "dos_energy_down": null, "is_magnetic": null, "ordering": null, "total_magnetization": 1e-07, "total_magnetization_normalized_vol": null, "total_magnetization_normalized_formula_units": null, "num_magnetic_sites": null, "num_unique_magnetic_sites": null, "types_of_magnetic_species": null, "bulk_modulus": null, "shear_modulus": null, "universal_anisotropy": null, "homogeneous_poisson": null, "e_total": null, "e_ionic": null, "e_electronic": null, "n": null, "e_ij_max": null, "weighted_surface_energy_EV_PER_ANG2": null, "weighted_surface_energy": null, "weighted_work_function": null, "surface_anisotropy": null, "shape_factor": null, "has_reconstructed": null, "possible_species": null, "has_props": null, "theoretical": null, "database_IDs": null, "fields_not_requested": ["builder_meta", "nsites", "elements", "nelements", "composition", "composition_reduced", "chemsys", "symmetry", "property_name", "deprecated", "deprecation_reasons", "last_updated", "origins", "warnings", "task_ids", "uncorrected_energy_per_atom", "equilibrium_reaction_energy_per_atom", "decomposes_to", "xas", "grain_boundaries", "cbm", "vbm", "is_gap_direct", "is_metal", "es_source_calc_id", "bandstructure", "dos", "dos_energy_up", "dos_energy_down", "is_magnetic", "ordering", "total_magnetization_normalized_vol", "total_magnetization_normalized_formula_units", "num_magnetic_sites", "num_unique_magnetic_sites", "types_of_magnetic_species", "bulk_modulus", "shear_modulus", "universal_anisotropy", "homogeneous_poisson", "e_total", "e_ionic", "e_electronic", "n", "e_ij_max", "weighted_surface_energy_EV_PER_ANG2", "weighted_surface_energy", "weighted_work_function", "surface_anisotropy", "shape_factor", "has_reconstructed", "possible_species", "has_props", "theoretical", "database_IDs"]}