{
  "builder_meta": null,
  "nsites": null,
  "elements": null,
  "nelements": null,
  "composition": null,
  "composition_reduced": null,
  "formula_pretty": "Sn4Pd",
  "formula_anonymous": "AB4",
  "chemsys": null,
  "volume": 241.8644468555902,
  "density": 7.981370973702554,
  "density_atomic": 24.186444685559017,
  "symmetry": null,
  "property_name": null,
  "material_id": "mp-2128",
  "deprecated": null,
  "deprecation_reasons": null,
  "last_updated": null,
  "origins": null,
  "warnings": null,
  "structure": {
    "@module": "pymatgen.core.structure",
    "@class": "Structure",
    "charge": 0,
    "lattice": {
      "matrix": [
        [6.44536491, 0.0, 0.0],
        [0.0, 5.63383537, -3.1705157],
        [0.0, 0.02989245, 6.64388526]
      ],
      "pbc": [true, true, true],
      "a": 6.44536491,
      "b": 6.464694175304005,
      "c": 6.643952506348331,
      "alpha": 119.11142571413653,
      "beta": 90.0,
      "gamma": 90.0,
      "volume": 241.86444685559022
    },
    "properties": {},
    "sites": [
      {
        "species": [{ "element": "Sn", "occu": 1 }],
        "abc": [0.33032362, 0.95882101, 0.25939893],
        "properties": { "magmom": 0.0 },
        "label": "Sn",
        "xyz": [2.129056269292174, 5.4095937891822015, -1.316540338208085]
      },
      {
        "species": [{ "element": "Sn", "occu": 1 }],
        "abc": [0.66967638, 0.30057692, 0.25939893],
        "properties": { "magmom": 0.0 },
        "label": "Sn",
        "xyz": [4.316308640707826, 1.701154952846739, 0.7704328835691279]
      },
      {
        "species": [{ "element": "Sn", "occu": 1 }],
        "abc": [0.66987922, 0.70606776, 0.75450399],
        "properties": { "magmom": 0.0 },
        "label": "Sn",
        "xyz": [4.31761601852617, 4.000423492700547, 2.774239019428355]
      },
      {
        "species": [{ "element": "Sn", "occu": 1 }],
        "abc": [0.33012078, 0.04843523, 0.75450399],
        "properties": { "magmom": 0.0 },
        "label": "Sn",
        "xyz": [2.12774889147383, 0.2954300847239606, 4.859273280624076]
      },
      {
        "species": [{ "element": "Sn", "occu": 1 }],
        "abc": [0.83012078, 0.20606776000000002, 0.75450399],
        "properties": { "magmom": 0.0 },
        "label": "Sn",
        "xyz": [5.3504313464738305, 1.1835058077005467, 4.359496869428355]
      },
      {
        "species": [{ "element": "Sn", "occu": 1 }],
        "abc": [0.16987922, 0.54843523, 0.75450399],
        "properties": { "magmom": 0.0 },
        "label": "Sn",
        "xyz": [1.0949335635261703, 3.112347769723961, 3.2740154306240763]
      },
      {
        "species": [{ "element": "Sn", "occu": 1 }],
        "abc": [0.16967638000000002, 0.45882101000000003, 0.25939893],
        "properties": { "magmom": 0.0 },
        "label": "Sn",
        "xyz": [1.093626185707826, 2.5926761041822024, 0.2687175117919147]
      },
      {
        "species": [{ "element": "Sn", "occu": 1 }],
        "abc": [0.83032362, 0.80057692, 0.25939893],
        "properties": { "magmom": 0.0 },
        "label": "Sn",
        "xyz": [5.351738724292175, 4.518072637846739, -0.8148249664308724]
      },
      {
        "species": [{ "element": "Pd", "occu": 1 }],
        "abc": [0.0, 0.00349908, 0.00699715],
        "properties": { "magmom": 0.0 },
        "label": "Pd",
        "xyz": [0.0, 0.0199224026229771, 0.035394373671453]
      },
      {
        "species": [{ "element": "Pd", "occu": 1 }],
        "abc": [0.5, 0.50349908, 0.00699715],
        "properties": { "magmom": 0.0 },
        "label": "Pd",
        "xyz": [3.222682455, 2.836840087622977, -1.549863476328547]
      }
    ]
  },
  "task_ids": null,
  "uncorrected_energy_per_atom": null,
  "energy_per_atom": -24.538007471,
  "formation_energy_per_atom": -0.14896972500000003,
  "energy_above_hull": 0.051765138,
  "is_stable": false,
  "equilibrium_reaction_energy_per_atom": null,
  "decomposes_to": null,
  "xas": null,
  "grain_boundaries": null,
  "band_gap": 0.0,
  "cbm": null,
  "vbm": null,
  "efermi": 7.58475487,
  "is_gap_direct": null,
  "is_metal": null,
  "es_source_calc_id": null,
  "bandstructure": null,
  "dos": null,
  "dos_energy_up": null,
  "dos_energy_down": null,
  "is_magnetic": null,
  "ordering": null,
  "total_magnetization": 0.0,
  "total_magnetization_normalized_vol": null,
  "total_magnetization_normalized_formula_units": null,
  "num_magnetic_sites": null,
  "num_unique_magnetic_sites": null,
  "types_of_magnetic_species": null,
  "bulk_modulus": null,
  "shear_modulus": null,
  "universal_anisotropy": null,
  "homogeneous_poisson": null,
  "e_total": null,
  "e_ionic": null,
  "e_electronic": null,
  "n": null,
  "e_ij_max": null,
  "weighted_surface_energy_EV_PER_ANG2": null,
  "weighted_surface_energy": null,
  "weighted_work_function": null,
  "surface_anisotropy": null,
  "shape_factor": null,
  "has_reconstructed": null,
  "possible_species": null,
  "has_props": null,
  "theoretical": null,
  "database_IDs": null,
  "fields_not_requested": [
    "builder_meta",
    "nsites",
    "elements",
    "nelements",
    "composition",
    "composition_reduced",
    "chemsys",
    "symmetry",
    "property_name",
    "deprecated",
    "deprecation_reasons",
    "last_updated",
    "origins",
    "warnings",
    "task_ids",
    "uncorrected_energy_per_atom",
    "equilibrium_reaction_energy_per_atom",
    "decomposes_to",
    "xas",
    "grain_boundaries",
    "cbm",
    "vbm",
    "is_gap_direct",
    "is_metal",
    "es_source_calc_id",
    "bandstructure",
    "dos",
    "dos_energy_up",
    "dos_energy_down",
    "is_magnetic",
    "ordering",
    "total_magnetization_normalized_vol",
    "total_magnetization_normalized_formula_units",
    "num_magnetic_sites",
    "num_unique_magnetic_sites",
    "types_of_magnetic_species",
    "bulk_modulus",
    "shear_modulus",
    "universal_anisotropy",
    "homogeneous_poisson",
    "e_total",
    "e_ionic",
    "e_electronic",
    "n",
    "e_ij_max",
    "weighted_surface_energy_EV_PER_ANG2",
    "weighted_surface_energy",
    "weighted_work_function",
    "surface_anisotropy",
    "shape_factor",
    "has_reconstructed",
    "possible_species",
    "has_props",
    "theoretical",
    "database_IDs"
  ]
}
