{
  "builder_meta": null,
  "nsites": null,
  "elements": null,
  "nelements": null,
  "composition": null,
  "composition_reduced": null,
  "formula_pretty": "Sn4Rh",
  "formula_anonymous": "AB4",
  "chemsys": null,
  "volume": 480.0011893903867,
  "density": 7.994721634092384,
  "density_atomic": 24.000059469519336,
  "symmetry": null,
  "property_name": null,
  "material_id": "mp-1188303",
  "deprecated": null,
  "deprecation_reasons": null,
  "last_updated": null,
  "origins": null,
  "warnings": null,
  "structure": {
    "@module": "pymatgen.core.structure",
    "@class": "Structure",
    "charge": 0,
    "lattice": {
      "matrix": [
        [-3.201409, 3.201409, 11.708466],
        [3.201409, -3.201409, 11.708466],
        [3.201409, 3.201409, -11.708466]
      ],
      "pbc": [true, true, true],
      "a": 12.553334825603832,
      "b": 12.553334825603832,
      "c": 12.553334825603832,
      "alpha": 150.44991617623205,
      "beta": 150.44991617623205,
      "gamma": 42.28137377071748,
      "volume": 480.0011893903867
    },
    "properties": {},
    "sites": [
      {
        "species": [{ "element": "Sn", "occu": 1 }],
        "abc": [0.13772, 0.636456999999999, 0.147448],
        "properties": { "magmom": -0.001 },
        "label": "Sn",
        "xyz": [2.0687024746649967, -1.124619766200997, 7.33803518771399]
      },
      {
        "species": [{ "element": "Sn", "occu": 1 }],
        "abc": [0.6377200000000001, 0.490272999999999, 0.501263],
        "properties": { "magmom": 0.001 },
        "label": "Sn",
        "xyz": [1.1327097267439967, 2.0767860323900034, 7.33804689617999]
      },
      {
        "species": [{ "element": "Sn", "occu": 1 }],
        "abc": [0.886456999999999, 0.8877200000000001, 0.647448],
        "properties": { "magmom": 0.001 },
        "label": "Sn",
        "xyz": [2.0767892337990035, 2.0687024746649967, 13.19226818771399]
      },
      {
        "species": [{ "element": "Sn", "occu": 1 }],
        "abc": [0.386457, 0.739008999999999, 0.998737],
        "properties": { "magmom": -0.001 },
        "label": "Sn",
        "xyz": [4.326028766200997, 2.068702474665003, 1.483802187713989]
      },
      {
        "species": [{ "element": "Sn", "occu": 1 }],
        "abc": [0.61228, 0.613543, 0.352552],
        "properties": { "magmom": 0.001 },
        "label": "Sn",
        "xyz": [1.1327065253349997, 1.124619766201, 10.224663812286]
      },
      {
        "species": [{ "element": "Sn", "occu": 1 }],
        "abc": [0.11228, 0.759726999999999, 0.998737],
        "properties": { "magmom": -0.001 },
        "label": "Sn",
        "xyz": [5.270108273255997, 1.1246229676100032, -1.4838138961800116]
      },
      {
        "species": [{ "element": "Sn", "occu": 1 }],
        "abc": [0.863543, 0.36228000000000005, 0.852552],
        "properties": { "magmom": -0.001 },
        "label": "Sn",
        "xyz": [1.1246197662010002, 4.334115525334999, 4.370430812285999]
      },
      {
        "species": [{ "element": "Sn", "occu": 1 }],
        "abc": [0.363543, 0.510991, 0.501263],
        "properties": { "magmom": 0.001 },
        "label": "Sn",
        "xyz": [2.076789233799, 1.1327065253350002, 4.370430812286]
      },
      {
        "species": [{ "element": "Sn", "occu": 1 }],
        "abc": [0.989008999999999, 0.136457, 0.498737],
        "properties": { "magmom": 0.001 },
        "label": "Sn",
        "xyz": [-1.1327065253349973, 4.326028766200997, 7.338035187713987]
      },
      {
        "species": [{ "element": "Sn", "occu": 1 }],
        "abc": [0.48900899999999903, 0.990273, 0.852552],
        "properties": { "magmom": -0.001 },
        "label": "Sn",
        "xyz": [4.334118726744003, 1.124616564791997, 7.338046896179986]
      },
      {
        "species": [{ "element": "Sn", "occu": 1 }],
        "abc": [0.740273, 0.38772, 0.001263],
        "properties": { "magmom": -0.001 },
        "label": "Sn",
        "xyz": [-1.1246229676099997, 1.1327097267439998, 13.192279896179999]
      },
      {
        "species": [{ "element": "Sn", "occu": 1 }],
        "abc": [0.240273, 0.239009, 0.352552],
        "properties": { "magmom": 0.001 },
        "label": "Sn",
        "xyz": [1.124616564792, 1.1327097267439998, 1.48381389618]
      },
      {
        "species": [{ "element": "Sn", "occu": 1 }],
        "abc": [0.760991, 0.113542999999999, 0.001263],
        "properties": { "magmom": -0.001 },
        "label": "Sn",
        "xyz": [-2.068702474665003, 2.0767892337990026, 10.224663812285987]
      },
      {
        "species": [{ "element": "Sn", "occu": 1 }],
        "abc": [0.260991, 0.259727, 0.647448],
        "properties": { "magmom": 0.001 },
        "label": "Sn",
        "xyz": [2.068699273256, 2.076792435208, -1.483813896180001]
      },
      {
        "species": [{ "element": "Sn", "occu": 1 }],
        "abc": [0.009727, 0.86228, 0.498737],
        "properties": { "magmom": 0.001 },
        "label": "Sn",
        "xyz": [4.3260319676100005, -1.1327097267440005, 4.370419103820001]
      },
      {
        "species": [{ "element": "Sn", "occu": 1 }],
        "abc": [0.509726999999999, 0.010990999999999002, 0.147448],
        "properties": { "magmom": -0.001 },
        "label": "Sn",
        "xyz": [-1.124616564792, 2.068699273256, 4.370419103819977]
      },
      {
        "species": [{ "element": "Rh", "occu": 1 }],
        "abc": [0.75, 0.75, 0.0],
        "properties": { "magmom": 0.0 },
        "label": "Rh",
        "xyz": [0.0, 0.0, 17.562699]
      },
      {
        "species": [{ "element": "Rh", "occu": 1 }],
        "abc": [0.25, 0.25, 0.0],
        "properties": { "magmom": -0.0 },
        "label": "Rh",
        "xyz": [0.0, 0.0, 5.854233]
      },
      {
        "species": [{ "element": "Rh", "occu": 1 }],
        "abc": [0.0, 0.5, 0.5],
        "properties": { "magmom": -0.0 },
        "label": "Rh",
        "xyz": [3.201409, 0.0, 0.0]
      },
      {
        "species": [{ "element": "Rh", "occu": 1 }],
        "abc": [0.5, 0.0, 0.5],
        "properties": { "magmom": 0.0 },
        "label": "Rh",
        "xyz": [0.0, 3.201409, 0.0]
      }
    ]
  },
  "task_ids": null,
  "uncorrected_energy_per_atom": null,
  "energy_per_atom": -4.9508054575000005,
  "formation_energy_per_atom": -0.270286399499999,
  "energy_above_hull": 0.0,
  "is_stable": true,
  "equilibrium_reaction_energy_per_atom": null,
  "decomposes_to": null,
  "xas": null,
  "grain_boundaries": null,
  "band_gap": 0.0,
  "cbm": null,
  "vbm": null,
  "efermi": 7.96135081,
  "is_gap_direct": null,
  "is_metal": null,
  "es_source_calc_id": null,
  "bandstructure": null,
  "dos": null,
  "dos_energy_up": null,
  "dos_energy_down": null,
  "is_magnetic": null,
  "ordering": null,
  "total_magnetization": 0.005650599999999,
  "total_magnetization_normalized_vol": null,
  "total_magnetization_normalized_formula_units": null,
  "num_magnetic_sites": null,
  "num_unique_magnetic_sites": null,
  "types_of_magnetic_species": null,
  "bulk_modulus": null,
  "shear_modulus": null,
  "universal_anisotropy": null,
  "homogeneous_poisson": null,
  "e_total": null,
  "e_ionic": null,
  "e_electronic": null,
  "n": null,
  "e_ij_max": null,
  "weighted_surface_energy_EV_PER_ANG2": null,
  "weighted_surface_energy": null,
  "weighted_work_function": null,
  "surface_anisotropy": null,
  "shape_factor": null,
  "has_reconstructed": null,
  "possible_species": null,
  "has_props": null,
  "theoretical": null,
  "database_IDs": null,
  "fields_not_requested": [
    "builder_meta",
    "nsites",
    "elements",
    "nelements",
    "composition",
    "composition_reduced",
    "chemsys",
    "symmetry",
    "property_name",
    "deprecated",
    "deprecation_reasons",
    "last_updated",
    "origins",
    "warnings",
    "task_ids",
    "uncorrected_energy_per_atom",
    "equilibrium_reaction_energy_per_atom",
    "decomposes_to",
    "xas",
    "grain_boundaries",
    "cbm",
    "vbm",
    "is_gap_direct",
    "is_metal",
    "es_source_calc_id",
    "bandstructure",
    "dos",
    "dos_energy_up",
    "dos_energy_down",
    "is_magnetic",
    "ordering",
    "total_magnetization_normalized_vol",
    "total_magnetization_normalized_formula_units",
    "num_magnetic_sites",
    "num_unique_magnetic_sites",
    "types_of_magnetic_species",
    "bulk_modulus",
    "shear_modulus",
    "universal_anisotropy",
    "homogeneous_poisson",
    "e_total",
    "e_ionic",
    "e_electronic",
    "n",
    "e_ij_max",
    "weighted_surface_energy_EV_PER_ANG2",
    "weighted_surface_energy",
    "weighted_work_function",
    "surface_anisotropy",
    "shape_factor",
    "has_reconstructed",
    "possible_species",
    "has_props",
    "theoretical",
    "database_IDs"
  ]
}
