{
  "builder_meta": null,
  "nsites": null,
  "elements": null,
  "nelements": null,
  "composition": null,
  "composition_reduced": null,
  "formula_pretty": "Sn5O7",
  "formula_anonymous": "A5B7",
  "chemsys": null,
  "volume": 418.11937023716774,
  "density": 5.60407600112378,
  "density_atomic": 17.421640426548656,
  "symmetry": null,
  "property_name": null,
  "material_id": "mp-1045856",
  "deprecated": null,
  "deprecation_reasons": null,
  "last_updated": null,
  "origins": null,
  "warnings": null,
  "structure": {
    "@module": "pymatgen.core.structure",
    "@class": "Structure",
    "charge": 0,
    "lattice": {
      "matrix": [
        [1.64059, -6.6058509999999995, 0.0],
        [1.64059, 6.6058509999999995, 0.0],
        [0.0, 0.0, 19.29041]
      ],
      "pbc": [true, true, true],
      "a": 6.806526499052287,
      "b": 6.806526499052287,
      "c": 19.29041,
      "alpha": 90.0,
      "beta": 90.0,
      "gamma": 152.1050963940181,
      "volume": 418.11937023716774
    },
    "properties": {},
    "sites": [
      {
        "species": [{ "element": "Sn", "occu": 1 }],
        "abc": [0.737947, 0.262053, 0.576523],
        "properties": { "magmom": -0.0 },
        "label": "Sn",
        "xyz": [1.64059, -3.1436848557939996, 11.12136504443]
      },
      {
        "species": [{ "element": "Sn", "occu": 1 }],
        "abc": [0.0, 0.0, 0.5],
        "properties": { "magmom": -0.0 },
        "label": "Sn",
        "xyz": [0.0, 0.0, 9.645205]
      },
      {
        "species": [{ "element": "Sn", "occu": 1 }],
        "abc": [0.0, 0.0, 0.0],
        "properties": { "magmom": -0.0 },
        "label": "Sn",
        "xyz": [0.0, 0.0, 0.0]
      },
      {
        "species": [{ "element": "Sn", "occu": 1 }],
        "abc": [0.262053, 0.737947, 0.423477],
        "properties": { "magmom": -0.0 },
        "label": "Sn",
        "xyz": [1.64059, 3.1436848557939996, 8.169044955570001]
      },
      {
        "species": [{ "element": "Sn", "occu": 1 }],
        "abc": [0.262053, 0.737947, 0.076523],
        "properties": { "magmom": -0.0 },
        "label": "Sn",
        "xyz": [1.64059, 3.1436848557939996, 1.47616004443]
      },
      {
        "species": [{ "element": "Sn", "occu": 1 }],
        "abc": [0.737947, 0.262053, 0.923477],
        "properties": { "magmom": -0.0 },
        "label": "Sn",
        "xyz": [1.64059, -3.1436848557939996, 17.814249955570002]
      },
      {
        "species": [{ "element": "Sn", "occu": 1 }],
        "abc": [0.542754, 0.457246, 0.152007],
        "properties": { "magmom": -0.0 },
        "label": "Sn",
        "xyz": [1.64059, -0.5648531073079996, 2.9322773528700004]
      },
      {
        "species": [{ "element": "Sn", "occu": 1 }],
        "abc": [0.457246, 0.542754, 0.847993],
        "properties": { "magmom": -0.0 },
        "label": "Sn",
        "xyz": [1.64059, 0.5648531073079996, 16.358132647130002]
      },
      {
        "species": [{ "element": "Sn", "occu": 1 }],
        "abc": [0.457246, 0.542754, 0.652007],
        "properties": { "magmom": -0.0 },
        "label": "Sn",
        "xyz": [1.64059, 0.5648531073079996, 12.577482352870001]
      },
      {
        "species": [{ "element": "Sn", "occu": 1 }],
        "abc": [0.542754, 0.457246, 0.347993],
        "properties": { "magmom": -0.0 },
        "label": "Sn",
        "xyz": [1.64059, -0.5648531073079996, 6.712927647130001]
      },
      {
        "species": [{ "element": "O", "occu": 1 }],
        "abc": [0.327383, 0.672617, 0.975051],
        "properties": { "magmom": 0.0 },
        "label": "O",
        "xyz": [1.64059, 2.280564364134, 18.809133560910002]
      },
      {
        "species": [{ "element": "O", "occu": 1 }],
        "abc": [0.672617, 0.327383, 0.024949],
        "properties": { "magmom": 0.0 },
        "label": "O",
        "xyz": [1.64059, -2.280564364134, 0.48127643909]
      },
      {
        "species": [{ "element": "O", "occu": 1 }],
        "abc": [0.672617, 0.327383, 0.475051],
        "properties": { "magmom": 0.0 },
        "label": "O",
        "xyz": [1.64059, -2.280564364134, 9.163928560910001]
      },
      {
        "species": [{ "element": "O", "occu": 1 }],
        "abc": [0.327383, 0.672617, 0.524949],
        "properties": { "magmom": 0.0 },
        "label": "O",
        "xyz": [1.64059, 2.280564364134, 10.12648143909]
      },
      {
        "species": [{ "element": "O", "occu": 1 }],
        "abc": [0.849113, 0.150887, 0.847857],
        "properties": { "magmom": -0.0 },
        "label": "O",
        "xyz": [1.64059, -4.612376920326, 16.35550915137]
      },
      {
        "species": [{ "element": "O", "occu": 1 }],
        "abc": [0.150887, 0.849113, 0.152143],
        "properties": { "magmom": -0.0 },
        "label": "O",
        "xyz": [1.64059, 4.612376920326, 2.9349008486300003]
      },
      {
        "species": [{ "element": "O", "occu": 1 }],
        "abc": [0.150887, 0.849113, 0.34785699999999903],
        "properties": { "magmom": -0.0 },
        "label": "O",
        "xyz": [1.64059, 4.612376920326, 6.710304151369982]
      },
      {
        "species": [{ "element": "O", "occu": 1 }],
        "abc": [0.849113, 0.150887, 0.652142999999999],
        "properties": { "magmom": -0.0 },
        "label": "O",
        "xyz": [1.64059, -4.612376920326, 12.580105848629982]
      },
      {
        "species": [{ "element": "O", "occu": 1 }],
        "abc": [0.15191000000000002, 0.8480900000000001, 0.897652999999999],
        "properties": { "magmom": -0.0 },
        "label": "O",
        "xyz": [1.6405900000000002, 4.598861349180001, 17.31609440772998]
      },
      {
        "species": [{ "element": "O", "occu": 1 }],
        "abc": [0.8480900000000001, 0.15191000000000002, 0.102347],
        "properties": { "magmom": -0.0 },
        "label": "O",
        "xyz": [1.6405900000000002, -4.598861349180001, 1.97431559227]
      },
      {
        "species": [{ "element": "O", "occu": 1 }],
        "abc": [0.8480900000000001, 0.15191000000000002, 0.397653],
        "properties": { "magmom": -0.0 },
        "label": "O",
        "xyz": [1.6405900000000002, -4.598861349180001, 7.67088940773]
      },
      {
        "species": [{ "element": "O", "occu": 1 }],
        "abc": [0.15191000000000002, 0.8480900000000001, 0.602347],
        "properties": { "magmom": -0.0 },
        "label": "O",
        "xyz": [1.6405900000000002, 4.598861349180001, 11.61952059227]
      },
      {
        "species": [{ "element": "O", "occu": 1 }],
        "abc": [0.501804, 0.49819599999999903, 0.75],
        "properties": { "magmom": -0.0 },
        "label": "O",
        "xyz": [1.6405899999999984, -0.02383391040800653, 14.467807500000001]
      },
      {
        "species": [{ "element": "O", "occu": 1 }],
        "abc": [0.49819599999999903, 0.501804, 0.25],
        "properties": { "magmom": -0.0 },
        "label": "O",
        "xyz": [1.6405899999999984, 0.02383391040800653, 4.8226025]
      }
    ]
  },
  "task_ids": null,
  "uncorrected_energy_per_atom": null,
  "energy_per_atom": -6.174937714999999,
  "formation_energy_per_atom": -1.617972189166665,
  "energy_above_hull": 0.252127599895837,
  "is_stable": false,
  "equilibrium_reaction_energy_per_atom": null,
  "decomposes_to": null,
  "xas": null,
  "grain_boundaries": null,
  "band_gap": 0.41000000000000003,
  "cbm": null,
  "vbm": null,
  "efermi": 4.83019818,
  "is_gap_direct": null,
  "is_metal": null,
  "es_source_calc_id": null,
  "bandstructure": null,
  "dos": null,
  "dos_energy_up": null,
  "dos_energy_down": null,
  "is_magnetic": null,
  "ordering": null,
  "total_magnetization": 2.15e-5,
  "total_magnetization_normalized_vol": null,
  "total_magnetization_normalized_formula_units": null,
  "num_magnetic_sites": null,
  "num_unique_magnetic_sites": null,
  "types_of_magnetic_species": null,
  "bulk_modulus": null,
  "shear_modulus": null,
  "universal_anisotropy": null,
  "homogeneous_poisson": null,
  "e_total": null,
  "e_ionic": null,
  "e_electronic": null,
  "n": null,
  "e_ij_max": null,
  "weighted_surface_energy_EV_PER_ANG2": null,
  "weighted_surface_energy": null,
  "weighted_work_function": null,
  "surface_anisotropy": null,
  "shape_factor": null,
  "has_reconstructed": null,
  "possible_species": null,
  "has_props": null,
  "theoretical": null,
  "database_IDs": null,
  "fields_not_requested": [
    "builder_meta",
    "nsites",
    "elements",
    "nelements",
    "composition",
    "composition_reduced",
    "chemsys",
    "symmetry",
    "property_name",
    "deprecated",
    "deprecation_reasons",
    "last_updated",
    "origins",
    "warnings",
    "task_ids",
    "uncorrected_energy_per_atom",
    "equilibrium_reaction_energy_per_atom",
    "decomposes_to",
    "xas",
    "grain_boundaries",
    "cbm",
    "vbm",
    "is_gap_direct",
    "is_metal",
    "es_source_calc_id",
    "bandstructure",
    "dos",
    "dos_energy_up",
    "dos_energy_down",
    "is_magnetic",
    "ordering",
    "total_magnetization_normalized_vol",
    "total_magnetization_normalized_formula_units",
    "num_magnetic_sites",
    "num_unique_magnetic_sites",
    "types_of_magnetic_species",
    "bulk_modulus",
    "shear_modulus",
    "universal_anisotropy",
    "homogeneous_poisson",
    "e_total",
    "e_ionic",
    "e_electronic",
    "n",
    "e_ij_max",
    "weighted_surface_energy_EV_PER_ANG2",
    "weighted_surface_energy",
    "weighted_work_function",
    "surface_anisotropy",
    "shape_factor",
    "has_reconstructed",
    "possible_species",
    "has_props",
    "theoretical",
    "database_IDs"
  ]
}
