{"builder_meta": null, "nsites": null, "elements": null, "nelements": null, "composition": null, "composition_reduced": null, "formula_pretty": "Sn5O6", "formula_anonymous": "A5B6", "chemsys": null, "volume": 392.7930081341573, "density": 5.830138071308603, "density_atomic": 17.854227642461694, "symmetry": null, "property_name": null, "material_id": "mp-978114", "deprecated": null, "deprecation_reasons": null, "last_updated": null, "origins": null, "warnings": null, "structure": {"@module": "pymatgen.core.structure", "@class": "Structure", "charge": 0, "lattice": {"matrix": [[0.0, -4.8942796699999995, 0.0], [-13.83820838, 0.0, 0.45088313], [-0.010445999999999001, 0.0, -5.7992203700000005]], "pbc": [true, true, true], "a": 4.8942796699999995, "b": 13.845551876513294, "c": 5.799229778060095, "alpha": 91.76297287808706, "beta": 90.0, "gamma": 90.0, "volume": 392.7930081341573}, "properties": {}, "sites": [{"species": [{"element": "Sn", "occu": 1}], "abc": [0.001128699999999, 0.9029741800000001, 0.82285988], "properties": {"magmom": 0.0}, "label": "Sn", "xyz": [-12.504140458906107, -0.005524173463524105, -4.364809953164173]}, {"species": [{"element": "Sn", "occu": 1}], "abc": [0.00013035, 0.69103592, 0.34500598], "properties": {"magmom": 0.0}, "label": "Sn", "xyz": [-9.566302991492089, -0.0006379693549845, -1.689189268435783]}, {"species": [{"element": "Sn", "occu": 1}], "abc": [0.498871299999999, 0.9029741800000001, 0.32285988], "properties": {"magmom": 0.0}, "label": "Sn", "xyz": [-12.498917458906108, -2.441615661536466, -1.4651997681641724]}, {"species": [{"element": "Sn", "occu": 1}], "abc": [0.5011287, 0.09702582, 0.67714012], "properties": {"magmom": 0.0}, "label": "Sn", "xyz": [-1.3497369210938908, -2.4526640084635285, -3.8831374718358282]}, {"species": [{"element": "Sn", "occu": 1}], "abc": [0.5001303500000001, 0.30896408000000003, 0.15499502], "properties": {"magmom": 0.0}, "label": "Sn", "xyz": [-4.277128398953911, -2.4477778043549847, -0.7595435857845871]}, {"species": [{"element": "Sn", "occu": 1}], "abc": [-0.001128699999999, 0.09702582, 0.17714012], "properties": {"magmom": 0.0}, "label": "Sn", "xyz": [-1.3445139210938912, 0.005524173463524105, -0.9835272868358279]}, {"species": [{"element": "Sn", "occu": 1}], "abc": [-0.00013035, 0.30896408000000003, 0.6549940200000001], "properties": {"magmom": 0.0}, "label": "Sn", "xyz": [-4.2823513885079105, 0.0006379693549845, -3.659147971564218]}, {"species": [{"element": "Sn", "occu": 1}], "abc": [0.5, 0.5, 0.5], "properties": {"magmom": 0.0}, "label": "Sn", "xyz": [-6.924327189999999, -2.4471398349999998, -2.67416862]}, {"species": [{"element": "Sn", "occu": 1}], "abc": [0.49986965, 0.69103592, 0.84500698], "properties": {"magmom": 0.0}, "label": "Sn", "xyz": [-9.571526001938087, -2.4465018656450153, -4.588805252656153]}, {"species": [{"element": "Sn", "occu": 1}], "abc": [-0.0, 0.5, 0.0], "properties": {"magmom": 0.0}, "label": "Sn", "xyz": [-6.91910419, 0.0, 0.225441565]}, {"species": [{"element": "O", "occu": 1}], "abc": [0.82076379, 0.63566624, 0.03547048], "properties": {"magmom": -0.0}, "label": "O", "xyz": [-8.796852413885173, -4.0170475312691485, 0.08091005377685362]}, {"species": [{"element": "O", "occu": 1}], "abc": [0.17923621, 0.36433376, 0.96452952], "properties": {"magmom": -0.0}, "label": "O", "xyz": [-5.0518019661148275, -0.8772321387308506, -5.4292472937768546]}, {"species": [{"element": "O", "occu": 1}], "abc": [0.32076379, 0.36433376, 0.46452952000000003], "properties": {"magmom": -0.0}, "label": "O", "xyz": [-5.046578966114828, -1.5699076962691492, -2.529637108776854]}, {"species": [{"element": "O", "occu": 1}], "abc": [0.80213851, 0.44352507, 0.70948554], "properties": {"magmom": 0.0}, "label": "O", "xyz": [-6.145003626364926, -3.9258902020170914, -3.9144850239933806]}, {"species": [{"element": "O", "occu": 1}], "abc": [0.19786149, 0.55647493, 0.29051446000000003], "properties": {"magmom": 0.0}, "label": "O", "xyz": [-7.703650753635073, -0.9683894679829083, -1.4338522160066196]}, {"species": [{"element": "O", "occu": 1}], "abc": [0.68361129, 0.04161941, 0.37157435], "properties": {"magmom": -0.0}, "label": "O", "xyz": [-0.5798195338927554, -3.345784838829474, -2.1360760496399562]}, {"species": [{"element": "O", "occu": 1}], "abc": [0.81638871, 0.04161941, 0.87157435], "properties": {"magmom": -0.0}, "label": "O", "xyz": [-0.585042533892755, -3.9956346661705253, -5.035686234639957]}, {"species": [{"element": "O", "occu": 1}], "abc": [0.67923621, 0.63566624, 0.53547048], "properties": {"magmom": -0.0}, "label": "O", "xyz": [-8.802075413885172, -3.3243719737308504, -2.8187001312231468]}, {"species": [{"element": "O", "occu": 1}], "abc": [0.31638871, 0.95838059, 0.6284256500000001], "properties": {"magmom": -0.0}, "label": "O", "xyz": [-13.268834846107243, -1.5484948311705256, -3.2122611903600444]}, {"species": [{"element": "O", "occu": 1}], "abc": [0.18361129, 0.95838059, 0.12842565], "properties": {"magmom": -0.0}, "label": "O", "xyz": [-13.263611846107244, -0.8986450038294742, -0.31265100536004387]}, {"species": [{"element": "O", "occu": 1}], "abc": [0.30213851, 0.55647493, 0.79051446], "properties": {"magmom": 0.0}, "label": "O", "xyz": [-7.708873753635072, -1.4787503670170916, -4.33346240100662]}, {"species": [{"element": "O", "occu": 1}], "abc": [0.69786149, 0.44352507, 0.20948554], "properties": {"magmom": 0.0}, "label": "O", "xyz": [-6.139780626364927, -3.415529302982908, -1.0148748389933808]}]}, "task_ids": null, "uncorrected_energy_per_atom": null, "energy_per_atom": -6.283619264090915, "formation_energy_per_atom": -1.762198781818187, "energy_above_hull": 0.0, "is_stable": true, "equilibrium_reaction_energy_per_atom": null, "decomposes_to": null, "xas": null, "grain_boundaries": null, "band_gap": 1.7702, "cbm": null, "vbm": null, "efermi": 4.93165098, "is_gap_direct": null, "is_metal": null, "es_source_calc_id": null, "bandstructure": null, "dos": null, "dos_energy_up": null, "dos_energy_down": null, "is_magnetic": null, "ordering": null, "total_magnetization": 0.0, "total_magnetization_normalized_vol": null, "total_magnetization_normalized_formula_units": null, "num_magnetic_sites": null, "num_unique_magnetic_sites": null, "types_of_magnetic_species": null, "bulk_modulus": null, "shear_modulus": null, "universal_anisotropy": null, "homogeneous_poisson": null, "e_total": null, "e_ionic": null, "e_electronic": null, "n": null, "e_ij_max": null, "weighted_surface_energy_EV_PER_ANG2": null, "weighted_surface_energy": null, "weighted_work_function": null, "surface_anisotropy": null, "shape_factor": null, "has_reconstructed": null, "possible_species": null, "has_props": null, "theoretical": null, "database_IDs": null, "fields_not_requested": ["builder_meta", "nsites", "elements", "nelements", "composition", "composition_reduced", "chemsys", "symmetry", "property_name", "deprecated", "deprecation_reasons", "last_updated", "origins", "warnings", "task_ids", "uncorrected_energy_per_atom", "equilibrium_reaction_energy_per_atom", "decomposes_to", "xas", "grain_boundaries", "cbm", "vbm", "is_gap_direct", "is_metal", "es_source_calc_id", "bandstructure", "dos", "dos_energy_up", "dos_energy_down", "is_magnetic", "ordering", "total_magnetization_normalized_vol", "total_magnetization_normalized_formula_units", "num_magnetic_sites", "num_unique_magnetic_sites", "types_of_magnetic_species", "bulk_modulus", "shear_modulus", "universal_anisotropy", "homogeneous_poisson", "e_total", "e_ionic", "e_electronic", "n", "e_ij_max", "weighted_surface_energy_EV_PER_ANG2", "weighted_surface_energy", "weighted_work_function", "surface_anisotropy", "shape_factor", "has_reconstructed", "possible_species", "has_props", "theoretical", "database_IDs"]}