{"builder_meta": null, "nsites": null, "elements": null, "nelements": null, "composition": null, "composition_reduced": null, "formula_pretty": "Sn7Ir3", "formula_anonymous": "A3B7", "chemsys": null, "volume": 420.2023906455127, "density": 11.125161177097741, "density_atomic": 21.010119532275635, "symmetry": null, "property_name": null, "material_id": "mp-22040", "deprecated": null, "deprecation_reasons": null, "last_updated": null, "origins": null, "warnings": null, "structure": {"@module": "pymatgen.core.structure", "@class": "Structure", "charge": 0, "lattice": {"matrix": [[-4.71845165, 4.71845165, 4.71845165], [4.71845165, -4.71845165, 4.71845165], [4.71845165, 4.71845165, -4.71845165]], "pbc": [true, true, true], "a": 8.172597990857202, "b": 8.172597990857202, "c": 8.172597990857202, "alpha": 109.47122063449069, "beta": 109.47122063449069, "gamma": 109.47122063449069, "volume": 420.2023906455127}, "properties": {}, "sites": [{"species": [{"element": "Sn", "occu": 1}], "abc": [0.0, 0.0, 0.6703080100000001], "properties": {"magmom": -0.0}, "label": "Sn", "xyz": [3.1628159357927172, 3.1628159357927172, -3.1628159357927172]}, {"species": [{"element": "Sn", "occu": 1}], "abc": [0.32969199, 0.0, -0.0], "properties": {"magmom": -0.0}, "label": "Sn", "xyz": [-1.5556357142072836, 1.5556357142072836, 1.5556357142072836]}, {"species": [{"element": "Sn", "occu": 1}], "abc": [0.6703080100000001, 0.6703080100000001, 0.6703080100000001], "properties": {"magmom": -0.0}, "label": "Sn", "xyz": [3.1628159357927172, 3.1628159357927172, 3.1628159357927172]}, {"species": [{"element": "Sn", "occu": 1}], "abc": [-0.0, 0.32969199, 0.0], "properties": {"magmom": -0.0}, "label": "Sn", "xyz": [1.5556357142072836, -1.5556357142072836, 1.5556357142072836]}, {"species": [{"element": "Sn", "occu": 1}], "abc": [0.32969199, 0.32969199, 0.32969199], "properties": {"magmom": -0.0}, "label": "Sn", "xyz": [1.5556357142072836, 1.5556357142072836, 1.5556357142072836]}, {"species": [{"element": "Sn", "occu": 1}], "abc": [0.0, 0.6703080100000001, 0.0], "properties": {"magmom": -0.0}, "label": "Sn", "xyz": [3.1628159357927172, -3.1628159357927172, 3.1628159357927172]}, {"species": [{"element": "Sn", "occu": 1}], "abc": [0.25, 0.75, 0.5], "properties": {"magmom": 0.0}, "label": "Sn", "xyz": [4.71845165, 0.0, 2.359225825]}, {"species": [{"element": "Sn", "occu": 1}], "abc": [0.75, 0.25, 0.5], "properties": {"magmom": 0.0}, "label": "Sn", "xyz": [0.0, 4.71845165, 2.359225825]}, {"species": [{"element": "Sn", "occu": 1}], "abc": [0.75, 0.5, 0.25], "properties": {"magmom": 0.0}, "label": "Sn", "xyz": [0.0, 2.359225825, 4.71845165]}, {"species": [{"element": "Sn", "occu": 1}], "abc": [0.25, 0.5, 0.75], "properties": {"magmom": 0.0}, "label": "Sn", "xyz": [4.71845165, 2.359225825, 0.0]}, {"species": [{"element": "Sn", "occu": 1}], "abc": [0.5, 0.75, 0.25], "properties": {"magmom": 0.0}, "label": "Sn", "xyz": [2.359225825, 0.0, 4.71845165]}, {"species": [{"element": "Sn", "occu": 1}], "abc": [0.5, 0.25, 0.75], "properties": {"magmom": 0.0}, "label": "Sn", "xyz": [2.359225825, 4.71845165, 0.0]}, {"species": [{"element": "Sn", "occu": 1}], "abc": [-0.0, 0.0, 0.32969199], "properties": {"magmom": -0.0}, "label": "Sn", "xyz": [1.5556357142072836, 1.5556357142072836, -1.5556357142072836]}, {"species": [{"element": "Sn", "occu": 1}], "abc": [0.6703080100000001, -0.0, 0.0], "properties": {"magmom": -0.0}, "label": "Sn", "xyz": [-3.1628159357927172, 3.1628159357927172, 3.1628159357927172]}, {"species": [{"element": "Ir", "occu": 1}], "abc": [0.6579682, 0.0, 0.6579682], "properties": {"magmom": 0.0}, "label": "Ir", "xyz": [0.0, 6.209182277875061, 0.0]}, {"species": [{"element": "Ir", "occu": 1}], "abc": [0.6579682, 0.6579682, 0.0], "properties": {"magmom": 0.0}, "label": "Ir", "xyz": [0.0, 0.0, 6.209182277875061]}, {"species": [{"element": "Ir", "occu": 1}], "abc": [0.3420318, 0.3420318, -0.0], "properties": {"magmom": 0.0}, "label": "Ir", "xyz": [0.0, 0.0, 3.2277210221249404]}, {"species": [{"element": "Ir", "occu": 1}], "abc": [0.0, 0.6579682, 0.6579682], "properties": {"magmom": 0.0}, "label": "Ir", "xyz": [6.209182277875061, 0.0, 0.0]}, {"species": [{"element": "Ir", "occu": 1}], "abc": [-0.0, 0.3420318, 0.3420318], "properties": {"magmom": 0.0}, "label": "Ir", "xyz": [3.2277210221249404, 0.0, 0.0]}, {"species": [{"element": "Ir", "occu": 1}], "abc": [0.3420318, -0.0, 0.3420318], "properties": {"magmom": 0.0}, "label": "Ir", "xyz": [0.0, 3.2277210221249404, 0.0]}]}, "task_ids": null, "uncorrected_energy_per_atom": null, "energy_per_atom": -33.2910221555, "formation_energy_per_atom": -0.26088747450000305, "energy_above_hull": 0.018834427499996, "is_stable": false, "equilibrium_reaction_energy_per_atom": null, "decomposes_to": null, "xas": null, "grain_boundaries": null, "band_gap": 0.0, "cbm": null, "vbm": null, "efermi": 9.470493770000001, "is_gap_direct": null, "is_metal": null, "es_source_calc_id": null, "bandstructure": null, "dos": null, "dos_energy_up": null, "dos_energy_down": null, "is_magnetic": null, "ordering": null, "total_magnetization": 2e-07, "total_magnetization_normalized_vol": null, "total_magnetization_normalized_formula_units": null, "num_magnetic_sites": null, "num_unique_magnetic_sites": null, "types_of_magnetic_species": null, "bulk_modulus": null, "shear_modulus": null, "universal_anisotropy": null, "homogeneous_poisson": null, "e_total": null, "e_ionic": null, "e_electronic": null, "n": null, "e_ij_max": null, "weighted_surface_energy_EV_PER_ANG2": null, "weighted_surface_energy": null, "weighted_work_function": null, "surface_anisotropy": null, "shape_factor": null, "has_reconstructed": null, "possible_species": null, "has_props": null, "theoretical": null, "database_IDs": null, "fields_not_requested": ["builder_meta", "nsites", "elements", "nelements", "composition", "composition_reduced", "chemsys", "symmetry", "property_name", "deprecated", "deprecation_reasons", "last_updated", "origins", "warnings", "task_ids", "uncorrected_energy_per_atom", "equilibrium_reaction_energy_per_atom", "decomposes_to", "xas", "grain_boundaries", "cbm", "vbm", "is_gap_direct", "is_metal", "es_source_calc_id", "bandstructure", "dos", "dos_energy_up", "dos_energy_down", "is_magnetic", "ordering", "total_magnetization_normalized_vol", "total_magnetization_normalized_formula_units", "num_magnetic_sites", "num_unique_magnetic_sites", "types_of_magnetic_species", "bulk_modulus", "shear_modulus", "universal_anisotropy", "homogeneous_poisson", "e_total", "e_ionic", "e_electronic", "n", "e_ij_max", "weighted_surface_energy_EV_PER_ANG2", "weighted_surface_energy", "weighted_work_function", "surface_anisotropy", "shape_factor", "has_reconstructed", "possible_species", "has_props", "theoretical", "database_IDs"]}