{"builder_meta": null, "nsites": null, "elements": null, "nelements": null, "composition": null, "composition_reduced": null, "formula_pretty": "Sn7Ir5", "formula_anonymous": "A5B7", "chemsys": null, "volume": 240.3433435716693, "density": 12.381359486698242, "density_atomic": 20.028611964305775, "symmetry": null, "property_name": null, "material_id": "mp-20466", "deprecated": null, "deprecation_reasons": null, "last_updated": null, "origins": null, "warnings": null, "structure": {"@module": "pymatgen.core.structure", "@class": "Structure", "charge": 0, "lattice": {"matrix": [[5.74214179, 0.0, 3.07726275], [2.8710714, 6.07390113, 1.53863188], [0.0020353100000000002, 0.0, 6.89222114]], "pbc": [true, true, true], "a": 6.514732409623742, "b": 6.892221266258475, "c": 6.892221440518992, "alpha": 77.09325860014854, "beta": 61.79584335586318, "gamma": 61.79582633162273, "volume": 240.3433435716693}, "properties": {}, "sites": [{"species": [{"element": "Sn", "occu": 1}], "abc": [0.72380992, -0.0, 0.57041159], "properties": {"magmom": -0.0}, "label": "Sn", "xyz": [4.1573801540618, 0.0, 6.158756123995492]}, {"species": [{"element": "Sn", "occu": 1}], "abc": [0.29422151, 0.42958841000000003, 0.0], "properties": {"magmom": -0.0}, "label": "Sn", "xyz": [2.9228406258103767, 2.6092775289339034, 1.5663753158762634]}, {"species": [{"element": "Sn", "occu": 1}], "abc": [0.72380992, 0.57041159, 0.0], "properties": {"magmom": -0.0}, "label": "Sn", "xyz": [5.793911591926083, 3.464623601066097, 3.105006761991969]}, {"species": [{"element": "Sn", "occu": 1}], "abc": [0.29422151, -0.0, 0.42958841000000003], "properties": {"magmom": -0.0}, "label": "Sn", "xyz": [1.69033597367466, 0.0, 3.8662152138727404]}, {"species": [{"element": "Sn", "occu": 1}], "abc": [0.41697711, 0.5, 0.5], "properties": {"magmom": 0.0}, "label": "Sn", "xyz": [3.8308950438044267, 3.036950565, 5.498574638205652]}, {"species": [{"element": "Sn", "occu": 1}], "abc": [0.90260851, 0.0, -0.0], "properties": {"magmom": 0.0}, "label": "Sn", "xyz": [5.182906045280633, 0.0, 2.7775635456560024]}, {"species": [{"element": "Sn", "occu": 1}], "abc": [0.91697711, 0.5, 0.5], "properties": {"magmom": 0.0}, "label": "Sn", "xyz": [6.701965938804427, 3.036950565, 7.037206013205653]}, {"species": [{"element": "Ir", "occu": 1}], "abc": [0.93279004, 0.244827, 0.244827], "properties": {"magmom": 0.0}, "label": "Ir", "xyz": [6.059626766468941, 1.48705499195451, 4.93454049599055]}, {"species": [{"element": "Ir", "occu": 1}], "abc": [0.17761704, 0.755173, 0.244827], "properties": {"magmom": 0.0}, "label": "Ir", "xyz": [3.1885561291936715, 4.58684613804549, 3.39590937871528]}, {"species": [{"element": "Ir", "occu": 1}], "abc": [0.17761704, 0.244827, 0.755173], "properties": {"magmom": 0.0}, "label": "Ir", "xyz": [1.7243550368065315, 1.48705499195451, 6.12809224319924]}, {"species": [{"element": "Ir", "occu": 1}], "abc": [0.42244304, 0.755173, 0.755173], "properties": {"magmom": 0.0}, "label": "Ir", "xyz": [4.595420447389472, 4.58684613804549, 7.66672079866122]}, {"species": [{"element": "Ir", "occu": 1}], "abc": [0.50290426, 0.0, -0.0], "properties": {"magmom": -0.0}, "label": "Ir", "xyz": [2.8877475677150253, 0.0, 1.547568546114315]}]}, "task_ids": null, "uncorrected_energy_per_atom": null, "energy_per_atom": -36.54201760666667, "formation_energy_per_atom": -0.29034646416666404, "energy_above_hull": 0.002421364999996, "is_stable": false, "equilibrium_reaction_energy_per_atom": null, "decomposes_to": null, "xas": null, "grain_boundaries": null, "band_gap": 0.0, "cbm": null, "vbm": null, "efermi": 9.05534814, "is_gap_direct": null, "is_metal": null, "es_source_calc_id": null, "bandstructure": null, "dos": null, "dos_energy_up": null, "dos_energy_down": null, "is_magnetic": null, "ordering": null, "total_magnetization": 1e-07, "total_magnetization_normalized_vol": null, "total_magnetization_normalized_formula_units": null, "num_magnetic_sites": null, "num_unique_magnetic_sites": null, "types_of_magnetic_species": null, "bulk_modulus": null, "shear_modulus": null, "universal_anisotropy": null, "homogeneous_poisson": null, "e_total": null, "e_ionic": null, "e_electronic": null, "n": null, "e_ij_max": null, "weighted_surface_energy_EV_PER_ANG2": null, "weighted_surface_energy": null, "weighted_work_function": null, "surface_anisotropy": null, "shape_factor": null, "has_reconstructed": null, "possible_species": null, "has_props": null, "theoretical": null, "database_IDs": null, "fields_not_requested": ["builder_meta", "nsites", "elements", "nelements", "composition", "composition_reduced", "chemsys", "symmetry", "property_name", "deprecated", "deprecation_reasons", "last_updated", "origins", "warnings", "task_ids", "uncorrected_energy_per_atom", "equilibrium_reaction_energy_per_atom", "decomposes_to", "xas", "grain_boundaries", "cbm", "vbm", "is_gap_direct", "is_metal", "es_source_calc_id", "bandstructure", "dos", "dos_energy_up", "dos_energy_down", "is_magnetic", "ordering", "total_magnetization_normalized_vol", "total_magnetization_normalized_formula_units", "num_magnetic_sites", "num_unique_magnetic_sites", "types_of_magnetic_species", "bulk_modulus", "shear_modulus", "universal_anisotropy", "homogeneous_poisson", "e_total", "e_ionic", "e_electronic", "n", "e_ij_max", "weighted_surface_energy_EV_PER_ANG2", "weighted_surface_energy", "weighted_work_function", "surface_anisotropy", "shape_factor", "has_reconstructed", "possible_species", "has_props", "theoretical", "database_IDs"]}