{
  "builder_meta": null,
  "nsites": null,
  "elements": null,
  "nelements": null,
  "composition": null,
  "composition_reduced": null,
  "formula_pretty": "Sn7Os3",
  "formula_anonymous": "A3B7",
  "chemsys": null,
  "volume": 420.37323781498185,
  "density": 11.073545976373307,
  "density_atomic": 21.018661890749094,
  "symmetry": null,
  "property_name": null,
  "material_id": "mp-2729",
  "deprecated": null,
  "deprecation_reasons": null,
  "last_updated": null,
  "origins": null,
  "warnings": null,
  "structure": {
    "@module": "pymatgen.core.structure",
    "@class": "Structure",
    "charge": 0,
    "lattice": {
      "matrix": [
        [7.70624309, 0.0, -2.7245689200000003],
        [-3.85312104, 6.67380258, -2.7245689200000003],
        [-0.0, -0.0, 8.17370576]
      ],
      "pbc": [true, true, true],
      "a": 8.173705301881315,
      "b": 8.173705305767715,
      "c": 8.17370576,
      "alpha": 109.47122423855433,
      "beta": 109.4712242481861,
      "gamma": 109.47121347123053,
      "volume": 420.37323781498185
    },
    "properties": {},
    "sites": [
      {
        "species": [{ "element": "Sn", "occu": 1 }],
        "abc": [0.5, 0.25, 0.75],
        "properties": { "magmom": -0.0 },
        "label": "Sn",
        "xyz": [2.889841285, 1.668450645, 4.08685263]
      },
      {
        "species": [{ "element": "Sn", "occu": 1 }],
        "abc": [0.25, 0.75, 0.5],
        "properties": { "magmom": -0.0 },
        "label": "Sn",
        "xyz": [-0.9632800075000001, 5.005351935, 1.36228396]
      },
      {
        "species": [{ "element": "Sn", "occu": 1 }],
        "abc": [0.75, 0.25, 0.5],
        "properties": { "magmom": -0.0 },
        "label": "Sn",
        "xyz": [4.8164020574999995, 1.668450645, 1.36228396]
      },
      {
        "species": [{ "element": "Sn", "occu": 1 }],
        "abc": [0.25, 0.5, 0.75],
        "properties": { "magmom": -0.0 },
        "label": "Sn",
        "xyz": [2.525000000197508e-7, 3.33690129, 4.08685263]
      },
      {
        "species": [{ "element": "Sn", "occu": 1 }],
        "abc": [0.75, 0.5, 0.25],
        "properties": { "magmom": -0.0 },
        "label": "Sn",
        "xyz": [3.8531217975, 3.33690129, -1.3622847100000004]
      },
      {
        "species": [{ "element": "Sn", "occu": 1 }],
        "abc": [0.5, 0.75, 0.25],
        "properties": { "magmom": -0.0 },
        "label": "Sn",
        "xyz": [0.9632807649999999, 5.005351935, -1.3622847100000004]
      },
      {
        "species": [{ "element": "Sn", "occu": 1 }],
        "abc": [0.32103939, 0.32103939, 0.32103939],
        "properties": { "magmom": -0.0 },
        "label": "Sn",
        "xyz": [1.2370039525275494, 2.1425535092636263, 0.8746936230503686]
      },
      {
        "species": [{ "element": "Sn", "occu": 1 }],
        "abc": [0.32103939, -0.0, 0.0],
        "properties": { "magmom": -0.0 },
        "label": "Sn",
        "xyz": [2.474007580805315, 0.0, -0.8746939440897589]
      },
      {
        "species": [{ "element": "Sn", "occu": 1 }],
        "abc": [-0.0, 0.32103939, 0.0],
        "properties": { "magmom": -0.0 },
        "label": "Sn",
        "xyz": [-1.2370036282777654, 2.1425535092636263, -0.8746939440897589]
      },
      {
        "species": [{ "element": "Sn", "occu": 1 }],
        "abc": [0.0, 0.0, 0.32103939],
        "properties": { "magmom": -0.0 },
        "label": "Sn",
        "xyz": [0.0, 0.0, 2.6240815112298863]
      },
      {
        "species": [{ "element": "Sn", "occu": 1 }],
        "abc": [0.0, 0.67896061, -0.0],
        "properties": { "magmom": -0.0 },
        "label": "Sn",
        "xyz": [-2.616117411722234, 4.531249070736374, -1.8498749759102413]
      },
      {
        "species": [{ "element": "Sn", "occu": 1 }],
        "abc": [-0.0, -0.0, 0.67896061],
        "properties": { "magmom": -0.0 },
        "label": "Sn",
        "xyz": [0.0, 0.0, 5.5496242487701135]
      },
      {
        "species": [{ "element": "Sn", "occu": 1 }],
        "abc": [0.67896061, 0.0, -0.0],
        "properties": { "magmom": -0.0 },
        "label": "Sn",
        "xyz": [5.232235509194685, 0.0, -1.8498749759102413]
      },
      {
        "species": [{ "element": "Sn", "occu": 1 }],
        "abc": [0.67896061, 0.67896061, 0.67896061],
        "properties": { "magmom": -0.0 },
        "label": "Sn",
        "xyz": [2.6161180974724507, 4.531249070736374, 1.849874296949631]
      },
      {
        "species": [{ "element": "Os", "occu": 1 }],
        "abc": [0.0, 0.65624647, 0.65624647],
        "properties": { "magmom": -0.0 },
        "label": "Os",
        "xyz": [-2.528597080982729, 4.379659384601893, 3.575976815796955]
      },
      {
        "species": [{ "element": "Os", "occu": 1 }],
        "abc": [0.34375353000000003, 0.34375353000000003, 0.0],
        "properties": { "magmom": -0.0 },
        "label": "Os",
        "xyz": [1.3245243062083365, 2.2941431953981075, -1.8731603679565756]
      },
      {
        "species": [{ "element": "Os", "occu": 1 }],
        "abc": [0.65624647, 0.65624647, -0.0],
        "properties": { "magmom": -0.0 },
        "label": "Os",
        "xyz": [2.528597743791664, 4.379659384601893, -3.575977472043425]
      },
      {
        "species": [{ "element": "Os", "occu": 1 }],
        "abc": [0.65624647, 0.0, 0.65624647],
        "properties": { "magmom": -0.0 },
        "label": "Os",
        "xyz": [5.057194824774393, 0.0, 3.575976815796955]
      },
      {
        "species": [{ "element": "Os", "occu": 1 }],
        "abc": [0.34375353000000003, -0.0, 0.34375353000000003],
        "properties": { "magmom": -0.0 },
        "label": "Os",
        "xyz": [2.6490482652256078, 0.0, 1.8731600242030453]
      },
      {
        "species": [{ "element": "Os", "occu": 1 }],
        "abc": [-0.0, 0.34375353000000003, 0.34375353000000003],
        "properties": { "magmom": -0.0 },
        "label": "Os",
        "xyz": [-1.3245239590172713, 2.2941431953981075, 1.8731600242030453]
      }
    ]
  },
  "task_ids": null,
  "uncorrected_energy_per_atom": null,
  "energy_per_atom": -33.184386218,
  "formation_energy_per_atom": 0.033511083000001,
  "energy_above_hull": 0.033511082999993,
  "is_stable": false,
  "equilibrium_reaction_energy_per_atom": null,
  "decomposes_to": null,
  "xas": null,
  "grain_boundaries": null,
  "band_gap": 0.0,
  "cbm": null,
  "vbm": null,
  "efermi": 8.51648166,
  "is_gap_direct": null,
  "is_metal": null,
  "es_source_calc_id": null,
  "bandstructure": null,
  "dos": null,
  "dos_energy_up": null,
  "dos_energy_down": null,
  "is_magnetic": null,
  "ordering": null,
  "total_magnetization": 5.2999999999999975e-6,
  "total_magnetization_normalized_vol": null,
  "total_magnetization_normalized_formula_units": null,
  "num_magnetic_sites": null,
  "num_unique_magnetic_sites": null,
  "types_of_magnetic_species": null,
  "bulk_modulus": null,
  "shear_modulus": null,
  "universal_anisotropy": null,
  "homogeneous_poisson": null,
  "e_total": null,
  "e_ionic": null,
  "e_electronic": null,
  "n": null,
  "e_ij_max": null,
  "weighted_surface_energy_EV_PER_ANG2": null,
  "weighted_surface_energy": null,
  "weighted_work_function": null,
  "surface_anisotropy": null,
  "shape_factor": null,
  "has_reconstructed": null,
  "possible_species": null,
  "has_props": null,
  "theoretical": null,
  "database_IDs": null,
  "fields_not_requested": [
    "builder_meta",
    "nsites",
    "elements",
    "nelements",
    "composition",
    "composition_reduced",
    "chemsys",
    "symmetry",
    "property_name",
    "deprecated",
    "deprecation_reasons",
    "last_updated",
    "origins",
    "warnings",
    "task_ids",
    "uncorrected_energy_per_atom",
    "equilibrium_reaction_energy_per_atom",
    "decomposes_to",
    "xas",
    "grain_boundaries",
    "cbm",
    "vbm",
    "is_gap_direct",
    "is_metal",
    "es_source_calc_id",
    "bandstructure",
    "dos",
    "dos_energy_up",
    "dos_energy_down",
    "is_magnetic",
    "ordering",
    "total_magnetization_normalized_vol",
    "total_magnetization_normalized_formula_units",
    "num_magnetic_sites",
    "num_unique_magnetic_sites",
    "types_of_magnetic_species",
    "bulk_modulus",
    "shear_modulus",
    "universal_anisotropy",
    "homogeneous_poisson",
    "e_total",
    "e_ionic",
    "e_electronic",
    "n",
    "e_ij_max",
    "weighted_surface_energy_EV_PER_ANG2",
    "weighted_surface_energy",
    "weighted_work_function",
    "surface_anisotropy",
    "shape_factor",
    "has_reconstructed",
    "possible_species",
    "has_props",
    "theoretical",
    "database_IDs"
  ]
}
