{"builder_meta": null, "nsites": null, "elements": null, "nelements": null, "composition": null, "composition_reduced": null, "formula_pretty": "Sn7Pd5", "formula_anonymous": "A5B7", "chemsys": null, "volume": 257.0924859813928, "density": 8.803956198370878, "density_atomic": 21.424373831782734, "symmetry": null, "property_name": null, "material_id": "mp-1219006", "deprecated": null, "deprecation_reasons": null, "last_updated": null, "origins": null, "warnings": null, "structure": {"@module": "pymatgen.core.structure", "@class": "Structure", "charge": 0, "lattice": {"matrix": [[2.18191545, 6.5738769900000005, -0.00178214], [-2.18191545, 6.5738769900000005, -0.00178214], [0.0, 3.5187326800000003, 8.96094204]], "pbc": [true, true, true], "a": 6.926515493855706, "b": 6.926515493855706, "c": 9.627043259357432, "alpha": 69.71701175108802, "beta": 69.71701175108802, "gamma": 36.72272697154481, "volume": 257.0924859813929}, "properties": {}, "sites": [{"species": [{"element": "Sn", "occu": 1}], "abc": [0.25657347, 0.23517279, 0.3804701], "properties": {"magmom": -0.0}, "label": "Sn", "xyz": [0.046694474332506064, 4.571451998165426, 3.4084941533732076]}, {"species": [{"element": "Sn", "occu": 1}], "abc": [0.76482721, 0.74342653, 0.6195299], "properties": {"magmom": -0.0}, "label": "Sn", "xyz": [0.04669447433250595, 12.095034661834575, 5.548883606626792]}, {"species": [{"element": "Sn", "occu": 1}], "abc": [0.22556664, 0.23238742, 0.88148087], "properties": {"magmom": -0.0}, "label": "Sn", "xyz": [-0.014882365263050978, 6.112229201574912, 7.898082847190286]}, {"species": [{"element": "Sn", "occu": 1}], "abc": [0.76761258, 0.7744333600000001, 0.11851913], "properties": {"magmom": -0.0}, "label": "Sn", "xyz": [-0.0148823652630512, 10.55425745842509, 1.0592949128097138]}, {"species": [{"element": "Sn", "occu": 1}], "abc": [0.48545175, 0.5007786200000001, 0.82401301], "properties": {"magmom": -0.0}, "label": "Sn", "xyz": [-0.033441934453141586, 9.382838643214354, 7.382175222224349]}, {"species": [{"element": "Sn", "occu": 1}], "abc": [0.49922138, 0.51454825, 0.17598699], "properties": {"magmom": -0.0}, "label": "Sn", "xyz": [-0.033441934453141586, 7.283648016785647, 1.5752025377756516]}, {"species": [{"element": "Sn", "occu": 1}], "abc": [0.83568612, 0.16431388, 0.5], "properties": {"magmom": -0.0}, "label": "Sn", "xyz": [1.4648774631571078, 8.33324333, 4.47868888]}, {"species": [{"element": "Pd", "occu": 1}], "abc": [0.12395986, 0.13497491, 0.19442954], "properties": {"magmom": 0.0}, "label": "Pd", "xyz": [-0.024033907777522512, 2.3863509027693097, 1.741810380792854]}, {"species": [{"element": "Pd", "occu": 1}], "abc": [0.86502509, 0.87604014, 0.80557046], "properties": {"magmom": 0.0}, "label": "Pd", "xyz": [-0.024033907777522456, 14.280135757230692, 7.215567379207147]}, {"species": [{"element": "Pd", "occu": 1}], "abc": [0.12343996, 0.10983801, 0.68049342], "properties": {"magmom": 0.0}, "label": "Pd", "xyz": [0.02967830485512754, 3.928015114735876, 6.097446361219922]}, {"species": [{"element": "Pd", "occu": 1}], "abc": [0.8901619900000001, 0.87656004, 0.31950658], "properties": {"magmom": 0.0}, "label": "Pd", "xyz": [0.0296783048551279, 12.738471545264126, 2.859931398780079]}, {"species": [{"element": "Pd", "occu": 1}], "abc": [0.98267294, 0.017327060000000002, 0.0], "properties": {"magmom": 0.0}, "label": "Pd", "xyz": [2.106303090165846, 6.5738769900000005, -0.00178214]}]}, "task_ids": null, "uncorrected_energy_per_atom": null, "energy_per_atom": -24.378935997499998, "formation_energy_per_atom": -0.37680645499999804, "energy_above_hull": 0.041391176250005005, "is_stable": false, "equilibrium_reaction_energy_per_atom": null, "decomposes_to": null, "xas": null, "grain_boundaries": null, "band_gap": 0.0, "cbm": null, "vbm": null, "efermi": 7.22814897, "is_gap_direct": null, "is_metal": null, "es_source_calc_id": null, "bandstructure": null, "dos": null, "dos_energy_up": null, "dos_energy_down": null, "is_magnetic": null, "ordering": null, "total_magnetization": 0.0, "total_magnetization_normalized_vol": null, "total_magnetization_normalized_formula_units": null, "num_magnetic_sites": null, "num_unique_magnetic_sites": null, "types_of_magnetic_species": null, "bulk_modulus": null, "shear_modulus": null, "universal_anisotropy": null, "homogeneous_poisson": null, "e_total": null, "e_ionic": null, "e_electronic": null, "n": null, "e_ij_max": null, "weighted_surface_energy_EV_PER_ANG2": null, "weighted_surface_energy": null, "weighted_work_function": null, "surface_anisotropy": null, "shape_factor": null, "has_reconstructed": null, "possible_species": null, "has_props": null, "theoretical": null, "database_IDs": null, "fields_not_requested": ["builder_meta", "nsites", "elements", "nelements", "composition", "composition_reduced", "chemsys", "symmetry", "property_name", "deprecated", "deprecation_reasons", "last_updated", "origins", "warnings", "task_ids", "uncorrected_energy_per_atom", "equilibrium_reaction_energy_per_atom", "decomposes_to", "xas", "grain_boundaries", "cbm", "vbm", "is_gap_direct", "is_metal", "es_source_calc_id", "bandstructure", "dos", "dos_energy_up", "dos_energy_down", "is_magnetic", "ordering", "total_magnetization_normalized_vol", "total_magnetization_normalized_formula_units", "num_magnetic_sites", "num_unique_magnetic_sites", "types_of_magnetic_species", "bulk_modulus", "shear_modulus", "universal_anisotropy", "homogeneous_poisson", "e_total", "e_ionic", "e_electronic", "n", "e_ij_max", "weighted_surface_energy_EV_PER_ANG2", "weighted_surface_energy", "weighted_work_function", "surface_anisotropy", "shape_factor", "has_reconstructed", "possible_species", "has_props", "theoretical", "database_IDs"]}