{
  "builder_meta": null,
  "nsites": null,
  "elements": null,
  "nelements": null,
  "composition": null,
  "composition_reduced": null,
  "formula_pretty": "Sn7Ru3",
  "formula_anonymous": "A3B7",
  "chemsys": null,
  "volume": 416.0590825338041,
  "density": 9.05328246693602,
  "density_atomic": 20.802954126690203,
  "symmetry": null,
  "property_name": null,
  "material_id": "mp-22344",
  "deprecated": null,
  "deprecation_reasons": null,
  "last_updated": null,
  "origins": null,
  "warnings": null,
  "structure": {
    "@module": "pymatgen.core.structure",
    "@class": "Structure",
    "charge": 0,
    "lattice": {
      "matrix": [
        [7.6797897, -1e-8, -2.71521632],
        [-3.83989637, 6.65089344, -2.71521632],
        [0.0, 0.0, 8.14564896]
      ],
      "pbc": [true, true, true],
      "a": 8.14564727327549,
      "b": 8.145648368728455,
      "c": 8.14564896,
      "alpha": 109.47122210490242,
      "beta": 109.47122482914524,
      "gamma": 109.47122446805668,
      "volume": 416.0590825338041
    },
    "properties": {},
    "sites": [
      {
        "species": [{ "element": "Sn", "occu": 1 }],
        "abc": [0.25, 0.75, 0.5],
        "properties": { "magmom": 0.0 },
        "label": "Sn",
        "xyz": [-0.9599748525, 4.9881700774999995, 1.3576081600000003]
      },
      {
        "species": [{ "element": "Sn", "occu": 1 }],
        "abc": [0.75, 0.25, 0.5],
        "properties": { "magmom": 0.0 },
        "label": "Sn",
        "xyz": [4.799868182499999, 1.6627233525, 1.3576081600000003]
      },
      {
        "species": [{ "element": "Sn", "occu": 1 }],
        "abc": [0.5, 0.75, 0.25],
        "properties": { "magmom": 0.0 },
        "label": "Sn",
        "xyz": [0.9599725724999999, 4.988170074999999, -1.3576081600000003]
      },
      {
        "species": [{ "element": "Sn", "occu": 1 }],
        "abc": [0.5, 0.25, 0.75],
        "properties": { "magmom": 0.0 },
        "label": "Sn",
        "xyz": [2.8799207575, 1.662723355, 4.0728244799999995]
      },
      {
        "species": [{ "element": "Sn", "occu": 1 }],
        "abc": [0.75, 0.5, 0.25],
        "properties": { "magmom": 0.0 },
        "label": "Sn",
        "xyz": [3.8398940899999996, 3.3254467125, -1.3576081600000003]
      },
      {
        "species": [{ "element": "Sn", "occu": 1 }],
        "abc": [0.25, 0.5, 0.75],
        "properties": { "magmom": 0.0 },
        "label": "Sn",
        "xyz": [-7.600000000440588e-7, 3.3254467174999998, 4.0728244799999995]
      },
      {
        "species": [{ "element": "Sn", "occu": 1 }],
        "abc": [0.32121011, 0.32121011, 0.32121011],
        "properties": { "magmom": 0.0 },
        "label": "Sn",
        "xyz": [1.233412558917566, 2.136334210248577, 0.8721549328209952]
      },
      {
        "species": [{ "element": "Sn", "occu": 1 }],
        "abc": [0.32121011, 0.0, 0.0],
        "properties": { "magmom": 0.0 },
        "label": "Sn",
        "xyz": [2.4668260943138667, -3.2121011e-9, -0.8721549328209952]
      },
      {
        "species": [{ "element": "Sn", "occu": 1 }],
        "abc": [0.0, 0.32121011, 0.0],
        "properties": { "magmom": 0.0 },
        "label": "Sn",
        "xyz": [-1.2334135353963007, 2.136334213460678, -0.8721549328209952]
      },
      {
        "species": [{ "element": "Sn", "occu": 1 }],
        "abc": [-0.0, 0.0, 0.32121011],
        "properties": { "magmom": 0.0 },
        "label": "Sn",
        "xyz": [0.0, 0.0, 2.6164647984629856]
      },
      {
        "species": [{ "element": "Sn", "occu": 1 }],
        "abc": [-0.0, 0.67878989, -0.0],
        "properties": { "magmom": 0.0 },
        "label": "Sn",
        "xyz": [-2.6064828346036992, 4.514559226539322, -1.843061387179005]
      },
      {
        "species": [{ "element": "Sn", "occu": 1 }],
        "abc": [-0.0, 0.0, 0.67878989],
        "properties": { "magmom": 0.0 },
        "label": "Sn",
        "xyz": [0.0, 0.0, 5.529184161537015]
      },
      {
        "species": [{ "element": "Sn", "occu": 1 }],
        "abc": [0.67878989, -0.0, -0.0],
        "properties": { "magmom": 0.0 },
        "label": "Sn",
        "xyz": [5.212963605686133, -6.7878989e-9, -1.843061387179005]
      },
      {
        "species": [{ "element": "Sn", "occu": 1 }],
        "abc": [0.67878989, 0.67878989, 0.67878989],
        "properties": { "magmom": 0.0 },
        "label": "Sn",
        "xyz": [2.6064807710824334, 4.514559219751423, 1.843061387179005]
      },
      {
        "species": [{ "element": "Ru", "occu": 1 }],
        "abc": [0.0, 0.34488024, 0.34488024],
        "properties": { "magmom": -0.0 },
        "label": "Ru",
        "xyz": [-1.3243043816607287, 2.2937617258016254, 1.8728489121870338]
      },
      {
        "species": [{ "element": "Ru", "occu": 1 }],
        "abc": [0.34488024, 0.0, 0.34488024],
        "properties": { "magmom": -0.0 },
        "label": "Ru",
        "xyz": [2.648607714885528, -3.4488024000000003e-9, 1.8728489121870338]
      },
      {
        "species": [{ "element": "Ru", "occu": 1 }],
        "abc": [0.65511976, -0.0, 0.65511976],
        "properties": { "magmom": -0.0 },
        "label": "Ru",
        "xyz": [5.031181985114472, -6.5511976e-9, 3.5575837278129674]
      },
      {
        "species": [{ "element": "Ru", "occu": 1 }],
        "abc": [0.65511976, 0.65511976, -0.0],
        "properties": { "magmom": -0.0 },
        "label": "Ru",
        "xyz": [2.5155899967752005, 4.357131707647177, -3.557583727812967]
      },
      {
        "species": [{ "element": "Ru", "occu": 1 }],
        "abc": [0.34488024, 0.34488024, 0.0],
        "properties": { "magmom": -0.0 },
        "label": "Ru",
        "xyz": [1.324303333224799, 2.293761722352823, -1.8728489121870338]
      },
      {
        "species": [{ "element": "Ru", "occu": 1 }],
        "abc": [-0.0, 0.65511976, 0.65511976],
        "properties": { "magmom": -0.0 },
        "label": "Ru",
        "xyz": [-2.5155919883392714, 4.357131714198375, 3.5575837278129674]
      }
    ]
  },
  "task_ids": null,
  "uncorrected_energy_per_atom": null,
  "energy_per_atom": -25.115186528000002,
  "formation_energy_per_atom": -0.165497293500001,
  "energy_above_hull": 0.0,
  "is_stable": true,
  "equilibrium_reaction_energy_per_atom": null,
  "decomposes_to": null,
  "xas": null,
  "grain_boundaries": null,
  "band_gap": 0.0,
  "cbm": null,
  "vbm": null,
  "efermi": 8.56620422,
  "is_gap_direct": null,
  "is_metal": null,
  "es_source_calc_id": null,
  "bandstructure": null,
  "dos": null,
  "dos_energy_up": null,
  "dos_energy_down": null,
  "is_magnetic": null,
  "ordering": null,
  "total_magnetization": 2e-7,
  "total_magnetization_normalized_vol": null,
  "total_magnetization_normalized_formula_units": null,
  "num_magnetic_sites": null,
  "num_unique_magnetic_sites": null,
  "types_of_magnetic_species": null,
  "bulk_modulus": null,
  "shear_modulus": null,
  "universal_anisotropy": null,
  "homogeneous_poisson": null,
  "e_total": null,
  "e_ionic": null,
  "e_electronic": null,
  "n": null,
  "e_ij_max": null,
  "weighted_surface_energy_EV_PER_ANG2": null,
  "weighted_surface_energy": null,
  "weighted_work_function": null,
  "surface_anisotropy": null,
  "shape_factor": null,
  "has_reconstructed": null,
  "possible_species": null,
  "has_props": null,
  "theoretical": null,
  "database_IDs": null,
  "fields_not_requested": [
    "builder_meta",
    "nsites",
    "elements",
    "nelements",
    "composition",
    "composition_reduced",
    "chemsys",
    "symmetry",
    "property_name",
    "deprecated",
    "deprecation_reasons",
    "last_updated",
    "origins",
    "warnings",
    "task_ids",
    "uncorrected_energy_per_atom",
    "equilibrium_reaction_energy_per_atom",
    "decomposes_to",
    "xas",
    "grain_boundaries",
    "cbm",
    "vbm",
    "is_gap_direct",
    "is_metal",
    "es_source_calc_id",
    "bandstructure",
    "dos",
    "dos_energy_up",
    "dos_energy_down",
    "is_magnetic",
    "ordering",
    "total_magnetization_normalized_vol",
    "total_magnetization_normalized_formula_units",
    "num_magnetic_sites",
    "num_unique_magnetic_sites",
    "types_of_magnetic_species",
    "bulk_modulus",
    "shear_modulus",
    "universal_anisotropy",
    "homogeneous_poisson",
    "e_total",
    "e_ionic",
    "e_electronic",
    "n",
    "e_ij_max",
    "weighted_surface_energy_EV_PER_ANG2",
    "weighted_surface_energy",
    "weighted_work_function",
    "surface_anisotropy",
    "shape_factor",
    "has_reconstructed",
    "possible_species",
    "has_props",
    "theoretical",
    "database_IDs"
  ]
}
