{"builder_meta": null, "nsites": null, "elements": null, "nelements": null, "composition": null, "composition_reduced": null, "formula_pretty": "SnAu3", "formula_anonymous": "AB3", "chemsys": null, "volume": 153.19279060503942, "density": 15.383682689742933, "density_atomic": 19.149098825629927, "symmetry": null, "property_name": null, "material_id": "mp-980109", "deprecated": null, "deprecation_reasons": null, "last_updated": null, "origins": null, "warnings": null, "structure": {"@module": "pymatgen.core.structure", "@class": "Structure", "charge": 0, "lattice": {"matrix": [[5.86464048, 0.0, -0.0], [-2.93231924, 5.07892732, 0.0], [0.0, 0.0, 5.14309961]], "pbc": [true, true, true], "a": 5.86464048, "b": 5.86463970309486, "c": 5.14309961, "alpha": 90.0, "beta": 90.0, "gamma": 119.99999310108498, "volume": 153.19279060503942}, "properties": {}, "sites": [{"species": [{"element": "Sn", "occu": 1}], "abc": [0.333333, 0.666667, 0.750000999999999], "properties": {"magmom": -0.0}, "label": "Sn", "xyz": [-2.2656532399079055e-06, 3.38595323964244, 3.857329850599605]}, {"species": [{"element": "Sn", "occu": 1}], "abc": [0.666666, 0.333331999999999, 0.249999], "properties": {"magmom": -0.0}, "label": "Sn", "xyz": [2.932320573332003, 1.692969001430235, 1.28576975940039]}, {"species": [{"element": "Au", "occu": 1}], "abc": [0.16524967000000002, 0.33049834, 0.249999], "properties": {"magmom": -0.0}, "label": "Au", "xyz": [3.2628185800964715e-06, 1.6785770482406488, 1.28576975940039]}, {"species": [{"element": "Au", "occu": 1}], "abc": [0.66950066, 0.8347493300000001, 0.249999], "properties": {"magmom": -0.0}, "label": "Au", "xyz": [1.4786291510866074, 4.239631177488696, 1.28576975940039]}, {"species": [{"element": "Au", "occu": 1}], "abc": [0.16525067000000002, 0.8347493300000001, 0.249999], "properties": {"magmom": -0.0}, "label": "Au", "xyz": [-1.4786157523069878, 4.239631177488696, 1.28576975940039]}, {"species": [{"element": "Au", "occu": 1}], "abc": [0.83474833, 0.66950066, 0.750000999999999], "properties": {"magmom": -0.0}, "label": "Au", "xyz": [2.9323091802197006, 3.400345192832031, 3.857329850599605]}, {"species": [{"element": "Au", "occu": 1}], "abc": [0.33049734000000003, 0.16524867000000001, 0.750000999999999], "properties": {"magmom": -0.0}, "label": "Au", "xyz": [1.4536862242709125, 0.8392859846566645, 3.857329850599605]}, {"species": [{"element": "Au", "occu": 1}], "abc": [0.8347493300000001, 0.16524867000000001, 0.750000999999999], "properties": {"magmom": -0.0}, "label": "Au", "xyz": [4.410942856945469, 0.8392859846566645, 3.857329850599605]}]}, "task_ids": null, "uncorrected_energy_per_atom": null, "energy_per_atom": -44.1309241, "formation_energy_per_atom": -0.005658042500002, "energy_above_hull": 0.066113297499995, "is_stable": false, "equilibrium_reaction_energy_per_atom": null, "decomposes_to": null, "xas": null, "grain_boundaries": null, "band_gap": 0.0, "cbm": null, "vbm": null, "efermi": 6.46203082, "is_gap_direct": null, "is_metal": null, "es_source_calc_id": null, "bandstructure": null, "dos": null, "dos_energy_up": null, "dos_energy_down": null, "is_magnetic": null, "ordering": null, "total_magnetization": 0.0, "total_magnetization_normalized_vol": null, "total_magnetization_normalized_formula_units": null, "num_magnetic_sites": null, "num_unique_magnetic_sites": null, "types_of_magnetic_species": null, "bulk_modulus": null, "shear_modulus": null, "universal_anisotropy": null, "homogeneous_poisson": null, "e_total": null, "e_ionic": null, "e_electronic": null, "n": null, "e_ij_max": null, "weighted_surface_energy_EV_PER_ANG2": null, "weighted_surface_energy": null, "weighted_work_function": null, "surface_anisotropy": null, "shape_factor": null, "has_reconstructed": null, "possible_species": null, "has_props": null, "theoretical": null, "database_IDs": null, "fields_not_requested": ["builder_meta", "nsites", "elements", "nelements", "composition", "composition_reduced", "chemsys", "symmetry", "property_name", "deprecated", "deprecation_reasons", "last_updated", "origins", "warnings", "task_ids", "uncorrected_energy_per_atom", "equilibrium_reaction_energy_per_atom", "decomposes_to", "xas", "grain_boundaries", "cbm", "vbm", "is_gap_direct", "is_metal", "es_source_calc_id", "bandstructure", "dos", "dos_energy_up", "dos_energy_down", "is_magnetic", "ordering", "total_magnetization_normalized_vol", "total_magnetization_normalized_formula_units", "num_magnetic_sites", "num_unique_magnetic_sites", "types_of_magnetic_species", "bulk_modulus", "shear_modulus", "universal_anisotropy", "homogeneous_poisson", "e_total", "e_ionic", "e_electronic", "n", "e_ij_max", "weighted_surface_energy_EV_PER_ANG2", "weighted_surface_energy", "weighted_work_function", "surface_anisotropy", "shape_factor", "has_reconstructed", "possible_species", "has_props", "theoretical", "database_IDs"]}