{
  "builder_meta": null,
  "nsites": null,
  "elements": null,
  "nelements": null,
  "composition": null,
  "composition_reduced": null,
  "formula_pretty": "SnBr4",
  "formula_anonymous": "AB4",
  "chemsys": null,
  "volume": 791.3655785001996,
  "density": 3.67899472345487,
  "density_atomic": 39.56827892500998,
  "symmetry": null,
  "property_name": null,
  "material_id": "mp-23216",
  "deprecated": null,
  "deprecation_reasons": null,
  "last_updated": null,
  "origins": null,
  "warnings": null,
  "structure": {
    "@module": "pymatgen.core.structure",
    "@class": "Structure",
    "charge": 0,
    "lattice": {
      "matrix": [
        [7.13445104, 0.0, 0.0],
        [0.0, 10.31893971, -2.38398699],
        [0.0, 0.12189307, 10.72117207]
      ],
      "pbc": [true, true, true],
      "a": 7.13445104,
      "b": 10.590746466000597,
      "c": 10.721864971872295,
      "alpha": 102.35742452166127,
      "beta": 90.0,
      "gamma": 90.0,
      "volume": 791.3655785001995
    },
    "properties": {},
    "sites": [
      {
        "species": [{ "element": "Sn", "occu": 1 }],
        "abc": [0.07743444000000001, 0.751991499999999, 0.13329847],
        "properties": { "magmom": -0.0 },
        "label": "Sn",
        "xyz": [0.5524522209898176, 7.776003110667058, -0.3636221190528497]
      },
      {
        "species": [{ "element": "Sn", "occu": 1 }],
        "abc": [0.57743444, 0.2480085, 0.36670153],
        "properties": { "magmom": -0.0 },
        "label": "Sn",
        "xyz": [4.119677740989817, 2.603883134332932, 3.340221164052852]
      },
      {
        "species": [{ "element": "Sn", "occu": 1 }],
        "abc": [0.92256556, 0.2480085, 0.86670153],
        "properties": { "magmom": -0.0 },
        "label": "Sn",
        "xyz": [6.581998819010183, 2.6648296693329323, 8.700807199052852]
      },
      {
        "species": [{ "element": "Sn", "occu": 1 }],
        "abc": [0.42256556, 0.751991499999999, 0.6332984700000001],
        "properties": { "magmom": -0.0 },
        "label": "Sn",
        "xyz": [3.0147732990101823, 7.836949645667058, 4.99696391594715]
      },
      {
        "species": [{ "element": "Br", "occu": 1 }],
        "abc": [0.91431677, 0.80900574, 0.95138221],
        "properties": { "magmom": 0.0 },
        "label": "Br",
        "xyz": [6.5231482306159405, 8.46404835442422, 8.271273218751551]
      },
      {
        "species": [{ "element": "Br", "occu": 1 }],
        "abc": [0.41431677, 0.19099426, 0.54861779],
        "properties": { "magmom": 0.0 },
        "label": "Br",
        "xyz": [2.955922710615941, 2.03773096057578, 5.426497896248448]
      },
      {
        "species": [{ "element": "Br", "occu": 1 }],
        "abc": [0.08568323, 0.19099426, 0.04861679],
        "properties": { "magmom": 0.0 },
        "label": "Br",
        "xyz": [0.6113028093840592, 1.97678430368271, 0.06590114007637787]
      },
      {
        "species": [{ "element": "Br", "occu": 1 }],
        "abc": [0.58568323, 0.80900574, 0.45138321000000003],
        "properties": { "magmom": 0.0 },
        "label": "Br",
        "xyz": [4.17852832938406, 8.40310194131729, 2.910697904923623]
      },
      {
        "species": [{ "element": "Br", "occu": 1 }],
        "abc": [0.42543896000000003, 0.93853842, 0.8145764600000001],
        "properties": { "magmom": -0.0 },
        "label": "Br",
        "xyz": [3.0352734306285187, 9.78401259695779, 6.495751008936317]
      },
      {
        "species": [{ "element": "Br", "occu": 1 }],
        "abc": [0.92543896, 0.06146158, 0.68542354],
        "properties": { "magmom": -0.0 },
        "label": "Br",
        "xyz": [6.602498950628519, 0.7177667180422096, 7.202020106063684]
      },
      {
        "species": [{ "element": "Br", "occu": 1 }],
        "abc": [0.57456104, 0.06146158, 0.18542354],
        "properties": { "magmom": -0.0 },
        "label": "Br",
        "xyz": [4.099177609371481, 0.6568201830422096, 1.8414340710636836]
      },
      {
        "species": [{ "element": "Br", "occu": 1 }],
        "abc": [0.07456104, 0.93853842, 0.31457646],
        "properties": { "magmom": -0.0 },
        "label": "Br",
        "xyz": [0.5319520893714815, 9.723066061957791, 1.1351649739363165]
      },
      {
        "species": [{ "element": "Br", "occu": 1 }],
        "abc": [0.09808197, 0.68855342, 0.5737945],
        "properties": { "magmom": 0.0 },
        "label": "Br",
        "xyz": [0.6997610128717489, 7.175082801248424, 4.510247172119609]
      },
      {
        "species": [{ "element": "Br", "occu": 1 }],
        "abc": [0.59808197, 0.31144658000000003, 0.9262054999999991],
        "properties": { "magmom": 0.0 },
        "label": "Br",
        "xyz": [4.266986532871749, 3.3266965137515774, 9.187523942880382]
      },
      {
        "species": [{ "element": "Br", "occu": 1 }],
        "abc": [0.90191803, 0.31144658000000003, 0.426205499999999],
        "properties": { "magmom": 0.0 },
        "label": "Br",
        "xyz": [6.434690027128251, 3.265749978751577, 3.82693790788038]
      },
      {
        "species": [{ "element": "Br", "occu": 1 }],
        "abc": [0.40191803, 0.68855342, 0.0737945],
        "properties": { "magmom": 0.0 },
        "label": "Br",
        "xyz": [2.867464507128251, 7.1141362662484235, -0.8503388628803906]
      },
      {
        "species": [{ "element": "Br", "occu": 1 }],
        "abc": [0.5851449, 0.56962874, 0.69443479],
        "properties": { "magmom": -0.0 },
        "label": "Br",
        "xyz": [4.174687640355696, 5.962611413611171, 6.087167369694223]
      },
      {
        "species": [{ "element": "Br", "occu": 1 }],
        "abc": [0.0851449, 0.43037126000000003, 0.80556521],
        "properties": { "magmom": -0.0 },
        "label": "Br",
        "xyz": [0.607462120355696, 4.539167901388829, 7.610603745305778]
      },
      {
        "species": [{ "element": "Br", "occu": 1 }],
        "abc": [0.4148551, 0.43037126000000003, 0.30556521000000003],
        "properties": { "magmom": -0.0 },
        "label": "Br",
        "xyz": [2.959763399644304, 4.47822136638883, 2.2500177103057775]
      },
      {
        "species": [{ "element": "Br", "occu": 1 }],
        "abc": [0.914855099999999, 0.56962874, 0.19443479],
        "properties": { "magmom": -0.0 },
        "label": "Br",
        "xyz": [6.526988919644297, 5.901664878611171, 0.7265813346942229]
      }
    ]
  },
  "task_ids": null,
  "uncorrected_energy_per_atom": null,
  "energy_per_atom": -3.228894540499999,
  "formation_energy_per_atom": -1.117422941499999,
  "energy_above_hull": 0.0,
  "is_stable": true,
  "equilibrium_reaction_energy_per_atom": null,
  "decomposes_to": null,
  "xas": null,
  "grain_boundaries": null,
  "band_gap": 2.7107,
  "cbm": null,
  "vbm": null,
  "efermi": -2.40682028,
  "is_gap_direct": null,
  "is_metal": null,
  "es_source_calc_id": null,
  "bandstructure": null,
  "dos": null,
  "dos_energy_up": null,
  "dos_energy_down": null,
  "is_magnetic": null,
  "ordering": null,
  "total_magnetization": 0.0,
  "total_magnetization_normalized_vol": null,
  "total_magnetization_normalized_formula_units": null,
  "num_magnetic_sites": null,
  "num_unique_magnetic_sites": null,
  "types_of_magnetic_species": null,
  "bulk_modulus": null,
  "shear_modulus": null,
  "universal_anisotropy": null,
  "homogeneous_poisson": null,
  "e_total": null,
  "e_ionic": null,
  "e_electronic": null,
  "n": null,
  "e_ij_max": null,
  "weighted_surface_energy_EV_PER_ANG2": null,
  "weighted_surface_energy": null,
  "weighted_work_function": null,
  "surface_anisotropy": null,
  "shape_factor": null,
  "has_reconstructed": null,
  "possible_species": null,
  "has_props": null,
  "theoretical": null,
  "database_IDs": null,
  "fields_not_requested": [
    "builder_meta",
    "nsites",
    "elements",
    "nelements",
    "composition",
    "composition_reduced",
    "chemsys",
    "symmetry",
    "property_name",
    "deprecated",
    "deprecation_reasons",
    "last_updated",
    "origins",
    "warnings",
    "task_ids",
    "uncorrected_energy_per_atom",
    "equilibrium_reaction_energy_per_atom",
    "decomposes_to",
    "xas",
    "grain_boundaries",
    "cbm",
    "vbm",
    "is_gap_direct",
    "is_metal",
    "es_source_calc_id",
    "bandstructure",
    "dos",
    "dos_energy_up",
    "dos_energy_down",
    "is_magnetic",
    "ordering",
    "total_magnetization_normalized_vol",
    "total_magnetization_normalized_formula_units",
    "num_magnetic_sites",
    "num_unique_magnetic_sites",
    "types_of_magnetic_species",
    "bulk_modulus",
    "shear_modulus",
    "universal_anisotropy",
    "homogeneous_poisson",
    "e_total",
    "e_ionic",
    "e_electronic",
    "n",
    "e_ij_max",
    "weighted_surface_energy_EV_PER_ANG2",
    "weighted_surface_energy",
    "weighted_work_function",
    "surface_anisotropy",
    "shape_factor",
    "has_reconstructed",
    "possible_species",
    "has_props",
    "theoretical",
    "database_IDs"
  ]
}
