{"builder_meta": null, "nsites": null, "elements": null, "nelements": null, "composition": null, "composition_reduced": null, "formula_pretty": "SnBr2", "formula_anonymous": "AB2", "chemsys": null, "volume": 397.626590899177, "density": 4.652505947406003, "density_atomic": 33.135549241598085, "symmetry": null, "property_name": null, "material_id": "mp-29862", "deprecated": null, "deprecation_reasons": null, "last_updated": null, "origins": null, "warnings": null, "structure": {"@module": "pymatgen.core.structure", "@class": "Structure", "charge": 0, "lattice": {"matrix": [[4.23954006, -0.0, 0.0], [-0.0, 8.76486682, 0.0], [0.0, 0.0, 10.70067946]], "pbc": [true, true, true], "a": 4.23954006, "b": 8.76486682, "c": 10.70067946, "alpha": 90.0, "beta": 90.0, "gamma": 90.0, "volume": 397.626590899177}, "properties": {}, "sites": [{"species": [{"element": "Sn", "occu": 1}], "abc": [0.25, 0.8847794, 0.16550883], "properties": {"magmom": 0.0}, "label": "Sn", "xyz": [1.059885015, 7.754973606079508, 1.7710569376296317]}, {"species": [{"element": "Sn", "occu": 1}], "abc": [0.75, 0.11522059999999901, 0.8344911700000001], "properties": {"magmom": 0.0}, "label": "Sn", "xyz": [3.1796550450000005, 1.0098932139204833, 8.92962252237037]}, {"species": [{"element": "Sn", "occu": 1}], "abc": [0.25, 0.3847794, 0.33449117], "properties": {"magmom": 0.0}, "label": "Sn", "xyz": [1.059885015, 3.372540196079508, 3.579282792370368]}, {"species": [{"element": "Sn", "occu": 1}], "abc": [0.75, 0.6152206, 0.66550883], "properties": {"magmom": 0.0}, "label": "Sn", "xyz": [3.1796550450000005, 5.392326623920492, 7.121396667629632]}, {"species": [{"element": "Br", "occu": 1}], "abc": [0.25, 0.1657767, 0.04981055], "properties": {"magmom": -0.0}, "label": "Br", "xyz": [1.059885015, 1.453010697359094, 0.533006729276303]}, {"species": [{"element": "Br", "occu": 1}], "abc": [0.75, 0.8342233, 0.95018945], "properties": {"magmom": -0.0}, "label": "Br", "xyz": [3.1796550450000005, 7.311856122640906, 10.167672730723696]}, {"species": [{"element": "Br", "occu": 1}], "abc": [0.25, 0.6657767, 0.45018945], "properties": {"magmom": -0.0}, "label": "Br", "xyz": [1.059885015, 5.835444107359094, 4.817333000723697]}, {"species": [{"element": "Br", "occu": 1}], "abc": [0.75, 0.3342233, 0.54981055], "properties": {"magmom": -0.0}, "label": "Br", "xyz": [3.1796550450000005, 2.929422712640906, 5.883346459276303]}, {"species": [{"element": "Br", "occu": 1}], "abc": [0.25, 0.48778415, 0.81348536], "properties": {"magmom": -0.0}, "label": "Br", "xyz": [1.059885015, 4.275363111656903, 8.704846082762707]}, {"species": [{"element": "Br", "occu": 1}], "abc": [0.75, 0.51221585, 0.18651464], "properties": {"magmom": -0.0}, "label": "Br", "xyz": [3.1796550450000005, 4.489503708343097, 1.9958333772372945]}, {"species": [{"element": "Br", "occu": 1}], "abc": [0.25, 0.98778415, 0.6865146400000001], "properties": {"magmom": -0.0}, "label": "Br", "xyz": [1.059885015, 8.657796521656902, 7.346173107237295]}, {"species": [{"element": "Br", "occu": 1}], "abc": [0.75, 0.01221585, 0.31348536], "properties": {"magmom": -0.0}, "label": "Br", "xyz": [3.1796550450000005, 0.107070298343097, 3.3545063527627055]}]}, "task_ids": null, "uncorrected_energy_per_atom": null, "energy_per_atom": -3.601168219999998, "formation_energy_per_atom": -1.173346578333331, "energy_above_hull": 0.0, "is_stable": true, "equilibrium_reaction_energy_per_atom": null, "decomposes_to": null, "xas": null, "grain_boundaries": null, "band_gap": 2.5387, "cbm": null, "vbm": null, "efermi": 0.94766359, "is_gap_direct": null, "is_metal": null, "es_source_calc_id": null, "bandstructure": null, "dos": null, "dos_energy_up": null, "dos_energy_down": null, "is_magnetic": null, "ordering": null, "total_magnetization": 1e-07, "total_magnetization_normalized_vol": null, "total_magnetization_normalized_formula_units": null, "num_magnetic_sites": null, "num_unique_magnetic_sites": null, "types_of_magnetic_species": null, "bulk_modulus": null, "shear_modulus": null, "universal_anisotropy": null, "homogeneous_poisson": null, "e_total": null, "e_ionic": null, "e_electronic": null, "n": null, "e_ij_max": null, "weighted_surface_energy_EV_PER_ANG2": null, "weighted_surface_energy": null, "weighted_work_function": null, "surface_anisotropy": null, "shape_factor": null, "has_reconstructed": null, "possible_species": null, "has_props": null, "theoretical": null, "database_IDs": null, "fields_not_requested": ["builder_meta", "nsites", "elements", "nelements", "composition", "composition_reduced", "chemsys", "symmetry", "property_name", "deprecated", "deprecation_reasons", "last_updated", "origins", "warnings", "task_ids", "uncorrected_energy_per_atom", "equilibrium_reaction_energy_per_atom", "decomposes_to", "xas", "grain_boundaries", "cbm", "vbm", "is_gap_direct", "is_metal", "es_source_calc_id", "bandstructure", "dos", "dos_energy_up", "dos_energy_down", "is_magnetic", "ordering", "total_magnetization_normalized_vol", "total_magnetization_normalized_formula_units", "num_magnetic_sites", "num_unique_magnetic_sites", "types_of_magnetic_species", "bulk_modulus", "shear_modulus", "universal_anisotropy", "homogeneous_poisson", "e_total", "e_ionic", "e_electronic", "n", "e_ij_max", "weighted_surface_energy_EV_PER_ANG2", "weighted_surface_energy", "weighted_work_function", "surface_anisotropy", "shape_factor", "has_reconstructed", "possible_species", "has_props", "theoretical", "database_IDs"]}