{"builder_meta": null, "nsites": null, "elements": null, "nelements": null, "composition": null, "composition_reduced": null, "formula_pretty": "SnCl2", "formula_anonymous": "AB2", "chemsys": null, "volume": 665.7152606361321, "density": 3.783777170456363, "density_atomic": 27.738135859838838, "symmetry": null, "property_name": null, "material_id": "mp-29179", "deprecated": null, "deprecation_reasons": null, "last_updated": null, "origins": null, "warnings": null, "structure": {"@module": "pymatgen.core.structure", "@class": "Structure", "charge": 0, "lattice": {"matrix": [[4.32457481, 0.0, 0.0], [0.0, 9.63031594, -0.05540822], [0.0, 0.10523643, 15.98409722]], "pbc": [true, true, true], "a": 4.32457481, "b": 9.630475334845192, "c": 15.984443645138573, "alpha": 89.95242911518017, "beta": 90.0, "gamma": 90.0, "volume": 665.715260636132}, "properties": {}, "sites": [{"species": [{"element": "Sn", "occu": 1}], "abc": [0.74040619, 0.43821518, 0.614097], "properties": {"magmom": -0.0}, "label": "Sn", "xyz": [3.2019419584420734, 4.284776009057679, 9.791505427409561]}, {"species": [{"element": "Sn", "occu": 1}], "abc": [0.24040619, 0.56178482, 0.885903], "properties": {"magmom": -0.0}, "label": "Sn", "xyz": [1.0396545534420738, 5.50339457594232, 14.12923218259044]}, {"species": [{"element": "Sn", "occu": 1}], "abc": [0.25959381, 0.56178482, 0.385903], "properties": {"magmom": -0.0}, "label": "Sn", "xyz": [1.122632851557926, 5.45077636094232, 6.13718357259044]}, {"species": [{"element": "Sn", "occu": 1}], "abc": [0.75959381, 0.43821518, 0.114096999999999], "properties": {"magmom": -0.0}, "label": "Sn", "xyz": [3.284920256557926, 4.232157794057678, 1.7994568174095447]}, {"species": [{"element": "Sn", "occu": 1}], "abc": [0.25258746, 0.93829193, 0.63599935], "properties": {"magmom": 0.0}, "label": "Sn", "xyz": [1.0923333668378825, 9.102978030928684, 10.113886356575142]}, {"species": [{"element": "Sn", "occu": 1}], "abc": [0.75258746, 0.061708070000000004, 0.86400065], "properties": {"magmom": 0.0}, "label": "Sn", "xyz": [3.254620771837882, 0.6851925540713153, 13.80685125342486]}, {"species": [{"element": "Sn", "occu": 1}], "abc": [0.74741254, 0.061708070000000004, 0.36400065], "properties": {"magmom": 0.0}, "label": "Sn", "xyz": [3.2322414431621174, 0.6325743390713152, 5.814802643424858]}, {"species": [{"element": "Sn", "occu": 1}], "abc": [0.24741254000000001, 0.93829193, 0.13599935], "properties": {"magmom": 0.0}, "label": "Sn", "xyz": [1.0699540381621173, 9.050359815928683, 2.1218377465751423]}, {"species": [{"element": "Cl", "occu": 1}], "abc": [0.24924781000000001, 0.14692736, 0.23980543], "properties": {"magmom": -0.0}, "label": "Cl", "xyz": [1.077890800573666, 1.440193164377933, 3.824932323517006]}, {"species": [{"element": "Cl", "occu": 1}], "abc": [0.7492478100000001, 0.85307264, 0.26019457], "properties": {"magmom": -0.0}, "label": "Cl", "xyz": [3.2401782055736663, 8.242740990622066, 4.111708066482995]}, {"species": [{"element": "Cl", "occu": 1}], "abc": [0.75075219, 0.85307264, 0.76019457], "properties": {"magmom": -0.0}, "label": "Cl", "xyz": [3.2466840094263336, 8.295359205622066, 12.103756676482996]}, {"species": [{"element": "Cl", "occu": 1}], "abc": [0.25075219, 0.14692736, 0.73980543], "properties": {"magmom": -0.0}, "label": "Cl", "xyz": [1.0843966044263338, 1.4928113793779332, 11.816980933517005]}, {"species": [{"element": "Cl", "occu": 1}], "abc": [0.74761506, 0.64681033, 0.50997485], "properties": {"magmom": 0.0}, "label": "Cl", "xyz": [3.233117256052638, 6.282655763759445, 8.115648973092005]}, {"species": [{"element": "Cl", "occu": 1}], "abc": [0.24761506, 0.35318967, 0.99002515], "properties": {"magmom": 0.0}, "label": "Cl", "xyz": [1.0708298510526386, 3.505514821240554, 15.805088636907996]}, {"species": [{"element": "Cl", "occu": 1}], "abc": [0.25238494, 0.35318967, 0.49002515], "properties": {"magmom": 0.0}, "label": "Cl", "xyz": [1.0914575539473612, 3.452896606240554, 7.813040026907997]}, {"species": [{"element": "Cl", "occu": 1}], "abc": [0.75238494, 0.64681033, 0.00997485], "properties": {"magmom": 0.0}, "label": "Cl", "xyz": [3.2537449589473613, 6.230037548759445, 0.12360036309200441]}, {"species": [{"element": "Cl", "occu": 1}], "abc": [0.25127528, 0.57897118, 0.17743202], "properties": {"magmom": 0.0}, "label": "Cl", "xyz": [1.0866587462636967, 5.594347695907097, 2.804010895105885]}, {"species": [{"element": "Cl", "occu": 1}], "abc": [0.75127528, 0.42102882, 0.32256798000000003], "properties": {"magmom": 0.0}, "label": "Cl", "xyz": [3.2489461512636963, 4.088586459092903, 5.1326294948941165]}, {"species": [{"element": "Cl", "occu": 1}], "abc": [0.74872472, 0.42102882, 0.82256798], "properties": {"magmom": 0.0}, "label": "Cl", "xyz": [3.237916063736303, 4.1412046740929025, 13.124678104894114]}, {"species": [{"element": "Cl", "occu": 1}], "abc": [0.24872472, 0.57897118, 0.67743202], "properties": {"magmom": 0.0}, "label": "Cl", "xyz": [1.075628658736303, 5.646965910907097, 10.796059505105886]}, {"species": [{"element": "Cl", "occu": 1}], "abc": [0.74943369, 0.07886048, 0.07246094], "properties": {"magmom": -0.0}, "label": "Cl", "xyz": [3.2409820575393486, 0.7670768682200954, 1.1538531907874412]}, {"species": [{"element": "Cl", "occu": 1}], "abc": [0.24943369, 0.92113952, 0.42753906], "properties": {"magmom": -0.0}, "label": "Cl", "xyz": [1.0786946525393488, 8.915857286779904, 6.782787199212559]}, {"species": [{"element": "Cl", "occu": 1}], "abc": [0.25056631, 0.92113952, 0.92753906], "properties": {"magmom": -0.0}, "label": "Cl", "xyz": [1.083592752460651, 8.968475501779903, 14.774835809212558]}, {"species": [{"element": "Cl", "occu": 1}], "abc": [0.7505663100000001, 0.07886048, 0.57246094], "properties": {"magmom": -0.0}, "label": "Cl", "xyz": [3.2458801574606513, 0.8196950832200953, 9.145901800787442]}]}, "task_ids": null, "uncorrected_energy_per_atom": null, "energy_per_atom": -13.405392999999998, "formation_energy_per_atom": -1.055039141666666, "energy_above_hull": 0.0, "is_stable": true, "equilibrium_reaction_energy_per_atom": null, "decomposes_to": null, "xas": null, "grain_boundaries": null, "band_gap": 3.1002, "cbm": null, "vbm": null, "efermi": 1.7283701100000002, "is_gap_direct": null, "is_metal": null, "es_source_calc_id": null, "bandstructure": null, "dos": null, "dos_energy_up": null, "dos_energy_down": null, "is_magnetic": null, "ordering": null, "total_magnetization": 1e-07, "total_magnetization_normalized_vol": null, "total_magnetization_normalized_formula_units": null, "num_magnetic_sites": null, "num_unique_magnetic_sites": null, "types_of_magnetic_species": null, "bulk_modulus": null, "shear_modulus": null, "universal_anisotropy": null, "homogeneous_poisson": null, "e_total": null, "e_ionic": null, "e_electronic": null, "n": null, "e_ij_max": null, "weighted_surface_energy_EV_PER_ANG2": null, "weighted_surface_energy": null, "weighted_work_function": null, "surface_anisotropy": null, "shape_factor": null, "has_reconstructed": null, "possible_species": null, "has_props": null, "theoretical": null, "database_IDs": null, "fields_not_requested": ["builder_meta", "nsites", "elements", "nelements", "composition", "composition_reduced", "chemsys", "symmetry", "property_name", "deprecated", "deprecation_reasons", "last_updated", "origins", "warnings", "task_ids", "uncorrected_energy_per_atom", "equilibrium_reaction_energy_per_atom", "decomposes_to", "xas", "grain_boundaries", "cbm", "vbm", "is_gap_direct", "is_metal", "es_source_calc_id", "bandstructure", "dos", "dos_energy_up", "dos_energy_down", "is_magnetic", "ordering", "total_magnetization_normalized_vol", "total_magnetization_normalized_formula_units", "num_magnetic_sites", "num_unique_magnetic_sites", "types_of_magnetic_species", "bulk_modulus", "shear_modulus", "universal_anisotropy", "homogeneous_poisson", "e_total", "e_ionic", "e_electronic", "n", "e_ij_max", "weighted_surface_energy_EV_PER_ANG2", "weighted_surface_energy", "weighted_work_function", "surface_anisotropy", "shape_factor", "has_reconstructed", "possible_species", "has_props", "theoretical", "database_IDs"]}