{"builder_meta": null, "nsites": null, "elements": null, "nelements": null, "composition": null, "composition_reduced": null, "formula_pretty": "SnCl", "formula_anonymous": "AB", "chemsys": null, "volume": 106.59841250123925, "density": 4.8029549055672796, "density_atomic": 26.649603125309813, "symmetry": null, "property_name": null, "material_id": "mp-978928", "deprecated": null, "deprecation_reasons": null, "last_updated": null, "origins": null, "warnings": null, "structure": {"@module": "pymatgen.core.structure", "@class": "Structure", "charge": 0, "lattice": {"matrix": [[1.748773, -3.028963, 0.0], [1.748773, 3.028963, 0.0], [0.0, 0.0, 10.062209]], "pbc": [true, true, true], "a": 3.497545405123142, "b": 3.497545405123142, "c": 10.062209, "alpha": 90.0, "beta": 90.0, "gamma": 119.99998874732627, "volume": 106.59841250123925}, "properties": {}, "sites": [{"species": [{"element": "Sn", "occu": 1}], "abc": [0.666667, 0.333333, 0.8205100000000001], "properties": {"magmom": -0.0}, "label": "Sn", "xyz": [1.748773, -1.009656352642, 8.25614310659]}, {"species": [{"element": "Sn", "occu": 1}], "abc": [0.333333, 0.666667, 0.32051], "properties": {"magmom": -0.0}, "label": "Sn", "xyz": [1.748773, 1.009656352642, 3.22503860659]}, {"species": [{"element": "Cl", "occu": 1}], "abc": [0.666667, 0.333333, 0.554491], "properties": {"magmom": 0.0}, "label": "Cl", "xyz": [1.748773, -1.009656352642, 5.579404330618999]}, {"species": [{"element": "Cl", "occu": 1}], "abc": [0.333333, 0.666667, 0.054491], "properties": {"magmom": 0.0}, "label": "Cl", "xyz": [1.748773, 1.009656352642, 0.5482998306189999]}]}, "task_ids": null, "uncorrected_energy_per_atom": null, "energy_per_atom": -15.999739053125, "formation_energy_per_atom": -0.550427714374999, "energy_above_hull": 0.24085164187499802, "is_stable": false, "equilibrium_reaction_energy_per_atom": null, "decomposes_to": null, "xas": null, "grain_boundaries": null, "band_gap": 0.0, "cbm": null, "vbm": null, "efermi": 4.78395688, "is_gap_direct": null, "is_metal": null, "es_source_calc_id": null, "bandstructure": null, "dos": null, "dos_energy_up": null, "dos_energy_down": null, "is_magnetic": null, "ordering": null, "total_magnetization": 3.0600000000000005e-05, "total_magnetization_normalized_vol": null, "total_magnetization_normalized_formula_units": null, "num_magnetic_sites": null, "num_unique_magnetic_sites": null, "types_of_magnetic_species": null, "bulk_modulus": null, "shear_modulus": null, "universal_anisotropy": null, "homogeneous_poisson": null, "e_total": null, "e_ionic": null, "e_electronic": null, "n": null, "e_ij_max": null, "weighted_surface_energy_EV_PER_ANG2": null, "weighted_surface_energy": null, "weighted_work_function": null, "surface_anisotropy": null, "shape_factor": null, "has_reconstructed": null, "possible_species": null, "has_props": null, "theoretical": null, "database_IDs": null, "fields_not_requested": ["builder_meta", "nsites", "elements", "nelements", "composition", "composition_reduced", "chemsys", "symmetry", "property_name", "deprecated", "deprecation_reasons", "last_updated", "origins", "warnings", "task_ids", "uncorrected_energy_per_atom", "equilibrium_reaction_energy_per_atom", "decomposes_to", "xas", "grain_boundaries", "cbm", "vbm", "is_gap_direct", "is_metal", "es_source_calc_id", "bandstructure", "dos", "dos_energy_up", "dos_energy_down", "is_magnetic", "ordering", "total_magnetization_normalized_vol", "total_magnetization_normalized_formula_units", "num_magnetic_sites", "num_unique_magnetic_sites", "types_of_magnetic_species", "bulk_modulus", "shear_modulus", "universal_anisotropy", "homogeneous_poisson", "e_total", "e_ionic", "e_electronic", "n", "e_ij_max", "weighted_surface_energy_EV_PER_ANG2", "weighted_surface_energy", "weighted_work_function", "surface_anisotropy", "shape_factor", "has_reconstructed", "possible_species", "has_props", "theoretical", "database_IDs"]}