{"builder_meta": null, "nsites": null, "elements": null, "nelements": null, "composition": null, "composition_reduced": null, "formula_pretty": "SnCl4", "formula_anonymous": "AB4", "chemsys": null, "volume": 665.0850172443597, "density": 2.601814489829774, "density_atomic": 33.25425086221799, "symmetry": null, "property_name": null, "material_id": "mp-29866", "deprecated": null, "deprecation_reasons": null, "last_updated": null, "origins": null, "warnings": null, "structure": {"@module": "pymatgen.core.structure", "@class": "Structure", "charge": 0, "lattice": {"matrix": [[6.78739399, 0.0, 0.0], [0.0, 9.7122418, -2.24218181], [0.0, 0.00155444, 10.08879206]], "pbc": [true, true, true], "a": 6.78739399, "b": 9.967698834272738, "c": 10.088792179750891, "alpha": 102.9908030832186, "beta": 90.0, "gamma": 90.0, "volume": 665.0850172443597}, "properties": {}, "sites": [{"species": [{"element": "Sn", "occu": 1}], "abc": [0.07591388, 0.75190925, 0.12885938], "properties": {"magmom": 0.0}, "label": "Sn", "xyz": [0.5152574128695813, 7.302924751831296, -0.3858817533202197]}, {"species": [{"element": "Sn", "occu": 1}], "abc": [0.57591388, 0.24808975, 0.37114062000000003], "properties": {"magmom": 0.0}, "label": "Sn", "xyz": [3.9089544078695813, 2.4100845559269026, 3.18809821550203]}, {"species": [{"element": "Sn", "occu": 1}], "abc": [0.92408612, 0.24808975, 0.87114062], "properties": {"magmom": 0.0}, "label": "Sn", "xyz": [6.272136577130419, 2.4108617759269024, 8.232494245502028]}, {"species": [{"element": "Sn", "occu": 1}], "abc": [0.42408612, 0.75190925, 0.62885938], "properties": {"magmom": 0.0}, "label": "Sn", "xyz": [2.8784395821304187, 7.3037019718312965, 4.65851427667978]}, {"species": [{"element": "Cl", "occu": 1}], "abc": [0.9162498, 0.8085498, 0.94832572], "properties": {"magmom": -0.0}, "label": "Cl", "xyz": [6.218948385858702, 7.854305280373836, 7.754545340190646]}, {"species": [{"element": "Cl", "occu": 1}], "abc": [0.4162498, 0.1914502, 0.55167428], "properties": {"magmom": -0.0}, "label": "Cl", "xyz": [2.825251390858702, 1.8602681796261629, 5.136460939809354]}, {"species": [{"element": "Cl", "occu": 1}], "abc": [0.0837502, 0.1914502, 0.05167428], "properties": {"magmom": -0.0}, "label": "Cl", "xyz": [0.568445604141298, 1.8594909596261628, 0.09206490980935483]}, {"species": [{"element": "Cl", "occu": 1}], "abc": [0.5837502, 0.8085498, 0.44832572], "properties": {"magmom": -0.0}, "label": "Cl", "xyz": [3.962142599141298, 7.8535280603738356, 2.710149310190645]}, {"species": [{"element": "Cl", "occu": 1}], "abc": [0.42719493000000003, 0.93787356, 0.8112046900000001], "properties": {"magmom": -0.0}, "label": "Cl", "xyz": [2.8995403004404707, 9.110115761565131, 6.081192399194817]}, {"species": [{"element": "Cl", "occu": 1}], "abc": [0.92719493, 0.06212644, 0.68879531], "properties": {"magmom": -0.0}, "label": "Cl", "xyz": [6.293237295440471, 0.6044576984348684, 6.809813880805183]}, {"species": [{"element": "Cl", "occu": 1}], "abc": [0.57280507, 0.06212644, 0.18879531], "properties": {"magmom": -0.0}, "label": "Cl", "xyz": [3.8878536895595293, 0.6036804784348684, 1.765417850805182]}, {"species": [{"element": "Cl", "occu": 1}], "abc": [0.07280507, 0.93787356, 0.31120469], "properties": {"magmom": -0.0}, "label": "Cl", "xyz": [0.4941566945595293, 9.109338541565132, 1.0367963691948177]}, {"species": [{"element": "Cl", "occu": 1}], "abc": [0.10482702, 0.68939978, 0.56954132], "properties": {"magmom": 0.0}, "label": "Cl", "xyz": [0.7115022855376099, 6.696502678036264, 4.200224300523917]}, {"species": [{"element": "Cl", "occu": 1}], "abc": [0.60482702, 0.31060022, 0.93045868], "properties": {"magmom": 0.0}, "label": "Cl", "xyz": [4.10519928053761, 3.0180707819637345, 8.690781979476082]}, {"species": [{"element": "Cl", "occu": 1}], "abc": [0.89517298, 0.31060022, 0.43045868], "properties": {"magmom": 0.0}, "label": "Cl", "xyz": [6.07589170446239, 3.0172935619637347, 3.646385949476082]}, {"species": [{"element": "Cl", "occu": 1}], "abc": [0.39517298, 0.68939978, 0.06954132], "properties": {"magmom": 0.0}, "label": "Cl", "xyz": [2.68219470946239, 6.695725458036264, -0.8441717294760825]}, {"species": [{"element": "Cl", "occu": 1}], "abc": [0.58439081, 0.57110439, 0.68909001], "properties": {"magmom": 0.0}, "label": "Cl", "xyz": [3.966490671605232, 5.547775077796646, 5.671565946644175]}, {"species": [{"element": "Cl", "occu": 1}], "abc": [0.08439081, 0.42889561, 0.81090999], "properties": {"magmom": 0.0}, "label": "Cl", "xyz": [0.5727936766052318, 4.166798382203353, 7.219440333355825]}, {"species": [{"element": "Cl", "occu": 1}], "abc": [0.41560919, 0.42889561, 0.31090999], "properties": {"magmom": 0.0}, "label": "Cl", "xyz": [2.8209033183947683, 4.166021162203354, 2.1750443033558255]}, {"species": [{"element": "Cl", "occu": 1}], "abc": [0.9156091900000001, 0.57110439, 0.18909001], "properties": {"magmom": 0.0}, "label": "Cl", "xyz": [6.214600313394769, 5.5469978577966454, 0.6271699166441744]}]}, "task_ids": null, "uncorrected_energy_per_atom": null, "energy_per_atom": -10.896494337, "formation_energy_per_atom": -1.025306462999999, "energy_above_hull": 0.0, "is_stable": true, "equilibrium_reaction_energy_per_atom": null, "decomposes_to": null, "xas": null, "grain_boundaries": null, "band_gap": 3.565, "cbm": null, "vbm": null, "efermi": -2.71932602, "is_gap_direct": null, "is_metal": null, "es_source_calc_id": null, "bandstructure": null, "dos": null, "dos_energy_up": null, "dos_energy_down": null, "is_magnetic": null, "ordering": null, "total_magnetization": 0.0, "total_magnetization_normalized_vol": null, "total_magnetization_normalized_formula_units": null, "num_magnetic_sites": null, "num_unique_magnetic_sites": null, "types_of_magnetic_species": null, "bulk_modulus": null, "shear_modulus": null, "universal_anisotropy": null, "homogeneous_poisson": null, "e_total": null, "e_ionic": null, "e_electronic": null, "n": null, "e_ij_max": null, "weighted_surface_energy_EV_PER_ANG2": null, "weighted_surface_energy": null, "weighted_work_function": null, "surface_anisotropy": null, "shape_factor": null, "has_reconstructed": null, "possible_species": null, "has_props": null, "theoretical": null, "database_IDs": null, "fields_not_requested": ["builder_meta", "nsites", "elements", "nelements", "composition", "composition_reduced", "chemsys", "symmetry", "property_name", "deprecated", "deprecation_reasons", "last_updated", "origins", "warnings", "task_ids", "uncorrected_energy_per_atom", "equilibrium_reaction_energy_per_atom", "decomposes_to", "xas", "grain_boundaries", "cbm", "vbm", "is_gap_direct", "is_metal", "es_source_calc_id", "bandstructure", "dos", "dos_energy_up", "dos_energy_down", "is_magnetic", "ordering", "total_magnetization_normalized_vol", "total_magnetization_normalized_formula_units", "num_magnetic_sites", "num_unique_magnetic_sites", "types_of_magnetic_species", "bulk_modulus", "shear_modulus", "universal_anisotropy", "homogeneous_poisson", "e_total", "e_ionic", "e_electronic", "n", "e_ij_max", "weighted_surface_energy_EV_PER_ANG2", "weighted_surface_energy", "weighted_work_function", "surface_anisotropy", "shape_factor", "has_reconstructed", "possible_species", "has_props", "theoretical", "database_IDs"]}