{
  "builder_meta": null,
  "nsites": null,
  "elements": null,
  "nelements": null,
  "composition": null,
  "composition_reduced": null,
  "formula_pretty": "SnF2",
  "formula_anonymous": "AB2",
  "chemsys": null,
  "volume": 414.65930878890373,
  "density": 5.020367680433202,
  "density_atomic": 17.277471199537654,
  "symmetry": null,
  "property_name": null,
  "material_id": "mp-2843",
  "deprecated": null,
  "deprecation_reasons": null,
  "last_updated": null,
  "origins": null,
  "warnings": null,
  "structure": {
    "@module": "pymatgen.core.structure",
    "@class": "Structure",
    "charge": 0,
    "lattice": {
      "matrix": [
        [4.7945211400000005, 0.0, 0.89110431],
        [2.20199033, 6.45583528, 1.49619063],
        [-0.00784061, -0.054024960000000004, 13.38602068]
      ],
      "pbc": [true, true, true],
      "a": 4.8766279182656005,
      "b": 6.98320535121272,
      "c": 13.38613199609416,
      "alpha": 77.85783991416886,
      "beta": 79.50485404965511,
      "gamma": 69.56354465306744,
      "volume": 414.6593087889038
    },
    "properties": {},
    "sites": [
      {
        "species": [{ "element": "Sn", "occu": 1 }],
        "abc": [0.35386493, 0.54593189, 0.6857704],
        "properties": { "magmom": -0.0 },
        "label": "Sn",
        "xyz": [2.8933727719523, 3.4873976375098947, 10.31188549884891]
      },
      {
        "species": [{ "element": "Sn", "occu": 1 }],
        "abc": [0.58556722, 0.95406811, 0.8142296],
        "properties": { "magmom": -0.0 },
        "label": "Sn",
        "xyz": [4.901979110818352, 6.1153178424901045, 12.848563503968656]
      },
      {
        "species": [{ "element": "Sn", "occu": 1 }],
        "abc": [0.64613507, 0.45406811, 0.3142296],
        "properties": { "magmom": -0.0 },
        "label": "Sn",
        "xyz": [4.095298088047701, 2.914412682490105, 5.461430121151089]
      },
      {
        "species": [{ "element": "Sn", "occu": 1 }],
        "abc": [0.41443278, 0.04593189, 0.1857704],
        "properties": { "magmom": -0.0 },
        "label": "Sn",
        "xyz": [2.0866917491816492, 0.2864924775098952, 2.9247521160313448]
      },
      {
        "species": [{ "element": "Sn", "occu": 1 }],
        "abc": [0.12602447, 0.18534262, 0.55768124],
        "properties": { "magmom": 0.0 },
        "label": "Sn",
        "xyz": [1.0079770814420042, 1.1664127183998834, 7.854741451254159]
      },
      {
        "species": [{ "element": "Sn", "occu": 1 }],
        "abc": [0.8690493300000001, 0.31465738, 0.94231876],
        "properties": { "magmom": 0.0 },
        "label": "Sn",
        "xyz": [4.852159538518128, 1.9804674816001167, 13.859099435693919]
      },
      {
        "species": [{ "element": "Sn", "occu": 1 }],
        "abc": [0.8739755300000001, 0.81465738, 0.44231876000000003],
        "properties": { "magmom": 0.0 },
        "label": "Sn",
        "xyz": [5.980693778557997, 5.235397601600116, 7.91857416874584]
      },
      {
        "species": [{ "element": "Sn", "occu": 1 }],
        "abc": [0.13095067, 0.68534262, 0.05768124],
        "properties": { "magmom": 0.0 },
        "label": "Sn",
        "xyz": [2.136511321481872, 4.421342838399883, 1.9142161843060816]
      },
      {
        "species": [{ "element": "F", "occu": 1 }],
        "abc": [0.86051696, 0.01887199, 0.91716628],
        "properties": { "magmom": -0.0 },
        "label": "F",
        "xyz": [4.16013155242976, 0.0722845872554584, 13.072253257570221]
      },
      {
        "species": [{ "element": "F", "occu": 1 }],
        "abc": [0.79655623, 0.48112801, 0.58283372],
        "properties": { "magmom": -0.0 },
        "label": "F",
        "xyz": [4.873975137552478, 3.0745956127445413, 9.231498139024227]
      },
      {
        "species": [{ "element": "F", "occu": 1 }],
        "abc": [0.13948304, 0.98112801, 0.08283372],
        "properties": { "magmom": -0.0 },
        "label": "F",
        "xyz": [2.8285393075702396, 6.329525732744542, 2.7010623624297785]
      },
      {
        "species": [{ "element": "F", "occu": 1 }],
        "abc": [0.20344377, 0.5188719900000001, 0.41716628],
        "properties": { "magmom": -0.0 },
        "label": "F",
        "xyz": [2.114695722447524, 3.3272147072554588, 6.541817480975772]
      },
      {
        "species": [{ "element": "F", "occu": 1 }],
        "abc": [0.16424591, 0.8113153, 0.54214503],
        "properties": { "magmom": -0.0 },
        "label": "F",
        "xyz": [2.5697381850909182, 5.208428573383835, 8.617407171275731]
      },
      {
        "species": [{ "element": "F", "occu": 1 }],
        "abc": [0.51770524, 0.688684699999999, 0.95785497],
        "properties": { "magmom": -0.0 },
        "label": "F",
        "xyz": [3.991115600031391, 4.394286906616158, 14.313599402698722]
      },
      {
        "species": [{ "element": "F", "occu": 1 }],
        "abc": [0.83575409, 0.188684699999999, 0.45785497000000003],
        "properties": { "magmom": -0.0 },
        "label": "F",
        "xyz": [4.41893267490908, 1.1933817466161583, 7.155908448724267]
      },
      {
        "species": [{ "element": "F", "occu": 1 }],
        "abc": [0.48229476, 0.311315299999999, 0.04214503],
        "properties": { "magmom": -0.0 },
        "label": "F",
        "xyz": [2.997555259968605, 2.0075234133838284, 1.4597162173012734]
      },
      {
        "species": [{ "element": "F", "occu": 1 }],
        "abc": [0.5092234800000001, 0.20844496, 0.30613445],
        "properties": { "magmom": 0.0 },
        "label": "F",
        "xyz": [2.89807624527159, 1.3291474252903166, 4.86356671236435]
      },
      {
        "species": [{ "element": "F", "occu": 1 }],
        "abc": [0.02380289, 0.29155504, 0.19386555],
        "properties": { "magmom": 0.0 },
        "label": "F",
        "xyz": [0.7546048138708723, 1.8717577347096832, 3.0525210382863053]
      },
      {
        "species": [{ "element": "F", "occu": 1 }],
        "abc": [0.49077652, 0.79155504, 0.69386555],
        "properties": { "magmom": 0.0 },
        "label": "F",
        "xyz": [4.090594614728411, 5.072662894709683, 10.909748907635652]
      },
      {
        "species": [{ "element": "F", "occu": 1 }],
        "abc": [0.97619711, 0.70844496, 0.8061344500000001],
        "properties": { "magmom": 0.0 },
        "label": "F",
        "xyz": [6.234066046129128, 4.530052585290316, 12.720794581713696]
      },
      {
        "species": [{ "element": "F", "occu": 1 }],
        "abc": [0.39763142, 0.5901423100000001, 0.17969031],
        "properties": { "magmom": -0.0 },
        "label": "F",
        "xyz": [3.2045310274205923, 3.8001537833085592, 3.642634672397586]
      },
      {
        "species": [{ "element": "F", "occu": 1 }],
        "abc": [0.16746404, 0.90985769, 0.32030969],
        "properties": { "magmom": -0.0 },
        "label": "F",
        "xyz": [2.8038962916674324, 5.856586656691441, 5.798220612569846]
      },
      {
        "species": [{ "element": "F", "occu": 1 }],
        "abc": [0.60236858, 0.40985769, 0.82030969],
        "properties": { "magmom": -0.0 },
        "label": "F",
        "xyz": [3.7841398325794087, 2.601656536691441, 12.130680947602414]
      },
      {
        "species": [{ "element": "F", "occu": 1 }],
        "abc": [0.83253596, 0.09014231, 0.67969031],
        "properties": { "magmom": -0.0 },
        "label": "F",
        "xyz": [4.184774568332568, 0.5452236633085592, 9.975095007430154]
      }
    ]
  },
  "task_ids": null,
  "uncorrected_energy_per_atom": null,
  "energy_per_atom": -12.708703255416667,
  "formation_energy_per_atom": -2.375956695416668,
  "energy_above_hull": 0.0,
  "is_stable": true,
  "equilibrium_reaction_energy_per_atom": null,
  "decomposes_to": null,
  "xas": null,
  "grain_boundaries": null,
  "band_gap": 3.2704,
  "cbm": null,
  "vbm": null,
  "efermi": 1.835394899999999,
  "is_gap_direct": null,
  "is_metal": null,
  "es_source_calc_id": null,
  "bandstructure": null,
  "dos": null,
  "dos_energy_up": null,
  "dos_energy_down": null,
  "is_magnetic": null,
  "ordering": null,
  "total_magnetization": 0.0,
  "total_magnetization_normalized_vol": null,
  "total_magnetization_normalized_formula_units": null,
  "num_magnetic_sites": null,
  "num_unique_magnetic_sites": null,
  "types_of_magnetic_species": null,
  "bulk_modulus": null,
  "shear_modulus": null,
  "universal_anisotropy": null,
  "homogeneous_poisson": null,
  "e_total": null,
  "e_ionic": null,
  "e_electronic": null,
  "n": null,
  "e_ij_max": null,
  "weighted_surface_energy_EV_PER_ANG2": null,
  "weighted_surface_energy": null,
  "weighted_work_function": null,
  "surface_anisotropy": null,
  "shape_factor": null,
  "has_reconstructed": null,
  "possible_species": null,
  "has_props": null,
  "theoretical": null,
  "database_IDs": null,
  "fields_not_requested": [
    "builder_meta",
    "nsites",
    "elements",
    "nelements",
    "composition",
    "composition_reduced",
    "chemsys",
    "symmetry",
    "property_name",
    "deprecated",
    "deprecation_reasons",
    "last_updated",
    "origins",
    "warnings",
    "task_ids",
    "uncorrected_energy_per_atom",
    "equilibrium_reaction_energy_per_atom",
    "decomposes_to",
    "xas",
    "grain_boundaries",
    "cbm",
    "vbm",
    "is_gap_direct",
    "is_metal",
    "es_source_calc_id",
    "bandstructure",
    "dos",
    "dos_energy_up",
    "dos_energy_down",
    "is_magnetic",
    "ordering",
    "total_magnetization_normalized_vol",
    "total_magnetization_normalized_formula_units",
    "num_magnetic_sites",
    "num_unique_magnetic_sites",
    "types_of_magnetic_species",
    "bulk_modulus",
    "shear_modulus",
    "universal_anisotropy",
    "homogeneous_poisson",
    "e_total",
    "e_ionic",
    "e_electronic",
    "n",
    "e_ij_max",
    "weighted_surface_energy_EV_PER_ANG2",
    "weighted_surface_energy",
    "weighted_work_function",
    "surface_anisotropy",
    "shape_factor",
    "has_reconstructed",
    "possible_species",
    "has_props",
    "theoretical",
    "database_IDs"
  ]
}
