{"builder_meta": null, "nsites": null, "elements": null, "nelements": null, "composition": null, "composition_reduced": null, "formula_pretty": "SnF3", "formula_anonymous": "AB3", "chemsys": null, "volume": 164.50951126229825, "density": 3.547094177196149, "density_atomic": 20.56368890778728, "symmetry": null, "property_name": null, "material_id": "mp-8289", "deprecated": null, "deprecation_reasons": null, "last_updated": null, "origins": null, "warnings": null, "structure": {"@module": "pymatgen.core.structure", "@class": "Structure", "charge": 0, "lattice": {"matrix": [[5.32638614, 0.0, 3.07519115], [1.77546205, 5.02176428, 3.07519115], [0.0, 0.0, 6.1503813]], "pbc": [true, true, true], "a": 6.150381282605366, "b": 6.150380686096792, "c": 6.1503813, "alpha": 59.99999131964451, "beta": 59.99999452795802, "gamma": 59.99999311260578, "volume": 164.50951126229825}, "properties": {}, "sites": [{"species": [{"element": "Sn", "occu": 1}], "abc": [0.5, 0.5, 0.5], "properties": {"magmom": -0.0}, "label": "Sn", "xyz": [3.550924095, 2.51088214, 6.1503818]}, {"species": [{"element": "Sn", "occu": 1}], "abc": [-0.0, 0.0, -0.0], "properties": {"magmom": -0.0}, "label": "Sn", "xyz": [0.0, 0.0, 0.0]}, {"species": [{"element": "F", "occu": 1}], "abc": [0.27180945, 0.72819055, 0.72819055], "properties": {"magmom": 0.0}, "label": "F", "xyz": [2.740636773894651, 3.656801293023554, 7.553840691556715]}, {"species": [{"element": "F", "occu": 1}], "abc": [0.27180945, 0.72819055, 0.27180945], "properties": {"magmom": 0.0}, "label": "F", "xyz": [2.740636773894651, 3.656801293023554, 4.746922908443286]}, {"species": [{"element": "F", "occu": 1}], "abc": [0.72819055, 0.27180945, 0.27180945], "properties": {"magmom": 0.0}, "label": "F", "xyz": [4.361211416105349, 1.3649629869764461, 4.746922908443286]}, {"species": [{"element": "F", "occu": 1}], "abc": [0.72819055, 0.72819055, 0.27180945], "properties": {"magmom": 0.0}, "label": "F", "xyz": [5.171498739492605, 3.656801293023554, 6.150382028190551]}, {"species": [{"element": "F", "occu": 1}], "abc": [0.27180945, 0.27180945, 0.72819055], "properties": {"magmom": 0.0}, "label": "F", "xyz": [1.9303494505073955, 1.3649629869764461, 6.15038157180945]}, {"species": [{"element": "F", "occu": 1}], "abc": [0.72819055, 0.27180945, 0.72819055], "properties": {"magmom": 0.0}, "label": "F", "xyz": [4.361211416105349, 1.3649629869764461, 7.553840691556715]}]}, "task_ids": null, "uncorrected_energy_per_atom": null, "energy_per_atom": -11.06485242, "formation_energy_per_atom": -2.533785512499999, "energy_above_hull": 0.0146278146875, "is_stable": false, "equilibrium_reaction_energy_per_atom": null, "decomposes_to": null, "xas": null, "grain_boundaries": null, "band_gap": 2.7195, "cbm": null, "vbm": null, "efermi": -0.86362823, "is_gap_direct": null, "is_metal": null, "es_source_calc_id": null, "bandstructure": null, "dos": null, "dos_energy_up": null, "dos_energy_down": null, "is_magnetic": null, "ordering": null, "total_magnetization": 0.0, "total_magnetization_normalized_vol": null, "total_magnetization_normalized_formula_units": null, "num_magnetic_sites": null, "num_unique_magnetic_sites": null, "types_of_magnetic_species": null, "bulk_modulus": null, "shear_modulus": null, "universal_anisotropy": null, "homogeneous_poisson": null, "e_total": null, "e_ionic": null, "e_electronic": null, "n": null, "e_ij_max": null, "weighted_surface_energy_EV_PER_ANG2": null, "weighted_surface_energy": null, "weighted_work_function": null, "surface_anisotropy": null, "shape_factor": null, "has_reconstructed": null, "possible_species": null, "has_props": null, "theoretical": null, "database_IDs": null, "fields_not_requested": ["builder_meta", "nsites", "elements", "nelements", "composition", "composition_reduced", "chemsys", "symmetry", "property_name", "deprecated", "deprecation_reasons", "last_updated", "origins", "warnings", "task_ids", "uncorrected_energy_per_atom", "equilibrium_reaction_energy_per_atom", "decomposes_to", "xas", "grain_boundaries", "cbm", "vbm", "is_gap_direct", "is_metal", "es_source_calc_id", "bandstructure", "dos", "dos_energy_up", "dos_energy_down", "is_magnetic", "ordering", "total_magnetization_normalized_vol", "total_magnetization_normalized_formula_units", "num_magnetic_sites", "num_unique_magnetic_sites", "types_of_magnetic_species", "bulk_modulus", "shear_modulus", "universal_anisotropy", "homogeneous_poisson", "e_total", "e_ionic", "e_electronic", "n", "e_ij_max", "weighted_surface_energy_EV_PER_ANG2", "weighted_surface_energy", "weighted_work_function", "surface_anisotropy", "shape_factor", "has_reconstructed", "possible_species", "has_props", "theoretical", "database_IDs"]}