{"builder_meta": null, "nsites": null, "elements": null, "nelements": null, "composition": null, "composition_reduced": null, "formula_pretty": "SnF4", "formula_anonymous": "AB4", "chemsys": null, "volume": 64.61203996332524, "density": 5.00391189700986, "density_atomic": 12.922407992665049, "symmetry": null, "property_name": null, "material_id": "mp-2706", "deprecated": null, "deprecation_reasons": null, "last_updated": null, "origins": null, "warnings": null, "structure": {"@module": "pymatgen.core.structure", "@class": "Structure", "charge": 0, "lattice": {"matrix": [[3.71285689, -0.0, -1.68740166], [-0.7677457, 3.631732109999999, -1.68930157], [-0.04114507, -0.04903813, 4.83794095]], "pbc": [true, true, true], "a": 4.078312230297139, "b": 4.07831477121102, "c": 4.838364423094451, "alpha": 114.93589048882981, "beta": 114.92652419437042, "gamma": 89.99999875489918, "volume": 64.61203996332523}, "properties": {}, "sites": [{"species": [{"element": "Sn", "occu": 1}], "abc": [0.0, -0.0, -0.0], "properties": {"magmom": -0.0}, "label": "Sn", "xyz": [0.0, 0.0, 0.0]}, {"species": [{"element": "F", "occu": 1}], "abc": [0.7556094, 0.75521195, 0.51121779], "properties": {"magmom": -0.0}, "label": "F", "xyz": [2.2046247479828556, 2.717658324226381, -0.07755580807986506]}, {"species": [{"element": "F", "occu": 1}], "abc": [0.0, 0.5, -0.0], "properties": {"magmom": -0.0}, "label": "F", "xyz": [-0.38387285, 1.8158660549999994, -0.844650785]}, {"species": [{"element": "F", "occu": 1}], "abc": [0.5, -0.0, -0.0], "properties": {"magmom": 0.0}, "label": "F", "xyz": [1.856428445, 0.0, -0.84370083]}, {"species": [{"element": "F", "occu": 1}], "abc": [0.24439059999999901, 0.24478805, 0.48878221], "properties": {"magmom": -0.0}, "label": "F", "xyz": [0.6993413720171406, 0.865035655773618, 1.5387935280798668]}]}, "task_ids": null, "uncorrected_energy_per_atom": null, "energy_per_atom": -10.02153874, "formation_energy_per_atom": -2.5714796239999993, "energy_above_hull": 0.0, "is_stable": true, "equilibrium_reaction_energy_per_atom": null, "decomposes_to": null, "xas": null, "grain_boundaries": null, "band_gap": 3.114999999999999, "cbm": null, "vbm": null, "efermi": -0.7618680800000001, "is_gap_direct": null, "is_metal": null, "es_source_calc_id": null, "bandstructure": null, "dos": null, "dos_energy_up": null, "dos_energy_down": null, "is_magnetic": null, "ordering": null, "total_magnetization": 0.0, "total_magnetization_normalized_vol": null, "total_magnetization_normalized_formula_units": null, "num_magnetic_sites": null, "num_unique_magnetic_sites": null, "types_of_magnetic_species": null, "bulk_modulus": null, "shear_modulus": null, "universal_anisotropy": null, "homogeneous_poisson": null, "e_total": null, "e_ionic": null, "e_electronic": null, "n": null, "e_ij_max": null, "weighted_surface_energy_EV_PER_ANG2": null, "weighted_surface_energy": null, "weighted_work_function": null, "surface_anisotropy": null, "shape_factor": null, "has_reconstructed": null, "possible_species": null, "has_props": null, "theoretical": null, "database_IDs": null, "fields_not_requested": ["builder_meta", "nsites", "elements", "nelements", "composition", "composition_reduced", "chemsys", "symmetry", "property_name", "deprecated", "deprecation_reasons", "last_updated", "origins", "warnings", "task_ids", "uncorrected_energy_per_atom", "equilibrium_reaction_energy_per_atom", "decomposes_to", "xas", "grain_boundaries", "cbm", "vbm", "is_gap_direct", "is_metal", "es_source_calc_id", "bandstructure", "dos", "dos_energy_up", "dos_energy_down", "is_magnetic", "ordering", "total_magnetization_normalized_vol", "total_magnetization_normalized_formula_units", "num_magnetic_sites", "num_unique_magnetic_sites", "types_of_magnetic_species", "bulk_modulus", "shear_modulus", "universal_anisotropy", "homogeneous_poisson", "e_total", "e_ionic", "e_electronic", "n", "e_ij_max", "weighted_surface_energy_EV_PER_ANG2", "weighted_surface_energy", "weighted_work_function", "surface_anisotropy", "shape_factor", "has_reconstructed", "possible_species", "has_props", "theoretical", "database_IDs"]}