{"builder_meta": null, "nsites": null, "elements": null, "nelements": null, "composition": null, "composition_reduced": null, "formula_pretty": "SnGe", "formula_anonymous": "AB", "chemsys": null, "volume": 207.54824464034792, "density": 1.5309411599433962, "density_atomic": 103.77412232017396, "symmetry": null, "property_name": null, "material_id": "mp-995181", "deprecated": null, "deprecation_reasons": null, "last_updated": null, "origins": null, "warnings": null, "structure": {"@module": "pymatgen.core.structure", "@class": "Structure", "charge": 0, "lattice": {"matrix": [[2.18181, -3.779006, 0.0], [2.18181, 3.779006, 0.0], [0.0, 0.0, 12.586198]], "pbc": [true, true, true], "a": 4.363620197053818, "b": 4.363620197053818, "c": 12.586198, "alpha": 90.0, "beta": 90.0, "gamma": 120.00000298765131, "volume": 207.54824464034792}, "properties": {}, "sites": [{"species": [{"element": "Sn", "occu": 1}], "abc": [0.0, 0.0, 0.481921], "properties": {"magmom": 0.0}, "label": "Sn", "xyz": [0.0, 0.0, 6.065553126358]}, {"species": [{"element": "Ge", "occu": 1}], "abc": [0.333333, 0.666667, 0.543079], "properties": {"magmom": -0.0}, "label": "Ge", "xyz": [2.18181, 1.259671186004, 6.835299823641999]}]}, "task_ids": null, "uncorrected_energy_per_atom": null, "energy_per_atom": -18.817058850000002, "formation_energy_per_atom": 0.49202182999999805, "energy_above_hull": 0.49202182999999805, "is_stable": false, "equilibrium_reaction_energy_per_atom": null, "decomposes_to": null, "xas": null, "grain_boundaries": null, "band_gap": 0.20869999999999903, "cbm": null, "vbm": null, "efermi": -1.71824278, "is_gap_direct": null, "is_metal": null, "es_source_calc_id": null, "bandstructure": null, "dos": null, "dos_energy_up": null, "dos_energy_down": null, "is_magnetic": null, "ordering": null, "total_magnetization": 0.0002127, "total_magnetization_normalized_vol": null, "total_magnetization_normalized_formula_units": null, "num_magnetic_sites": null, "num_unique_magnetic_sites": null, "types_of_magnetic_species": null, "bulk_modulus": null, "shear_modulus": null, "universal_anisotropy": null, "homogeneous_poisson": null, "e_total": null, "e_ionic": null, "e_electronic": null, "n": null, "e_ij_max": null, "weighted_surface_energy_EV_PER_ANG2": null, "weighted_surface_energy": null, "weighted_work_function": null, "surface_anisotropy": null, "shape_factor": null, "has_reconstructed": null, "possible_species": null, "has_props": null, "theoretical": null, "database_IDs": null, "fields_not_requested": ["builder_meta", "nsites", "elements", "nelements", "composition", "composition_reduced", "chemsys", "symmetry", "property_name", "deprecated", "deprecation_reasons", "last_updated", "origins", "warnings", "task_ids", "uncorrected_energy_per_atom", "equilibrium_reaction_energy_per_atom", "decomposes_to", "xas", "grain_boundaries", "cbm", "vbm", "is_gap_direct", "is_metal", "es_source_calc_id", "bandstructure", "dos", "dos_energy_up", "dos_energy_down", "is_magnetic", "ordering", "total_magnetization_normalized_vol", "total_magnetization_normalized_formula_units", "num_magnetic_sites", "num_unique_magnetic_sites", "types_of_magnetic_species", "bulk_modulus", "shear_modulus", "universal_anisotropy", "homogeneous_poisson", "e_total", "e_ionic", "e_electronic", "n", "e_ij_max", "weighted_surface_energy_EV_PER_ANG2", "weighted_surface_energy", "weighted_work_function", "surface_anisotropy", "shape_factor", "has_reconstructed", "possible_species", "has_props", "theoretical", "database_IDs"]}