{"builder_meta": null, "nsites": null, "elements": null, "nelements": null, "composition": null, "composition_reduced": null, "formula_pretty": "SnH4", "formula_anonymous": "AB4", "chemsys": null, "volume": 181.6935229659416, "density": 2.243530581125302, "density_atomic": 18.169352296594163, "symmetry": null, "property_name": null, "material_id": "mp-1179342", "deprecated": null, "deprecation_reasons": null, "last_updated": null, "origins": null, "warnings": null, "structure": {"@module": "pymatgen.core.structure", "@class": "Structure", "charge": 0, "lattice": {"matrix": [[0.0, -4.808661, 0.0], [-4.672681, -2.404331, 0.0], [-0.180421, -2.404331, -8.086287]], "pbc": [true, true, true], "a": 4.808661, "b": 5.2549743372657876, "c": 8.438092008337609, "alpha": 81.40892870217272, "beta": 73.44487201211349, "gamma": 62.771885577004916, "volume": 181.6935229659416}, "properties": {}, "sites": [{"species": [{"element": "Sn", "occu": 1}], "abc": [0.928767, 0.25, 0.75], "properties": {"magmom": 0.0}, "label": "Sn", "xyz": [-1.303486, -6.870456650987, -6.064715250000001]}, {"species": [{"element": "Sn", "occu": 1}], "abc": [0.071232999999999, 0.75, 0.25], "properties": {"magmom": 0.0}, "label": "Sn", "xyz": [-3.549616, -2.746866349012995, -2.02157175]}, {"species": [{"element": "H", "occu": 1}], "abc": [0.9675100000000001, 0.534494999999999, 0.801118], "properties": {"magmom": -0.0}, "label": "H", "xyz": [-2.642063141772996, -7.8636833440129985, -6.478070068866001]}, {"species": [{"element": "H", "occu": 1}], "abc": [0.303123, 0.965505, 0.698882], "properties": {"magmom": -0.0}, "label": "H", "xyz": [-4.637589858227, -5.4593530084, -5.651360431134]}, {"species": [{"element": "H", "occu": 1}], "abc": [0.032490000000000005, 0.465505, 0.198882], "properties": {"magmom": -0.0}, "label": "H", "xyz": [-2.211038858227, -1.753639655987, -1.6082169311340002]}, {"species": [{"element": "H", "occu": 1}], "abc": [0.696877, 0.034495, 0.301118], "properties": {"magmom": -0.0}, "label": "H", "xyz": [-0.215512141773, -4.1579699916, -2.434926568866]}, {"species": [{"element": "H", "occu": 1}], "abc": [0.757184, 0.34818000000000005, 0.584411], "properties": {"magmom": -0.0}, "label": "H", "xyz": [-1.732374087611, -5.883298622244999, -4.7257150719570005]}, {"species": [{"element": "H", "occu": 1}], "abc": [0.689774999999999, 0.15182, 0.915589], "properties": {"magmom": -0.0}, "label": "H", "xyz": [-0.874597912389, -5.883298689653996, -7.403715428043]}, {"species": [{"element": "H", "occu": 1}], "abc": [0.24281599999999903, 0.6518200000000001, 0.415589], "properties": {"magmom": -0.0}, "label": "H", "xyz": [-3.1207279123890004, -3.734024377754996, -3.360571928043]}, {"species": [{"element": "H", "occu": 1}], "abc": [0.310225, 0.84818, 0.084411], "properties": {"magmom": -0.0}, "label": "H", "xyz": [-3.978504087611, -3.734024310346, -0.682571571957]}]}, "task_ids": null, "uncorrected_energy_per_atom": null, "energy_per_atom": -7.593997323999998, "formation_energy_per_atom": 0.11932935300000101, "energy_above_hull": 0.11932935300000001, "is_stable": false, "equilibrium_reaction_energy_per_atom": null, "decomposes_to": null, "xas": null, "grain_boundaries": null, "band_gap": 5.4373000000000005, "cbm": null, "vbm": null, "efermi": -2.91727545, "is_gap_direct": null, "is_metal": null, "es_source_calc_id": null, "bandstructure": null, "dos": null, "dos_energy_up": null, "dos_energy_down": null, "is_magnetic": null, "ordering": null, "total_magnetization": 0.0031958, "total_magnetization_normalized_vol": null, "total_magnetization_normalized_formula_units": null, "num_magnetic_sites": null, "num_unique_magnetic_sites": null, "types_of_magnetic_species": null, "bulk_modulus": null, "shear_modulus": null, "universal_anisotropy": null, "homogeneous_poisson": null, "e_total": null, "e_ionic": null, "e_electronic": null, "n": null, "e_ij_max": null, "weighted_surface_energy_EV_PER_ANG2": null, "weighted_surface_energy": null, "weighted_work_function": null, "surface_anisotropy": null, "shape_factor": null, "has_reconstructed": null, "possible_species": null, "has_props": null, "theoretical": null, "database_IDs": null, "fields_not_requested": ["builder_meta", "nsites", "elements", "nelements", "composition", "composition_reduced", "chemsys", "symmetry", "property_name", "deprecated", "deprecation_reasons", "last_updated", "origins", "warnings", "task_ids", "uncorrected_energy_per_atom", "equilibrium_reaction_energy_per_atom", "decomposes_to", "xas", "grain_boundaries", "cbm", "vbm", "is_gap_direct", "is_metal", "es_source_calc_id", "bandstructure", "dos", "dos_energy_up", "dos_energy_down", "is_magnetic", "ordering", "total_magnetization_normalized_vol", "total_magnetization_normalized_formula_units", "num_magnetic_sites", "num_unique_magnetic_sites", "types_of_magnetic_species", "bulk_modulus", "shear_modulus", "universal_anisotropy", "homogeneous_poisson", "e_total", "e_ionic", "e_electronic", "n", "e_ij_max", "weighted_surface_energy_EV_PER_ANG2", "weighted_surface_energy", "weighted_work_function", "surface_anisotropy", "shape_factor", "has_reconstructed", "possible_species", "has_props", "theoretical", "database_IDs"]}