{
  "builder_meta": null,
  "nsites": null,
  "elements": null,
  "nelements": null,
  "composition": null,
  "composition_reduced": null,
  "formula_pretty": "SnHg3",
  "formula_anonymous": "AB3",
  "chemsys": null,
  "volume": 211.0084815972846,
  "density": 11.33968812672944,
  "density_atomic": 26.376060199660575,
  "symmetry": null,
  "property_name": null,
  "material_id": "mp-1187088",
  "deprecated": null,
  "deprecation_reasons": null,
  "last_updated": null,
  "origins": null,
  "warnings": null,
  "structure": {
    "@module": "pymatgen.core.structure",
    "@class": "Structure",
    "charge": 0,
    "lattice": {
      "matrix": [
        [3.417566, -5.919398, 0.0],
        [3.417566, 5.919398, 0.0],
        [0.0, 0.0, 5.215254]
      ],
      "pbc": [true, true, true],
      "a": 6.835132043110799,
      "b": 6.835132043110799,
      "c": 5.215254,
      "alpha": 90.0,
      "beta": 90.0,
      "gamma": 120.00000041728345,
      "volume": 211.0084815972846
    },
    "properties": {},
    "sites": [
      {
        "species": [{ "element": "Sn", "occu": 1 }],
        "abc": [0.333333, 0.666667, 0.75],
        "properties": { "magmom": 0.0 },
        "label": "Sn",
        "xyz": [3.417566, 1.9731366129320003, 3.9114405]
      },
      {
        "species": [{ "element": "Sn", "occu": 1 }],
        "abc": [0.666667, 0.333333, 0.25],
        "properties": { "magmom": 0.0 },
        "label": "Sn",
        "xyz": [3.417566, -1.9731366129320003, 1.3038135]
      },
      {
        "species": [{ "element": "Hg", "occu": 1 }],
        "abc": [0.165547, 0.331095, 0.25],
        "properties": { "magmom": 0.0 },
        "label": "Hg",
        "xyz": [1.697306813372, 0.9799445001039998, 1.3038135]
      },
      {
        "species": [{ "element": "Hg", "occu": 1 }],
        "abc": [0.668905, 0.834453, 0.25],
        "properties": { "magmom": 0.0 },
        "label": "Hg",
        "xyz": [5.137825186628, 0.9799445001039997, 1.3038135]
      },
      {
        "species": [{ "element": "Hg", "occu": 1 }],
        "abc": [0.165547, 0.834453, 0.25],
        "properties": { "magmom": -0.001 },
        "label": "Hg",
        "xyz": [3.417566, 3.959520838588, 1.3038135]
      },
      {
        "species": [{ "element": "Hg", "occu": 1 }],
        "abc": [0.834453, 0.668905, 0.75],
        "properties": { "magmom": 0.0 },
        "label": "Hg",
        "xyz": [5.137825186628, -0.9799445001039997, 3.9114405]
      },
      {
        "species": [{ "element": "Hg", "occu": 1 }],
        "abc": [0.331095, 0.165547, 0.75],
        "properties": { "magmom": 0.0 },
        "label": "Hg",
        "xyz": [1.697306813372, -0.9799445001039998, 3.9114405]
      },
      {
        "species": [{ "element": "Hg", "occu": 1 }],
        "abc": [0.834453, 0.165547, 0.75],
        "properties": { "magmom": -0.001 },
        "label": "Hg",
        "xyz": [3.417566, -3.959520838588, 3.9114405]
      }
    ]
  },
  "task_ids": null,
  "uncorrected_energy_per_atom": null,
  "energy_per_atom": -43.116336591875,
  "formation_energy_per_atom": 0.096064245,
  "energy_above_hull": 0.096064245,
  "is_stable": false,
  "equilibrium_reaction_energy_per_atom": null,
  "decomposes_to": null,
  "xas": null,
  "grain_boundaries": null,
  "band_gap": 0.0,
  "cbm": null,
  "vbm": null,
  "efermi": 3.5868568,
  "is_gap_direct": null,
  "is_metal": null,
  "es_source_calc_id": null,
  "bandstructure": null,
  "dos": null,
  "dos_energy_up": null,
  "dos_energy_down": null,
  "is_magnetic": null,
  "ordering": null,
  "total_magnetization": 0.0009492999999990001,
  "total_magnetization_normalized_vol": null,
  "total_magnetization_normalized_formula_units": null,
  "num_magnetic_sites": null,
  "num_unique_magnetic_sites": null,
  "types_of_magnetic_species": null,
  "bulk_modulus": null,
  "shear_modulus": null,
  "universal_anisotropy": null,
  "homogeneous_poisson": null,
  "e_total": null,
  "e_ionic": null,
  "e_electronic": null,
  "n": null,
  "e_ij_max": null,
  "weighted_surface_energy_EV_PER_ANG2": null,
  "weighted_surface_energy": null,
  "weighted_work_function": null,
  "surface_anisotropy": null,
  "shape_factor": null,
  "has_reconstructed": null,
  "possible_species": null,
  "has_props": null,
  "theoretical": null,
  "database_IDs": null,
  "fields_not_requested": [
    "builder_meta",
    "nsites",
    "elements",
    "nelements",
    "composition",
    "composition_reduced",
    "chemsys",
    "symmetry",
    "property_name",
    "deprecated",
    "deprecation_reasons",
    "last_updated",
    "origins",
    "warnings",
    "task_ids",
    "uncorrected_energy_per_atom",
    "equilibrium_reaction_energy_per_atom",
    "decomposes_to",
    "xas",
    "grain_boundaries",
    "cbm",
    "vbm",
    "is_gap_direct",
    "is_metal",
    "es_source_calc_id",
    "bandstructure",
    "dos",
    "dos_energy_up",
    "dos_energy_down",
    "is_magnetic",
    "ordering",
    "total_magnetization_normalized_vol",
    "total_magnetization_normalized_formula_units",
    "num_magnetic_sites",
    "num_unique_magnetic_sites",
    "types_of_magnetic_species",
    "bulk_modulus",
    "shear_modulus",
    "universal_anisotropy",
    "homogeneous_poisson",
    "e_total",
    "e_ionic",
    "e_electronic",
    "n",
    "e_ij_max",
    "weighted_surface_energy_EV_PER_ANG2",
    "weighted_surface_energy",
    "weighted_work_function",
    "surface_anisotropy",
    "shape_factor",
    "has_reconstructed",
    "possible_species",
    "has_props",
    "theoretical",
    "database_IDs"
  ]
}
