{"builder_meta": null, "nsites": null, "elements": null, "nelements": null, "composition": null, "composition_reduced": null, "formula_pretty": "SnI2", "formula_anonymous": "AB2", "chemsys": null, "volume": 362.5936855637524, "density": 5.117978698029424, "density_atomic": 40.28818728486138, "symmetry": null, "property_name": null, "material_id": "mp-27194", "deprecated": null, "deprecation_reasons": null, "last_updated": null, "origins": null, "warnings": null, "structure": {"@module": "pymatgen.core.structure", "@class": "Structure", "charge": 0, "lattice": {"matrix": [[4.4910783, 0.00048416, -0.00653391], [-2.24445652, 7.27175432, -0.24009934], [-0.01601222, 0.01769295, 11.1018079]], "pbc": [true, true, true], "a": 4.4910830790714265, "b": 7.614042530330233, "c": 11.101833545868514, "alpha": 91.69542718668855, "beta": 90.16598554729208, "gamma": 107.13531676248002, "volume": 362.5936855637524}, "properties": {}, "sites": [{"species": [{"element": "Sn", "occu": 1}], "abc": [0.0, 0.0, -0.0], "properties": {"magmom": 0.0}, "label": "Sn", "xyz": [0.0, 0.0, 0.0]}, {"species": [{"element": "Sn", "occu": 1}], "abc": [0.2672682, 0.53744765, 0.31166353], "properties": {"magmom": 0.0}, "label": "Sn", "xyz": [-0.010945893909454689, 3.913830918486174, 3.3292415070816745]}, {"species": [{"element": "Sn", "occu": 1}], "abc": [0.732731799999999, 0.46255235, 0.68833647], "properties": {"magmom": 0.0}, "label": "Sn", "xyz": [2.24155545390945, 3.3761005115138265, 7.525933142918326]}, {"species": [{"element": "I", "occu": 1}], "abc": [0.0828257, 0.16546245, 0.73406469], "properties": {"magmom": -0.0}, "label": "I", "xyz": [-0.011150576075875834, 1.2162301563331317, 8.109176573843781]}, {"species": [{"element": "I", "occu": 1}], "abc": [0.9171743, 0.8345375500000001, 0.26593531], "properties": {"magmom": -0.0}, "label": "I", "xyz": [2.2417601360758757, 6.073701273666869, 2.7459980761562193]}, {"species": [{"element": "I", "occu": 1}], "abc": [0.35740047, 0.71720874, 0.55959238], "properties": {"magmom": -0.0}, "label": "I", "xyz": [-0.013590653766067265, 5.225439632448033, 6.037950537442633]}, {"species": [{"element": "I", "occu": 1}], "abc": [0.64259953, 0.28279026, 0.44040762], "properties": {"magmom": -0.0}, "label": "I", "xyz": [2.2442024582225875, 2.0644845257976474, 4.817224352656708]}, {"species": [{"element": "I", "occu": 1}], "abc": [0.35556619, 0.71345156, 0.9212507400000001], "properties": {"magmom": -0.0}, "label": "I", "xyz": [-0.019186674947537098, 5.204516257747573, 10.053926257050374]}, {"species": [{"element": "I", "occu": 1}], "abc": [0.64443381, 0.28654844, 0.07874926], "properties": {"magmom": -0.0}, "label": "I", "xyz": [2.2497962349475364, 2.0854151722524277, 0.8012483929496274]}]}, "task_ids": null, "uncorrected_energy_per_atom": null, "energy_per_atom": -3.097282174444444, "formation_energy_per_atom": -0.7447498127777771, "energy_above_hull": 0.0, "is_stable": true, "equilibrium_reaction_energy_per_atom": null, "decomposes_to": null, "xas": null, "grain_boundaries": null, "band_gap": 1.7061000000000002, "cbm": null, "vbm": null, "efermi": 3.00863636, "is_gap_direct": null, "is_metal": null, "es_source_calc_id": null, "bandstructure": null, "dos": null, "dos_energy_up": null, "dos_energy_down": null, "is_magnetic": null, "ordering": null, "total_magnetization": 0.0, "total_magnetization_normalized_vol": null, "total_magnetization_normalized_formula_units": null, "num_magnetic_sites": null, "num_unique_magnetic_sites": null, "types_of_magnetic_species": null, "bulk_modulus": null, "shear_modulus": null, "universal_anisotropy": null, "homogeneous_poisson": null, "e_total": null, "e_ionic": null, "e_electronic": null, "n": null, "e_ij_max": null, "weighted_surface_energy_EV_PER_ANG2": null, "weighted_surface_energy": null, "weighted_work_function": null, "surface_anisotropy": null, "shape_factor": null, "has_reconstructed": null, "possible_species": null, "has_props": null, "theoretical": null, "database_IDs": null, "fields_not_requested": ["builder_meta", "nsites", "elements", "nelements", "composition", "composition_reduced", "chemsys", "symmetry", "property_name", "deprecated", "deprecation_reasons", "last_updated", "origins", "warnings", "task_ids", "uncorrected_energy_per_atom", "equilibrium_reaction_energy_per_atom", "decomposes_to", "xas", "grain_boundaries", "cbm", "vbm", "is_gap_direct", "is_metal", "es_source_calc_id", "bandstructure", "dos", "dos_energy_up", "dos_energy_down", "is_magnetic", "ordering", "total_magnetization_normalized_vol", "total_magnetization_normalized_formula_units", "num_magnetic_sites", "num_unique_magnetic_sites", "types_of_magnetic_species", "bulk_modulus", "shear_modulus", "universal_anisotropy", "homogeneous_poisson", "e_total", "e_ionic", "e_electronic", "n", "e_ij_max", "weighted_surface_energy_EV_PER_ANG2", "weighted_surface_energy", "weighted_work_function", "surface_anisotropy", "shape_factor", "has_reconstructed", "possible_species", "has_props", "theoretical", "database_IDs"]}