{"builder_meta": null, "nsites": null, "elements": null, "nelements": null, "composition": null, "composition_reduced": null, "formula_pretty": "SnI3", "formula_anonymous": "AB3", "chemsys": null, "volume": 408.4057175438616, "density": 4.061216811885222, "density_atomic": 51.0507146929827, "symmetry": null, "property_name": null, "material_id": "mp-1095094", "deprecated": null, "deprecation_reasons": null, "last_updated": null, "origins": null, "warnings": null, "structure": {"@module": "pymatgen.core.structure", "@class": "Structure", "charge": 0, "lattice": {"matrix": [[-4.138293, 4.138293, 5.961964], [4.138293, -4.138293, 5.961964], [4.138293, 4.138293, -5.961964]], "pbc": [true, true, true], "a": 8.354397204167038, "b": 8.354397204167038, "c": 8.354397204167038, "alpha": 120.61524558783934, "beta": 120.61524558783934, "gamma": 88.9376262288385, "volume": 408.4057175438616}, "properties": {}, "sites": [{"species": [{"element": "Sn", "occu": 1}], "abc": [0.0, 0.0, 0.0], "properties": {"magmom": -0.0}, "label": "Sn", "xyz": [0.0, 0.0, 0.0]}, {"species": [{"element": "Sn", "occu": 1}], "abc": [0.5, 0.5, 0.0], "properties": {"magmom": -0.0}, "label": "Sn", "xyz": [0.0, 0.0, 5.961964]}, {"species": [{"element": "I", "occu": 1}], "abc": [0.32404499999999903, 0.175955, 0.5], "properties": {"magmom": 0.0}, "label": "I", "xyz": [1.4563066896300039, 2.681986310369996, -5.773159728050814e-15]}, {"species": [{"element": "I", "occu": 1}], "abc": [0.675955, 0.824044999999999, 0.5], "properties": {"magmom": 0.0}, "label": "I", "xyz": [2.681986310369996, 1.4563066896300039, 5.961963999999996]}, {"species": [{"element": "I", "occu": 1}], "abc": [0.824044999999999, 0.32404499999999903, 0.148089], "properties": {"magmom": 0.0}, "label": "I", "xyz": [-1.4563108279230002, 2.681982172077, 5.961969961963989]}, {"species": [{"element": "I", "occu": 1}], "abc": [0.175955, 0.675955, 0.851911], "properties": {"magmom": 0.0}, "label": "I", "xyz": [5.594603827923, 1.4563108279229997, -5.961963999823183e-06]}, {"species": [{"element": "I", "occu": 1}], "abc": [0.75, 0.75, 0.0], "properties": {"magmom": 0.0}, "label": "I", "xyz": [0.0, 0.0, 8.942946]}, {"species": [{"element": "I", "occu": 1}], "abc": [0.25, 0.25, 0.0], "properties": {"magmom": 0.0}, "label": "I", "xyz": [0.0, 0.0, 2.980982]}]}, "task_ids": null, "uncorrected_energy_per_atom": null, "energy_per_atom": -2.703977553749999, "formation_energy_per_atom": -0.558575128749999, "energy_above_hull": 0.144051216979166, "is_stable": false, "equilibrium_reaction_energy_per_atom": null, "decomposes_to": null, "xas": null, "grain_boundaries": null, "band_gap": 0.0, "cbm": null, "vbm": null, "efermi": 0.86914137, "is_gap_direct": null, "is_metal": null, "es_source_calc_id": null, "bandstructure": null, "dos": null, "dos_energy_up": null, "dos_energy_down": null, "is_magnetic": null, "ordering": null, "total_magnetization": 0.0003179, "total_magnetization_normalized_vol": null, "total_magnetization_normalized_formula_units": null, "num_magnetic_sites": null, "num_unique_magnetic_sites": null, "types_of_magnetic_species": null, "bulk_modulus": null, "shear_modulus": null, "universal_anisotropy": null, "homogeneous_poisson": null, "e_total": null, "e_ionic": null, "e_electronic": null, "n": null, "e_ij_max": null, "weighted_surface_energy_EV_PER_ANG2": null, "weighted_surface_energy": null, "weighted_work_function": null, "surface_anisotropy": null, "shape_factor": null, "has_reconstructed": null, "possible_species": null, "has_props": null, "theoretical": null, "database_IDs": null, "fields_not_requested": ["builder_meta", "nsites", "elements", "nelements", "composition", "composition_reduced", "chemsys", "symmetry", "property_name", "deprecated", "deprecation_reasons", "last_updated", "origins", "warnings", "task_ids", "uncorrected_energy_per_atom", "equilibrium_reaction_energy_per_atom", "decomposes_to", "xas", "grain_boundaries", "cbm", "vbm", "is_gap_direct", "is_metal", "es_source_calc_id", "bandstructure", "dos", "dos_energy_up", "dos_energy_down", "is_magnetic", "ordering", "total_magnetization_normalized_vol", "total_magnetization_normalized_formula_units", "num_magnetic_sites", "num_unique_magnetic_sites", "types_of_magnetic_species", "bulk_modulus", "shear_modulus", "universal_anisotropy", "homogeneous_poisson", "e_total", "e_ionic", "e_electronic", "n", "e_ij_max", "weighted_surface_energy_EV_PER_ANG2", "weighted_surface_energy", "weighted_work_function", "surface_anisotropy", "shape_factor", "has_reconstructed", "possible_species", "has_props", "theoretical", "database_IDs"]}