{
  "builder_meta": null,
  "nsites": null,
  "elements": null,
  "nelements": null,
  "composition": null,
  "composition_reduced": null,
  "formula_pretty": "SnI4",
  "formula_anonymous": "AB4",
  "chemsys": null,
  "volume": 2007.9440686885678,
  "density": 4.1437086996951304,
  "density_atomic": 50.198601717214196,
  "symmetry": null,
  "property_name": null,
  "material_id": "mp-23182",
  "deprecated": null,
  "deprecation_reasons": null,
  "last_updated": null,
  "origins": null,
  "warnings": null,
  "structure": {
    "@module": "pymatgen.core.structure",
    "@class": "Structure",
    "charge": 0,
    "lattice": {
      "matrix": [
        [12.61586996, -0.0, 0.0],
        [-0.0, 12.61586996, 0.0],
        [-0.0, 0.0, 12.61586996]
      ],
      "pbc": [true, true, true],
      "a": 12.61586996,
      "b": 12.61586996,
      "c": 12.61586996,
      "alpha": 90.0,
      "beta": 90.0,
      "gamma": 90.0,
      "volume": 2007.9440686885678
    },
    "properties": {},
    "sites": [
      {
        "species": [{ "element": "Sn", "occu": 1 }],
        "abc": [0.1317022, 0.1317022, 0.1317022],
        "properties": { "magmom": -0.0 },
        "label": "Sn",
        "xyz": [1.661537828645912, 1.661537828645912, 1.661537828645912]
      },
      {
        "species": [{ "element": "Sn", "occu": 1 }],
        "abc": [0.3682978, 0.8682978, 0.6317022],
        "properties": { "magmom": -0.0 },
        "label": "Sn",
        "xyz": [4.646397151354088, 10.954332131354088, 7.969472808645912]
      },
      {
        "species": [{ "element": "Sn", "occu": 1 }],
        "abc": [0.6317022, 0.3682978, 0.8682978],
        "properties": { "magmom": -0.0 },
        "label": "Sn",
        "xyz": [7.969472808645912, 4.646397151354088, 10.954332131354088]
      },
      {
        "species": [{ "element": "Sn", "occu": 1 }],
        "abc": [0.8682978, 0.6317022, 0.3682978],
        "properties": { "magmom": -0.0 },
        "label": "Sn",
        "xyz": [10.954332131354088, 7.969472808645912, 4.646397151354088]
      },
      {
        "species": [{ "element": "Sn", "occu": 1 }],
        "abc": [0.8682978, 0.8682978, 0.8682978],
        "properties": { "magmom": -0.0 },
        "label": "Sn",
        "xyz": [10.954332131354088, 10.954332131354088, 10.954332131354088]
      },
      {
        "species": [{ "element": "Sn", "occu": 1 }],
        "abc": [0.6317022, 0.1317022, 0.3682978],
        "properties": { "magmom": -0.0 },
        "label": "Sn",
        "xyz": [7.969472808645912, 1.661537828645912, 4.646397151354088]
      },
      {
        "species": [{ "element": "Sn", "occu": 1 }],
        "abc": [0.3682978, 0.6317022, 0.1317022],
        "properties": { "magmom": -0.0 },
        "label": "Sn",
        "xyz": [4.646397151354088, 7.969472808645912, 1.661537828645912]
      },
      {
        "species": [{ "element": "Sn", "occu": 1 }],
        "abc": [0.1317022, 0.3682978, 0.6317022],
        "properties": { "magmom": -0.0 },
        "label": "Sn",
        "xyz": [1.661537828645912, 4.646397151354088, 7.969472808645912]
      },
      {
        "species": [{ "element": "I", "occu": 1 }],
        "abc": [0.25461201, 0.25461201, 0.25461201],
        "properties": { "magmom": -0.0 },
        "label": "I",
        "xyz": [3.2121520084142197, 3.2121520084142197, 3.2121520084142197]
      },
      {
        "species": [{ "element": "I", "occu": 1 }],
        "abc": [0.24538799, 0.74538799, 0.75461201],
        "properties": { "magmom": -0.0 },
        "label": "I",
        "xyz": [3.09578297158578, 9.40371795158578, 9.520086988414219]
      },
      {
        "species": [{ "element": "I", "occu": 1 }],
        "abc": [0.75461201, 0.24538799, 0.74538799],
        "properties": { "magmom": -0.0 },
        "label": "I",
        "xyz": [9.520086988414219, 3.09578297158578, 9.40371795158578]
      },
      {
        "species": [{ "element": "I", "occu": 1 }],
        "abc": [0.74538799, 0.75461201, 0.24538799],
        "properties": { "magmom": -0.0 },
        "label": "I",
        "xyz": [9.40371795158578, 9.520086988414219, 3.09578297158578]
      },
      {
        "species": [{ "element": "I", "occu": 1 }],
        "abc": [0.74538799, 0.74538799, 0.74538799],
        "properties": { "magmom": -0.0 },
        "label": "I",
        "xyz": [9.40371795158578, 9.40371795158578, 9.40371795158578]
      },
      {
        "species": [{ "element": "I", "occu": 1 }],
        "abc": [0.75461201, 0.25461201, 0.24538799],
        "properties": { "magmom": -0.0 },
        "label": "I",
        "xyz": [9.520086988414219, 3.2121520084142197, 3.09578297158578]
      },
      {
        "species": [{ "element": "I", "occu": 1 }],
        "abc": [0.24538799, 0.75461201, 0.25461201],
        "properties": { "magmom": -0.0 },
        "label": "I",
        "xyz": [3.09578297158578, 9.520086988414219, 3.2121520084142197]
      },
      {
        "species": [{ "element": "I", "occu": 1 }],
        "abc": [0.25461201, 0.24538799, 0.75461201],
        "properties": { "magmom": -0.0 },
        "label": "I",
        "xyz": [3.2121520084142197, 3.09578297158578, 9.520086988414219]
      },
      {
        "species": [{ "element": "I", "occu": 1 }],
        "abc": [0.01337863, 0.00411796, 0.255158799999999],
        "properties": { "magmom": 0.0 },
        "label": "I",
        "xyz": [0.1687830563229548, 0.0519516478604816, 3.2190502399496355]
      },
      {
        "species": [{ "element": "I", "occu": 1 }],
        "abc": [0.255158799999999, 0.01337863, 0.00411796],
        "properties": { "magmom": 0.0 },
        "label": "I",
        "xyz": [3.2190502399496355, 0.1687830563229548, 0.0519516478604816]
      },
      {
        "species": [{ "element": "I", "occu": 1 }],
        "abc": [0.00411796, 0.255158799999999, 0.01337863],
        "properties": { "magmom": 0.0 },
        "label": "I",
        "xyz": [0.0519516478604816, 3.2190502399496355, 0.1687830563229548]
      },
      {
        "species": [{ "element": "I", "occu": 1 }],
        "abc": [0.49588204, 0.7448412, 0.5133786300000001],
        "properties": { "magmom": 0.0 },
        "label": "I",
        "xyz": [6.255983332139518, 9.39681972005035, 6.476718036322955]
      },
      {
        "species": [{ "element": "I", "occu": 1 }],
        "abc": [0.7551588, 0.48662137, -0.00411796],
        "properties": { "magmom": 0.0 },
        "label": "I",
        "xyz": [9.526985219949648, 6.139151923677045, -0.0519516478604816]
      },
      {
        "species": [{ "element": "I", "occu": 1 }],
        "abc": [-0.00411796, 0.7551588, 0.48662137],
        "properties": { "magmom": 0.0 },
        "label": "I",
        "xyz": [-0.0519516478604816, 9.526985219949648, 6.139151923677045]
      },
      {
        "species": [{ "element": "I", "occu": 1 }],
        "abc": [0.244841199999999, 0.98662137, 0.50411796],
        "properties": { "magmom": 0.0 },
        "label": "I",
        "xyz": [3.0888847400503394, 12.447086903677045, 6.359886627860481]
      },
      {
        "species": [{ "element": "I", "occu": 1 }],
        "abc": [0.7448412, 0.5133786300000001, 0.49588204],
        "properties": { "magmom": 0.0 },
        "label": "I",
        "xyz": [9.39681972005035, 6.476718036322955, 6.255983332139518]
      },
      {
        "species": [{ "element": "I", "occu": 1 }],
        "abc": [0.50411796, 0.244841199999999, 0.98662137],
        "properties": { "magmom": 0.0 },
        "label": "I",
        "xyz": [6.359886627860481, 3.0888847400503394, 12.447086903677045]
      },
      {
        "species": [{ "element": "I", "occu": 1 }],
        "abc": [0.5133786300000001, 0.49588204, 0.7448412],
        "properties": { "magmom": 0.0 },
        "label": "I",
        "xyz": [6.476718036322955, 6.255983332139518, 9.39681972005035]
      },
      {
        "species": [{ "element": "I", "occu": 1 }],
        "abc": [0.98662137, 0.50411796, 0.244841199999999],
        "properties": { "magmom": 0.0 },
        "label": "I",
        "xyz": [12.447086903677045, 6.359886627860481, 3.0888847400503394]
      },
      {
        "species": [{ "element": "I", "occu": 1 }],
        "abc": [0.48662137, -0.00411796, 0.7551588],
        "properties": { "magmom": 0.0 },
        "label": "I",
        "xyz": [6.139151923677045, -0.0519516478604816, 9.526985219949648]
      },
      {
        "species": [{ "element": "I", "occu": 1 }],
        "abc": [0.98662137, -0.00411796, 0.7448412],
        "properties": { "magmom": 0.0 },
        "label": "I",
        "xyz": [12.447086903677045, -0.0519516478604816, 9.39681972005035]
      },
      {
        "species": [{ "element": "I", "occu": 1 }],
        "abc": [0.7448412, 0.98662137, -0.00411796],
        "properties": { "magmom": 0.0 },
        "label": "I",
        "xyz": [9.39681972005035, 12.447086903677045, -0.0519516478604816]
      },
      {
        "species": [{ "element": "I", "occu": 1 }],
        "abc": [-0.00411796, 0.7448412, 0.98662137],
        "properties": { "magmom": 0.0 },
        "label": "I",
        "xyz": [-0.0519516478604816, 9.39681972005035, 12.447086903677045]
      },
      {
        "species": [{ "element": "I", "occu": 1 }],
        "abc": [0.50411796, 0.255158799999999, 0.48662137],
        "properties": { "magmom": 0.0 },
        "label": "I",
        "xyz": [6.359886627860481, 3.2190502399496355, 6.139151923677045]
      },
      {
        "species": [{ "element": "I", "occu": 1 }],
        "abc": [0.244841199999999, 0.5133786300000001, 0.00411796],
        "properties": { "magmom": 0.0 },
        "label": "I",
        "xyz": [3.0888847400503394, 6.476718036322955, 0.0519516478604816]
      },
      {
        "species": [{ "element": "I", "occu": 1 }],
        "abc": [0.00411796, 0.244841199999999, 0.5133786300000001],
        "properties": { "magmom": 0.0 },
        "label": "I",
        "xyz": [0.0519516478604816, 3.0888847400503394, 6.476718036322955]
      },
      {
        "species": [{ "element": "I", "occu": 1 }],
        "abc": [0.7551588, 0.01337863, 0.49588204],
        "properties": { "magmom": 0.0 },
        "label": "I",
        "xyz": [9.526985219949648, 0.1687830563229548, 6.255983332139518]
      },
      {
        "species": [{ "element": "I", "occu": 1 }],
        "abc": [0.255158799999999, 0.48662137, 0.50411796],
        "properties": { "magmom": 0.0 },
        "label": "I",
        "xyz": [3.2190502399496355, 6.139151923677045, 6.359886627860481]
      },
      {
        "species": [{ "element": "I", "occu": 1 }],
        "abc": [0.49588204, 0.7551588, 0.01337863],
        "properties": { "magmom": 0.0 },
        "label": "I",
        "xyz": [6.255983332139518, 9.526985219949648, 0.1687830563229548]
      },
      {
        "species": [{ "element": "I", "occu": 1 }],
        "abc": [0.48662137, 0.50411796, 0.255158799999999],
        "properties": { "magmom": 0.0 },
        "label": "I",
        "xyz": [6.139151923677045, 6.359886627860481, 3.2190502399496355]
      },
      {
        "species": [{ "element": "I", "occu": 1 }],
        "abc": [0.01337863, 0.49588204, 0.7551588],
        "properties": { "magmom": 0.0 },
        "label": "I",
        "xyz": [0.1687830563229548, 6.255983332139518, 9.526985219949648]
      },
      {
        "species": [{ "element": "I", "occu": 1 }],
        "abc": [0.5133786300000001, 0.00411796, 0.244841199999999],
        "properties": { "magmom": 0.0 },
        "label": "I",
        "xyz": [6.476718036322955, 0.0519516478604816, 3.0888847400503394]
      }
    ]
  },
  "task_ids": null,
  "uncorrected_energy_per_atom": null,
  "energy_per_atom": -2.6984767285,
  "formation_energy_per_atom": -0.6773522655,
  "energy_above_hull": 0.0,
  "is_stable": true,
  "equilibrium_reaction_energy_per_atom": null,
  "decomposes_to": null,
  "xas": null,
  "grain_boundaries": null,
  "band_gap": 2.0581,
  "cbm": null,
  "vbm": null,
  "efermi": -0.40738906,
  "is_gap_direct": null,
  "is_metal": null,
  "es_source_calc_id": null,
  "bandstructure": null,
  "dos": null,
  "dos_energy_up": null,
  "dos_energy_down": null,
  "is_magnetic": null,
  "ordering": null,
  "total_magnetization": 0.0,
  "total_magnetization_normalized_vol": null,
  "total_magnetization_normalized_formula_units": null,
  "num_magnetic_sites": null,
  "num_unique_magnetic_sites": null,
  "types_of_magnetic_species": null,
  "bulk_modulus": null,
  "shear_modulus": null,
  "universal_anisotropy": null,
  "homogeneous_poisson": null,
  "e_total": null,
  "e_ionic": null,
  "e_electronic": null,
  "n": null,
  "e_ij_max": null,
  "weighted_surface_energy_EV_PER_ANG2": null,
  "weighted_surface_energy": null,
  "weighted_work_function": null,
  "surface_anisotropy": null,
  "shape_factor": null,
  "has_reconstructed": null,
  "possible_species": null,
  "has_props": null,
  "theoretical": null,
  "database_IDs": null,
  "fields_not_requested": [
    "builder_meta",
    "nsites",
    "elements",
    "nelements",
    "composition",
    "composition_reduced",
    "chemsys",
    "symmetry",
    "property_name",
    "deprecated",
    "deprecation_reasons",
    "last_updated",
    "origins",
    "warnings",
    "task_ids",
    "uncorrected_energy_per_atom",
    "equilibrium_reaction_energy_per_atom",
    "decomposes_to",
    "xas",
    "grain_boundaries",
    "cbm",
    "vbm",
    "is_gap_direct",
    "is_metal",
    "es_source_calc_id",
    "bandstructure",
    "dos",
    "dos_energy_up",
    "dos_energy_down",
    "is_magnetic",
    "ordering",
    "total_magnetization_normalized_vol",
    "total_magnetization_normalized_formula_units",
    "num_magnetic_sites",
    "num_unique_magnetic_sites",
    "types_of_magnetic_species",
    "bulk_modulus",
    "shear_modulus",
    "universal_anisotropy",
    "homogeneous_poisson",
    "e_total",
    "e_ionic",
    "e_electronic",
    "n",
    "e_ij_max",
    "weighted_surface_energy_EV_PER_ANG2",
    "weighted_surface_energy",
    "weighted_work_function",
    "surface_anisotropy",
    "shape_factor",
    "has_reconstructed",
    "possible_species",
    "has_props",
    "theoretical",
    "database_IDs"
  ]
}
