{
  "builder_meta": null,
  "nsites": null,
  "elements": null,
  "nelements": null,
  "composition": null,
  "composition_reduced": null,
  "formula_pretty": "SnIr3",
  "formula_anonymous": "AB3",
  "chemsys": null,
  "volume": 127.05961461298007,
  "density": 18.17531257917233,
  "density_atomic": 15.882451826622509,
  "symmetry": null,
  "property_name": null,
  "material_id": "mp-1187093",
  "deprecated": null,
  "deprecation_reasons": null,
  "last_updated": null,
  "origins": null,
  "warnings": null,
  "structure": {
    "@module": "pymatgen.core.structure",
    "@class": "Structure",
    "charge": 0,
    "lattice": {
      "matrix": [
        [2.843015, -4.924247, 0.0],
        [2.843015, 4.924247, 0.0],
        [0.0, 0.0, 4.5379380000000005]
      ],
      "pbc": [true, true, true],
      "a": 5.686030496509318,
      "b": 5.686030496509318,
      "c": 4.5379380000000005,
      "alpha": 90.0,
      "beta": 90.0,
      "gamma": 120.00000577710435,
      "volume": 127.0596146129801
    },
    "properties": {},
    "sites": [
      {
        "species": [{ "element": "Sn", "occu": 1 }],
        "abc": [0.333333, 0.666667, 0.75],
        "properties": { "magmom": 0.0 },
        "label": "Sn",
        "xyz": [2.843015, 1.641418949498, 3.4034535000000004]
      },
      {
        "species": [{ "element": "Sn", "occu": 1 }],
        "abc": [0.666667, 0.333333, 0.25],
        "properties": { "magmom": 0.0 },
        "label": "Sn",
        "xyz": [2.843015, -1.641418949498, 1.1344845000000001]
      },
      {
        "species": [{ "element": "Ir", "occu": 1 }],
        "abc": [0.162791, 0.325583, 0.25],
        "properties": { "magmom": -0.0 },
        "label": "Ir",
        "xyz": [1.38845460761, 0.8016280176240002, 1.1344845000000001]
      },
      {
        "species": [{ "element": "Ir", "occu": 1 }],
        "abc": [0.674416999999999, 0.837209, 0.25],
        "properties": { "magmom": -0.0 },
        "label": "Ir",
        "xyz": [4.297575392389997, 0.801628017624004, 1.1344845000000001]
      },
      {
        "species": [{ "element": "Ir", "occu": 1 }],
        "abc": [0.162791, 0.837209, 0.25],
        "properties": { "magmom": -0.0 },
        "label": "Ir",
        "xyz": [2.843015, 3.3210008132459996, 1.1344845000000001]
      },
      {
        "species": [{ "element": "Ir", "occu": 1 }],
        "abc": [0.837209, 0.674416999999999, 0.75],
        "properties": { "magmom": -0.0 },
        "label": "Ir",
        "xyz": [4.297575392389997, -0.801628017624004, 3.4034535000000004]
      },
      {
        "species": [{ "element": "Ir", "occu": 1 }],
        "abc": [0.325583, 0.162791, 0.75],
        "properties": { "magmom": -0.0 },
        "label": "Ir",
        "xyz": [1.38845460761, -0.8016280176240002, 3.4034535000000004]
      },
      {
        "species": [{ "element": "Ir", "occu": 1 }],
        "abc": [0.837209, 0.162791, 0.75],
        "properties": { "magmom": -0.0 },
        "label": "Ir",
        "xyz": [2.843015, -3.3210008132459996, 3.4034535000000004]
      }
    ]
  },
  "task_ids": null,
  "uncorrected_energy_per_atom": null,
  "energy_per_atom": -45.433512507500005,
  "formation_energy_per_atom": 0.02254852499999,
  "energy_above_hull": 0.15991529749999903,
  "is_stable": false,
  "equilibrium_reaction_energy_per_atom": null,
  "decomposes_to": null,
  "xas": null,
  "grain_boundaries": null,
  "band_gap": 0.0,
  "cbm": null,
  "vbm": null,
  "efermi": 10.15090486,
  "is_gap_direct": null,
  "is_metal": null,
  "es_source_calc_id": null,
  "bandstructure": null,
  "dos": null,
  "dos_energy_up": null,
  "dos_energy_down": null,
  "is_magnetic": null,
  "ordering": null,
  "total_magnetization": 9.210000000000003e-5,
  "total_magnetization_normalized_vol": null,
  "total_magnetization_normalized_formula_units": null,
  "num_magnetic_sites": null,
  "num_unique_magnetic_sites": null,
  "types_of_magnetic_species": null,
  "bulk_modulus": null,
  "shear_modulus": null,
  "universal_anisotropy": null,
  "homogeneous_poisson": null,
  "e_total": null,
  "e_ionic": null,
  "e_electronic": null,
  "n": null,
  "e_ij_max": null,
  "weighted_surface_energy_EV_PER_ANG2": null,
  "weighted_surface_energy": null,
  "weighted_work_function": null,
  "surface_anisotropy": null,
  "shape_factor": null,
  "has_reconstructed": null,
  "possible_species": null,
  "has_props": null,
  "theoretical": null,
  "database_IDs": null,
  "fields_not_requested": [
    "builder_meta",
    "nsites",
    "elements",
    "nelements",
    "composition",
    "composition_reduced",
    "chemsys",
    "symmetry",
    "property_name",
    "deprecated",
    "deprecation_reasons",
    "last_updated",
    "origins",
    "warnings",
    "task_ids",
    "uncorrected_energy_per_atom",
    "equilibrium_reaction_energy_per_atom",
    "decomposes_to",
    "xas",
    "grain_boundaries",
    "cbm",
    "vbm",
    "is_gap_direct",
    "is_metal",
    "es_source_calc_id",
    "bandstructure",
    "dos",
    "dos_energy_up",
    "dos_energy_down",
    "is_magnetic",
    "ordering",
    "total_magnetization_normalized_vol",
    "total_magnetization_normalized_formula_units",
    "num_magnetic_sites",
    "num_unique_magnetic_sites",
    "types_of_magnetic_species",
    "bulk_modulus",
    "shear_modulus",
    "universal_anisotropy",
    "homogeneous_poisson",
    "e_total",
    "e_ionic",
    "e_electronic",
    "n",
    "e_ij_max",
    "weighted_surface_energy_EV_PER_ANG2",
    "weighted_surface_energy",
    "weighted_work_function",
    "surface_anisotropy",
    "shape_factor",
    "has_reconstructed",
    "possible_species",
    "has_props",
    "theoretical",
    "database_IDs"
  ]
}
