{"builder_meta": null, "nsites": null, "elements": null, "nelements": null, "composition": null, "composition_reduced": null, "formula_pretty": "SnN", "formula_anonymous": "AB", "chemsys": null, "volume": 65.86641565270897, "density": 6.691764321964233, "density_atomic": 16.46660391317724, "symmetry": null, "property_name": null, "material_id": "mp-1421453", "deprecated": null, "deprecation_reasons": null, "last_updated": null, "origins": null, "warnings": null, "structure": {"@module": "pymatgen.core.structure", "@class": "Structure", "charge": 0, "lattice": {"matrix": [[2.121484, 2.799108, 0.0], [-2.121484, 2.799108, 0.0], [0.0, 0.32153000000000004, 5.545933]], "pbc": [true, true, true], "a": 3.512221513219233, "b": 3.512221513219233, "c": 5.555245663459807, "alpha": 87.35617472839037, "beta": 87.35617472839037, "gamma": 74.3180179510831, "volume": 65.86641565270897}, "properties": {}, "sites": [{"species": [{"element": "Sn", "occu": 1}], "abc": [0.592943, 0.592943, 0.943364], "properties": {"magmom": 0.0}, "label": "Sn", "xyz": [0.0, 3.622742816608, 5.231833538611999]}, {"species": [{"element": "Sn", "occu": 1}], "abc": [0.163407, 0.163407, 0.451072], "properties": {"magmom": 0.0}, "label": "Sn", "xyz": [0.0, 1.059820862072, 2.5016150901759997]}, {"species": [{"element": "N", "occu": 1}], "abc": [0.538119, 0.538119, 0.548744], "properties": {"magmom": 0.0}, "label": "N", "xyz": [0.0, 3.1889440540239997, 3.043297458152]}, {"species": [{"element": "N", "occu": 1}], "abc": [0.212827, 0.212827, 0.056712], "properties": {"magmom": 0.0}, "label": "N", "xyz": [0.0, 1.209686125992, 0.31452095229599997]}]}, "task_ids": null, "uncorrected_energy_per_atom": null, "energy_per_atom": -16.625387280625, "formation_energy_per_atom": 0.312079945, "energy_above_hull": 0.312079945, "is_stable": false, "equilibrium_reaction_energy_per_atom": null, "decomposes_to": null, "xas": null, "grain_boundaries": null, "band_gap": 0.0, "cbm": null, "vbm": null, "efermi": 7.5277240800000005, "is_gap_direct": null, "is_metal": null, "es_source_calc_id": null, "bandstructure": null, "dos": null, "dos_energy_up": null, "dos_energy_down": null, "is_magnetic": null, "ordering": null, "total_magnetization": 0.0036312999999990004, "total_magnetization_normalized_vol": null, "total_magnetization_normalized_formula_units": null, "num_magnetic_sites": null, "num_unique_magnetic_sites": null, "types_of_magnetic_species": null, "bulk_modulus": null, "shear_modulus": null, "universal_anisotropy": null, "homogeneous_poisson": null, "e_total": null, "e_ionic": null, "e_electronic": null, "n": null, "e_ij_max": null, "weighted_surface_energy_EV_PER_ANG2": null, "weighted_surface_energy": null, "weighted_work_function": null, "surface_anisotropy": null, "shape_factor": null, "has_reconstructed": null, "possible_species": null, "has_props": null, "theoretical": null, "database_IDs": null, "fields_not_requested": ["builder_meta", "nsites", "elements", "nelements", "composition", "composition_reduced", "chemsys", "symmetry", "property_name", "deprecated", "deprecation_reasons", "last_updated", "origins", "warnings", "task_ids", "uncorrected_energy_per_atom", "equilibrium_reaction_energy_per_atom", "decomposes_to", "xas", "grain_boundaries", "cbm", "vbm", "is_gap_direct", "is_metal", "es_source_calc_id", "bandstructure", "dos", "dos_energy_up", "dos_energy_down", "is_magnetic", "ordering", "total_magnetization_normalized_vol", "total_magnetization_normalized_formula_units", "num_magnetic_sites", "num_unique_magnetic_sites", "types_of_magnetic_species", "bulk_modulus", "shear_modulus", "universal_anisotropy", "homogeneous_poisson", "e_total", "e_ionic", "e_electronic", "n", "e_ij_max", "weighted_surface_energy_EV_PER_ANG2", "weighted_surface_energy", "weighted_work_function", "surface_anisotropy", "shape_factor", "has_reconstructed", "possible_species", "has_props", "theoretical", "database_IDs"]}