{
  "builder_meta": null,
  "nsites": null,
  "elements": null,
  "nelements": null,
  "composition": null,
  "composition_reduced": null,
  "formula_pretty": "SnP3",
  "formula_anonymous": "AB3",
  "chemsys": null,
  "volume": 170.26114481096516,
  "density": 4.128035418861642,
  "density_atomic": 21.282643101370645,
  "symmetry": null,
  "property_name": null,
  "material_id": "mp-7541",
  "deprecated": null,
  "deprecation_reasons": null,
  "last_updated": null,
  "origins": null,
  "warnings": null,
  "structure": {
    "@module": "pymatgen.core.structure",
    "@class": "Structure",
    "charge": 0,
    "lattice": {
      "matrix": [
        [5.54649318, 0.05557168, 0.64908791],
        [0.58395523, 5.51594654, 0.64908791],
        [0.06114663, 0.05557168, 5.58400941]
      ],
      "pbc": [true, true, true],
      "a": 5.584620839619526,
      "b": 5.584620404082133,
      "c": 5.584620686577283,
      "alpha": 82.69284890891643,
      "beta": 82.69284898647001,
      "gamma": 82.69285110356883,
      "volume": 170.26114481096516
    },
    "properties": {},
    "sites": [
      {
        "species": [{ "element": "Sn", "occu": 1 }],
        "abc": [0.74594195, 0.74594195, 0.74594195],
        "properties": { "magmom": 0.0 },
        "label": "Sn",
        "xyz": [4.6185704777479275, 4.197482412831305, 5.133710670727398]
      },
      {
        "species": [{ "element": "Sn", "occu": 1 }],
        "abc": [0.25405805, 0.25405805, 0.25405805],
        "properties": { "magmom": 0.0 },
        "label": "Sn",
        "xyz": [1.5730245622520718, 1.4296074871686948, 1.7484745592726014]
      },
      {
        "species": [{ "element": "P", "occu": 1 }],
        "abc": [0.20089177, 0.20089177, 0.7408212],
        "properties": { "magmom": 0.0 },
        "label": "P",
        "xyz": [1.2768553517911416, 1.1604408354666655, 4.397545390178493]
      },
      {
        "species": [{ "element": "P", "occu": 1 }],
        "abc": [0.20089177, 0.7408212, 0.20089177],
        "properties": { "magmom": 0.0 },
        "label": "P",
        "xyz": [1.5591351011882395, 4.108657921212795, 1.7330360375887484]
      },
      {
        "species": [{ "element": "P", "occu": 1 }],
        "abc": [0.79910823, 0.2591788, 0.79910823],
        "properties": { "magmom": 0.0 },
        "label": "P",
        "xyz": [4.63245993881176, 1.5184319787872047, 5.149149192411251]
      },
      {
        "species": [{ "element": "P", "occu": 1 }],
        "abc": [0.79910823, 0.79910823, 0.2591788],
        "properties": { "magmom": 0.0 },
        "label": "P",
        "xyz": [4.914739688208857, 4.4666490645333345, 2.4846398398215066]
      },
      {
        "species": [{ "element": "P", "occu": 1 }],
        "abc": [0.2591788, 0.79910823, 0.79910823],
        "properties": { "magmom": 0.0 },
        "label": "P",
        "xyz": [1.9530396521148918, 4.4666490645333345, 5.149149192411251]
      },
      {
        "species": [{ "element": "P", "occu": 1 }],
        "abc": [0.7408212, 0.20089177, 0.20089177],
        "properties": { "magmom": 0.0 },
        "label": "P",
        "xyz": [4.238555387885108, 1.1604408354666655, 1.7330360375887484]
      }
    ]
  },
  "task_ids": null,
  "uncorrected_energy_per_atom": null,
  "energy_per_atom": -12.94494762125,
  "formation_energy_per_atom": -0.006844442232141001,
  "energy_above_hull": 0.0,
  "is_stable": true,
  "equilibrium_reaction_energy_per_atom": null,
  "decomposes_to": null,
  "xas": null,
  "grain_boundaries": null,
  "band_gap": 0.0,
  "cbm": null,
  "vbm": null,
  "efermi": 6.91024911,
  "is_gap_direct": null,
  "is_metal": null,
  "es_source_calc_id": null,
  "bandstructure": null,
  "dos": null,
  "dos_energy_up": null,
  "dos_energy_down": null,
  "is_magnetic": null,
  "ordering": null,
  "total_magnetization": 0.0,
  "total_magnetization_normalized_vol": null,
  "total_magnetization_normalized_formula_units": null,
  "num_magnetic_sites": null,
  "num_unique_magnetic_sites": null,
  "types_of_magnetic_species": null,
  "bulk_modulus": null,
  "shear_modulus": null,
  "universal_anisotropy": null,
  "homogeneous_poisson": null,
  "e_total": null,
  "e_ionic": null,
  "e_electronic": null,
  "n": null,
  "e_ij_max": null,
  "weighted_surface_energy_EV_PER_ANG2": null,
  "weighted_surface_energy": null,
  "weighted_work_function": null,
  "surface_anisotropy": null,
  "shape_factor": null,
  "has_reconstructed": null,
  "possible_species": null,
  "has_props": null,
  "theoretical": null,
  "database_IDs": null,
  "fields_not_requested": [
    "builder_meta",
    "nsites",
    "elements",
    "nelements",
    "composition",
    "composition_reduced",
    "chemsys",
    "symmetry",
    "property_name",
    "deprecated",
    "deprecation_reasons",
    "last_updated",
    "origins",
    "warnings",
    "task_ids",
    "uncorrected_energy_per_atom",
    "equilibrium_reaction_energy_per_atom",
    "decomposes_to",
    "xas",
    "grain_boundaries",
    "cbm",
    "vbm",
    "is_gap_direct",
    "is_metal",
    "es_source_calc_id",
    "bandstructure",
    "dos",
    "dos_energy_up",
    "dos_energy_down",
    "is_magnetic",
    "ordering",
    "total_magnetization_normalized_vol",
    "total_magnetization_normalized_formula_units",
    "num_magnetic_sites",
    "num_unique_magnetic_sites",
    "types_of_magnetic_species",
    "bulk_modulus",
    "shear_modulus",
    "universal_anisotropy",
    "homogeneous_poisson",
    "e_total",
    "e_ionic",
    "e_electronic",
    "n",
    "e_ij_max",
    "weighted_surface_energy_EV_PER_ANG2",
    "weighted_surface_energy",
    "weighted_work_function",
    "surface_anisotropy",
    "shape_factor",
    "has_reconstructed",
    "possible_species",
    "has_props",
    "theoretical",
    "database_IDs"
  ]
}
