{"builder_meta": null, "nsites": null, "elements": null, "nelements": null, "composition": null, "composition_reduced": null, "formula_pretty": "SnPb3", "formula_anonymous": "AB3", "chemsys": null, "volume": 243.76725780548085, "density": 10.085962220370071, "density_atomic": 30.470907225685107, "symmetry": null, "property_name": null, "material_id": "mp-1187118", "deprecated": null, "deprecation_reasons": null, "last_updated": null, "origins": null, "warnings": null, "structure": {"@module": "pymatgen.core.structure", "@class": "Structure", "charge": 0, "lattice": {"matrix": [[3.43585057, -5.9510682599999996, -0.0], [3.43585057, 5.9510682599999996, 0.0], [0.0, -0.0, 5.96095958]], "pbc": [true, true, true], "a": 6.871701577815261, "b": 6.871701577815261, "c": 5.96095958, "alpha": 90.0, "beta": 90.0, "gamma": 120.00000421520404, "volume": 243.7672578054808}, "properties": {}, "sites": [{"species": [{"element": "Sn", "occu": 1}], "abc": [0.333333, 0.666667, 0.75], "properties": {"magmom": 0.0}, "label": "Sn", "xyz": [3.43585057, 1.9836933873788398, 4.470719685]}, {"species": [{"element": "Sn", "occu": 1}], "abc": [0.666667, 0.333333, 0.25], "properties": {"magmom": 0.0}, "label": "Sn", "xyz": [3.43585057, -1.9836933873788398, 1.490239895]}, {"species": [{"element": "Pb", "occu": 1}], "abc": [0.16860673, 0.33721345, 0.25], "properties": {"magmom": -0.0}, "label": "Pb", "xyz": [1.7379225537705028, 1.0033900998147072, 1.490239895]}, {"species": [{"element": "Pb", "occu": 1}], "abc": [0.66278655, 0.83139327, 0.25], "properties": {"magmom": -0.0}, "label": "Pb", "xyz": [5.133778586229497, 1.0033900998147072, 1.490239895]}, {"species": [{"element": "Pb", "occu": 1}], "abc": [0.16860673, 0.83139327, 0.25], "properties": {"magmom": -0.0}, "label": "Pb", "xyz": [3.43585057, 3.94428794134922, 1.490239895]}, {"species": [{"element": "Pb", "occu": 1}], "abc": [0.83139327, 0.66278655, 0.75], "properties": {"magmom": -0.0}, "label": "Pb", "xyz": [5.133778586229497, -1.0033900998147072, 4.470719685]}, {"species": [{"element": "Pb", "occu": 1}], "abc": [0.33721345, 0.16860673, 0.75], "properties": {"magmom": -0.0}, "label": "Pb", "xyz": [1.7379225537705028, -1.0033900998147072, 4.470719685]}, {"species": [{"element": "Pb", "occu": 1}], "abc": [0.83139327, 0.16860673, 0.75], "properties": {"magmom": -0.0}, "label": "Pb", "xyz": [3.43585057, -3.94428794134922, 4.470719685]}]}, "task_ids": null, "uncorrected_energy_per_atom": null, "energy_per_atom": -48.3111445475, "formation_energy_per_atom": 0.08925198000000001, "energy_above_hull": 0.08925198000000001, "is_stable": false, "equilibrium_reaction_energy_per_atom": null, "decomposes_to": null, "xas": null, "grain_boundaries": null, "band_gap": 0.0, "cbm": null, "vbm": null, "efermi": 7.11535664, "is_gap_direct": null, "is_metal": null, "es_source_calc_id": null, "bandstructure": null, "dos": null, "dos_energy_up": null, "dos_energy_down": null, "is_magnetic": null, "ordering": null, "total_magnetization": 0.0, "total_magnetization_normalized_vol": null, "total_magnetization_normalized_formula_units": null, "num_magnetic_sites": null, "num_unique_magnetic_sites": null, "types_of_magnetic_species": null, "bulk_modulus": null, "shear_modulus": null, "universal_anisotropy": null, "homogeneous_poisson": null, "e_total": null, "e_ionic": null, "e_electronic": null, "n": null, "e_ij_max": null, "weighted_surface_energy_EV_PER_ANG2": null, "weighted_surface_energy": null, "weighted_work_function": null, "surface_anisotropy": null, "shape_factor": null, "has_reconstructed": null, "possible_species": null, "has_props": null, "theoretical": null, "database_IDs": null, "fields_not_requested": ["builder_meta", "nsites", "elements", "nelements", "composition", "composition_reduced", "chemsys", "symmetry", "property_name", "deprecated", "deprecation_reasons", "last_updated", "origins", "warnings", "task_ids", "uncorrected_energy_per_atom", "equilibrium_reaction_energy_per_atom", "decomposes_to", "xas", "grain_boundaries", "cbm", "vbm", "is_gap_direct", "is_metal", "es_source_calc_id", "bandstructure", "dos", "dos_energy_up", "dos_energy_down", "is_magnetic", "ordering", "total_magnetization_normalized_vol", "total_magnetization_normalized_formula_units", "num_magnetic_sites", "num_unique_magnetic_sites", "types_of_magnetic_species", "bulk_modulus", "shear_modulus", "universal_anisotropy", "homogeneous_poisson", "e_total", "e_ionic", "e_electronic", "n", "e_ij_max", "weighted_surface_energy_EV_PER_ANG2", "weighted_surface_energy", "weighted_work_function", "surface_anisotropy", "shape_factor", "has_reconstructed", "possible_species", "has_props", "theoretical", "database_IDs"]}