{"builder_meta": null, "nsites": null, "elements": null, "nelements": null, "composition": null, "composition_reduced": null, "formula_pretty": "SnPd2", "formula_anonymous": "AB2", "chemsys": null, "volume": 202.36388146949923, "density": 10.882410903236414, "density_atomic": 16.863656789124935, "symmetry": null, "property_name": null, "material_id": "mp-1851", "deprecated": null, "deprecation_reasons": null, "last_updated": null, "origins": null, "warnings": null, "structure": {"@module": "pymatgen.core.structure", "@class": "Structure", "charge": 0, "lattice": {"matrix": [[4.3672498, 0.0, 0.0], [0.0, 5.67275183, 0.00028938], [0.0, 0.00041545, 8.16829067]], "pbc": [true, true, true], "a": 4.3672498, "b": 5.672751837380967, "c": 8.168290680565166, "alpha": 89.99416307304894, "beta": 90.0, "gamma": 90.0, "volume": 202.36388146949923}, "properties": {}, "sites": [{"species": [{"element": "Sn", "occu": 1}], "abc": [0.75, 0.29659403, 0.38727511000000003], "properties": {"magmom": 0.0}, "label": "Sn", "xyz": [3.27543735, 1.6826652198940244, 3.1634614961166254]}, {"species": [{"element": "Sn", "occu": 1}], "abc": [0.25, 0.70340892, 0.612534599999999], "properties": {"magmom": -0.0}, "label": "Sn", "xyz": [1.09181245, 3.9905187156678936, 5.003564210705443]}, {"species": [{"element": "Sn", "occu": 1}], "abc": [0.75, 0.79658284, 0.112696399999999], "properties": {"magmom": -0.0}, "label": "Sn", "xyz": [3.27543735, 4.518863583075977, 0.9207674678048189]}, {"species": [{"element": "Sn", "occu": 1}], "abc": [0.25, 0.20341006, 0.8875367200000001], "properties": {"magmom": -0.0}, "label": "Sn", "xyz": [1.09181245, 1.154263517235734, 7.249716772061564]}, {"species": [{"element": "Pd", "occu": 1}], "abc": [0.75, 0.9505730800000001, 0.7919148500000001], "properties": {"magmom": -0.0}, "label": "Pd", "xyz": [3.27543735, 5.392694180143169, 6.46886575752734]}, {"species": [{"element": "Pd", "occu": 1}], "abc": [0.25, 0.04939832, 0.208098999999999], "properties": {"magmom": -0.0}, "label": "Pd", "xyz": [1.09181245, 0.2803108649084756, 1.6998274150221635]}, {"species": [{"element": "Pd", "occu": 1}], "abc": [0.75, 0.45060945, 0.7081196200000001], "properties": {"magmom": 0.0}, "label": "Pd", "xyz": [3.27543735, 2.556489770398923, 5.784257282652586]}, {"species": [{"element": "Pd", "occu": 1}], "abc": [0.25, 0.54939628, 0.29190624], "properties": {"magmom": -0.0}, "label": "Pd", "xyz": [1.09181245, 3.1167100252126, 2.3845340010022866]}, {"species": [{"element": "Pd", "occu": 1}], "abc": [0.75, 0.82681258, 0.44102298], "properties": {"magmom": -0.0}, "label": "Pd", "xyz": [3.27543735, 4.690485799259063, 3.602643155813997]}, {"species": [{"element": "Pd", "occu": 1}], "abc": [0.25, 0.17318558, 0.55874573], "properties": {"magmom": -0.0}, "label": "Pd", "xyz": [1.09181245, 0.9826709467881399, 4.564047649704479]}, {"species": [{"element": "Pd", "occu": 1}], "abc": [0.75, 0.32681243, 0.05886329], "properties": {"magmom": 0.0}, "label": "Pd", "xyz": [3.27543735, 1.8539502651030773, 0.48090703549349767]}, {"species": [{"element": "Pd", "occu": 1}], "abc": [0.25, 0.67321544, 0.94128646], "properties": {"magmom": -0.0}, "label": "Pd", "xyz": [1.09181245, 3.8193751767040625, 7.688896224099356]}]}, "task_ids": null, "uncorrected_energy_per_atom": null, "energy_per_atom": -24.075555699166667, "formation_energy_per_atom": -0.519858699166666, "energy_above_hull": 0.0, "is_stable": true, "equilibrium_reaction_energy_per_atom": null, "decomposes_to": null, "xas": null, "grain_boundaries": null, "band_gap": 0.0, "cbm": null, "vbm": null, "efermi": 7.24642292, "is_gap_direct": null, "is_metal": null, "es_source_calc_id": null, "bandstructure": null, "dos": null, "dos_energy_up": null, "dos_energy_down": null, "is_magnetic": null, "ordering": null, "total_magnetization": 0.0, "total_magnetization_normalized_vol": null, "total_magnetization_normalized_formula_units": null, "num_magnetic_sites": null, "num_unique_magnetic_sites": null, "types_of_magnetic_species": null, "bulk_modulus": null, "shear_modulus": null, "universal_anisotropy": null, "homogeneous_poisson": null, "e_total": null, "e_ionic": null, "e_electronic": null, "n": null, "e_ij_max": null, "weighted_surface_energy_EV_PER_ANG2": null, "weighted_surface_energy": null, "weighted_work_function": null, "surface_anisotropy": null, "shape_factor": null, "has_reconstructed": null, "possible_species": null, "has_props": null, "theoretical": null, "database_IDs": null, "fields_not_requested": ["builder_meta", "nsites", "elements", "nelements", "composition", "composition_reduced", "chemsys", "symmetry", "property_name", "deprecated", "deprecation_reasons", "last_updated", "origins", "warnings", "task_ids", "uncorrected_energy_per_atom", "equilibrium_reaction_energy_per_atom", "decomposes_to", "xas", "grain_boundaries", "cbm", "vbm", "is_gap_direct", "is_metal", "es_source_calc_id", "bandstructure", "dos", "dos_energy_up", "dos_energy_down", "is_magnetic", "ordering", "total_magnetization_normalized_vol", "total_magnetization_normalized_formula_units", "num_magnetic_sites", "num_unique_magnetic_sites", "types_of_magnetic_species", "bulk_modulus", "shear_modulus", "universal_anisotropy", "homogeneous_poisson", "e_total", "e_ionic", "e_electronic", "n", "e_ij_max", "weighted_surface_energy_EV_PER_ANG2", "weighted_surface_energy", "weighted_work_function", "surface_anisotropy", "shape_factor", "has_reconstructed", "possible_species", "has_props", "theoretical", "database_IDs"]}