{
  "builder_meta": null,
  "nsites": null,
  "elements": null,
  "nelements": null,
  "composition": null,
  "composition_reduced": null,
  "formula_pretty": "SnPd",
  "formula_anonymous": "AB",
  "chemsys": null,
  "volume": 156.40566222102117,
  "density": 9.560706556400199,
  "density_atomic": 19.550707777627647,
  "symmetry": null,
  "property_name": null,
  "material_id": "mp-2369",
  "deprecated": null,
  "deprecation_reasons": null,
  "last_updated": null,
  "origins": null,
  "warnings": null,
  "structure": {
    "@module": "pymatgen.core.structure",
    "@class": "Structure",
    "charge": 0,
    "lattice": {
      "matrix": [
        [4.00620273, 0.0, 0.0],
        [-0.0, 6.00459695, 0.0],
        [0.0, 0.0, 6.50183116]
      ],
      "pbc": [true, true, true],
      "a": 4.00620273,
      "b": 6.00459695,
      "c": 6.50183116,
      "alpha": 90.0,
      "beta": 90.0,
      "gamma": 90.0,
      "volume": 156.40566222102117
    },
    "properties": {},
    "sites": [
      {
        "species": [{ "element": "Sn", "occu": 1 }],
        "abc": [0.75, 0.80721541, 0.40668805],
        "properties": { "magmom": -0.0 },
        "label": "Sn",
        "xyz": [3.0046520475, 4.8470031888789995, 2.644217035889638]
      },
      {
        "species": [{ "element": "Sn", "occu": 1 }],
        "abc": [0.25, 0.19278459, 0.59331195],
        "properties": { "magmom": -0.0 },
        "label": "Sn",
        "xyz": [1.0015506825, 1.1575937611210005, 3.8576141241103623]
      },
      {
        "species": [{ "element": "Sn", "occu": 1 }],
        "abc": [0.75, 0.30721541, 0.09331195],
        "properties": { "magmom": -0.0 },
        "label": "Sn",
        "xyz": [3.0046520475, 1.8447047138789996, 0.6066985441103621]
      },
      {
        "species": [{ "element": "Sn", "occu": 1 }],
        "abc": [0.25, 0.69278459, 0.90668805],
        "properties": { "magmom": -0.0 },
        "label": "Sn",
        "xyz": [1.0015506825, 4.159892236121, 5.895132615889638]
      },
      {
        "species": [{ "element": "Pd", "occu": 1 }],
        "abc": [0.75, 0.99122267, 0.8061786],
        "properties": { "magmom": -0.0 },
        "label": "Pd",
        "xyz": [3.0046520475, 5.951892621052856, 5.2416371420051755]
      },
      {
        "species": [{ "element": "Pd", "occu": 1 }],
        "abc": [0.25, 0.00877733, 0.1938214],
        "properties": { "magmom": -0.0 },
        "label": "Pd",
        "xyz": [1.0015506825, 0.0527043289471435, 1.2601940179948241]
      },
      {
        "species": [{ "element": "Pd", "occu": 1 }],
        "abc": [0.75, 0.49122267000000003, 0.693821399999999],
        "properties": { "magmom": -0.0 },
        "label": "Pd",
        "xyz": [3.0046520475, 2.9495941460528567, 4.5111095979948175]
      },
      {
        "species": [{ "element": "Pd", "occu": 1 }],
        "abc": [0.25, 0.50877733, 0.306178599999999],
        "properties": { "magmom": -0.0 },
        "label": "Pd",
        "xyz": [1.0015506825, 3.0550028039471435, 1.9907215620051697]
      }
    ]
  },
  "task_ids": null,
  "uncorrected_energy_per_atom": null,
  "energy_per_atom": -24.3551558525,
  "formation_energy_per_atom": -0.501837157500002,
  "energy_above_hull": 0.0,
  "is_stable": true,
  "equilibrium_reaction_energy_per_atom": null,
  "decomposes_to": null,
  "xas": null,
  "grain_boundaries": null,
  "band_gap": 0.0,
  "cbm": null,
  "vbm": null,
  "efermi": 7.8177905800000005,
  "is_gap_direct": null,
  "is_metal": null,
  "es_source_calc_id": null,
  "bandstructure": null,
  "dos": null,
  "dos_energy_up": null,
  "dos_energy_down": null,
  "is_magnetic": null,
  "ordering": null,
  "total_magnetization": 0.0,
  "total_magnetization_normalized_vol": null,
  "total_magnetization_normalized_formula_units": null,
  "num_magnetic_sites": null,
  "num_unique_magnetic_sites": null,
  "types_of_magnetic_species": null,
  "bulk_modulus": null,
  "shear_modulus": null,
  "universal_anisotropy": null,
  "homogeneous_poisson": null,
  "e_total": null,
  "e_ionic": null,
  "e_electronic": null,
  "n": null,
  "e_ij_max": null,
  "weighted_surface_energy_EV_PER_ANG2": null,
  "weighted_surface_energy": null,
  "weighted_work_function": null,
  "surface_anisotropy": null,
  "shape_factor": null,
  "has_reconstructed": null,
  "possible_species": null,
  "has_props": null,
  "theoretical": null,
  "database_IDs": null,
  "fields_not_requested": [
    "builder_meta",
    "nsites",
    "elements",
    "nelements",
    "composition",
    "composition_reduced",
    "chemsys",
    "symmetry",
    "property_name",
    "deprecated",
    "deprecation_reasons",
    "last_updated",
    "origins",
    "warnings",
    "task_ids",
    "uncorrected_energy_per_atom",
    "equilibrium_reaction_energy_per_atom",
    "decomposes_to",
    "xas",
    "grain_boundaries",
    "cbm",
    "vbm",
    "is_gap_direct",
    "is_metal",
    "es_source_calc_id",
    "bandstructure",
    "dos",
    "dos_energy_up",
    "dos_energy_down",
    "is_magnetic",
    "ordering",
    "total_magnetization_normalized_vol",
    "total_magnetization_normalized_formula_units",
    "num_magnetic_sites",
    "num_unique_magnetic_sites",
    "types_of_magnetic_species",
    "bulk_modulus",
    "shear_modulus",
    "universal_anisotropy",
    "homogeneous_poisson",
    "e_total",
    "e_ionic",
    "e_electronic",
    "n",
    "e_ij_max",
    "weighted_surface_energy_EV_PER_ANG2",
    "weighted_surface_energy",
    "weighted_work_function",
    "surface_anisotropy",
    "shape_factor",
    "has_reconstructed",
    "possible_species",
    "has_props",
    "theoretical",
    "database_IDs"
  ]
}
