{"builder_meta": null, "nsites": null, "elements": null, "nelements": null, "composition": null, "composition_reduced": null, "formula_pretty": "SnRh3", "formula_anonymous": "AB3", "chemsys": null, "volume": 121.42166564387158, "density": 11.690803244814948, "density_atomic": 15.177708205483947, "symmetry": null, "property_name": null, "material_id": "mp-1187077", "deprecated": null, "deprecation_reasons": null, "last_updated": null, "origins": null, "warnings": null, "structure": {"@module": "pymatgen.core.structure", "@class": "Structure", "charge": 0, "lattice": {"matrix": [[2.79949461, -4.84886773, 0.0], [2.79949461, 4.84886773, -0.0], [0.0, 0.0, 4.47245745]], "pbc": [true, true, true], "a": 5.5989899387706, "b": 5.5989899387706, "c": 4.47245745, "alpha": 90.0, "beta": 90.0, "gamma": 120.00000849322458, "volume": 121.42166564387158}, "properties": {}, "sites": [{"species": [{"element": "Sn", "occu": 1}], "abc": [0.333333, 0.666667, 0.75], "properties": {"magmom": 0.0}, "label": "Sn", "xyz": [2.79949461, 1.61629247591182, 3.3543430875]}, {"species": [{"element": "Sn", "occu": 1}], "abc": [0.666667, 0.333333, 0.25], "properties": {"magmom": 0.0}, "label": "Sn", "xyz": [2.79949461, -1.61629247591182, 1.1181143625]}, {"species": [{"element": "Rh", "occu": 1}], "abc": [0.16283596, 0.32567292000000003, 0.25], "properties": {"magmom": -0.0}, "label": "Rh", "xyz": [1.3675779764971367, 0.7895748805953009, 1.1181143625]}, {"species": [{"element": "Rh", "occu": 1}], "abc": [0.67432708, 0.83716404, 0.25], "properties": {"magmom": -0.0}, "label": "Rh", "xyz": [4.231411243502864, 0.7895748805953007, 1.1181143625]}, {"species": [{"element": "Rh", "occu": 1}], "abc": [0.16283596, 0.83716404, 0.25], "properties": {"magmom": -0.0}, "label": "Rh", "xyz": [2.79949461, 3.269727666544858, 1.1181143625]}, {"species": [{"element": "Rh", "occu": 1}], "abc": [0.83716404, 0.67432708, 0.75], "properties": {"magmom": -0.0}, "label": "Rh", "xyz": [4.231411243502864, -0.7895748805953007, 3.3543430875]}, {"species": [{"element": "Rh", "occu": 1}], "abc": [0.32567292000000003, 0.16283596, 0.75], "properties": {"magmom": -0.0}, "label": "Rh", "xyz": [1.3675779764971367, -0.7895748805953009, 3.3543430875]}, {"species": [{"element": "Rh", "occu": 1}], "abc": [0.83716404, 0.16283596, 0.75], "properties": {"magmom": -0.0}, "label": "Rh", "xyz": [2.79949461, -3.269727666544858, 3.3543430875]}]}, "task_ids": null, "uncorrected_energy_per_atom": null, "energy_per_atom": -6.78331471125, "formation_energy_per_atom": -0.257690844999999, "energy_above_hull": 0.014290054999999002, "is_stable": false, "equilibrium_reaction_energy_per_atom": null, "decomposes_to": null, "xas": null, "grain_boundaries": null, "band_gap": 0.0, "cbm": null, "vbm": null, "efermi": 8.27346609, "is_gap_direct": null, "is_metal": null, "es_source_calc_id": null, "bandstructure": null, "dos": null, "dos_energy_up": null, "dos_energy_down": null, "is_magnetic": null, "ordering": null, "total_magnetization": 1.1e-06, "total_magnetization_normalized_vol": null, "total_magnetization_normalized_formula_units": null, "num_magnetic_sites": null, "num_unique_magnetic_sites": null, "types_of_magnetic_species": null, "bulk_modulus": null, "shear_modulus": null, "universal_anisotropy": null, "homogeneous_poisson": null, "e_total": null, "e_ionic": null, "e_electronic": null, "n": null, "e_ij_max": null, "weighted_surface_energy_EV_PER_ANG2": null, "weighted_surface_energy": null, "weighted_work_function": null, "surface_anisotropy": null, "shape_factor": null, "has_reconstructed": null, "possible_species": null, "has_props": null, "theoretical": null, "database_IDs": null, "fields_not_requested": ["builder_meta", "nsites", "elements", "nelements", "composition", "composition_reduced", "chemsys", "symmetry", "property_name", "deprecated", "deprecation_reasons", "last_updated", "origins", "warnings", "task_ids", "uncorrected_energy_per_atom", "equilibrium_reaction_energy_per_atom", "decomposes_to", "xas", "grain_boundaries", "cbm", "vbm", "is_gap_direct", "is_metal", "es_source_calc_id", "bandstructure", "dos", "dos_energy_up", "dos_energy_down", "is_magnetic", "ordering", "total_magnetization_normalized_vol", "total_magnetization_normalized_formula_units", "num_magnetic_sites", "num_unique_magnetic_sites", "types_of_magnetic_species", "bulk_modulus", "shear_modulus", "universal_anisotropy", "homogeneous_poisson", "e_total", "e_ionic", "e_electronic", "n", "e_ij_max", "weighted_surface_energy_EV_PER_ANG2", "weighted_surface_energy", "weighted_work_function", "surface_anisotropy", "shape_factor", "has_reconstructed", "possible_species", "has_props", "theoretical", "database_IDs"]}