{"builder_meta": null, "nsites": null, "elements": null, "nelements": null, "composition": null, "composition_reduced": null, "formula_pretty": "SnRh2", "formula_anonymous": "AB2", "chemsys": null, "volume": 189.60006378371358, "density": 11.368768294230662, "density_atomic": 15.800005315309464, "symmetry": null, "property_name": null, "material_id": "mp-636334", "deprecated": null, "deprecation_reasons": null, "last_updated": null, "origins": null, "warnings": null, "structure": {"@module": "pymatgen.core.structure", "@class": "Structure", "charge": 0, "lattice": {"matrix": [[4.24565504, 0.0, 0.0], [0.0, 5.5500602, -4.8400000000000004e-05], [0.0, -7.487e-05, 8.0462974]], "pbc": [true, true, true], "a": 4.24565504, "b": 5.550060200211039, "c": 8.04629740034833, "alpha": 90.00103278662283, "beta": 90.0, "gamma": 90.0, "volume": 189.60006378371358}, "properties": {}, "sites": [{"species": [{"element": "Sn", "occu": 1}], "abc": [0.75, 0.80862531, 0.10126323], "properties": {"magmom": 0.02}, "label": "Sn", "xyz": [3.18424128, 4.487911568165632, 0.814754926799598]}, {"species": [{"element": "Sn", "occu": 1}], "abc": [0.75, 0.30866393000000003, 0.39878002], "properties": {"magmom": 0.02}, "label": "Sn", "xyz": [3.18424128, 1.7130735364084888, 3.2086876987637365]}, {"species": [{"element": "Sn", "occu": 1}], "abc": [0.25, 0.19138197, 0.89870184], "properties": {"magmom": 0.02}, "label": "Sn", "xyz": [1.06141376, 1.0621141688878333, 7.231213015679868]}, {"species": [{"element": "Sn", "occu": 1}], "abc": [0.25, 0.69134278, 0.60125345], "properties": {"magmom": 0.02}, "label": "Sn", "xyz": [1.06141376, 3.8369490319895547, 4.8378306104854785]}, {"species": [{"element": "Rh", "occu": 1}], "abc": [0.25, 0.17000477, 0.56901787], "properties": {"magmom": -0.16}, "label": "Rh", "xyz": [1.06141376, 0.9434941054192271, 4.57847877970367]}, {"species": [{"element": "Rh", "occu": 1}], "abc": [0.75, 0.45478159, 0.72482906], "properties": {"magmom": -0.244}, "label": "Rh", "xyz": [3.18424128, 2.5240109343999957, 5.832168169493489]}, {"species": [{"element": "Rh", "occu": 1}], "abc": [0.75, 0.95476739, 0.7751112800000001], "properties": {"magmom": -0.244}, "label": "Rh", "xyz": [3.18424128, 5.298958458915344, 6.236729666232997]}, {"species": [{"element": "Rh", "occu": 1}], "abc": [0.75, 0.82999647, 0.43092529], "properties": {"magmom": -0.16}, "label": "Rh", "xyz": [3.18424128, 4.606498110911032, 3.467312868692098]}, {"species": [{"element": "Rh", "occu": 1}], "abc": [0.75, 0.32999934000000003, 0.06911439], "properties": {"magmom": -0.16}, "label": "Rh", "xyz": [3.18424128, 1.8315110283658889, 0.55609896459153]}, {"species": [{"element": "Rh", "occu": 1}], "abc": [0.25, 0.67003584, 0.9309467100000001], "properties": {"magmom": -0.16}, "label": "Rh", "xyz": [1.06141376, 3.7186695481773904, 7.490641662476899]}, {"species": [{"element": "Rh", "occu": 1}], "abc": [0.25, 0.04519491, 0.22491654], "properties": {"magmom": -0.244}, "label": "Rh", "xyz": [1.06141376, 0.2508176317322322, 1.8097431835853521]}, {"species": [{"element": "Rh", "occu": 1}], "abc": [0.25, 0.54520469, 0.27513832], "properties": {"magmom": -0.243}, "label": "Rh", "xyz": [1.06141376, 3.02589825121632, 2.213818360949372]}]}, "task_ids": null, "uncorrected_energy_per_atom": null, "energy_per_atom": -6.608703731666665, "formation_energy_per_atom": -0.36264119999999705, "energy_above_hull": 0.0, "is_stable": true, "equilibrium_reaction_energy_per_atom": null, "decomposes_to": null, "xas": null, "grain_boundaries": null, "band_gap": 0.0, "cbm": null, "vbm": null, "efermi": 8.48319118, "is_gap_direct": null, "is_metal": null, "es_source_calc_id": null, "bandstructure": null, "dos": null, "dos_energy_up": null, "dos_energy_down": null, "is_magnetic": null, "ordering": null, "total_magnetization": 1.4250303, "total_magnetization_normalized_vol": null, "total_magnetization_normalized_formula_units": null, "num_magnetic_sites": null, "num_unique_magnetic_sites": null, "types_of_magnetic_species": null, "bulk_modulus": null, "shear_modulus": null, "universal_anisotropy": null, "homogeneous_poisson": null, "e_total": null, "e_ionic": null, "e_electronic": null, "n": null, "e_ij_max": null, "weighted_surface_energy_EV_PER_ANG2": null, "weighted_surface_energy": null, "weighted_work_function": null, "surface_anisotropy": null, "shape_factor": null, "has_reconstructed": null, "possible_species": null, "has_props": null, "theoretical": null, "database_IDs": null, "fields_not_requested": ["builder_meta", "nsites", "elements", "nelements", "composition", "composition_reduced", "chemsys", "symmetry", "property_name", "deprecated", "deprecation_reasons", "last_updated", "origins", "warnings", "task_ids", "uncorrected_energy_per_atom", "equilibrium_reaction_energy_per_atom", "decomposes_to", "xas", "grain_boundaries", "cbm", "vbm", "is_gap_direct", "is_metal", "es_source_calc_id", "bandstructure", "dos", "dos_energy_up", "dos_energy_down", "is_magnetic", "ordering", "total_magnetization_normalized_vol", "total_magnetization_normalized_formula_units", "num_magnetic_sites", "num_unique_magnetic_sites", "types_of_magnetic_species", "bulk_modulus", "shear_modulus", "universal_anisotropy", "homogeneous_poisson", "e_total", "e_ionic", "e_electronic", "n", "e_ij_max", "weighted_surface_energy_EV_PER_ANG2", "weighted_surface_energy", "weighted_work_function", "surface_anisotropy", "shape_factor", "has_reconstructed", "possible_species", "has_props", "theoretical", "database_IDs"]}