{"builder_meta": null, "nsites": null, "elements": null, "nelements": null, "composition": null, "composition_reduced": null, "formula_pretty": "SnS", "formula_anonymous": "AB", "chemsys": null, "volume": 204.3235483638381, "density": 4.9013983903761495, "density_atomic": 25.540443545479764, "symmetry": null, "property_name": null, "material_id": "mp-2231", "deprecated": null, "deprecation_reasons": null, "last_updated": null, "origins": null, "warnings": null, "structure": {"@module": "pymatgen.core.structure", "@class": "Structure", "charge": 0, "lattice": {"matrix": [[3.95685521, -0.0, 0.0], [0.0, 4.53281069, 0.0], [0.0, 0.0, 11.39201851]], "pbc": [true, true, true], "a": 3.95685521, "b": 4.53281069, "c": 11.39201851, "alpha": 90.0, "beta": 90.0, "gamma": 90.0, "volume": 204.3235483638381}, "properties": {}, "sites": [{"species": [{"element": "Sn", "occu": 1}], "abc": [0.25, 0.36953984, 0.6216327500000001], "properties": {"magmom": -0.0}, "label": "Sn", "xyz": [0.9892138025, 1.6750541371328895, 7.0816517944222035]}, {"species": [{"element": "Sn", "occu": 1}], "abc": [0.75, 0.63046016, 0.37836725], "properties": {"magmom": -0.0}, "label": "Sn", "xyz": [2.9676414075, 2.8577565528671105, 4.310366715577797]}, {"species": [{"element": "Sn", "occu": 1}], "abc": [0.75, 0.8695398400000001, 0.87836725], "properties": {"magmom": -0.0}, "label": "Sn", "xyz": [2.9676414075, 3.9414594821328897, 10.006375970577798]}, {"species": [{"element": "Sn", "occu": 1}], "abc": [0.25, 0.13046016, 0.12163275], "properties": {"magmom": -0.0}, "label": "Sn", "xyz": [0.9892138025, 0.5913512078671104, 1.3856425394222025]}, {"species": [{"element": "S", "occu": 1}], "abc": [0.25, 0.0105968, 0.34749746], "properties": {"magmom": -0.0}, "label": "S", "xyz": [0.9892138025, 0.048033288319792, 3.9586974964979844]}, {"species": [{"element": "S", "occu": 1}], "abc": [0.75, 0.989403199999999, 0.65250254], "properties": {"magmom": -0.0}, "label": "S", "xyz": [2.9676414075, 4.484777401680203, 7.433321013502015]}, {"species": [{"element": "S", "occu": 1}], "abc": [0.75, 0.5105968, 0.15250254], "properties": {"magmom": -0.0}, "label": "S", "xyz": [2.9676414075, 2.3144386333197917, 1.7373117585020152]}, {"species": [{"element": "S", "occu": 1}], "abc": [0.25, 0.4894032, 0.84749746], "properties": {"magmom": -0.0}, "label": "S", "xyz": [0.9892138025, 2.2183720566802076, 9.654706751497985]}]}, "task_ids": null, "uncorrected_energy_per_atom": null, "energy_per_atom": -16.86219161875, "formation_energy_per_atom": -0.47160018765625006, "energy_above_hull": 0.0, "is_stable": true, "equilibrium_reaction_energy_per_atom": null, "decomposes_to": null, "xas": null, "grain_boundaries": null, "band_gap": 0.904799999999999, "cbm": null, "vbm": null, "efermi": 5.56809629, "is_gap_direct": null, "is_metal": null, "es_source_calc_id": null, "bandstructure": null, "dos": null, "dos_energy_up": null, "dos_energy_down": null, "is_magnetic": null, "ordering": null, "total_magnetization": 0.0, "total_magnetization_normalized_vol": null, "total_magnetization_normalized_formula_units": null, "num_magnetic_sites": null, "num_unique_magnetic_sites": null, "types_of_magnetic_species": null, "bulk_modulus": null, "shear_modulus": null, "universal_anisotropy": null, "homogeneous_poisson": null, "e_total": null, "e_ionic": null, "e_electronic": null, "n": null, "e_ij_max": null, "weighted_surface_energy_EV_PER_ANG2": null, "weighted_surface_energy": null, "weighted_work_function": null, "surface_anisotropy": null, "shape_factor": null, "has_reconstructed": null, "possible_species": null, "has_props": null, "theoretical": null, "database_IDs": null, "fields_not_requested": ["builder_meta", "nsites", "elements", "nelements", "composition", "composition_reduced", "chemsys", "symmetry", "property_name", "deprecated", "deprecation_reasons", "last_updated", "origins", "warnings", "task_ids", "uncorrected_energy_per_atom", "equilibrium_reaction_energy_per_atom", "decomposes_to", "xas", "grain_boundaries", "cbm", "vbm", "is_gap_direct", "is_metal", "es_source_calc_id", "bandstructure", "dos", "dos_energy_up", "dos_energy_down", "is_magnetic", "ordering", "total_magnetization_normalized_vol", "total_magnetization_normalized_formula_units", "num_magnetic_sites", "num_unique_magnetic_sites", "types_of_magnetic_species", "bulk_modulus", "shear_modulus", "universal_anisotropy", "homogeneous_poisson", "e_total", "e_ionic", "e_electronic", "n", "e_ij_max", "weighted_surface_energy_EV_PER_ANG2", "weighted_surface_energy", "weighted_work_function", "surface_anisotropy", "shape_factor", "has_reconstructed", "possible_species", "has_props", "theoretical", "database_IDs"]}