{"builder_meta": null, "nsites": null, "elements": null, "nelements": null, "composition": null, "composition_reduced": null, "formula_pretty": "SnSe", "formula_anonymous": "AB", "chemsys": null, "volume": 226.25694595101302, "density": 5.8029379989225, "density_atomic": 28.282118243876628, "symmetry": null, "property_name": null, "material_id": "mp-691", "deprecated": null, "deprecation_reasons": null, "last_updated": null, "origins": null, "warnings": null, "structure": {"@module": "pymatgen.core.structure", "@class": "Structure", "charge": 0, "lattice": {"matrix": [[4.70090745, 0.0, 0.0], [-0.0, 4.12625095, 0.0], [0.0, 0.0, 11.6644585]], "pbc": [true, true, true], "a": 4.70090745, "b": 4.12625095, "c": 11.6644585, "alpha": 90.0, "beta": 90.0, "gamma": 90.0, "volume": 226.25694595101302}, "properties": {}, "sites": [{"species": [{"element": "Sn", "occu": 1}], "abc": [0.6234457, 0.25, 0.38121315], "properties": {"magmom": -0.0}, "label": "Sn", "xyz": [2.9307605358004647, 1.0315627375, 4.446644967829275]}, {"species": [{"element": "Sn", "occu": 1}], "abc": [0.123445699999999, 0.75, 0.11878685], "properties": {"magmom": -0.0}, "label": "Sn", "xyz": [0.5803068108004603, 3.0946882125000004, 1.385584282170725]}, {"species": [{"element": "Sn", "occu": 1}], "abc": [0.3765543, 0.75, 0.61878685], "properties": {"magmom": -0.0}, "label": "Sn", "xyz": [1.770146914199535, 3.0946882125000004, 7.217813532170725]}, {"species": [{"element": "Sn", "occu": 1}], "abc": [0.8765543, 0.25, 0.88121315], "properties": {"magmom": -0.0}, "label": "Sn", "xyz": [4.120600639199535, 1.0315627375, 10.278874217829275]}, {"species": [{"element": "Se", "occu": 1}], "abc": [0.4908182, 0.75, 0.85144697], "properties": {"magmom": 0.0}, "label": "Se", "xyz": [2.3072909329755897, 3.0946882125000004, 9.931667846515746]}, {"species": [{"element": "Se", "occu": 1}], "abc": [0.0091818, 0.75, 0.35144697], "properties": {"magmom": 0.0}, "label": "Se", "xyz": [0.04316279202441, 3.0946882125000004, 4.099438596515745]}, {"species": [{"element": "Se", "occu": 1}], "abc": [-0.0091818, 0.25, 0.64855303], "properties": {"magmom": 0.0}, "label": "Se", "xyz": [-0.04316279202441, 1.0315627375, 7.565019903484255]}, {"species": [{"element": "Se", "occu": 1}], "abc": [0.5091818, 0.25, 0.14855303], "properties": {"magmom": 0.0}, "label": "Se", "xyz": [2.39361651702441, 1.0315627375, 1.732790653484255]}]}, "task_ids": null, "uncorrected_energy_per_atom": null, "energy_per_atom": -19.98241831375, "formation_energy_per_atom": -0.45354630828125003, "energy_above_hull": 0.0, "is_stable": true, "equilibrium_reaction_energy_per_atom": null, "decomposes_to": null, "xas": null, "grain_boundaries": null, "band_gap": 0.5159, "cbm": null, "vbm": null, "efermi": 4.78982135, "is_gap_direct": null, "is_metal": null, "es_source_calc_id": null, "bandstructure": null, "dos": null, "dos_energy_up": null, "dos_energy_down": null, "is_magnetic": null, "ordering": null, "total_magnetization": 0.0, "total_magnetization_normalized_vol": null, "total_magnetization_normalized_formula_units": null, "num_magnetic_sites": null, "num_unique_magnetic_sites": null, "types_of_magnetic_species": null, "bulk_modulus": null, "shear_modulus": null, "universal_anisotropy": null, "homogeneous_poisson": null, "e_total": null, "e_ionic": null, "e_electronic": null, "n": null, "e_ij_max": null, "weighted_surface_energy_EV_PER_ANG2": null, "weighted_surface_energy": null, "weighted_work_function": null, "surface_anisotropy": null, "shape_factor": null, "has_reconstructed": null, "possible_species": null, "has_props": null, "theoretical": null, "database_IDs": null, "fields_not_requested": ["builder_meta", "nsites", "elements", "nelements", "composition", "composition_reduced", "chemsys", "symmetry", "property_name", "deprecated", "deprecation_reasons", "last_updated", "origins", "warnings", "task_ids", "uncorrected_energy_per_atom", "equilibrium_reaction_energy_per_atom", "decomposes_to", "xas", "grain_boundaries", "cbm", "vbm", "is_gap_direct", "is_metal", "es_source_calc_id", "bandstructure", "dos", "dos_energy_up", "dos_energy_down", "is_magnetic", "ordering", "total_magnetization_normalized_vol", "total_magnetization_normalized_formula_units", "num_magnetic_sites", "num_unique_magnetic_sites", "types_of_magnetic_species", "bulk_modulus", "shear_modulus", "universal_anisotropy", "homogeneous_poisson", "e_total", "e_ionic", "e_electronic", "n", "e_ij_max", "weighted_surface_energy_EV_PER_ANG2", "weighted_surface_energy", "weighted_work_function", "surface_anisotropy", "shape_factor", "has_reconstructed", "possible_species", "has_props", "theoretical", "database_IDs"]}