{"builder_meta": null, "nsites": null, "elements": null, "nelements": null, "composition": null, "composition_reduced": null, "formula_pretty": "SO2", "formula_anonymous": "AB2", "chemsys": null, "volume": 104.41966208548168, "density": 2.037555773121775, "density_atomic": 17.403277014246946, "symmetry": null, "property_name": null, "material_id": "mp-27726", "deprecated": null, "deprecation_reasons": null, "last_updated": null, "origins": null, "warnings": null, "structure": {"@module": "pymatgen.core.structure", "@class": "Structure", "charge": 0, "lattice": {"matrix": [[4.20825083, -0.03761526, 0.0], [-0.17690142, 4.20470011, 0.0], [0.0, 0.0, 5.90349217]], "pbc": [true, true, true], "a": 4.208418937793688, "b": 4.20841978982991, "c": 5.90349217, "alpha": 90.0, "beta": 90.0, "gamma": 92.92126674739782, "volume": 104.41966208548168}, "properties": {}, "sites": [{"species": [{"element": "S", "occu": 1}], "abc": [0.49613037, 0.50386963, 0.5], "properties": {"magmom": 0.0}, "label": "S", "xyz": [1.9987057882988324, 2.099958615825213, 2.951746085]}, {"species": [{"element": "S", "occu": 1}], "abc": [-0.00386963, 0.00386963, -0.0], "properties": {"magmom": 0.0}, "label": "S", "xyz": [-0.0169689167011675, 0.016416190825213103, 0.0]}, {"species": [{"element": "O", "occu": 1}], "abc": [0.77356722, 0.53369759, 0.64201496], "properties": {"magmom": -0.0}, "label": "O", "xyz": [3.1609530341042147, 2.2149403832719576, 3.790130289382863]}, {"species": [{"element": "O", "occu": 1}], "abc": [0.46630241, 0.22643278, 0.35798504000000003], "properties": {"magmom": -0.0}, "label": "O", "xyz": [1.9222612235969527, 0.9345418485828292, 2.113361880617137]}, {"species": [{"element": "O", "occu": 1}], "abc": [0.9663024100000001, 0.72643278, 0.14201496], "properties": {"magmom": -0.0}, "label": "O", "xyz": [3.9379359285969526, 3.0180842735828293, 0.8383842043828631]}, {"species": [{"element": "O", "occu": 1}], "abc": [0.27356722, 0.03369759, 0.85798504], "properties": {"magmom": -0.0}, "label": "O", "xyz": [1.1452783291042148, 0.1313979582719577, 5.065107965617137]}]}, "task_ids": null, "uncorrected_energy_per_atom": null, "energy_per_atom": -6.199653651666666, "formation_energy_per_atom": -1.521559792499999, "energy_above_hull": 0.0, "is_stable": true, "equilibrium_reaction_energy_per_atom": null, "decomposes_to": null, "xas": null, "grain_boundaries": null, "band_gap": 2.8367999999999993, "cbm": null, "vbm": null, "efermi": -2.00973933, "is_gap_direct": null, "is_metal": null, "es_source_calc_id": null, "bandstructure": null, "dos": null, "dos_energy_up": null, "dos_energy_down": null, "is_magnetic": null, "ordering": null, "total_magnetization": 0.0, "total_magnetization_normalized_vol": null, "total_magnetization_normalized_formula_units": null, "num_magnetic_sites": null, "num_unique_magnetic_sites": null, "types_of_magnetic_species": null, "bulk_modulus": null, "shear_modulus": null, "universal_anisotropy": null, "homogeneous_poisson": null, "e_total": null, "e_ionic": null, "e_electronic": null, "n": null, "e_ij_max": null, "weighted_surface_energy_EV_PER_ANG2": null, "weighted_surface_energy": null, "weighted_work_function": null, "surface_anisotropy": null, "shape_factor": null, "has_reconstructed": null, "possible_species": null, "has_props": null, "theoretical": null, "database_IDs": null, "fields_not_requested": ["builder_meta", "nsites", "elements", "nelements", "composition", "composition_reduced", "chemsys", "symmetry", "property_name", "deprecated", "deprecation_reasons", "last_updated", "origins", "warnings", "task_ids", "uncorrected_energy_per_atom", "equilibrium_reaction_energy_per_atom", "decomposes_to", "xas", "grain_boundaries", "cbm", "vbm", "is_gap_direct", "is_metal", "es_source_calc_id", "bandstructure", "dos", "dos_energy_up", "dos_energy_down", "is_magnetic", "ordering", "total_magnetization_normalized_vol", "total_magnetization_normalized_formula_units", "num_magnetic_sites", "num_unique_magnetic_sites", "types_of_magnetic_species", "bulk_modulus", "shear_modulus", "universal_anisotropy", "homogeneous_poisson", "e_total", "e_ionic", "e_electronic", "n", "e_ij_max", "weighted_surface_energy_EV_PER_ANG2", "weighted_surface_energy", "weighted_work_function", "surface_anisotropy", "shape_factor", "has_reconstructed", "possible_species", "has_props", "theoretical", "database_IDs"]}