{"builder_meta": null, "nsites": null, "elements": null, "nelements": null, "composition": null, "composition_reduced": null, "formula_pretty": "SO3", "formula_anonymous": "AB3", "chemsys": null, "volume": 213.29967021711545, "density": 2.493169750552031, "density_atomic": 13.331229388569716, "symmetry": null, "property_name": null, "material_id": "mp-561397", "deprecated": null, "deprecation_reasons": null, "last_updated": null, "origins": null, "warnings": null, "structure": {"@module": "pymatgen.core.structure", "@class": "Structure", "charge": 0, "lattice": {"matrix": [[4.06113924, 0.0, 0.0], [0.0, 5.79069634, -2.03822013], [0.0, -0.06659332, 9.09352789]], "pbc": [true, true, true], "a": 4.06113924, "b": 6.138933571918384, "c": 9.093771723354203, "alpha": 109.8107226940542, "beta": 90.0, "gamma": 90.0, "volume": 213.29967021711545}, "properties": {}, "sites": [{"species": [{"element": "S", "occu": 1}], "abc": [0.5251247, 0.38398063, 0.206032699999999], "properties": {"magmom": 0.0}, "label": "S", "xyz": [2.132604525063228, 2.2097948272503305, 1.0909270541059122]}, {"species": [{"element": "S", "occu": 1}], "abc": [0.4748753, 0.6160193700000001, 0.793967299999999], "properties": {"magmom": 0.0}, "label": "S", "xyz": [1.928534714936772, 3.5143081927496707, 5.9643807058940705]}, {"species": [{"element": "S", "occu": 1}], "abc": [0.9748753, 0.88398063, 0.7060327], "properties": {"magmom": 0.0}, "label": "S", "xyz": [3.959104334936772, 5.071846337250331, 4.618580934105921]}, {"species": [{"element": "S", "occu": 1}], "abc": [0.0251247, 0.11601937, 0.2939673], "properties": {"magmom": 0.0}, "label": "S", "xyz": [0.102034905063228, 0.6522566827496697, 2.4367268258940786]}, {"species": [{"element": "O", "occu": 1}], "abc": [0.30830019000000003, 0.65469794, 0.93555438], "properties": {"magmom": 0.0}, "label": "O", "xyz": [1.2520499993084557, 3.7288552927587983, 7.173071326764127]}, {"species": [{"element": "O", "occu": 1}], "abc": [0.14104433, 0.08677807, 0.79304611], "properties": {"magmom": -0.0}, "label": "O", "xyz": [0.5728006631425092, 0.44969387896327856, 7.03471411022446]}, {"species": [{"element": "O", "occu": 1}], "abc": [0.64104433, 0.41322193, 0.70695389], "properties": {"magmom": -0.0}, "label": "O", "xyz": [2.6033702831425094, 2.3457643110367217, 5.586467659775541]}, {"species": [{"element": "O", "occu": 1}], "abc": [0.19169981, 0.15469794, 0.43555438], "properties": {"magmom": 0.0}, "label": "O", "xyz": [0.7785196206915445, 0.8668037827587981, 3.6454174467641267]}, {"species": [{"element": "O", "occu": 1}], "abc": [0.72548896, 0.83540424, 0.8315176400000001], "properties": {"magmom": 0.0}, "label": "O", "xyz": [2.9463116836427905, 4.782198754702317, 5.85869111171163]}, {"species": [{"element": "O", "occu": 1}], "abc": [0.80830019, 0.84530206, 0.56444562], "properties": {"magmom": 0.0}, "label": "O", "xyz": [3.2826196193084556, 4.857299237241202, 3.4098903132358744]}, {"species": [{"element": "O", "occu": 1}], "abc": [0.35895567, 0.58677807, 0.29304611], "properties": {"magmom": -0.0}, "label": "O", "xyz": [1.457768956857491, 3.378338708963279, 1.468840100224459]}, {"species": [{"element": "O", "occu": 1}], "abc": [0.27451104, 0.16459576, 0.16848236], "properties": {"magmom": 0.0}, "label": "O", "xyz": [1.1148275563572096, 0.9419042652976832, 1.1966166482883718]}, {"species": [{"element": "O", "occu": 1}], "abc": [0.8589556700000001, 0.9132219300000001, 0.20695389], "properties": {"magmom": -0.0}, "label": "O", "xyz": [3.4883385768574913, 5.274409141036722, 0.020593649775541234]}, {"species": [{"element": "O", "occu": 1}], "abc": [0.77451104, 0.33540424, 0.33151764], "properties": {"magmom": 0.0}, "label": "O", "xyz": [3.1453971763572097, 1.9201472447023171, 2.331037231711629]}, {"species": [{"element": "O", "occu": 1}], "abc": [0.69169981, 0.34530206, 0.06444562], "properties": {"magmom": 0.0}, "label": "O", "xyz": [2.8090892406915446, 1.9952477272412021, -0.11776356676412603]}, {"species": [{"element": "O", "occu": 1}], "abc": [0.22548896000000002, 0.66459576, 0.66848236], "properties": {"magmom": 0.0}, "label": "O", "xyz": [0.9157420636427905, 3.803955775297683, 4.724270528288373]}]}, "task_ids": null, "uncorrected_energy_per_atom": null, "energy_per_atom": -6.326138422083335, "formation_energy_per_atom": -1.580577776458334, "energy_above_hull": 0.0, "is_stable": true, "equilibrium_reaction_energy_per_atom": null, "decomposes_to": null, "xas": null, "grain_boundaries": null, "band_gap": 5.1612, "cbm": null, "vbm": null, "efermi": -2.00778544, "is_gap_direct": null, "is_metal": null, "es_source_calc_id": null, "bandstructure": null, "dos": null, "dos_energy_up": null, "dos_energy_down": null, "is_magnetic": null, "ordering": null, "total_magnetization": 0.0, "total_magnetization_normalized_vol": null, "total_magnetization_normalized_formula_units": null, "num_magnetic_sites": null, "num_unique_magnetic_sites": null, "types_of_magnetic_species": null, "bulk_modulus": null, "shear_modulus": null, "universal_anisotropy": null, "homogeneous_poisson": null, "e_total": null, "e_ionic": null, "e_electronic": null, "n": null, "e_ij_max": null, "weighted_surface_energy_EV_PER_ANG2": null, "weighted_surface_energy": null, "weighted_work_function": null, "surface_anisotropy": null, "shape_factor": null, "has_reconstructed": null, "possible_species": null, "has_props": null, "theoretical": null, "database_IDs": null, "fields_not_requested": ["builder_meta", "nsites", "elements", "nelements", "composition", "composition_reduced", "chemsys", "symmetry", "property_name", "deprecated", "deprecation_reasons", "last_updated", "origins", "warnings", "task_ids", "uncorrected_energy_per_atom", "equilibrium_reaction_energy_per_atom", "decomposes_to", "xas", "grain_boundaries", "cbm", "vbm", "is_gap_direct", "is_metal", "es_source_calc_id", "bandstructure", "dos", "dos_energy_up", "dos_energy_down", "is_magnetic", "ordering", "total_magnetization_normalized_vol", "total_magnetization_normalized_formula_units", "num_magnetic_sites", "num_unique_magnetic_sites", "types_of_magnetic_species", "bulk_modulus", "shear_modulus", "universal_anisotropy", "homogeneous_poisson", "e_total", "e_ionic", "e_electronic", "n", "e_ij_max", "weighted_surface_energy_EV_PER_ANG2", "weighted_surface_energy", "weighted_work_function", "surface_anisotropy", "shape_factor", "has_reconstructed", "possible_species", "has_props", "theoretical", "database_IDs"]}