{"builder_meta": null, "nsites": null, "elements": null, "nelements": null, "composition": null, "composition_reduced": null, "formula_pretty": "SO4", "formula_anonymous": "AB4", "chemsys": null, "volume": 179.22148671478578, "density": 1.780095713557197, "density_atomic": 17.922148671478578, "symmetry": null, "property_name": null, "material_id": "mp-726080", "deprecated": null, "deprecation_reasons": null, "last_updated": null, "origins": null, "warnings": null, "structure": {"@module": "pymatgen.core.structure", "@class": "Structure", "charge": 0, "lattice": {"matrix": [[2.441055, 4.346892, 0.0], [-2.441055, 4.346892, 0.0], [0.0, 3.307065, 8.445078]], "pbc": [true, true, true], "a": 4.985400643146848, "b": 4.985400643146848, "c": 9.069510534770275, "alpha": 71.46194149969776, "beta": 71.46194149969776, "gamma": 58.63393553146718, "volume": 179.22148671478578}, "properties": {}, "sites": [{"species": [{"element": "S", "occu": 1}], "abc": [0.075055, 0.255003, 0.434233999999999], "properties": {"magmom": -0.047}, "label": "S", "xyz": [-0.43926296513999996, 2.870766542945997, 3.667140000251992]}, {"species": [{"element": "S", "occu": 1}], "abc": [0.255003, 0.075055, 0.934234], "properties": {"magmom": -0.047}, "label": "S", "xyz": [0.43926296513999996, 4.524299042946, 7.889679000252]}, {"species": [{"element": "O", "occu": 1}], "abc": [0.939238999999999, 0.082679, 0.003975], "properties": {"magmom": 0.432}, "label": "O", "xyz": [2.0909100707999975, 4.455312762230996, 0.033569185050000006]}, {"species": [{"element": "O", "occu": 1}], "abc": [0.082679, 0.939238999999999, 0.503975], "properties": {"magmom": 0.432}, "label": "O", "xyz": [-2.0909100707999975, 6.1088452622309966, 4.2561081850499995]}, {"species": [{"element": "O", "occu": 1}], "abc": [0.923142999999999, 0.414087, 0.573790999999999], "properties": {"magmom": 0.446}, "label": "O", "xyz": [1.2426336940799978, 7.710358522574994, 4.845709750697992]}, {"species": [{"element": "O", "occu": 1}], "abc": [0.414087, 0.923142999999999, 0.073791], "properties": {"magmom": 0.446}, "label": "O", "xyz": [-1.2426336940799978, 6.056826022574997, 0.623170750698]}, {"species": [{"element": "O", "occu": 1}], "abc": [0.234561, 0.39366, 0.858424], "properties": {"magmom": 0.426}, "label": "O", "xyz": [-0.3883694094450001, 5.569672804692001, 7.249457637072]}, {"species": [{"element": "O", "occu": 1}], "abc": [0.39366, 0.234561, 0.358423999999999], "properties": {"magmom": 0.426}, "label": "O", "xyz": [0.3883694094450001, 3.9161403046919974, 3.026918637071992]}, {"species": [{"element": "O", "occu": 1}], "abc": [0.435864, 0.8947100000000001, 0.802576], "properties": {"magmom": 0.441}, "label": "O", "xyz": [-1.12006832253, 8.438032475448, 6.777816920928]}, {"species": [{"element": "O", "occu": 1}], "abc": [0.8947100000000001, 0.435864, 0.302576], "properties": {"magmom": 0.441}, "label": "O", "xyz": [1.12006832253, 6.784499975448001, 2.5552779209280003]}]}, "task_ids": null, "uncorrected_energy_per_atom": null, "energy_per_atom": -5.908169349, "formation_energy_per_atom": -1.1221286315, "energy_above_hull": 0.142333589666668, "is_stable": false, "equilibrium_reaction_energy_per_atom": null, "decomposes_to": null, "xas": null, "grain_boundaries": null, "band_gap": 0.0, "cbm": null, "vbm": null, "efermi": -3.06326833, "is_gap_direct": null, "is_metal": null, "es_source_calc_id": null, "bandstructure": null, "dos": null, "dos_energy_up": null, "dos_energy_down": null, "is_magnetic": null, "ordering": null, "total_magnetization": 4.000988, "total_magnetization_normalized_vol": null, "total_magnetization_normalized_formula_units": null, "num_magnetic_sites": null, "num_unique_magnetic_sites": null, "types_of_magnetic_species": null, "bulk_modulus": null, "shear_modulus": null, "universal_anisotropy": null, "homogeneous_poisson": null, "e_total": null, "e_ionic": null, "e_electronic": null, "n": null, "e_ij_max": null, "weighted_surface_energy_EV_PER_ANG2": null, "weighted_surface_energy": null, "weighted_work_function": null, "surface_anisotropy": null, "shape_factor": null, "has_reconstructed": null, "possible_species": null, "has_props": null, "theoretical": null, "database_IDs": null, "fields_not_requested": ["builder_meta", "nsites", "elements", "nelements", "composition", "composition_reduced", "chemsys", "symmetry", "property_name", "deprecated", "deprecation_reasons", "last_updated", "origins", "warnings", "task_ids", "uncorrected_energy_per_atom", "equilibrium_reaction_energy_per_atom", "decomposes_to", "xas", "grain_boundaries", "cbm", "vbm", "is_gap_direct", "is_metal", "es_source_calc_id", "bandstructure", "dos", "dos_energy_up", "dos_energy_down", "is_magnetic", "ordering", "total_magnetization_normalized_vol", "total_magnetization_normalized_formula_units", "num_magnetic_sites", "num_unique_magnetic_sites", "types_of_magnetic_species", "bulk_modulus", "shear_modulus", "universal_anisotropy", "homogeneous_poisson", "e_total", "e_ionic", "e_electronic", "n", "e_ij_max", "weighted_surface_energy_EV_PER_ANG2", "weighted_surface_energy", "weighted_work_function", "surface_anisotropy", "shape_factor", "has_reconstructed", "possible_species", "has_props", "theoretical", "database_IDs"]}