{
  "builder_meta": null,
  "nsites": null,
  "elements": null,
  "nelements": null,
  "composition": null,
  "composition_reduced": null,
  "formula_pretty": "SO5",
  "formula_anonymous": "AB5",
  "chemsys": null,
  "volume": 490.9182194925287,
  "density": 1.516206337370709,
  "density_atomic": 20.454925812188694,
  "symmetry": null,
  "property_name": null,
  "material_id": "mp-1179626",
  "deprecated": null,
  "deprecation_reasons": null,
  "last_updated": null,
  "origins": null,
  "warnings": null,
  "structure": {
    "@module": "pymatgen.core.structure",
    "@class": "Structure",
    "charge": 0,
    "lattice": {
      "matrix": [
        [6.677235, 0.0, 0.0],
        [0.0, 8.048029, 0.0],
        [0.0, 3.51213, 9.135303]
      ],
      "pbc": [true, true, true],
      "a": 6.677235,
      "b": 8.048029,
      "c": 9.787176203518,
      "alpha": 68.97040121265336,
      "beta": 90.0,
      "gamma": 90.0,
      "volume": 490.9182194925287
    },
    "properties": {},
    "sites": [
      {
        "species": [{ "element": "S", "occu": 1 }],
        "abc": [0.316098, 0.764604, 0.477043],
        "properties": { "magmom": 0.0 },
        "label": "S",
        "xyz": [2.11066062903, 7.828992197105999, 4.357932349029]
      },
      {
        "species": [{ "element": "S", "occu": 1 }],
        "abc": [0.816098, 0.235396, 0.022956999999999003],
        "properties": { "magmom": 0.0 },
        "label": "S",
        "xyz": [5.44927812903, 1.9751018028939964, 0.2097191509709909]
      },
      {
        "species": [{ "element": "S", "occu": 1 }],
        "abc": [0.683902, 0.235396, 0.522957],
        "properties": { "magmom": 0.0 },
        "label": "S",
        "xyz": [4.56657437097, 3.731166802894, 4.777370650971]
      },
      {
        "species": [{ "element": "S", "occu": 1 }],
        "abc": [0.183901999999999, 0.764604, 0.977043],
        "properties": { "magmom": 0.0 },
        "label": "S",
        "xyz": [1.2279568709699933, 9.585057197106, 8.925583849029]
      },
      {
        "species": [{ "element": "O", "occu": 1 }],
        "abc": [0.197657, 0.878290999999999, 0.529488],
        "properties": { "magmom": 0.011 },
        "label": "O",
        "xyz": [1.3198022383949999, 8.928142127878992, 4.837033314864]
      },
      {
        "species": [{ "element": "O", "occu": 1 }],
        "abc": [0.697657, 0.121709, 0.970511999999999],
        "properties": { "magmom": 0.011 },
        "label": "O",
        "xyz": [4.658419738395, 4.388081872120996, 8.865921185135992]
      },
      {
        "species": [{ "element": "O", "occu": 1 }],
        "abc": [0.802342999999999, 0.121709, 0.470512],
        "properties": { "magmom": 0.011 },
        "label": "O",
        "xyz": [5.3574327616049935, 2.6320168721209996, 4.298269685136]
      },
      {
        "species": [{ "element": "O", "occu": 1 }],
        "abc": [0.302343, 0.878290999999999, 0.029488],
        "properties": { "magmom": 0.011 },
        "label": "O",
        "xyz": [2.018815261605, 7.172077127878992, 0.26938181486400004]
      },
      {
        "species": [{ "element": "O", "occu": 1 }],
        "abc": [0.260997, 0.58101, 0.51407],
        "properties": { "magmom": 0.008 },
        "label": "O",
        "xyz": [1.7427383032949997, 6.48146599839, 4.696185213210001]
      },
      {
        "species": [{ "element": "O", "occu": 1 }],
        "abc": [0.760996999999999, 0.41899000000000003, 0.9859300000000001],
        "properties": { "magmom": 0.008 },
        "label": "O",
        "xyz": [5.0813558032949935, 6.83475800161, 9.006769286790002]
      },
      {
        "species": [{ "element": "O", "occu": 1 }],
        "abc": [0.739003, 0.41899000000000003, 0.48593000000000003],
        "properties": { "magmom": 0.008 },
        "label": "O",
        "xyz": [4.934496696705, 5.0786930016100005, 4.439117786790001]
      },
      {
        "species": [{ "element": "O", "occu": 1 }],
        "abc": [0.239003, 0.58101, 0.014070000000000001],
        "properties": { "magmom": 0.008 },
        "label": "O",
        "xyz": [1.595879196705, 4.7254009983900005, 0.12853371321]
      },
      {
        "species": [{ "element": "O", "occu": 1 }],
        "abc": [0.481882, 0.836843, 0.380664],
        "properties": { "magmom": 0.004 },
        "label": "O",
        "xyz": [3.21763935627, 8.071878186767, 3.477480981192]
      },
      {
        "species": [{ "element": "O", "occu": 1 }],
        "abc": [0.981881999999999, 0.163157, 0.119336],
        "properties": { "magmom": 0.004 },
        "label": "O",
        "xyz": [6.556256856269993, 1.732215813233, 1.090170518808]
      },
      {
        "species": [{ "element": "O", "occu": 1 }],
        "abc": [0.518118, 0.163157, 0.619336],
        "properties": { "magmom": 0.004 },
        "label": "O",
        "xyz": [3.4595956437299997, 3.488280813233, 5.657822018808]
      },
      {
        "species": [{ "element": "O", "occu": 1 }],
        "abc": [0.018118, 0.836843, 0.880664],
        "properties": { "magmom": 0.004 },
        "label": "O",
        "xyz": [0.12097814372999999, 9.827943186767, 8.045132481192]
      },
      {
        "species": [{ "element": "O", "occu": 1 }],
        "abc": [0.558106, 0.687997, 0.714206],
        "properties": { "magmom": 0.75 },
        "label": "O",
        "xyz": [3.7266049169099995, 8.045404126693, 6.5244882144180005]
      },
      {
        "species": [{ "element": "O", "occu": 1 }],
        "abc": [0.058106, 0.312003, 0.785794],
        "properties": { "magmom": 0.75 },
        "label": "O",
        "xyz": [0.38798741690999994, 5.2708198733069995, 7.178466285582]
      },
      {
        "species": [{ "element": "O", "occu": 1 }],
        "abc": [0.441893999999999, 0.312003, 0.285794],
        "properties": { "magmom": 0.75 },
        "label": "O",
        "xyz": [2.9506300830899934, 3.514754873307, 2.610814785582]
      },
      {
        "species": [{ "element": "O", "occu": 1 }],
        "abc": [0.941894, 0.687997, 0.214205999999999],
        "properties": { "magmom": 0.75 },
        "label": "O",
        "xyz": [6.28924758309, 6.289339126692996, 1.956836714417991]
      },
      {
        "species": [{ "element": "O", "occu": 1 }],
        "abc": [0.227304999999999, 0.249212, 0.815896],
        "properties": { "magmom": 0.846 },
        "label": "O",
        "xyz": [1.5177689016749933, 4.871198221627999, 7.4534571764879995]
      },
      {
        "species": [{ "element": "O", "occu": 1 }],
        "abc": [0.727305, 0.750788, 0.684103999999999],
        "properties": { "magmom": 0.846 },
        "label": "O",
        "xyz": [4.856386401675, 8.445025778371996, 6.249497323511991]
      },
      {
        "species": [{ "element": "O", "occu": 1 }],
        "abc": [0.772694999999999, 0.750788, 0.184104],
        "properties": { "magmom": 0.846 },
        "label": "O",
        "xyz": [5.159466098324994, 6.6889607783719995, 1.681845823512]
      },
      {
        "species": [{ "element": "O", "occu": 1 }],
        "abc": [0.272694999999999, 0.249212, 0.315896],
        "properties": { "magmom": 0.846 },
        "label": "O",
        "xyz": [1.8208485983249934, 3.1151332216279997, 2.8858056764880002]
      }
    ]
  },
  "task_ids": null,
  "uncorrected_energy_per_atom": null,
  "energy_per_atom": -5.621420558333334,
  "formation_energy_per_atom": -0.808393126249999,
  "energy_above_hull": 0.245325391388888,
  "is_stable": false,
  "equilibrium_reaction_energy_per_atom": null,
  "decomposes_to": null,
  "xas": null,
  "grain_boundaries": null,
  "band_gap": 1.8876,
  "cbm": null,
  "vbm": null,
  "efermi": -0.87393874,
  "is_gap_direct": null,
  "is_metal": null,
  "es_source_calc_id": null,
  "bandstructure": null,
  "dos": null,
  "dos_energy_up": null,
  "dos_energy_down": null,
  "is_magnetic": null,
  "ordering": null,
  "total_magnetization": 8.0015367,
  "total_magnetization_normalized_vol": null,
  "total_magnetization_normalized_formula_units": null,
  "num_magnetic_sites": null,
  "num_unique_magnetic_sites": null,
  "types_of_magnetic_species": null,
  "bulk_modulus": null,
  "shear_modulus": null,
  "universal_anisotropy": null,
  "homogeneous_poisson": null,
  "e_total": null,
  "e_ionic": null,
  "e_electronic": null,
  "n": null,
  "e_ij_max": null,
  "weighted_surface_energy_EV_PER_ANG2": null,
  "weighted_surface_energy": null,
  "weighted_work_function": null,
  "surface_anisotropy": null,
  "shape_factor": null,
  "has_reconstructed": null,
  "possible_species": null,
  "has_props": null,
  "theoretical": null,
  "database_IDs": null,
  "fields_not_requested": [
    "builder_meta",
    "nsites",
    "elements",
    "nelements",
    "composition",
    "composition_reduced",
    "chemsys",
    "symmetry",
    "property_name",
    "deprecated",
    "deprecation_reasons",
    "last_updated",
    "origins",
    "warnings",
    "task_ids",
    "uncorrected_energy_per_atom",
    "equilibrium_reaction_energy_per_atom",
    "decomposes_to",
    "xas",
    "grain_boundaries",
    "cbm",
    "vbm",
    "is_gap_direct",
    "is_metal",
    "es_source_calc_id",
    "bandstructure",
    "dos",
    "dos_energy_up",
    "dos_energy_down",
    "is_magnetic",
    "ordering",
    "total_magnetization_normalized_vol",
    "total_magnetization_normalized_formula_units",
    "num_magnetic_sites",
    "num_unique_magnetic_sites",
    "types_of_magnetic_species",
    "bulk_modulus",
    "shear_modulus",
    "universal_anisotropy",
    "homogeneous_poisson",
    "e_total",
    "e_ionic",
    "e_electronic",
    "n",
    "e_ij_max",
    "weighted_surface_energy_EV_PER_ANG2",
    "weighted_surface_energy",
    "weighted_work_function",
    "surface_anisotropy",
    "shape_factor",
    "has_reconstructed",
    "possible_species",
    "has_props",
    "theoretical",
    "database_IDs"
  ]
}
