{"builder_meta": null, "nsites": null, "elements": null, "nelements": null, "composition": null, "composition_reduced": null, "formula_pretty": "SO6", "formula_anonymous": "AB6", "chemsys": null, "volume": 607.7832921102303, "density": 2.099277427174703, "density_atomic": 14.471030764529292, "symmetry": null, "property_name": null, "material_id": "mp-1196265", "deprecated": null, "deprecation_reasons": null, "last_updated": null, "origins": null, "warnings": null, "structure": {"@module": "pymatgen.core.structure", "@class": "Structure", "charge": 0, "lattice": {"matrix": [[3.601252, 6.505698, 0.0], [-3.601252, 6.505698, 0.0], [0.0, 4.315042, 12.970937]], "pbc": [true, true, true], "a": 7.4359345367417, "b": 7.4359345367417, "c": 13.669849820672244, "alpha": 73.96813086660138, "beta": 73.96813086660138, "gamma": 57.93375009325909, "volume": 607.7832921102303}, "properties": {}, "sites": [{"species": [{"element": "S", "occu": 1}], "abc": [0.918840999999999, 0.766706999999999, 0.08575], "properties": {"magmom": -0.022}, "label": "S", "xyz": [0.5478728717680004, 11.335681104003987, 1.11225784775]}, {"species": [{"element": "S", "occu": 1}], "abc": [0.233293, 0.081159, 0.41425], "properties": {"magmom": -0.022}, "label": "S", "xyz": [0.547872871768, 3.8332358959960002, 5.37321065225]}, {"species": [{"element": "S", "occu": 1}], "abc": [0.081159, 0.233293, 0.9142500000000001], "properties": {"magmom": -0.022}, "label": "S", "xyz": [-0.547872871768, 5.990756895996, 11.858679152250001]}, {"species": [{"element": "S", "occu": 1}], "abc": [0.766706999999999, 0.918840999999999, 0.58575], "properties": {"magmom": -0.022}, "label": "S", "xyz": [-0.5478728717680004, 13.493202104003986, 7.597726347749999]}, {"species": [{"element": "S", "occu": 1}], "abc": [0.587402, 0.412597999999999, 0.75], "properties": {"magmom": -0.021}, "label": "S", "xyz": [0.6295132546080036, 9.741979499999994, 9.72820275]}, {"species": [{"element": "S", "occu": 1}], "abc": [0.412597999999999, 0.587402, 0.25], "properties": {"magmom": -0.021}, "label": "S", "xyz": [-0.6295132546080036, 7.584458499999993, 3.24273425]}, {"species": [{"element": "O", "occu": 1}], "abc": [0.941867999999999, 0.551200999999999, 0.136307999999999], "properties": {"magmom": 0.373}, "label": "O", "xyz": [1.406890315084, 10.301630752097983, 1.7680424805959871]}, {"species": [{"element": "O", "occu": 1}], "abc": [0.448799, 0.058131999999999004, 0.363691999999999], "properties": {"magmom": 0.373}, "label": "O", "xyz": [1.4068903150840035, 4.867286247901989, 4.7174260194039865]}, {"species": [{"element": "O", "occu": 1}], "abc": [0.058131999999999004, 0.448799, 0.863692], "properties": {"magmom": 0.373}, "label": "O", "xyz": [-1.4068903150840035, 7.024807247901993, 11.202894519404]}, {"species": [{"element": "O", "occu": 1}], "abc": [0.551200999999999, 0.941867999999999, 0.636308], "properties": {"magmom": 0.373}, "label": "O", "xyz": [-1.406890315084, 12.459151752097988, 8.253510980596]}, {"species": [{"element": "O", "occu": 1}], "abc": [0.128120999999999, 0.752255999999999, 0.031327], "properties": {"magmom": 0.333}, "label": "O", "xyz": [-2.24766741702, 5.8626442088799875, 0.406340543399]}, {"species": [{"element": "O", "occu": 1}], "abc": [0.247744, 0.871879, 0.468673], "properties": {"magmom": 0.333}, "label": "O", "xyz": [-2.24766741702, 9.30627279112, 6.079127956601]}, {"species": [{"element": "O", "occu": 1}], "abc": [0.871879, 0.247744, 0.968673], "properties": {"magmom": 0.333}, "label": "O", "xyz": [2.24766741702, 11.46379379112, 12.564596456600999]}, {"species": [{"element": "O", "occu": 1}], "abc": [0.752255999999999, 0.128120999999999, 0.531327], "properties": {"magmom": 0.333}, "label": "O", "xyz": [2.24766741702, 8.020165208879988, 6.891809043398999]}, {"species": [{"element": "O", "occu": 1}], "abc": [0.763778, 0.859526, 0.011130000000000001], "properties": {"magmom": 0.422}, "label": "O", "xyz": [-0.3448126764960002, 10.608752003651999, 0.14436652881]}, {"species": [{"element": "O", "occu": 1}], "abc": [0.140474, 0.236222, 0.48887], "properties": {"magmom": 0.422}, "label": "O", "xyz": [-0.344812676496, 4.560164996348, 6.34110197119]}, {"species": [{"element": "O", "occu": 1}], "abc": [0.236222, 0.140474, 0.98887], "properties": {"magmom": 0.422}, "label": "O", "xyz": [0.344812676496, 6.717685996348, 12.82657047119]}, {"species": [{"element": "O", "occu": 1}], "abc": [0.859526, 0.763778, 0.5111300000000001], "properties": {"magmom": 0.422}, "label": "O", "xyz": [0.3448126764960002, 12.766273003652, 6.6298350288100005]}, {"species": [{"element": "O", "occu": 1}], "abc": [0.833993, 0.910744, 0.165079], "properties": {"magmom": 0.40700000000000003}, "label": "O", "xyz": [-0.27639969225200023, 12.063054829744, 2.141229309023]}, {"species": [{"element": "O", "occu": 1}], "abc": [0.089256, 0.166007, 0.334920999999999], "properties": {"magmom": 0.40700000000000003}, "label": "O", "xyz": [-0.276399692252, 3.1058621702559956, 4.344239190976987]}, {"species": [{"element": "O", "occu": 1}], "abc": [0.166007, 0.089256, 0.834920999999999], "properties": {"magmom": 0.40700000000000003}, "label": "O", "xyz": [0.276399692252, 5.263383170255995, 10.829707690976987]}, {"species": [{"element": "O", "occu": 1}], "abc": [0.910744, 0.833993, 0.665079], "properties": {"magmom": 0.40700000000000003}, "label": "O", "xyz": [0.27639969225200023, 14.220575829744, 8.626697809023]}, {"species": [{"element": "O", "occu": 1}], "abc": [0.397354, 0.7981900000000001, 0.200074], "properties": {"magmom": 0.309}, "label": "O", "xyz": [-1.4435114466720003, 8.64117592282, 2.595147249338]}, {"species": [{"element": "O", "occu": 1}], "abc": [0.20181000000000002, 0.602646, 0.299925999999999], "properties": {"magmom": 0.309}, "label": "O", "xyz": [-1.443511446672, 6.527741077179996, 3.8903212506619873]}, {"species": [{"element": "O", "occu": 1}], "abc": [0.602646, 0.20181000000000002, 0.799925999999999], "properties": {"magmom": 0.309}, "label": "O", "xyz": [1.443511446672, 8.685262077179996, 10.375789750661987]}, {"species": [{"element": "O", "occu": 1}], "abc": [0.7981900000000001, 0.397354, 0.700074], "properties": {"magmom": 0.309}, "label": "O", "xyz": [1.4435114466720003, 10.79869692282, 9.080615749338]}, {"species": [{"element": "O", "occu": 1}], "abc": [0.567128, 0.478885, 0.326464], "properties": {"magmom": 0.481}, "label": "O", "xyz": [0.3177852802359997, 8.213750553561999, 4.234543976767999]}, {"species": [{"element": "O", "occu": 1}], "abc": [0.521115, 0.432872, 0.173536], "properties": {"magmom": 0.481}, "label": "O", "xyz": [0.31778528023600017, 6.955166446438, 2.250924523232]}, {"species": [{"element": "O", "occu": 1}], "abc": [0.432872, 0.521115, 0.673536], "properties": {"magmom": 0.481}, "label": "O", "xyz": [-0.31778528023600017, 9.112687446438, 8.736393023231999]}, {"species": [{"element": "O", "occu": 1}], "abc": [0.478885, 0.567128, 0.826464], "properties": {"magmom": 0.481}, "label": "O", "xyz": [-0.3177852802359997, 10.371271553562, 10.720012476768]}, {"species": [{"element": "O", "occu": 1}], "abc": [0.098598999999999, 0.058511, 0.144878], "properties": {"magmom": 1.779}, "label": "O", "xyz": [0.1443669901759964, 1.6472648676559936, 1.879203410686]}, {"species": [{"element": "O", "occu": 1}], "abc": [0.941488999999999, 0.901401, 0.355122], "properties": {"magmom": 1.779}, "label": "O", "xyz": [0.14436699017599652, 13.521652132343993, 4.606265089313999]}, {"species": [{"element": "O", "occu": 1}], "abc": [0.901401, 0.941488999999999, 0.855121999999999], "properties": {"magmom": 1.779}, "label": "O", "xyz": [-0.14436699017599652, 15.679173132343989, 11.091733589313987]}, {"species": [{"element": "O", "occu": 1}], "abc": [0.058511, 0.098598999999999, 0.644878], "properties": {"magmom": 1.779}, "label": "O", "xyz": [-0.1443669901759964, 3.804785867655993, 8.364671910685999]}, {"species": [{"element": "O", "occu": 1}], "abc": [0.488840999999999, 0.129505999999999, 0.193973999999999], "properties": {"magmom": 1.762}, "label": "O", "xyz": [1.29405588742, 4.859784798113983, 2.516024533637987]}, {"species": [{"element": "O", "occu": 1}], "abc": [0.870494, 0.511159, 0.306025999999999], "properties": {"magmom": 1.762}, "label": "O", "xyz": [1.2940558874199997, 10.309132201885996, 3.969443966361987]}, {"species": [{"element": "O", "occu": 1}], "abc": [0.511159, 0.870494, 0.806025999999999], "properties": {"magmom": 1.762}, "label": "O", "xyz": [-1.2940558874199997, 12.466653201885995, 10.454912466361987]}, {"species": [{"element": "O", "occu": 1}], "abc": [0.129505999999999, 0.488840999999999, 0.693974], "properties": {"magmom": 1.762}, "label": "O", "xyz": [-1.29405588742, 7.017305798113988, 9.001493033637999]}, {"species": [{"element": "O", "occu": 1}], "abc": [0.434102, 0.401267, 0.5107200000000001], "properties": {"magmom": 1.730999999999999}, "label": "O", "xyz": [0.11824710941999994, 7.638436682802, 6.624516944640001]}, {"species": [{"element": "O", "occu": 1}], "abc": [0.598733, 0.565898, 0.98928], "properties": {"magmom": 1.730999999999999}, "label": "O", "xyz": [0.11824710941999994, 11.845522317198, 12.831888555359999]}, {"species": [{"element": "O", "occu": 1}], "abc": [0.565898, 0.598733, 0.48928000000000005], "properties": {"magmom": 1.730999999999999}, "label": "O", "xyz": [-0.11824710941999994, 9.688001317198001, 6.34642005536]}, {"species": [{"element": "O", "occu": 1}], "abc": [0.401267, 0.434102, 0.01072], "properties": {"magmom": 1.730999999999999}, "label": "O", "xyz": [-0.11824710941999994, 5.480915682801999, 0.13904844464]}]}, "task_ids": null, "uncorrected_energy_per_atom": null, "energy_per_atom": -5.135020358809523, "formation_energy_per_atom": -0.302716702023809, "energy_above_hull": 0.600470598809526, "is_stable": false, "equilibrium_reaction_energy_per_atom": null, "decomposes_to": null, "xas": null, "grain_boundaries": null, "band_gap": 0.0, "cbm": null, "vbm": null, "efermi": -1.68905375, "is_gap_direct": null, "is_metal": null, "es_source_calc_id": null, "bandstructure": null, "dos": null, "dos_energy_up": null, "dos_energy_down": null, "is_magnetic": null, "ordering": null, "total_magnetization": 36.0002853, "total_magnetization_normalized_vol": null, "total_magnetization_normalized_formula_units": null, "num_magnetic_sites": null, "num_unique_magnetic_sites": null, "types_of_magnetic_species": null, "bulk_modulus": null, "shear_modulus": null, "universal_anisotropy": null, "homogeneous_poisson": null, "e_total": null, "e_ionic": null, "e_electronic": null, "n": null, "e_ij_max": null, "weighted_surface_energy_EV_PER_ANG2": null, "weighted_surface_energy": null, "weighted_work_function": null, "surface_anisotropy": null, "shape_factor": null, "has_reconstructed": null, "possible_species": null, "has_props": null, "theoretical": null, "database_IDs": null, "fields_not_requested": ["builder_meta", "nsites", "elements", "nelements", "composition", "composition_reduced", "chemsys", "symmetry", "property_name", "deprecated", "deprecation_reasons", "last_updated", "origins", "warnings", "task_ids", "uncorrected_energy_per_atom", "equilibrium_reaction_energy_per_atom", "decomposes_to", "xas", "grain_boundaries", "cbm", "vbm", "is_gap_direct", "is_metal", "es_source_calc_id", "bandstructure", "dos", "dos_energy_up", "dos_energy_down", "is_magnetic", "ordering", "total_magnetization_normalized_vol", "total_magnetization_normalized_formula_units", "num_magnetic_sites", "num_unique_magnetic_sites", "types_of_magnetic_species", "bulk_modulus", "shear_modulus", "universal_anisotropy", "homogeneous_poisson", "e_total", "e_ionic", "e_electronic", "n", "e_ij_max", "weighted_surface_energy_EV_PER_ANG2", "weighted_surface_energy", "weighted_work_function", "surface_anisotropy", "shape_factor", "has_reconstructed", "possible_species", "has_props", "theoretical", "database_IDs"]}