{
  "builder_meta": null,
  "nsites": null,
  "elements": null,
  "nelements": null,
  "composition": null,
  "composition_reduced": null,
  "formula_pretty": "Sr2Al",
  "formula_anonymous": "AB2",
  "chemsys": null,
  "volume": 472.50453144311206,
  "density": 2.8426966736397423,
  "density_atomic": 39.375377620259336,
  "symmetry": null,
  "property_name": null,
  "material_id": "mp-1102672",
  "deprecated": null,
  "deprecation_reasons": null,
  "last_updated": null,
  "origins": null,
  "warnings": null,
  "structure": {
    "@module": "pymatgen.core.structure",
    "@class": "Structure",
    "charge": 0,
    "lattice": {
      "matrix": [
        [4.874566, 7.390248, 0.0],
        [-4.874566, 7.390248, 0.0],
        [0.0, 3.669915999999999, 6.558145]
      ],
      "pbc": [true, true, true],
      "a": 8.853087551236573,
      "b": 8.853087551236573,
      "c": 7.515154641661141,
      "alpha": 65.94299722756682,
      "beta": 65.94299722756682,
      "gamma": 66.81723866873376,
      "volume": 472.50453144311206
    },
    "properties": {},
    "sites": [
      {
        "species": [{ "element": "Sr", "occu": 1 }],
        "abc": [0.757417999999999, 0.058166999999999004, 0.106444],
        "properties": { "magmom": 0.005 },
        "label": "Sr",
        "xyz": [3.4085451500660002, 6.418015953783985, 0.69807518638]
      },
      {
        "species": [{ "element": "Sr", "occu": 1 }],
        "abc": [0.941832999999999, 0.242582, 0.393555999999999],
        "properties": { "magmom": 0.005 },
        "label": "Sr",
        "xyz": [3.4085451500659953, 10.19743804621599, 2.5809973136199935]
      },
      {
        "species": [{ "element": "Sr", "occu": 1 }],
        "abc": [0.242582, 0.941832999999999, 0.893555999999999],
        "properties": { "magmom": 0.005 },
        "label": "Sr",
        "xyz": [-3.4085451500659953, 12.032396046215988, 5.860069813619993]
      },
      {
        "species": [{ "element": "Sr", "occu": 1 }],
        "abc": [0.058166999999999004, 0.757417999999999, 0.606444],
        "properties": { "magmom": 0.005 },
        "label": "Sr",
        "xyz": [-3.4085451500660002, 8.252973953783984, 3.9771476863799995]
      },
      {
        "species": [{ "element": "Sr", "occu": 1 }],
        "abc": [0.672312, 0.65736, 0.584097],
        "properties": { "magmom": 0.001 },
        "label": "Sr",
        "xyz": [0.07288451083199998, 11.970192764507999, 3.8305928200649997]
      },
      {
        "species": [{ "element": "Sr", "occu": 1 }],
        "abc": [0.34264000000000006, 0.327688, 0.915902999999999],
        "properties": { "magmom": 0.002 },
        "label": "Sr",
        "xyz": [0.0728845108320002, 8.315177235491994, 6.006624679934993]
      },
      {
        "species": [{ "element": "Sr", "occu": 1 }],
        "abc": [0.327688, 0.34264000000000006, 0.415902999999999],
        "properties": { "magmom": 0.001 },
        "label": "Sr",
        "xyz": [-0.0728845108320002, 6.480219235491996, 2.7275521799349933]
      },
      {
        "species": [{ "element": "Sr", "occu": 1 }],
        "abc": [0.65736, 0.672312, 0.084096999999999],
        "properties": { "magmom": 0.002 },
        "label": "Sr",
        "xyz": [-0.07288451083199998, 10.135234764507997, 0.5515203200649934]
      },
      {
        "species": [{ "element": "Al", "occu": 1 }],
        "abc": [0.630266, 0.031474999999999004, 0.653214],
        "properties": { "magmom": 0.003 },
        "label": "Al",
        "xyz": [2.9188462497060046, 7.287670611791992, 4.28387212803]
      },
      {
        "species": [{ "element": "Al", "occu": 1 }],
        "abc": [0.968525, 0.369734, 0.846785999999999],
        "properties": { "magmom": 0.002 },
        "label": "Al",
        "xyz": [2.9188462497059993, 12.997699388207995, 5.553345371969994]
      },
      {
        "species": [{ "element": "Al", "occu": 1 }],
        "abc": [0.369734, 0.968525, 0.346786],
        "properties": { "magmom": 0.003 },
        "label": "Al",
        "xyz": [-2.9188462497059993, 11.162741388207998, 2.2742728719699996]
      },
      {
        "species": [{ "element": "Al", "occu": 1 }],
        "abc": [0.031474999999999004, 0.630266, 0.153214],
        "properties": { "magmom": 0.003 },
        "label": "Al",
        "xyz": [-2.9188462497060046, 5.452712611791992, 1.0047996280299998]
      }
    ]
  },
  "task_ids": null,
  "uncorrected_energy_per_atom": null,
  "energy_per_atom": -12.358419196080247,
  "formation_energy_per_atom": -0.01727903941358,
  "energy_above_hull": 0.129913571327159,
  "is_stable": false,
  "equilibrium_reaction_energy_per_atom": null,
  "decomposes_to": null,
  "xas": null,
  "grain_boundaries": null,
  "band_gap": 0.0,
  "cbm": null,
  "vbm": null,
  "efermi": 2.27951464,
  "is_gap_direct": null,
  "is_metal": null,
  "es_source_calc_id": null,
  "bandstructure": null,
  "dos": null,
  "dos_energy_up": null,
  "dos_energy_down": null,
  "is_magnetic": null,
  "ordering": null,
  "total_magnetization": 0.1619166,
  "total_magnetization_normalized_vol": null,
  "total_magnetization_normalized_formula_units": null,
  "num_magnetic_sites": null,
  "num_unique_magnetic_sites": null,
  "types_of_magnetic_species": null,
  "bulk_modulus": null,
  "shear_modulus": null,
  "universal_anisotropy": null,
  "homogeneous_poisson": null,
  "e_total": null,
  "e_ionic": null,
  "e_electronic": null,
  "n": null,
  "e_ij_max": null,
  "weighted_surface_energy_EV_PER_ANG2": null,
  "weighted_surface_energy": null,
  "weighted_work_function": null,
  "surface_anisotropy": null,
  "shape_factor": null,
  "has_reconstructed": null,
  "possible_species": null,
  "has_props": null,
  "theoretical": null,
  "database_IDs": null,
  "fields_not_requested": [
    "builder_meta",
    "nsites",
    "elements",
    "nelements",
    "composition",
    "composition_reduced",
    "chemsys",
    "symmetry",
    "property_name",
    "deprecated",
    "deprecation_reasons",
    "last_updated",
    "origins",
    "warnings",
    "task_ids",
    "uncorrected_energy_per_atom",
    "equilibrium_reaction_energy_per_atom",
    "decomposes_to",
    "xas",
    "grain_boundaries",
    "cbm",
    "vbm",
    "is_gap_direct",
    "is_metal",
    "es_source_calc_id",
    "bandstructure",
    "dos",
    "dos_energy_up",
    "dos_energy_down",
    "is_magnetic",
    "ordering",
    "total_magnetization_normalized_vol",
    "total_magnetization_normalized_formula_units",
    "num_magnetic_sites",
    "num_unique_magnetic_sites",
    "types_of_magnetic_species",
    "bulk_modulus",
    "shear_modulus",
    "universal_anisotropy",
    "homogeneous_poisson",
    "e_total",
    "e_ionic",
    "e_electronic",
    "n",
    "e_ij_max",
    "weighted_surface_energy_EV_PER_ANG2",
    "weighted_surface_energy",
    "weighted_work_function",
    "surface_anisotropy",
    "shape_factor",
    "has_reconstructed",
    "possible_species",
    "has_props",
    "theoretical",
    "database_IDs"
  ]
}
