{
  "builder_meta": null,
  "nsites": null,
  "elements": null,
  "nelements": null,
  "composition": null,
  "composition_reduced": null,
  "formula_pretty": "Sr2Bi3",
  "formula_anonymous": "A2B3",
  "chemsys": null,
  "volume": 717.466205800481,
  "density": 7.426430459429868,
  "density_atomic": 35.87331029002405,
  "symmetry": null,
  "property_name": null,
  "material_id": "mp-31150",
  "deprecated": null,
  "deprecation_reasons": null,
  "last_updated": null,
  "origins": null,
  "warnings": null,
  "structure": {
    "@module": "pymatgen.core.structure",
    "@class": "Structure",
    "charge": 0,
    "lattice": {
      "matrix": [
        [6.66097917, 0.0, 0.0],
        [0.0, 6.86928099, 0.0],
        [0.0, 0.0, 15.68021786]
      ],
      "pbc": [true, true, true],
      "a": 6.66097917,
      "b": 6.86928099,
      "c": 15.68021786,
      "alpha": 90.0,
      "beta": 90.0,
      "gamma": 90.0,
      "volume": 717.466205800481
    },
    "properties": {},
    "sites": [
      {
        "species": [{ "element": "Sr", "occu": 1 }],
        "abc": [0.9410306900000001, 0.0, 0.75],
        "properties": { "magmom": 0.0 },
        "label": "Sr",
        "xyz": [6.268185824420728, 0.0, 11.760163395000001]
      },
      {
        "species": [{ "element": "Sr", "occu": 1 }],
        "abc": [0.55896931, 0.5, 0.75],
        "properties": { "magmom": 0.0 },
        "label": "Sr",
        "xyz": [3.723282930579273, 3.434640495, 11.760163395000001]
      },
      {
        "species": [{ "element": "Sr", "occu": 1 }],
        "abc": [0.058969310000000004, 0.0, 0.25],
        "properties": { "magmom": 0.0 },
        "label": "Sr",
        "xyz": [0.39279334557927276, 0.0, 3.920054465]
      },
      {
        "species": [{ "element": "Sr", "occu": 1 }],
        "abc": [0.44103069, 0.5, 0.25],
        "properties": { "magmom": 0.0 },
        "label": "Sr",
        "xyz": [2.9376962394207276, 3.434640495, 3.920054465]
      },
      {
        "species": [{ "element": "Sr", "occu": 1 }],
        "abc": [0.75, 0.75, 0.00010347],
        "properties": { "magmom": -0.0 },
        "label": "Sr",
        "xyz": [4.9957343775, 5.1519607425, 0.0016224321419742]
      },
      {
        "species": [{ "element": "Sr", "occu": 1 }],
        "abc": [0.75, 0.25, 0.49989653],
        "properties": { "magmom": -0.0 },
        "label": "Sr",
        "xyz": [4.9957343775, 1.7173202475, 7.838486497858026]
      },
      {
        "species": [{ "element": "Sr", "occu": 1 }],
        "abc": [0.25, 0.25, -0.00010347],
        "properties": { "magmom": -0.0 },
        "label": "Sr",
        "xyz": [1.6652447925, 1.7173202475, -0.0016224321419742]
      },
      {
        "species": [{ "element": "Sr", "occu": 1 }],
        "abc": [0.25, 0.75, 0.50010347],
        "properties": { "magmom": -0.0 },
        "label": "Sr",
        "xyz": [1.6652447925, 5.1519607425, 7.841731362141974]
      },
      {
        "species": [{ "element": "Bi", "occu": 1 }],
        "abc": [0.75, 0.75, 0.5724879900000001],
        "properties": { "magmom": 0.0 },
        "label": "Bi",
        "xyz": [4.9957343775, 5.1519607425, 8.976736405433503]
      },
      {
        "species": [{ "element": "Bi", "occu": 1 }],
        "abc": [0.75, 0.25, 0.92751201],
        "properties": { "magmom": 0.0 },
        "label": "Bi",
        "xyz": [4.9957343775, 1.7173202475, 14.5435903845665]
      },
      {
        "species": [{ "element": "Bi", "occu": 1 }],
        "abc": [0.25, 0.25, 0.42751201],
        "properties": { "magmom": 0.0 },
        "label": "Bi",
        "xyz": [1.6652447925, 1.7173202475, 6.703481454566499]
      },
      {
        "species": [{ "element": "Bi", "occu": 1 }],
        "abc": [0.25, 0.75, 0.07248799],
        "properties": { "magmom": 0.0 },
        "label": "Bi",
        "xyz": [1.6652447925, 5.1519607425, 1.1366274754335015]
      },
      {
        "species": [{ "element": "Bi", "occu": 1 }],
        "abc": [0.42192839, 0.93679175, 0.84513198],
        "properties": { "magmom": 0.0 },
        "label": "Bi",
        "xyz": [2.810456217021636, 6.435085759863833, 13.251853566853164]
      },
      {
        "species": [{ "element": "Bi", "occu": 1 }],
        "abc": [0.42192839, 0.06320825000000001, 0.65486802],
        "properties": { "magmom": 0.0 },
        "label": "Bi",
        "xyz": [2.810456217021636, 0.43419523013616756, 10.268473223146838]
      },
      {
        "species": [{ "element": "Bi", "occu": 1 }],
        "abc": [0.07807161, 0.43679175000000003, 0.65486802],
        "properties": { "magmom": 0.0 },
        "label": "Bi",
        "xyz": [0.5200333679783637, 3.0004452648638327, 10.268473223146838]
      },
      {
        "species": [{ "element": "Bi", "occu": 1 }],
        "abc": [0.07807161, 0.56320825, 0.84513198],
        "properties": { "magmom": 0.0 },
        "label": "Bi",
        "xyz": [0.5200333679783637, 3.8688357251361674, 13.251853566853164]
      },
      {
        "species": [{ "element": "Bi", "occu": 1 }],
        "abc": [0.57807161, 0.06320825000000001, 0.15486802],
        "properties": { "magmom": 0.0 },
        "label": "Bi",
        "xyz": [3.8505229529783636, 0.43419523013616756, 2.428364293146837]
      },
      {
        "species": [{ "element": "Bi", "occu": 1 }],
        "abc": [0.57807161, 0.93679175, 0.34513198],
        "properties": { "magmom": 0.0 },
        "label": "Bi",
        "xyz": [3.8505229529783636, 6.435085759863833, 5.411744636853163]
      },
      {
        "species": [{ "element": "Bi", "occu": 1 }],
        "abc": [0.92192839, 0.56320825, 0.34513198],
        "properties": { "magmom": 0.0 },
        "label": "Bi",
        "xyz": [6.140945802021637, 3.8688357251361674, 5.411744636853163]
      },
      {
        "species": [{ "element": "Bi", "occu": 1 }],
        "abc": [0.92192839, 0.43679175000000003, 0.15486802],
        "properties": { "magmom": 0.0 },
        "label": "Bi",
        "xyz": [6.140945802021637, 3.0004452648638327, 2.428364293146837]
      }
    ]
  },
  "task_ids": null,
  "uncorrected_energy_per_atom": null,
  "energy_per_atom": -41.9719760975,
  "formation_energy_per_atom": -0.812347422499999,
  "energy_above_hull": 0.0,
  "is_stable": true,
  "equilibrium_reaction_energy_per_atom": null,
  "decomposes_to": null,
  "xas": null,
  "grain_boundaries": null,
  "band_gap": 0.0,
  "cbm": null,
  "vbm": null,
  "efermi": 4.03401331,
  "is_gap_direct": null,
  "is_metal": null,
  "es_source_calc_id": null,
  "bandstructure": null,
  "dos": null,
  "dos_energy_up": null,
  "dos_energy_down": null,
  "is_magnetic": null,
  "ordering": null,
  "total_magnetization": 3e-7,
  "total_magnetization_normalized_vol": null,
  "total_magnetization_normalized_formula_units": null,
  "num_magnetic_sites": null,
  "num_unique_magnetic_sites": null,
  "types_of_magnetic_species": null,
  "bulk_modulus": null,
  "shear_modulus": null,
  "universal_anisotropy": null,
  "homogeneous_poisson": null,
  "e_total": null,
  "e_ionic": null,
  "e_electronic": null,
  "n": null,
  "e_ij_max": null,
  "weighted_surface_energy_EV_PER_ANG2": null,
  "weighted_surface_energy": null,
  "weighted_work_function": null,
  "surface_anisotropy": null,
  "shape_factor": null,
  "has_reconstructed": null,
  "possible_species": null,
  "has_props": null,
  "theoretical": null,
  "database_IDs": null,
  "fields_not_requested": [
    "builder_meta",
    "nsites",
    "elements",
    "nelements",
    "composition",
    "composition_reduced",
    "chemsys",
    "symmetry",
    "property_name",
    "deprecated",
    "deprecation_reasons",
    "last_updated",
    "origins",
    "warnings",
    "task_ids",
    "uncorrected_energy_per_atom",
    "equilibrium_reaction_energy_per_atom",
    "decomposes_to",
    "xas",
    "grain_boundaries",
    "cbm",
    "vbm",
    "is_gap_direct",
    "is_metal",
    "es_source_calc_id",
    "bandstructure",
    "dos",
    "dos_energy_up",
    "dos_energy_down",
    "is_magnetic",
    "ordering",
    "total_magnetization_normalized_vol",
    "total_magnetization_normalized_formula_units",
    "num_magnetic_sites",
    "num_unique_magnetic_sites",
    "types_of_magnetic_species",
    "bulk_modulus",
    "shear_modulus",
    "universal_anisotropy",
    "homogeneous_poisson",
    "e_total",
    "e_ionic",
    "e_electronic",
    "n",
    "e_ij_max",
    "weighted_surface_energy_EV_PER_ANG2",
    "weighted_surface_energy",
    "weighted_work_function",
    "surface_anisotropy",
    "shape_factor",
    "has_reconstructed",
    "possible_species",
    "has_props",
    "theoretical",
    "database_IDs"
  ]
}
