{
  "builder_meta": null,
  "nsites": null,
  "elements": null,
  "nelements": null,
  "composition": null,
  "composition_reduced": null,
  "formula_pretty": "Sr2Bi",
  "formula_anonymous": "AB2",
  "chemsys": null,
  "volume": 238.09943757258054,
  "density": 5.359214544051086,
  "density_atomic": 39.68323959543009,
  "symmetry": null,
  "property_name": null,
  "material_id": "mp-29619",
  "deprecated": null,
  "deprecation_reasons": null,
  "last_updated": null,
  "origins": null,
  "warnings": null,
  "structure": {
    "@module": "pymatgen.core.structure",
    "@class": "Structure",
    "charge": 0,
    "lattice": {
      "matrix": [
        [4.94124964, -0.00013643, -1.34710748],
        [-0.36742163, 4.9275706, -1.34710756],
        [0.01027246, 0.01106686, 9.7728401]
      ],
      "pbc": [true, true, true],
      "a": 5.121586334924485,
      "b": 5.121586614554651,
      "c": 9.772851764914513,
      "alpha": 105.18942249682574,
      "beta": 105.18942375976933,
      "gamma": 90.0032668381019,
      "volume": 238.09943757258054
    },
    "properties": {},
    "sites": [
      {
        "species": [{ "element": "Sr", "occu": 1 }],
        "abc": [0.49999982, -1.7000000000000001e-7, -3.7e-7],
        "properties": { "magmom": -0.0 },
        "label": "Sr",
        "xyz": [2.470623989235931, -6.905675718279999e-5, -0.6735568844632054]
      },
      {
        "species": [{ "element": "Sr", "occu": 1 }],
        "abc": [-2e-7, 0.4999998, -3.799999999999998e-7],
        "properties": { "magmom": -0.0 },
        "label": "Sr",
        "xyz": [-0.1837117336691368, 2.4637843103077595, -0.67355695483623]
      },
      {
        "species": [{ "element": "Sr", "occu": 1 }],
        "abc": [0.32225722, 0.322257199999999, 0.64450725],
        "properties": { "magmom": -0.039 },
        "label": "Sr",
        "xyz": [1.4805697815545003, 1.5950338103105257, 5.430436075610288]
      },
      {
        "species": [{ "element": "Sr", "occu": 1 }],
        "abc": [0.67774327, 0.6777432800000001, 0.35549374],
        "properties": { "magmom": 0.039 },
        "label": "Sr",
        "xyz": [3.1035329434651766, 3.3434695958126985, 1.6481973528071174]
      },
      {
        "species": [{ "element": "Bi", "occu": 1 }],
        "abc": [0.13488407, 0.13488406, 0.2697541],
        "properties": { "magmom": 0.006 },
        "label": "Bi",
        "xyz": [0.619707579345103, 0.6676176570900919, 2.2728570090400724]
      },
      {
        "species": [{ "element": "Bi", "occu": 1 }],
        "abc": [0.86511582, 0.86511583, 0.73024566],
        "properties": { "magmom": -0.006 },
        "label": "Bi",
        "xyz": [3.9643923850684253, 4.270882828236104, 4.805766001841958]
      }
    ]
  },
  "task_ids": null,
  "uncorrected_energy_per_atom": null,
  "energy_per_atom": -30.51302803333333,
  "formation_energy_per_atom": -0.9151627383333311,
  "energy_above_hull": 0.011492103055555002,
  "is_stable": false,
  "equilibrium_reaction_energy_per_atom": null,
  "decomposes_to": null,
  "xas": null,
  "grain_boundaries": null,
  "band_gap": 0.0,
  "cbm": null,
  "vbm": null,
  "efermi": 3.37124794,
  "is_gap_direct": null,
  "is_metal": null,
  "es_source_calc_id": null,
  "bandstructure": null,
  "dos": null,
  "dos_energy_up": null,
  "dos_energy_down": null,
  "is_magnetic": null,
  "ordering": null,
  "total_magnetization": 6.2e-6,
  "total_magnetization_normalized_vol": null,
  "total_magnetization_normalized_formula_units": null,
  "num_magnetic_sites": null,
  "num_unique_magnetic_sites": null,
  "types_of_magnetic_species": null,
  "bulk_modulus": null,
  "shear_modulus": null,
  "universal_anisotropy": null,
  "homogeneous_poisson": null,
  "e_total": null,
  "e_ionic": null,
  "e_electronic": null,
  "n": null,
  "e_ij_max": null,
  "weighted_surface_energy_EV_PER_ANG2": null,
  "weighted_surface_energy": null,
  "weighted_work_function": null,
  "surface_anisotropy": null,
  "shape_factor": null,
  "has_reconstructed": null,
  "possible_species": null,
  "has_props": null,
  "theoretical": null,
  "database_IDs": null,
  "fields_not_requested": [
    "builder_meta",
    "nsites",
    "elements",
    "nelements",
    "composition",
    "composition_reduced",
    "chemsys",
    "symmetry",
    "property_name",
    "deprecated",
    "deprecation_reasons",
    "last_updated",
    "origins",
    "warnings",
    "task_ids",
    "uncorrected_energy_per_atom",
    "equilibrium_reaction_energy_per_atom",
    "decomposes_to",
    "xas",
    "grain_boundaries",
    "cbm",
    "vbm",
    "is_gap_direct",
    "is_metal",
    "es_source_calc_id",
    "bandstructure",
    "dos",
    "dos_energy_up",
    "dos_energy_down",
    "is_magnetic",
    "ordering",
    "total_magnetization_normalized_vol",
    "total_magnetization_normalized_formula_units",
    "num_magnetic_sites",
    "num_unique_magnetic_sites",
    "types_of_magnetic_species",
    "bulk_modulus",
    "shear_modulus",
    "universal_anisotropy",
    "homogeneous_poisson",
    "e_total",
    "e_ionic",
    "e_electronic",
    "n",
    "e_ij_max",
    "weighted_surface_energy_EV_PER_ANG2",
    "weighted_surface_energy",
    "weighted_work_function",
    "surface_anisotropy",
    "shape_factor",
    "has_reconstructed",
    "possible_species",
    "has_props",
    "theoretical",
    "database_IDs"
  ]
}
