{"builder_meta": null, "nsites": null, "elements": null, "nelements": null, "composition": null, "composition_reduced": null, "formula_pretty": "Sr2Ge", "formula_anonymous": "AB2", "chemsys": null, "volume": 404.3083594015766, "density": 4.072282101097739, "density_atomic": 33.692363283464715, "symmetry": null, "property_name": null, "material_id": "mp-2576", "deprecated": null, "deprecation_reasons": null, "last_updated": null, "origins": null, "warnings": null, "structure": {"@module": "pymatgen.core.structure", "@class": "Structure", "charge": 0, "lattice": {"matrix": [[5.18214656, -0.0, 0.0], [0.0, 8.13943776, 0.0], [0.0, 0.0, 9.58536429]], "pbc": [true, true, true], "a": 5.18214656, "b": 8.13943776, "c": 9.58536429, "alpha": 90.0, "beta": 90.0, "gamma": 90.0, "volume": 404.3083594015766}, "properties": {}, "sites": [{"species": [{"element": "Sr", "occu": 1}], "abc": [0.75, 0.34844979, 0.91990238], "properties": {"magmom": 0.0}, "label": "Sr", "xyz": [3.8866099199999997, 2.8361853781900703, 8.81759942353801]}, {"species": [{"element": "Sr", "occu": 1}], "abc": [0.25, 0.65154921, 0.08009762000000001], "properties": {"magmom": 0.0}, "label": "Sr", "xyz": [1.29553664, 5.30324424237217, 0.7677648664619898]}, {"species": [{"element": "Sr", "occu": 1}], "abc": [0.75, 0.84845079, 0.58009762], "properties": {"magmom": 0.0}, "label": "Sr", "xyz": [3.8866099199999997, 6.90591239762783, 5.5604470114619895]}, {"species": [{"element": "Sr", "occu": 1}], "abc": [0.25, 0.15155021, 0.41990238], "properties": {"magmom": 0.0}, "label": "Sr", "xyz": [1.29553664, 1.2335335018099296, 4.02491727853801]}, {"species": [{"element": "Sr", "occu": 1}], "abc": [0.25, 0.01625452, 0.8255513], "properties": {"magmom": 0.0}, "label": "Sr", "xyz": [1.29553664, 0.1323026538586752, 7.913209950583076]}, {"species": [{"element": "Sr", "occu": 1}], "abc": [0.75, 0.9837454800000001, 0.174448699999999], "properties": {"magmom": 0.0}, "label": "Sr", "xyz": [3.8866099199999997, 8.007135106141325, 1.6721543394169134]}, {"species": [{"element": "Sr", "occu": 1}], "abc": [0.25, 0.51625452, 0.6744487], "properties": {"magmom": 0.0}, "label": "Sr", "xyz": [1.29553664, 4.202021533858676, 6.464836484416923]}, {"species": [{"element": "Sr", "occu": 1}], "abc": [0.75, 0.48374548, 0.3255513], "properties": {"magmom": 0.0}, "label": "Sr", "xyz": [3.8866099199999997, 3.9374162261413246, 3.1205278055830767]}, {"species": [{"element": "Ge", "occu": 1}], "abc": [0.25, 0.75345907, 0.40078871], "properties": {"magmom": -0.0}, "label": "Ge", "xyz": [1.29553664, 6.132733204972483, 3.8417057886691657]}, {"species": [{"element": "Ge", "occu": 1}], "abc": [0.75, 0.24654093, 0.5992112900000001], "properties": {"magmom": -0.0}, "label": "Ge", "xyz": [3.8866099199999997, 2.006704555027517, 5.7436585013308346]}, {"species": [{"element": "Ge", "occu": 1}], "abc": [0.25, 0.25345907, 0.09921129000000001], "properties": {"magmom": -0.0}, "label": "Ge", "xyz": [1.29553664, 2.063014324972483, 0.9509763563308341]}, {"species": [{"element": "Ge", "occu": 1}], "abc": [0.75, 0.74654093, 0.90078871], "properties": {"magmom": -0.0}, "label": "Ge", "xyz": [3.8866099199999997, 6.076423435027516, 8.634387933669165]}]}, "task_ids": null, "uncorrected_energy_per_atom": null, "energy_per_atom": -15.341575461666666, "formation_energy_per_atom": -0.6204755550000011, "energy_above_hull": 0.0, "is_stable": true, "equilibrium_reaction_energy_per_atom": null, "decomposes_to": null, "xas": null, "grain_boundaries": null, "band_gap": 0.363399999999999, "cbm": null, "vbm": null, "efermi": 2.6666555, "is_gap_direct": null, "is_metal": null, "es_source_calc_id": null, "bandstructure": null, "dos": null, "dos_energy_up": null, "dos_energy_down": null, "is_magnetic": null, "ordering": null, "total_magnetization": 0.0, "total_magnetization_normalized_vol": null, "total_magnetization_normalized_formula_units": null, "num_magnetic_sites": null, "num_unique_magnetic_sites": null, "types_of_magnetic_species": null, "bulk_modulus": null, "shear_modulus": null, "universal_anisotropy": null, "homogeneous_poisson": null, "e_total": null, "e_ionic": null, "e_electronic": null, "n": null, "e_ij_max": null, "weighted_surface_energy_EV_PER_ANG2": null, "weighted_surface_energy": null, "weighted_work_function": null, "surface_anisotropy": null, "shape_factor": null, "has_reconstructed": null, "possible_species": null, "has_props": null, "theoretical": null, "database_IDs": null, "fields_not_requested": ["builder_meta", "nsites", "elements", "nelements", "composition", "composition_reduced", "chemsys", "symmetry", "property_name", "deprecated", "deprecation_reasons", "last_updated", "origins", "warnings", "task_ids", "uncorrected_energy_per_atom", "equilibrium_reaction_energy_per_atom", "decomposes_to", "xas", "grain_boundaries", "cbm", "vbm", "is_gap_direct", "is_metal", "es_source_calc_id", "bandstructure", "dos", "dos_energy_up", "dos_energy_down", "is_magnetic", "ordering", "total_magnetization_normalized_vol", "total_magnetization_normalized_formula_units", "num_magnetic_sites", "num_unique_magnetic_sites", "types_of_magnetic_species", "bulk_modulus", "shear_modulus", "universal_anisotropy", "homogeneous_poisson", "e_total", "e_ionic", "e_electronic", "n", "e_ij_max", "weighted_surface_energy_EV_PER_ANG2", "weighted_surface_energy", "weighted_work_function", "surface_anisotropy", "shape_factor", "has_reconstructed", "possible_species", "has_props", "theoretical", "database_IDs"]}