{"builder_meta": null, "nsites": null, "elements": null, "nelements": null, "composition": null, "composition_reduced": null, "formula_pretty": "Sr2Mg", "formula_anonymous": "AB2", "chemsys": null, "volume": 127.53455133714995, "density": 2.598137246499854, "density_atomic": 42.511517112383316, "symmetry": null, "property_name": null, "material_id": "mp-1094288", "deprecated": null, "deprecation_reasons": null, "last_updated": null, "origins": null, "warnings": null, "structure": {"@module": "pymatgen.core.structure", "@class": "Structure", "charge": 0, "lattice": {"matrix": [[-2.015359, 2.132998, 7.416944], [2.015359, -2.132998, 7.416944], [2.015359, 2.132998, -7.416944]], "pbc": [true, true, true], "a": 7.976365755531838, "b": 7.976365755531838, "c": 7.976365755531838, "alpha": 150.7293046565618, "beta": 148.97902352796697, "gamma": 43.172412889966985, "volume": 127.53455133714995}, "properties": {}, "sites": [{"species": [{"element": "Sr", "occu": 1}], "abc": [0.856614, 0.856614, 0.0], "properties": {"magmom": -0.0}, "label": "Sr", "xyz": [0.0, 0.0, 12.706916135232]}, {"species": [{"element": "Sr", "occu": 1}], "abc": [0.14338599999999901, 0.14338599999999901, 0.0], "properties": {"magmom": -0.0}, "label": "Sr", "xyz": [0.0, 0.0, 2.1269718647679854]}, {"species": [{"element": "Mg", "occu": 1}], "abc": [0.5, 0.5, 0.0], "properties": {"magmom": 0.0}, "label": "Mg", "xyz": [0.0, 0.0, 7.416944]}]}, "task_ids": null, "uncorrected_energy_per_atom": null, "energy_per_atom": -11.517817906666666, "formation_energy_per_atom": -0.030942665, "energy_above_hull": 0.014137968333333, "is_stable": false, "equilibrium_reaction_energy_per_atom": null, "decomposes_to": null, "xas": null, "grain_boundaries": null, "band_gap": 0.0, "cbm": null, "vbm": null, "efermi": 1.870897209999999, "is_gap_direct": null, "is_metal": null, "es_source_calc_id": null, "bandstructure": null, "dos": null, "dos_energy_up": null, "dos_energy_down": null, "is_magnetic": null, "ordering": null, "total_magnetization": 2.9400000000000003e-05, "total_magnetization_normalized_vol": null, "total_magnetization_normalized_formula_units": null, "num_magnetic_sites": null, "num_unique_magnetic_sites": null, "types_of_magnetic_species": null, "bulk_modulus": null, "shear_modulus": null, "universal_anisotropy": null, "homogeneous_poisson": null, "e_total": null, "e_ionic": null, "e_electronic": null, "n": null, "e_ij_max": null, "weighted_surface_energy_EV_PER_ANG2": null, "weighted_surface_energy": null, "weighted_work_function": null, "surface_anisotropy": null, "shape_factor": null, "has_reconstructed": null, "possible_species": null, "has_props": null, "theoretical": null, "database_IDs": null, "fields_not_requested": ["builder_meta", "nsites", "elements", "nelements", "composition", "composition_reduced", "chemsys", "symmetry", "property_name", "deprecated", "deprecation_reasons", "last_updated", "origins", "warnings", "task_ids", "uncorrected_energy_per_atom", "equilibrium_reaction_energy_per_atom", "decomposes_to", "xas", "grain_boundaries", "cbm", "vbm", "is_gap_direct", "is_metal", "es_source_calc_id", "bandstructure", "dos", "dos_energy_up", "dos_energy_down", "is_magnetic", "ordering", "total_magnetization_normalized_vol", "total_magnetization_normalized_formula_units", "num_magnetic_sites", "num_unique_magnetic_sites", "types_of_magnetic_species", "bulk_modulus", "shear_modulus", "universal_anisotropy", "homogeneous_poisson", "e_total", "e_ionic", "e_electronic", "n", "e_ij_max", "weighted_surface_energy_EV_PER_ANG2", "weighted_surface_energy", "weighted_work_function", "surface_anisotropy", "shape_factor", "has_reconstructed", "possible_species", "has_props", "theoretical", "database_IDs"]}