{
  "builder_meta": null,
  "nsites": null,
  "elements": null,
  "nelements": null,
  "composition": null,
  "composition_reduced": null,
  "formula_pretty": "Sr2Pb3",
  "formula_anonymous": "A2B3",
  "chemsys": null,
  "volume": 348.6697265608996,
  "density": 7.589898686534993,
  "density_atomic": 34.86697265608996,
  "symmetry": null,
  "property_name": null,
  "material_id": "mp-669913",
  "deprecated": null,
  "deprecation_reasons": null,
  "last_updated": null,
  "origins": null,
  "warnings": null,
  "structure": {
    "@module": "pymatgen.core.structure",
    "@class": "Structure",
    "charge": 0,
    "lattice": {
      "matrix": [
        [8.34950374, 0.0, -0.0],
        [0.0, 8.34950374, -0.0],
        [0.0, -0.0, 5.00141525]
      ],
      "pbc": [true, true, true],
      "a": 8.34950374,
      "b": 8.34950374,
      "c": 5.00141525,
      "alpha": 90.0,
      "beta": 90.0,
      "gamma": 90.0,
      "volume": 348.6697265608996
    },
    "properties": {},
    "sites": [
      {
        "species": [{ "element": "Sr", "occu": 1 }],
        "abc": [0.67292886, 0.17292886, 0.0],
        "properties": { "magmom": 0.0 },
        "label": "Sr",
        "xyz": [5.618622033323936, 1.4438701633239361, 0.0]
      },
      {
        "species": [{ "element": "Sr", "occu": 1 }],
        "abc": [0.17292886, 0.32707114, 0.0],
        "properties": { "magmom": 0.0 },
        "label": "Sr",
        "xyz": [1.4438701633239361, 2.730881706676063, 0.0]
      },
      {
        "species": [{ "element": "Sr", "occu": 1 }],
        "abc": [0.82707114, 0.67292886, 0.0],
        "properties": { "magmom": 0.0 },
        "label": "Sr",
        "xyz": [6.905633576676063, 5.618622033323936, 0.0]
      },
      {
        "species": [{ "element": "Sr", "occu": 1 }],
        "abc": [0.32707114, 0.82707114, -0.0],
        "properties": { "magmom": 0.0 },
        "label": "Sr",
        "xyz": [2.730881706676063, 6.905633576676063, 0.0]
      },
      {
        "species": [{ "element": "Pb", "occu": 1 }],
        "abc": [0.128679, 0.628679, 0.5],
        "properties": { "magmom": 0.0 },
        "label": "Pb",
        "xyz": [1.0744057917594598, 5.249157661759459, 2.500707625]
      },
      {
        "species": [{ "element": "Pb", "occu": 1 }],
        "abc": [0.871321, 0.371320999999999, 0.5],
        "properties": { "magmom": 0.0 },
        "label": "Pb",
        "xyz": [7.27509794824054, 3.1003460782405314, 2.500707625]
      },
      {
        "species": [{ "element": "Pb", "occu": 1 }],
        "abc": [0.628679, 0.871321, 0.5],
        "properties": { "magmom": 0.0 },
        "label": "Pb",
        "xyz": [5.249157661759459, 7.27509794824054, 2.500707625]
      },
      {
        "species": [{ "element": "Pb", "occu": 1 }],
        "abc": [0.0, 0.0, 0.5],
        "properties": { "magmom": -0.0 },
        "label": "Pb",
        "xyz": [0.0, 0.0, 2.500707625]
      },
      {
        "species": [{ "element": "Pb", "occu": 1 }],
        "abc": [0.371320999999999, 0.128679, 0.5],
        "properties": { "magmom": 0.0 },
        "label": "Pb",
        "xyz": [3.1003460782405314, 1.0744057917594598, 2.500707625]
      },
      {
        "species": [{ "element": "Pb", "occu": 1 }],
        "abc": [0.5, 0.5, 0.5],
        "properties": { "magmom": -0.0 },
        "label": "Pb",
        "xyz": [4.17475187, 4.17475187, 2.500707625]
      }
    ]
  },
  "task_ids": null,
  "uncorrected_energy_per_atom": null,
  "energy_per_atom": -40.41201451,
  "formation_energy_per_atom": -0.582669615999998,
  "energy_above_hull": 0.007647265999999001,
  "is_stable": false,
  "equilibrium_reaction_energy_per_atom": null,
  "decomposes_to": null,
  "xas": null,
  "grain_boundaries": null,
  "band_gap": 0.0,
  "cbm": null,
  "vbm": null,
  "efermi": 4.46851633,
  "is_gap_direct": null,
  "is_metal": null,
  "es_source_calc_id": null,
  "bandstructure": null,
  "dos": null,
  "dos_energy_up": null,
  "dos_energy_down": null,
  "is_magnetic": null,
  "ordering": null,
  "total_magnetization": 0.000357499999999,
  "total_magnetization_normalized_vol": null,
  "total_magnetization_normalized_formula_units": null,
  "num_magnetic_sites": null,
  "num_unique_magnetic_sites": null,
  "types_of_magnetic_species": null,
  "bulk_modulus": null,
  "shear_modulus": null,
  "universal_anisotropy": null,
  "homogeneous_poisson": null,
  "e_total": null,
  "e_ionic": null,
  "e_electronic": null,
  "n": null,
  "e_ij_max": null,
  "weighted_surface_energy_EV_PER_ANG2": null,
  "weighted_surface_energy": null,
  "weighted_work_function": null,
  "surface_anisotropy": null,
  "shape_factor": null,
  "has_reconstructed": null,
  "possible_species": null,
  "has_props": null,
  "theoretical": null,
  "database_IDs": null,
  "fields_not_requested": [
    "builder_meta",
    "nsites",
    "elements",
    "nelements",
    "composition",
    "composition_reduced",
    "chemsys",
    "symmetry",
    "property_name",
    "deprecated",
    "deprecation_reasons",
    "last_updated",
    "origins",
    "warnings",
    "task_ids",
    "uncorrected_energy_per_atom",
    "equilibrium_reaction_energy_per_atom",
    "decomposes_to",
    "xas",
    "grain_boundaries",
    "cbm",
    "vbm",
    "is_gap_direct",
    "is_metal",
    "es_source_calc_id",
    "bandstructure",
    "dos",
    "dos_energy_up",
    "dos_energy_down",
    "is_magnetic",
    "ordering",
    "total_magnetization_normalized_vol",
    "total_magnetization_normalized_formula_units",
    "num_magnetic_sites",
    "num_unique_magnetic_sites",
    "types_of_magnetic_species",
    "bulk_modulus",
    "shear_modulus",
    "universal_anisotropy",
    "homogeneous_poisson",
    "e_total",
    "e_ionic",
    "e_electronic",
    "n",
    "e_ij_max",
    "weighted_surface_energy_EV_PER_ANG2",
    "weighted_surface_energy",
    "weighted_work_function",
    "surface_anisotropy",
    "shape_factor",
    "has_reconstructed",
    "possible_species",
    "has_props",
    "theoretical",
    "database_IDs"
  ]
}
