{"builder_meta": null, "nsites": null, "elements": null, "nelements": null, "composition": null, "composition_reduced": null, "formula_pretty": "Sr2Pd", "formula_anonymous": "AB2", "chemsys": null, "volume": 404.97159141637303, "density": 4.619656720737044, "density_atomic": 33.74763261803108, "symmetry": null, "property_name": null, "material_id": "mp-1102131", "deprecated": null, "deprecation_reasons": null, "last_updated": null, "origins": null, "warnings": null, "structure": {"@module": "pymatgen.core.structure", "@class": "Structure", "charge": 0, "lattice": {"matrix": [[0.0, -4.955116, 0.0], [-8.322578, 0.0, 0.0], [0.0, 0.0, -9.820031]], "pbc": [true, true, true], "a": 4.955116, "b": 8.322578, "c": 9.820031, "alpha": 90.0, "beta": 90.0, "gamma": 90.0, "volume": 404.97159141637303}, "properties": {}, "sites": [{"species": [{"element": "Sr", "occu": 1}], "abc": [0.75, 0.643992999999999, 0.073550999999999], "properties": {"magmom": 0.0}, "label": "Sr", "xyz": [-5.359681973953992, -3.7163370000000002, -0.7222731000809902]}, {"species": [{"element": "Sr", "occu": 1}], "abc": [0.75, 0.143992999999999, 0.426448999999999], "properties": {"magmom": 0.0}, "label": "Sr", "xyz": [-1.1983929739539918, -3.7163370000000002, -4.18774239991899]}, {"species": [{"element": "Sr", "occu": 1}], "abc": [0.25, 0.356006999999999, 0.926449], "properties": {"magmom": 0.0}, "label": "Sr", "xyz": [-2.962896026045992, -1.238779, -9.097757899919]}, {"species": [{"element": "Sr", "occu": 1}], "abc": [0.25, 0.856007, 0.573550999999999], "properties": {"magmom": 0.0}, "label": "Sr", "xyz": [-7.124185026046, -1.238779, -5.63228860008099]}, {"species": [{"element": "Sr", "occu": 1}], "abc": [0.75, 0.521058, 0.662974], "properties": {"magmom": 0.0}, "label": "Sr", "xyz": [-4.336545847524, -3.7163370000000002, -6.510425232194]}, {"species": [{"element": "Sr", "occu": 1}], "abc": [0.75, 0.021058, 0.837025999999999], "properties": {"magmom": 0.0}, "label": "Sr", "xyz": [-0.175256847524, -3.7163370000000002, -8.21962126780599]}, {"species": [{"element": "Sr", "occu": 1}], "abc": [0.25, 0.478942, 0.337026], "properties": {"magmom": 0.0}, "label": "Sr", "xyz": [-3.9860321524759996, -1.238779, -3.309605767806]}, {"species": [{"element": "Sr", "occu": 1}], "abc": [0.25, 0.978942, 0.162973999999999], "properties": {"magmom": 0.0}, "label": "Sr", "xyz": [-8.147321152476, -1.238779, -1.6004097321939903]}, {"species": [{"element": "Pd", "occu": 1}], "abc": [0.75, 0.253376999999999, 0.110403999999999], "properties": {"magmom": -0.0}, "label": "Pd", "xyz": [-2.108749845905992, -3.7163370000000002, -1.0841707025239902]}, {"species": [{"element": "Pd", "occu": 1}], "abc": [0.75, 0.753377, 0.389596], "properties": {"magmom": -0.0}, "label": "Pd", "xyz": [-6.270038845906, -3.7163370000000002, -3.825844797476]}, {"species": [{"element": "Pd", "occu": 1}], "abc": [0.25, 0.746622999999999, 0.889595999999999], "properties": {"magmom": -0.0}, "label": "Pd", "xyz": [-6.213828154093992, -1.238779, -8.735860297475991]}, {"species": [{"element": "Pd", "occu": 1}], "abc": [0.25, 0.246622999999999, 0.610404], "properties": {"magmom": -0.0}, "label": "Pd", "xyz": [-2.0525391540939917, -1.238779, -5.994186202523999]}]}, "task_ids": null, "uncorrected_energy_per_atom": null, "energy_per_atom": -3.293608523333333, "formation_energy_per_atom": -0.43869585999999905, "energy_above_hull": 0.0, "is_stable": true, "equilibrium_reaction_energy_per_atom": null, "decomposes_to": null, "xas": null, "grain_boundaries": null, "band_gap": 0.0, "cbm": null, "vbm": null, "efermi": 2.6804750200000003, "is_gap_direct": null, "is_metal": null, "es_source_calc_id": null, "bandstructure": null, "dos": null, "dos_energy_up": null, "dos_energy_down": null, "is_magnetic": null, "ordering": null, "total_magnetization": 0.00744, "total_magnetization_normalized_vol": null, "total_magnetization_normalized_formula_units": null, "num_magnetic_sites": null, "num_unique_magnetic_sites": null, "types_of_magnetic_species": null, "bulk_modulus": null, "shear_modulus": null, "universal_anisotropy": null, "homogeneous_poisson": null, "e_total": null, "e_ionic": null, "e_electronic": null, "n": null, "e_ij_max": null, "weighted_surface_energy_EV_PER_ANG2": null, "weighted_surface_energy": null, "weighted_work_function": null, "surface_anisotropy": null, "shape_factor": null, "has_reconstructed": null, "possible_species": null, "has_props": null, "theoretical": null, "database_IDs": null, "fields_not_requested": ["builder_meta", "nsites", "elements", "nelements", "composition", "composition_reduced", "chemsys", "symmetry", "property_name", "deprecated", "deprecation_reasons", "last_updated", "origins", "warnings", "task_ids", "uncorrected_energy_per_atom", "equilibrium_reaction_energy_per_atom", "decomposes_to", "xas", "grain_boundaries", "cbm", "vbm", "is_gap_direct", "is_metal", "es_source_calc_id", "bandstructure", "dos", "dos_energy_up", "dos_energy_down", "is_magnetic", "ordering", "total_magnetization_normalized_vol", "total_magnetization_normalized_formula_units", "num_magnetic_sites", "num_unique_magnetic_sites", "types_of_magnetic_species", "bulk_modulus", "shear_modulus", "universal_anisotropy", "homogeneous_poisson", "e_total", "e_ionic", "e_electronic", "n", "e_ij_max", "weighted_surface_energy_EV_PER_ANG2", "weighted_surface_energy", "weighted_work_function", "surface_anisotropy", "shape_factor", "has_reconstructed", "possible_species", "has_props", "theoretical", "database_IDs"]}