{"builder_meta": null, "nsites": null, "elements": null, "nelements": null, "composition": null, "composition_reduced": null, "formula_pretty": "Sr2Si", "formula_anonymous": "AB2", "chemsys": null, "volume": 400.7831001280795, "density": 3.369702324055887, "density_atomic": 33.39859167733996, "symmetry": null, "property_name": null, "material_id": "mp-1106", "deprecated": null, "deprecation_reasons": null, "last_updated": null, "origins": null, "warnings": null, "structure": {"@module": "pymatgen.core.structure", "@class": "Structure", "charge": 0, "lattice": {"matrix": [[5.1525517, -0.0, 0.0], [0.0, 8.10749225, 0.0], [0.0, 0.0, 9.59401736]], "pbc": [true, true, true], "a": 5.1525517, "b": 8.10749225, "c": 9.59401736, "alpha": 90.0, "beta": 90.0, "gamma": 90.0, "volume": 400.7831001280795}, "properties": {}, "sites": [{"species": [{"element": "Sr", "occu": 1}], "abc": [0.75, 0.98185565, 0.17448468], "properties": {"magmom": -0.0}, "label": "Sr", "xyz": [3.864413775, 7.960387072993712, 1.674009048974045]}, {"species": [{"element": "Sr", "occu": 1}], "abc": [0.25, 0.01814435, 0.82551532], "properties": {"magmom": -0.0}, "label": "Sr", "xyz": [1.288137925, 0.1471051770062875, 7.920008311025956]}, {"species": [{"element": "Sr", "occu": 1}], "abc": [0.75, 0.48185565, 0.32551532], "properties": {"magmom": -0.0}, "label": "Sr", "xyz": [3.864413775, 3.9066409479937128, 3.122999631025955]}, {"species": [{"element": "Sr", "occu": 1}], "abc": [0.25, 0.51814435, 0.6744846800000001], "properties": {"magmom": -0.0}, "label": "Sr", "xyz": [1.288137925, 4.200851302006288, 6.471017728974045]}, {"species": [{"element": "Sr", "occu": 1}], "abc": [0.25, 0.6514308400000001, 0.07832305], "properties": {"magmom": 0.0}, "label": "Sr", "xyz": [1.288137925, 5.28147048671099, 0.7514327013881481]}, {"species": [{"element": "Sr", "occu": 1}], "abc": [0.75, 0.34856916, 0.92167695], "properties": {"magmom": 0.0}, "label": "Sr", "xyz": [3.864413775, 2.82602176328901, 8.842584658611853]}, {"species": [{"element": "Sr", "occu": 1}], "abc": [0.25, 0.15143084, 0.42167695], "properties": {"magmom": 0.0}, "label": "Sr", "xyz": [1.288137925, 1.22772436171099, 4.045575978611852]}, {"species": [{"element": "Sr", "occu": 1}], "abc": [0.75, 0.84856916, 0.5783230500000001], "properties": {"magmom": 0.0}, "label": "Sr", "xyz": [3.864413775, 6.8797678882890105, 5.548441381388149]}, {"species": [{"element": "Si", "occu": 1}], "abc": [0.25, 0.25276078, 0.10162509], "properties": {"magmom": 0.0}, "label": "Si", "xyz": [1.288137925, 2.0492560649539553, 0.9749928776715625]}, {"species": [{"element": "Si", "occu": 1}], "abc": [0.75, 0.74723922, 0.89837591], "properties": {"magmom": 0.0}, "label": "Si", "xyz": [3.864413775, 6.058236185046045, 8.619034076345798]}, {"species": [{"element": "Si", "occu": 1}], "abc": [0.25, 0.75276078, 0.39837491], "properties": {"magmom": 0.0}, "label": "Si", "xyz": [1.288137925, 6.103002189953955, 3.822015802328438]}, {"species": [{"element": "Si", "occu": 1}], "abc": [0.75, 0.24723922, 0.6016240900000001], "properties": {"magmom": 0.0}, "label": "Si", "xyz": [3.864413775, 2.004490060046045, 5.771991963654203]}]}, "task_ids": null, "uncorrected_energy_per_atom": null, "energy_per_atom": -13.454768614999999, "formation_energy_per_atom": -0.433073036666667, "energy_above_hull": 0.0, "is_stable": true, "equilibrium_reaction_energy_per_atom": null, "decomposes_to": null, "xas": null, "grain_boundaries": null, "band_gap": 0.34339999999999904, "cbm": null, "vbm": null, "efermi": 2.80569404, "is_gap_direct": null, "is_metal": null, "es_source_calc_id": null, "bandstructure": null, "dos": null, "dos_energy_up": null, "dos_energy_down": null, "is_magnetic": null, "ordering": null, "total_magnetization": 0.0, "total_magnetization_normalized_vol": null, "total_magnetization_normalized_formula_units": null, "num_magnetic_sites": null, "num_unique_magnetic_sites": null, "types_of_magnetic_species": null, "bulk_modulus": null, "shear_modulus": null, "universal_anisotropy": null, "homogeneous_poisson": null, "e_total": null, "e_ionic": null, "e_electronic": null, "n": null, "e_ij_max": null, "weighted_surface_energy_EV_PER_ANG2": null, "weighted_surface_energy": null, "weighted_work_function": null, "surface_anisotropy": null, "shape_factor": null, "has_reconstructed": null, "possible_species": null, "has_props": null, "theoretical": null, "database_IDs": null, "fields_not_requested": ["builder_meta", "nsites", "elements", "nelements", "composition", "composition_reduced", "chemsys", "symmetry", "property_name", "deprecated", "deprecation_reasons", "last_updated", "origins", "warnings", "task_ids", "uncorrected_energy_per_atom", "equilibrium_reaction_energy_per_atom", "decomposes_to", "xas", "grain_boundaries", "cbm", "vbm", "is_gap_direct", "is_metal", "es_source_calc_id", "bandstructure", "dos", "dos_energy_up", "dos_energy_down", "is_magnetic", "ordering", "total_magnetization_normalized_vol", "total_magnetization_normalized_formula_units", "num_magnetic_sites", "num_unique_magnetic_sites", "types_of_magnetic_species", "bulk_modulus", "shear_modulus", "universal_anisotropy", "homogeneous_poisson", "e_total", "e_ionic", "e_electronic", "n", "e_ij_max", "weighted_surface_energy_EV_PER_ANG2", "weighted_surface_energy", "weighted_work_function", "surface_anisotropy", "shape_factor", "has_reconstructed", "possible_species", "has_props", "theoretical", "database_IDs"]}