{
  "builder_meta": null,
  "nsites": null,
  "elements": null,
  "nelements": null,
  "composition": null,
  "composition_reduced": null,
  "formula_pretty": "Sr2Sb3",
  "formula_anonymous": "A2B3",
  "chemsys": null,
  "volume": 1355.1222398389887,
  "density": 5.298737190736542,
  "density_atomic": 33.87805599597472,
  "symmetry": null,
  "property_name": null,
  "material_id": "mp-16897",
  "deprecated": null,
  "deprecation_reasons": null,
  "last_updated": null,
  "origins": null,
  "warnings": null,
  "structure": {
    "@module": "pymatgen.core.structure",
    "@class": "Structure",
    "charge": 0,
    "lattice": {
      "matrix": [
        [6.73413582, 0.0, -0.01225588],
        [0.0, 13.09169727, 0.0],
        [-0.00416237, 0.0, 15.37095536]
      ],
      "pbc": [true, true, true],
      "a": 6.734146972616624,
      "b": 13.09169727,
      "c": 15.370955923573417,
      "alpha": 90.0,
      "beta": 90.11979148135443,
      "gamma": 90.0,
      "volume": 1355.1222398389887
    },
    "properties": {},
    "sites": [
      {
        "species": [{ "element": "Sr", "occu": 1 }],
        "abc": [0.74576625, 0.12428438, 0.99606786],
        "properties": { "magmom": -0.0 },
        "label": "Sr",
        "xyz": [5.017945214493646, 1.6270934783496425, 15.301374589922679]
      },
      {
        "species": [{ "element": "Sr", "occu": 1 }],
        "abc": [0.25423375, 0.62428438, 0.50393214],
        "properties": { "magmom": -0.0 },
        "label": "Sr",
        "xyz": [1.709947050506353, 8.172942113349642, 7.742802570077321]
      },
      {
        "species": [{ "element": "Sr", "occu": 1 }],
        "abc": [0.25423375, 0.87571562, 0.00393214],
        "properties": { "magmom": -0.0 },
        "label": "Sr",
        "xyz": [1.712028235506353, 11.464603791650356, 0.057324890077320396]
      },
      {
        "species": [{ "element": "Sr", "occu": 1 }],
        "abc": [0.74576625, 0.37571662, 0.49606786],
        "properties": { "magmom": -0.0 },
        "label": "Sr",
        "xyz": [5.020026399493647, 4.918768248347627, 7.61589690992268]
      },
      {
        "species": [{ "element": "Sr", "occu": 1 }],
        "abc": [0.24686801, 0.12667075, 0.49449034000000003],
        "properties": { "magmom": -0.0 },
        "label": "Sr",
        "xyz": [1.6603844571966124, 1.6583351119638523, 7.597763357384824]
      },
      {
        "species": [{ "element": "Sr", "occu": 1 }],
        "abc": [0.75313199, 0.62667075, 0.00550966],
        "properties": { "magmom": -0.0 },
        "label": "Sr",
        "xyz": [5.071670177803387, 8.204183746963853, 0.07545844261517641]
      },
      {
        "species": [{ "element": "Sr", "occu": 1 }],
        "abc": [0.75313199, 0.8733292500000001, 0.50550966],
        "properties": { "magmom": -0.0 },
        "label": "Sr",
        "xyz": [5.0695889928033875, 11.433362158036147, 7.760936122615176]
      },
      {
        "species": [{ "element": "Sr", "occu": 1 }],
        "abc": [0.24686801, 0.37332925, 0.99449034],
        "properties": { "magmom": -0.0 },
        "label": "Sr",
        "xyz": [1.6583032721966124, 4.887513523036147, 15.283241037384824]
      },
      {
        "species": [{ "element": "Sr", "occu": 1 }],
        "abc": [0.008530040000000001, 0.27828553, 0.243370099999999],
        "properties": { "magmom": 0.0 },
        "label": "Sr",
        "xyz": [0.0564294515068958, 3.6432299133815027, 3.7407263999120857]
      },
      {
        "species": [{ "element": "Sr", "occu": 1 }],
        "abc": [0.99146996, 0.77828553, 0.256629899999999],
        "properties": { "magmom": 0.0 },
        "label": "Sr",
        "xyz": [6.675625183493104, 10.189078548381502, 3.932495400087884]
      },
      {
        "species": [{ "element": "Sr", "occu": 1 }],
        "abc": [0.99146996, 0.72171447, 0.7566299],
        "properties": { "magmom": 0.0 },
        "label": "Sr",
        "xyz": [6.673543998493104, 9.448467356618496, 11.6179730800879]
      },
      {
        "species": [{ "element": "Sr", "occu": 1 }],
        "abc": [0.008530040000000001, 0.22171447, 0.743370099999999],
        "properties": { "magmom": 0.0 },
        "label": "Sr",
        "xyz": [0.0543482665068958, 2.902618721618497, 11.426204079912086]
      },
      {
        "species": [{ "element": "Sr", "occu": 1 }],
        "abc": [0.509564799999999, 0.47162487000000003, 0.25334886],
        "properties": { "magmom": 0.0 },
        "label": "Sr",
        "xyz": [3.4304240405967312, 6.174370023043105, 3.8879688525258658]
      },
      {
        "species": [{ "element": "Sr", "occu": 1 }],
        "abc": [0.490435199999999, 0.97162487, 0.24665114000000002],
        "properties": { "magmom": 0.0 },
        "label": "Sr",
        "xyz": [3.301630594403256, 12.720218658043104, 3.785252947474135]
      },
      {
        "species": [{ "element": "Sr", "occu": 1 }],
        "abc": [0.490435199999999, 0.52837513, 0.74665114],
        "properties": { "magmom": 0.0 },
        "label": "Sr",
        "xyz": [3.2995494094032556, 6.917327246956895, 11.470730627474135]
      },
      {
        "species": [{ "element": "Sr", "occu": 1 }],
        "abc": [0.509564799999999, 0.028375130000000002, 0.75334886],
        "properties": { "magmom": 0.0 },
        "label": "Sr",
        "xyz": [3.428342855596731, 0.3714786119568951, 11.573446532525866]
      },
      {
        "species": [{ "element": "Sb", "occu": 1 }],
        "abc": [0.73522888, 0.36750782, 0.07341163],
        "properties": { "magmom": 0.0 },
        "label": "Sb",
        "xyz": [4.950825570340118, 4.811301123797651, 1.1193960107090226]
      },
      {
        "species": [{ "element": "Sb", "occu": 1 }],
        "abc": [0.26477112, 0.86750782, 0.42658837],
        "properties": { "magmom": 0.0 },
        "label": "Sb",
        "xyz": [1.7812290646598816, 11.357149758797652, 6.553825789290977]
      },
      {
        "species": [{ "element": "Sb", "occu": 1 }],
        "abc": [0.26477112, 0.63249218, 0.92658837],
        "properties": { "magmom": 0.0 },
        "label": "Sb",
        "xyz": [1.7791478796598816, 8.280396146202348, 14.239303469290977]
      },
      {
        "species": [{ "element": "Sb", "occu": 1 }],
        "abc": [0.73522888, 0.13249218000000001, 0.5734116300000001],
        "properties": { "magmom": 0.0 },
        "label": "Sb",
        "xyz": [4.948744385340118, 1.7345475112023487, 8.804873690709025]
      },
      {
        "species": [{ "element": "Sb", "occu": 1 }],
        "abc": [0.46902252, 0.22322329, 0.16011684],
        "properties": { "magmom": 0.0 },
        "label": "Sb",
        "xyz": [3.1577948867873555, 2.922371736293418, 2.455400516301845]
      },
      {
        "species": [{ "element": "Sb", "occu": 1 }],
        "abc": [0.53097748, 0.72322329, 0.33988316],
        "properties": { "magmom": 0.0 },
        "label": "Sb",
        "xyz": [3.5742597482126444, 9.468220371293418, 5.2178212836981555]
      },
      {
        "species": [{ "element": "Sb", "occu": 1 }],
        "abc": [0.53097748, 0.77677671, 0.8398831600000001],
        "properties": { "magmom": 0.0 },
        "label": "Sb",
        "xyz": [3.572178563212644, 10.169325533706582, 12.903298963698155]
      },
      {
        "species": [{ "element": "Sb", "occu": 1 }],
        "abc": [0.46902252, 0.27677671, 0.66011684],
        "properties": { "magmom": 0.0 },
        "label": "Sb",
        "xyz": [3.1557137017873553, 3.6234768987065813, 10.140878196301847]
      },
      {
        "species": [{ "element": "Sb", "occu": 1 }],
        "abc": [0.58345583, 0.20394291, 0.34138071000000003],
        "properties": { "magmom": 0.0 },
        "label": "Sb",
        "xyz": [3.927649851364948, 2.6699588380828554, 5.2401968895373265]
      },
      {
        "species": [{ "element": "Sb", "occu": 1 }],
        "abc": [0.41654417, 0.70394291, 0.15861929],
        "properties": { "magmom": 0.0 },
        "label": "Sb",
        "xyz": [2.804404783635052, 9.215807473082855, 2.4330249104626747]
      },
      {
        "species": [{ "element": "Sb", "occu": 1 }],
        "abc": [0.41654417, 0.79605709, 0.65861929],
        "properties": { "magmom": 0.0 },
        "label": "Sb",
        "xyz": [2.8023235986350516, 10.421738431917143, 10.118502590462674]
      },
      {
        "species": [{ "element": "Sb", "occu": 1 }],
        "abc": [0.58345583, 0.29605709, 0.84138071],
        "properties": { "magmom": 0.0 },
        "label": "Sb",
        "xyz": [3.925568666364948, 3.875889796917144, 12.925674569537327]
      },
      {
        "species": [{ "element": "Sb", "occu": 1 }],
        "abc": [0.91069943, 0.04654788, 0.34488324],
        "properties": { "magmom": -0.0 },
        "label": "Sb",
        "xyz": [6.131338121164903, 0.6093907535202876, 5.290023463522018]
      },
      {
        "species": [{ "element": "Sb", "occu": 1 }],
        "abc": [0.08930057, 0.54654788, 0.15511676],
        "properties": { "magmom": -0.0 },
        "label": "Sb",
        "xyz": [0.6007165138350962, 7.155239388520287, 2.383198336477982]
      },
      {
        "species": [{ "element": "Sb", "occu": 1 }],
        "abc": [0.08930057, 0.95345212, 0.65511676],
        "properties": { "magmom": -0.0 },
        "label": "Sb",
        "xyz": [0.5986353288350962, 12.482306516479712, 10.06867601647798]
      },
      {
        "species": [{ "element": "Sb", "occu": 1 }],
        "abc": [0.91069943, 0.45345212, 0.84488324],
        "properties": { "magmom": -0.0 },
        "label": "Sb",
        "xyz": [6.129256936164904, 5.936457881479712, 12.975501143522019]
      },
      {
        "species": [{ "element": "Sb", "occu": 1 }],
        "abc": [0.029298170000000002, 0.0299437, 0.16400159],
        "properties": { "magmom": -0.0 },
        "label": "Sb",
        "xyz": [0.1966152207592811, 0.392013855543699, 2.5205020440032833]
      },
      {
        "species": [{ "element": "Sb", "occu": 1 }],
        "abc": [0.97070183, 0.5299437, 0.33599841],
        "properties": { "magmom": -0.0 },
        "label": "Sb",
        "xyz": [6.535439414240718, 6.937862490543699, 5.152719755996717]
      },
      {
        "species": [{ "element": "Sb", "occu": 1 }],
        "abc": [0.97070183, 0.9700563, 0.83599841],
        "properties": { "magmom": -0.0 },
        "label": "Sb",
        "xyz": [6.533358229240719, 12.6996834144563, 12.838197435996717]
      },
      {
        "species": [{ "element": "Sb", "occu": 1 }],
        "abc": [0.029298170000000002, 0.4700563, 0.66400159],
        "properties": { "magmom": -0.0 },
        "label": "Sb",
        "xyz": [0.1945340357592811, 6.1538347794563, 10.205979724003283]
      },
      {
        "species": [{ "element": "Sb", "occu": 1 }],
        "abc": [0.23330562, 0.3852486, 0.42190852],
        "properties": { "magmom": 0.0 },
        "label": "Sb",
        "xyz": [1.569355593282916, 5.043558044891322, 6.482277661241622]
      },
      {
        "species": [{ "element": "Sb", "occu": 1 }],
        "abc": [0.76669438, 0.885248599999999, 0.07809148],
        "properties": { "magmom": 0.0 },
        "label": "Sb",
        "xyz": [5.162699041717084, 11.589406679891308, 1.1909441387583786]
      },
      {
        "species": [{ "element": "Sb", "occu": 1 }],
        "abc": [0.76669438, 0.6147514, 0.57809148],
        "properties": { "magmom": 0.0 },
        "label": "Sb",
        "xyz": [5.160617856717083, 8.048139225108677, 8.876421818758379]
      },
      {
        "species": [{ "element": "Sb", "occu": 1 }],
        "abc": [0.23330562, 0.114751399999999, 0.92190852],
        "properties": { "magmom": 0.0 },
        "label": "Sb",
        "xyz": [1.5672744082829158, 1.502290590108665, 14.167755341241621]
      }
    ]
  },
  "task_ids": null,
  "uncorrected_energy_per_atom": null,
  "energy_per_atom": -4.06810163575,
  "formation_energy_per_atom": -0.9137296557499991,
  "energy_above_hull": 0.0,
  "is_stable": true,
  "equilibrium_reaction_energy_per_atom": null,
  "decomposes_to": null,
  "xas": null,
  "grain_boundaries": null,
  "band_gap": 0.155899999999999,
  "cbm": null,
  "vbm": null,
  "efermi": 4.67891829,
  "is_gap_direct": null,
  "is_metal": null,
  "es_source_calc_id": null,
  "bandstructure": null,
  "dos": null,
  "dos_energy_up": null,
  "dos_energy_down": null,
  "is_magnetic": null,
  "ordering": null,
  "total_magnetization": 0.0,
  "total_magnetization_normalized_vol": null,
  "total_magnetization_normalized_formula_units": null,
  "num_magnetic_sites": null,
  "num_unique_magnetic_sites": null,
  "types_of_magnetic_species": null,
  "bulk_modulus": null,
  "shear_modulus": null,
  "universal_anisotropy": null,
  "homogeneous_poisson": null,
  "e_total": null,
  "e_ionic": null,
  "e_electronic": null,
  "n": null,
  "e_ij_max": null,
  "weighted_surface_energy_EV_PER_ANG2": null,
  "weighted_surface_energy": null,
  "weighted_work_function": null,
  "surface_anisotropy": null,
  "shape_factor": null,
  "has_reconstructed": null,
  "possible_species": null,
  "has_props": null,
  "theoretical": null,
  "database_IDs": null,
  "fields_not_requested": [
    "builder_meta",
    "nsites",
    "elements",
    "nelements",
    "composition",
    "composition_reduced",
    "chemsys",
    "symmetry",
    "property_name",
    "deprecated",
    "deprecation_reasons",
    "last_updated",
    "origins",
    "warnings",
    "task_ids",
    "uncorrected_energy_per_atom",
    "equilibrium_reaction_energy_per_atom",
    "decomposes_to",
    "xas",
    "grain_boundaries",
    "cbm",
    "vbm",
    "is_gap_direct",
    "is_metal",
    "es_source_calc_id",
    "bandstructure",
    "dos",
    "dos_energy_up",
    "dos_energy_down",
    "is_magnetic",
    "ordering",
    "total_magnetization_normalized_vol",
    "total_magnetization_normalized_formula_units",
    "num_magnetic_sites",
    "num_unique_magnetic_sites",
    "types_of_magnetic_species",
    "bulk_modulus",
    "shear_modulus",
    "universal_anisotropy",
    "homogeneous_poisson",
    "e_total",
    "e_ionic",
    "e_electronic",
    "n",
    "e_ij_max",
    "weighted_surface_energy_EV_PER_ANG2",
    "weighted_surface_energy",
    "weighted_work_function",
    "surface_anisotropy",
    "shape_factor",
    "has_reconstructed",
    "possible_species",
    "has_props",
    "theoretical",
    "database_IDs"
  ]
}
