{
  "builder_meta": null,
  "nsites": null,
  "elements": null,
  "nelements": null,
  "composition": null,
  "composition_reduced": null,
  "formula_pretty": "Sr2Sb",
  "formula_anonymous": "AB2",
  "chemsys": null,
  "volume": 227.84177624904186,
  "density": 4.329145522822213,
  "density_atomic": 37.97362937484031,
  "symmetry": null,
  "property_name": null,
  "material_id": "mp-15624",
  "deprecated": null,
  "deprecation_reasons": null,
  "last_updated": null,
  "origins": null,
  "warnings": null,
  "structure": {
    "@module": "pymatgen.core.structure",
    "@class": "Structure",
    "charge": 0,
    "lattice": {
      "matrix": [
        [4.87216193, -0.00058793, -1.34615886],
        [-0.37228975000000003, 4.85791738, -1.34615915],
        [0.031001340000000002, 0.03346462, 9.60788758]
      ],
      "pbc": [true, true, true],
      "a": 5.054711257248974,
      "b": 5.054711206982042,
      "c": 9.60799587394748,
      "alpha": 105.26031896438155,
      "beta": 105.26031907556055,
      "gamma": 90.01024367054184,
      "volume": 227.84177624904186
    },
    "properties": {},
    "sites": [
      {
        "species": [{ "element": "Sr", "occu": 1 }],
        "abc": [0.49999997, -2e-8, -2e-8],
        "properties": { "magmom": 0.018000000000000002 },
        "label": "Sr",
        "xyz": [2.4360808256609103, -0.0002940628100021, -0.6730795548498029]
      },
      {
        "species": [{ "element": "Sr", "occu": 1 }],
        "abc": [-2e-8, 0.49999998, -2e-8],
        "properties": { "magmom": 0.018000000000000002 },
        "label": "Sr",
        "xyz": [-0.1861449656174704, 2.4289585921841184, -0.6730797133113914]
      },
      {
        "species": [{ "element": "Sr", "occu": 1 }],
        "abc": [0.32182744, 0.32182746, 0.64364277],
        "properties": { "magmom": 0.009000000000000001 },
        "label": "Sr",
        "xyz": [1.4681361249221363, 1.584761260002253, 5.31758553609242]
      },
      {
        "species": [{ "element": "Sr", "occu": 1 }],
        "abc": [0.67817258, 0.67817258, 0.35635728],
        "properties": { "magmom": 0.009000000000000001 },
        "label": "Sr",
        "xyz": [3.06273747917958, 3.3060330059759147, 1.597984433532416]
      },
      {
        "species": [{ "element": "Sb", "occu": 1 }],
        "abc": [0.134498, 0.13449799, 0.26916705],
        "properties": { "magmom": -0.002 },
        "label": "Sb",
        "xyz": [0.6135683514223845, 0.6623086208316972, 2.2240153823928503]
      },
      {
        "species": [{ "element": "Sb", "occu": 1 }],
        "abc": [0.86550202, 0.86550202, 0.73083294],
        "properties": { "magmom": -0.002 },
        "label": "Sb",
        "xyz": [3.917305261987943, 4.2284854974010715, 4.6915540511435045]
      }
    ]
  },
  "task_ids": null,
  "uncorrected_energy_per_atom": null,
  "energy_per_atom": -3.4232085499999982,
  "formation_energy_per_atom": -0.918589409999997,
  "energy_above_hull": 0.029892186111113002,
  "is_stable": false,
  "equilibrium_reaction_energy_per_atom": null,
  "decomposes_to": null,
  "xas": null,
  "grain_boundaries": null,
  "band_gap": 0.0,
  "cbm": null,
  "vbm": null,
  "efermi": 3.72770773,
  "is_gap_direct": null,
  "is_metal": null,
  "es_source_calc_id": null,
  "bandstructure": null,
  "dos": null,
  "dos_energy_up": null,
  "dos_energy_down": null,
  "is_magnetic": null,
  "ordering": null,
  "total_magnetization": 0.2747448,
  "total_magnetization_normalized_vol": null,
  "total_magnetization_normalized_formula_units": null,
  "num_magnetic_sites": null,
  "num_unique_magnetic_sites": null,
  "types_of_magnetic_species": null,
  "bulk_modulus": null,
  "shear_modulus": null,
  "universal_anisotropy": null,
  "homogeneous_poisson": null,
  "e_total": null,
  "e_ionic": null,
  "e_electronic": null,
  "n": null,
  "e_ij_max": null,
  "weighted_surface_energy_EV_PER_ANG2": null,
  "weighted_surface_energy": null,
  "weighted_work_function": null,
  "surface_anisotropy": null,
  "shape_factor": null,
  "has_reconstructed": null,
  "possible_species": null,
  "has_props": null,
  "theoretical": null,
  "database_IDs": null,
  "fields_not_requested": [
    "builder_meta",
    "nsites",
    "elements",
    "nelements",
    "composition",
    "composition_reduced",
    "chemsys",
    "symmetry",
    "property_name",
    "deprecated",
    "deprecation_reasons",
    "last_updated",
    "origins",
    "warnings",
    "task_ids",
    "uncorrected_energy_per_atom",
    "equilibrium_reaction_energy_per_atom",
    "decomposes_to",
    "xas",
    "grain_boundaries",
    "cbm",
    "vbm",
    "is_gap_direct",
    "is_metal",
    "es_source_calc_id",
    "bandstructure",
    "dos",
    "dos_energy_up",
    "dos_energy_down",
    "is_magnetic",
    "ordering",
    "total_magnetization_normalized_vol",
    "total_magnetization_normalized_formula_units",
    "num_magnetic_sites",
    "num_unique_magnetic_sites",
    "types_of_magnetic_species",
    "bulk_modulus",
    "shear_modulus",
    "universal_anisotropy",
    "homogeneous_poisson",
    "e_total",
    "e_ionic",
    "e_electronic",
    "n",
    "e_ij_max",
    "weighted_surface_energy_EV_PER_ANG2",
    "weighted_surface_energy",
    "weighted_work_function",
    "surface_anisotropy",
    "shape_factor",
    "has_reconstructed",
    "possible_species",
    "has_props",
    "theoretical",
    "database_IDs"
  ]
}
