{"builder_meta": null, "nsites": null, "elements": null, "nelements": null, "composition": null, "composition_reduced": null, "formula_pretty": "Sr2Si3", "formula_anonymous": "A2B3", "chemsys": null, "volume": 138.04722287285006, "density": 3.121425168348775, "density_atomic": 27.609444574570013, "symmetry": null, "property_name": null, "material_id": "mp-1218710", "deprecated": null, "deprecation_reasons": null, "last_updated": null, "origins": null, "warnings": null, "structure": {"@module": "pymatgen.core.structure", "@class": "Structure", "charge": 0, "lattice": {"matrix": [[-1.963890999999999, 2.348614, 7.482361], [1.963890999999999, -2.348614, 7.482361], [1.963890999999999, 2.348614, -7.482361]], "pbc": [true, true, true], "a": 8.084465456367415, "b": 8.084465456367415, "c": 8.084465456367415, "alpha": 151.8819242453113, "beta": 146.22307725647212, "gamma": 44.50521175035555, "volume": 138.04722287284997}, "properties": {}, "sites": [{"species": [{"element": "Sr", "occu": 1}], "abc": [0.746757999999999, 0.246757999999999, 0.5], "properties": {"magmom": -0.0}, "label": "Sr", "xyz": [0.0, 2.3486140000000004, 3.6926648712759857]}, {"species": [{"element": "Sr", "occu": 1}], "abc": [0.004835, 0.004835, 0.0], "properties": {"magmom": -0.0}, "label": "Sr", "xyz": [0.0, 0.0, 0.07235443087]}, {"species": [{"element": "Si", "occu": 1}], "abc": [0.577874, 0.577874, 0.0], "properties": {"magmom": 0.0}, "label": "Si", "xyz": [0.0, 0.0, 8.647723761028]}, {"species": [{"element": "Si", "occu": 1}], "abc": [0.331899, 0.8318989999999991, 0.5], "properties": {"magmom": -0.0}, "label": "Si", "xyz": [1.9638909999999972, 2.220446049250313e-15, 4.966776267077993]}, {"species": [{"element": "Si", "occu": 1}], "abc": [0.423633999999999, 0.423633999999999, 0.0], "properties": {"magmom": 0.0}, "label": "Si", "xyz": [0.0, 0.0, 6.339565039747985]}]}, "task_ids": null, "uncorrected_energy_per_atom": null, "energy_per_atom": -11.686164553000001, "formation_energy_per_atom": -0.363641368, "energy_above_hull": 0.09172877499999901, "is_stable": false, "equilibrium_reaction_energy_per_atom": null, "decomposes_to": null, "xas": null, "grain_boundaries": null, "band_gap": 0.0, "cbm": null, "vbm": null, "efermi": 3.95845672, "is_gap_direct": null, "is_metal": null, "es_source_calc_id": null, "bandstructure": null, "dos": null, "dos_energy_up": null, "dos_energy_down": null, "is_magnetic": null, "ordering": null, "total_magnetization": 0.001437, "total_magnetization_normalized_vol": null, "total_magnetization_normalized_formula_units": null, "num_magnetic_sites": null, "num_unique_magnetic_sites": null, "types_of_magnetic_species": null, "bulk_modulus": null, "shear_modulus": null, "universal_anisotropy": null, "homogeneous_poisson": null, "e_total": null, "e_ionic": null, "e_electronic": null, "n": null, "e_ij_max": null, "weighted_surface_energy_EV_PER_ANG2": null, "weighted_surface_energy": null, "weighted_work_function": null, "surface_anisotropy": null, "shape_factor": null, "has_reconstructed": null, "possible_species": null, "has_props": null, "theoretical": null, "database_IDs": null, "fields_not_requested": ["builder_meta", "nsites", "elements", "nelements", "composition", "composition_reduced", "chemsys", "symmetry", "property_name", "deprecated", "deprecation_reasons", "last_updated", "origins", "warnings", "task_ids", "uncorrected_energy_per_atom", "equilibrium_reaction_energy_per_atom", "decomposes_to", "xas", "grain_boundaries", "cbm", "vbm", "is_gap_direct", "is_metal", "es_source_calc_id", "bandstructure", "dos", "dos_energy_up", "dos_energy_down", "is_magnetic", "ordering", "total_magnetization_normalized_vol", "total_magnetization_normalized_formula_units", "num_magnetic_sites", "num_unique_magnetic_sites", "types_of_magnetic_species", "bulk_modulus", "shear_modulus", "universal_anisotropy", "homogeneous_poisson", "e_total", "e_ionic", "e_electronic", "n", "e_ij_max", "weighted_surface_energy_EV_PER_ANG2", "weighted_surface_energy", "weighted_work_function", "surface_anisotropy", "shape_factor", "has_reconstructed", "possible_species", "has_props", "theoretical", "database_IDs"]}