{
  "builder_meta": null,
  "nsites": null,
  "elements": null,
  "nelements": null,
  "composition": null,
  "composition_reduced": null,
  "formula_pretty": "Sr2Sn",
  "formula_anonymous": "AB2",
  "chemsys": null,
  "volume": 459.45344941543595,
  "density": 4.249531344236076,
  "density_atomic": 38.28778745128633,
  "symmetry": null,
  "property_name": null,
  "material_id": "mp-978",
  "deprecated": null,
  "deprecation_reasons": null,
  "last_updated": null,
  "origins": null,
  "warnings": null,
  "structure": {
    "@module": "pymatgen.core.structure",
    "@class": "Structure",
    "charge": 0,
    "lattice": {
      "matrix": [
        [5.37720745, 0.0, 0.0],
        [0.0, 8.45901413, -2.08e-6],
        [0.0, -3.11e-6, 10.10101403]
      ],
      "pbc": [true, true, true],
      "a": 5.37720745,
      "b": 8.459014130000256,
      "c": 10.10101403000048,
      "alpha": 90.00003172933808,
      "beta": 90.0,
      "gamma": 90.0,
      "volume": 459.45344941543595
    },
    "properties": {},
    "sites": [
      {
        "species": [{ "element": "Sr", "occu": 1 }],
        "abc": [0.25, 0.47875022, 0.8201481700000001],
        "properties": { "magmom": 0.0 },
        "label": "Sr",
        "xyz": [1.3443018625, 4.0497523250598, 8.284327176048368]
      },
      {
        "species": [{ "element": "Sr", "occu": 1 }],
        "abc": [0.75, 0.52126201, 0.17985977],
        "properties": { "magmom": 0.0 },
        "label": "Sr",
        "xyz": [4.0329055875, 4.4093621486583165, 1.8167649759775921]
      },
      {
        "species": [{ "element": "Sr", "occu": 1 }],
        "abc": [0.25, 0.97875022, 0.67985183],
        "properties": { "magmom": 0.0 },
        "label": "Sr",
        "xyz": [1.3443018625, 8.279259826381418, 6.867190837350718]
      },
      {
        "species": [{ "element": "Sr", "occu": 1 }],
        "abc": [0.75, 0.02126201, 0.32014023],
        "properties": { "magmom": 0.0 },
        "label": "Sr",
        "xyz": [4.0329055875, 0.179854647386086, 3.233740910572446]
      },
      {
        "species": [{ "element": "Sr", "occu": 1 }],
        "abc": [0.749999, 0.15492734, 0.92622622],
        "properties": { "magmom": 0.0 },
        "label": "Sr",
        "xyz": [4.03290021029255, 1.3105296776197701, 9.355823720924999]
      },
      {
        "species": [{ "element": "Sr", "occu": 1 }],
        "abc": [0.249999, 0.84507204, 0.07376946],
        "properties": { "magmom": 0.0 },
        "label": "Sr",
        "xyz": [1.34429648529255, 7.148476097804904, 0.7451445926956806]
      },
      {
        "species": [{ "element": "Sr", "occu": 1 }],
        "abc": [0.749999, 0.65492734, 0.57377378],
        "properties": { "magmom": 0.0 },
        "label": "Sr",
        "xyz": [4.03290021029255, 5.5400378387468585, 5.795695639577266]
      },
      {
        "species": [{ "element": "Sr", "occu": 1 }],
        "abc": [0.249999, 0.34507204, 0.42623054],
        "properties": { "magmom": 0.0 },
        "label": "Sr",
        "xyz": [1.34429648529255, 2.918967936650946, 4.305359946804632]
      },
      {
        "species": [{ "element": "Sn", "occu": 1 }],
        "abc": [0.250001, 0.7483364, 0.3935302],
        "properties": { "magmom": -0.0 },
        "label": "Sn",
        "xyz": [1.3443072397074498, 6.33018695771441, 3.9750525148889944]
      },
      {
        "species": [{ "element": "Sn", "occu": 1 }],
        "abc": [0.750000999999999, 0.25165199, 0.60647814],
        "properties": { "magmom": -0.0 },
        "label": "Sn",
        "xyz": [4.032910964707445, 2.1287258531056032, 6.126043677592166]
      },
      {
        "species": [{ "element": "Sn", "occu": 1 }],
        "abc": [0.250001, 0.24833739999999901, 0.106468799999999],
        "properties": { "magmom": -0.0 },
        "label": "Sn",
        "xyz": [1.3443072397074498, 2.1006892444894856, 1.075442326015462]
      },
      {
        "species": [{ "element": "Sn", "occu": 1 }],
        "abc": [0.750000999999999, 0.75165099, 0.89352186],
        "properties": { "magmom": -0.0 },
        "label": "Sn",
        "xyz": [4.032910964707445, 6.3582235663855045, 9.025475280537636]
      }
    ]
  },
  "task_ids": null,
  "uncorrected_energy_per_atom": null,
  "energy_per_atom": -19.073301815,
  "formation_energy_per_atom": -0.727466508333333,
  "energy_above_hull": 0.0,
  "is_stable": true,
  "equilibrium_reaction_energy_per_atom": null,
  "decomposes_to": null,
  "xas": null,
  "grain_boundaries": null,
  "band_gap": 0.152399999999999,
  "cbm": null,
  "vbm": null,
  "efermi": 3.29581967,
  "is_gap_direct": null,
  "is_metal": null,
  "es_source_calc_id": null,
  "bandstructure": null,
  "dos": null,
  "dos_energy_up": null,
  "dos_energy_down": null,
  "is_magnetic": null,
  "ordering": null,
  "total_magnetization": 0.0,
  "total_magnetization_normalized_vol": null,
  "total_magnetization_normalized_formula_units": null,
  "num_magnetic_sites": null,
  "num_unique_magnetic_sites": null,
  "types_of_magnetic_species": null,
  "bulk_modulus": null,
  "shear_modulus": null,
  "universal_anisotropy": null,
  "homogeneous_poisson": null,
  "e_total": null,
  "e_ionic": null,
  "e_electronic": null,
  "n": null,
  "e_ij_max": null,
  "weighted_surface_energy_EV_PER_ANG2": null,
  "weighted_surface_energy": null,
  "weighted_work_function": null,
  "surface_anisotropy": null,
  "shape_factor": null,
  "has_reconstructed": null,
  "possible_species": null,
  "has_props": null,
  "theoretical": null,
  "database_IDs": null,
  "fields_not_requested": [
    "builder_meta",
    "nsites",
    "elements",
    "nelements",
    "composition",
    "composition_reduced",
    "chemsys",
    "symmetry",
    "property_name",
    "deprecated",
    "deprecation_reasons",
    "last_updated",
    "origins",
    "warnings",
    "task_ids",
    "uncorrected_energy_per_atom",
    "equilibrium_reaction_energy_per_atom",
    "decomposes_to",
    "xas",
    "grain_boundaries",
    "cbm",
    "vbm",
    "is_gap_direct",
    "is_metal",
    "es_source_calc_id",
    "bandstructure",
    "dos",
    "dos_energy_up",
    "dos_energy_down",
    "is_magnetic",
    "ordering",
    "total_magnetization_normalized_vol",
    "total_magnetization_normalized_formula_units",
    "num_magnetic_sites",
    "num_unique_magnetic_sites",
    "types_of_magnetic_species",
    "bulk_modulus",
    "shear_modulus",
    "universal_anisotropy",
    "homogeneous_poisson",
    "e_total",
    "e_ionic",
    "e_electronic",
    "n",
    "e_ij_max",
    "weighted_surface_energy_EV_PER_ANG2",
    "weighted_surface_energy",
    "weighted_work_function",
    "surface_anisotropy",
    "shape_factor",
    "has_reconstructed",
    "possible_species",
    "has_props",
    "theoretical",
    "database_IDs"
  ]
}
