{
  "builder_meta": null,
  "nsites": null,
  "elements": null,
  "nelements": null,
  "composition": null,
  "composition_reduced": null,
  "formula_pretty": "Sr3Ac",
  "formula_anonymous": "AB3",
  "chemsys": null,
  "volume": 409.4360729114256,
  "density": 3.973424526962224,
  "density_atomic": 51.1795091139282,
  "symmetry": null,
  "property_name": null,
  "material_id": "mp-1187109",
  "deprecated": null,
  "deprecation_reasons": null,
  "last_updated": null,
  "origins": null,
  "warnings": null,
  "structure": {
    "@module": "pymatgen.core.structure",
    "@class": "Structure",
    "charge": 0,
    "lattice": {
      "matrix": [
        [4.185855, -7.250113, 0.0],
        [4.185855, 7.250113, 0.0],
        [0.0, 0.0, 6.745702]
      ],
      "pbc": [true, true, true],
      "a": 8.371709538307812,
      "b": 8.371709538307812,
      "c": 6.745702,
      "alpha": 90.0,
      "beta": 90.0,
      "gamma": 119.99999635136535,
      "volume": 409.4360729114256
    },
    "properties": {},
    "sites": [
      {
        "species": [{ "element": "Sr", "occu": 1 }],
        "abc": [0.169928, 0.339856, 0.25],
        "properties": { "magmom": -0.014 },
        "label": "Sr",
        "xyz": [2.13388190532, 1.231997201864, 1.6864255]
      },
      {
        "species": [{ "element": "Sr", "occu": 1 }],
        "abc": [0.660144, 0.830071999999999, 0.25],
        "properties": { "magmom": -0.013000000000000001 },
        "label": "Sr",
        "xyz": [6.237828094679996, 1.2319972018639929, 1.6864255]
      },
      {
        "species": [{ "element": "Sr", "occu": 1 }],
        "abc": [0.169928, 0.830071999999999, 0.25],
        "properties": { "magmom": -0.014 },
        "label": "Sr",
        "xyz": [4.185854999999996, 4.786118596271993, 1.6864255]
      },
      {
        "species": [{ "element": "Sr", "occu": 1 }],
        "abc": [0.830071999999999, 0.660144, 0.75],
        "properties": { "magmom": -0.014 },
        "label": "Sr",
        "xyz": [6.237828094679996, -1.2319972018639929, 5.059276499999999]
      },
      {
        "species": [{ "element": "Sr", "occu": 1 }],
        "abc": [0.339856, 0.169928, 0.75],
        "properties": { "magmom": -0.015 },
        "label": "Sr",
        "xyz": [2.13388190532, -1.231997201864, 5.059276499999999]
      },
      {
        "species": [{ "element": "Sr", "occu": 1 }],
        "abc": [0.830071999999999, 0.169928, 0.75],
        "properties": { "magmom": -0.014 },
        "label": "Sr",
        "xyz": [4.185854999999996, -4.786118596271993, 5.059276499999999]
      },
      {
        "species": [{ "element": "Ac", "occu": 1 }],
        "abc": [0.333333, 0.666667, 0.75],
        "properties": { "magmom": -0.044 },
        "label": "Ac",
        "xyz": [4.185855, 2.4167091667419998, 5.059276499999999]
      },
      {
        "species": [{ "element": "Ac", "occu": 1 }],
        "abc": [0.666667, 0.333333, 0.25],
        "properties": { "magmom": -0.04 },
        "label": "Ac",
        "xyz": [4.185855, -2.4167091667419998, 1.6864255]
      }
    ]
  },
  "task_ids": null,
  "uncorrected_energy_per_atom": null,
  "energy_per_atom": -28.4228452925,
  "formation_energy_per_atom": 0.09577036312499801,
  "energy_above_hull": 0.09577036312499801,
  "is_stable": false,
  "equilibrium_reaction_energy_per_atom": null,
  "decomposes_to": null,
  "xas": null,
  "grain_boundaries": null,
  "band_gap": 0.0,
  "cbm": null,
  "vbm": null,
  "efermi": 2.61276475,
  "is_gap_direct": null,
  "is_metal": null,
  "es_source_calc_id": null,
  "bandstructure": null,
  "dos": null,
  "dos_energy_up": null,
  "dos_energy_down": null,
  "is_magnetic": null,
  "ordering": null,
  "total_magnetization": 0.5321135,
  "total_magnetization_normalized_vol": null,
  "total_magnetization_normalized_formula_units": null,
  "num_magnetic_sites": null,
  "num_unique_magnetic_sites": null,
  "types_of_magnetic_species": null,
  "bulk_modulus": null,
  "shear_modulus": null,
  "universal_anisotropy": null,
  "homogeneous_poisson": null,
  "e_total": null,
  "e_ionic": null,
  "e_electronic": null,
  "n": null,
  "e_ij_max": null,
  "weighted_surface_energy_EV_PER_ANG2": null,
  "weighted_surface_energy": null,
  "weighted_work_function": null,
  "surface_anisotropy": null,
  "shape_factor": null,
  "has_reconstructed": null,
  "possible_species": null,
  "has_props": null,
  "theoretical": null,
  "database_IDs": null,
  "fields_not_requested": [
    "builder_meta",
    "nsites",
    "elements",
    "nelements",
    "composition",
    "composition_reduced",
    "chemsys",
    "symmetry",
    "property_name",
    "deprecated",
    "deprecation_reasons",
    "last_updated",
    "origins",
    "warnings",
    "task_ids",
    "uncorrected_energy_per_atom",
    "equilibrium_reaction_energy_per_atom",
    "decomposes_to",
    "xas",
    "grain_boundaries",
    "cbm",
    "vbm",
    "is_gap_direct",
    "is_metal",
    "es_source_calc_id",
    "bandstructure",
    "dos",
    "dos_energy_up",
    "dos_energy_down",
    "is_magnetic",
    "ordering",
    "total_magnetization_normalized_vol",
    "total_magnetization_normalized_formula_units",
    "num_magnetic_sites",
    "num_unique_magnetic_sites",
    "types_of_magnetic_species",
    "bulk_modulus",
    "shear_modulus",
    "universal_anisotropy",
    "homogeneous_poisson",
    "e_total",
    "e_ionic",
    "e_electronic",
    "n",
    "e_ij_max",
    "weighted_surface_energy_EV_PER_ANG2",
    "weighted_surface_energy",
    "weighted_work_function",
    "surface_anisotropy",
    "shape_factor",
    "has_reconstructed",
    "possible_species",
    "has_props",
    "theoretical",
    "database_IDs"
  ]
}
