{
  "builder_meta": null,
  "nsites": null,
  "elements": null,
  "nelements": null,
  "composition": null,
  "composition_reduced": null,
  "formula_pretty": "Sr3Ag2",
  "formula_anonymous": "A2B3",
  "chemsys": null,
  "volume": 537.2085767086951,
  "density": 4.438097531147944,
  "density_atomic": 35.81390511391301,
  "symmetry": null,
  "property_name": null,
  "material_id": "mp-30357",
  "deprecated": null,
  "deprecation_reasons": null,
  "last_updated": null,
  "origins": null,
  "warnings": null,
  "structure": {
    "@module": "pymatgen.core.structure",
    "@class": "Structure",
    "charge": 0,
    "lattice": {
      "matrix": [
        [8.07226238, -0.00047737, 2.59955733],
        [1.89372681, 7.84698258, 2.59957362],
        [-0.00061162, -0.0004977100000000001, 8.4805151]
      ],
      "pbc": [true, true, true],
      "a": 8.480514045233466,
      "b": 8.480514126368528,
      "c": 8.480515136660172,
      "alpha": 72.15370668333844,
      "beta": 72.15371596782778,
      "gamma": 72.15370861454421,
      "volume": 537.2085767086952
    },
    "properties": {},
    "sites": [
      {
        "species": [{ "element": "Sr", "occu": 1 }],
        "abc": [0.16618408, 0.88793044, 0.66278254],
        "properties": { "magmom": 0.0 },
        "label": "Sr",
        "xyz": [3.022573805724892, 6.967165490139482, 8.360982929998654]
      },
      {
        "species": [{ "element": "Sr", "occu": 1 }],
        "abc": [0.88793044, 0.66278254, 0.16618408],
        "properties": { "magmom": 0.0 },
        "label": "Sr",
        "xyz": [8.422634910559735, 5.200336462875554, 5.440504690432328]
      },
      {
        "species": [{ "element": "Sr", "occu": 1 }],
        "abc": [0.66278254, 0.16618408, 0.88793044],
        "properties": { "magmom": 0.0 },
        "label": "Sr",
        "xyz": [5.664318735438317, 1.3032852564729143, 9.685056464654632]
      },
      {
        "species": [{ "element": "Sr", "occu": 1 }],
        "abc": [0.83381592, 0.11206856, 0.33721746],
        "properties": { "magmom": 0.0 },
        "label": "Sr",
        "xyz": [6.942801870548298, 0.8788341628779378, 5.318660520427727]
      },
      {
        "species": [{ "element": "Sr", "occu": 1 }],
        "abc": [0.11206856, 0.33721746, 0.83381592],
        "properties": { "magmom": 0.0 },
        "label": "Sr",
        "xyz": [1.542734587177885, 2.6456710376018164, 8.239138760010343]
      },
      {
        "species": [{ "element": "Sr", "occu": 1 }],
        "abc": [0.33721746, 0.83381592, 0.11206856],
        "properties": { "magmom": 0.0 },
        "label": "Sr",
        "xyz": [4.301058835173303, 6.542722244024795, 3.9945811048302686]
      },
      {
        "species": [{ "element": "Sr", "occu": 1 }],
        "abc": [0.5, 0.5, 0.5],
        "properties": { "magmom": 0.0 },
        "label": "Sr",
        "xyz": [4.982688785, 3.92300375, 6.839823025]
      },
      {
        "species": [{ "element": "Sr", "occu": 1 }],
        "abc": [0.29450786, 0.29450786, 0.29450786],
        "properties": { "magmom": 0.0 },
        "label": "Sr",
        "xyz": [2.9348820222327, 2.3107108783689503, 4.028763283742953]
      },
      {
        "species": [{ "element": "Sr", "occu": 1 }],
        "abc": [0.70549214, 0.70549214, 0.70549214],
        "properties": { "magmom": 0.0 },
        "label": "Sr",
        "xyz": [7.0304955477673, 5.5352966216310495, 9.650882766257048]
      },
      {
        "species": [{ "element": "Ag", "occu": 1 }],
        "abc": [0.539723899999999, 0.9127426, 0.36085972],
        "properties": { "magmom": 0.0 },
        "label": "Ag",
        "xyz": [6.085057356784033, 7.161838030734524, 6.836061109673167]
      },
      {
        "species": [{ "element": "Ag", "occu": 1 }],
        "abc": [0.9127426, 0.36085972, 0.539723899999999],
        "properties": { "magmom": 0.0 },
        "label": "Ag",
        "xyz": [8.050937373084762, 2.8309555947464466, 7.8879448086467265]
      },
      {
        "species": [{ "element": "Ag", "occu": 1 }],
        "abc": [0.36085972, 0.539723899999999, 0.9127426],
        "properties": { "magmom": 0.0 },
        "label": "Ag",
        "xyz": [3.9344857100120785, 4.234577496585671, 10.081654944464523]
      },
      {
        "species": [{ "element": "Ag", "occu": 1 }],
        "abc": [0.460276099999999, 0.0872574, 0.63914028],
        "properties": { "magmom": 0.0 },
        "label": "Ag",
        "xyz": [3.8803202132159504, 0.6841694692654761, 6.843584940326826]
      },
      {
        "species": [{ "element": "Ag", "occu": 1 }],
        "abc": [0.0872574, 0.63914028, 0.460276099999999],
        "properties": { "magmom": 0.0 },
        "label": "Ag",
        "xyz": [1.914440196915237, 5.015051905253554, 5.791701241353257]
      },
      {
        "species": [{ "element": "Ag", "occu": 1 }],
        "abc": [0.63914028, 0.460276099999999, 0.0872574],
        "properties": { "magmom": 0.0 },
        "label": "Ag",
        "xyz": [6.030891859987918, 3.6114300034143128, 3.5979911055354714]
      }
    ]
  },
  "task_ids": null,
  "uncorrected_energy_per_atom": null,
  "energy_per_atom": -17.845243692,
  "formation_energy_per_atom": -0.215496192,
  "energy_above_hull": 0.0032608751999980003,
  "is_stable": false,
  "equilibrium_reaction_energy_per_atom": null,
  "decomposes_to": null,
  "xas": null,
  "grain_boundaries": null,
  "band_gap": 0.0,
  "cbm": null,
  "vbm": null,
  "efermi": 2.23840584,
  "is_gap_direct": null,
  "is_metal": null,
  "es_source_calc_id": null,
  "bandstructure": null,
  "dos": null,
  "dos_energy_up": null,
  "dos_energy_down": null,
  "is_magnetic": null,
  "ordering": null,
  "total_magnetization": 8.599999999999999e-6,
  "total_magnetization_normalized_vol": null,
  "total_magnetization_normalized_formula_units": null,
  "num_magnetic_sites": null,
  "num_unique_magnetic_sites": null,
  "types_of_magnetic_species": null,
  "bulk_modulus": null,
  "shear_modulus": null,
  "universal_anisotropy": null,
  "homogeneous_poisson": null,
  "e_total": null,
  "e_ionic": null,
  "e_electronic": null,
  "n": null,
  "e_ij_max": null,
  "weighted_surface_energy_EV_PER_ANG2": null,
  "weighted_surface_energy": null,
  "weighted_work_function": null,
  "surface_anisotropy": null,
  "shape_factor": null,
  "has_reconstructed": null,
  "possible_species": null,
  "has_props": null,
  "theoretical": null,
  "database_IDs": null,
  "fields_not_requested": [
    "builder_meta",
    "nsites",
    "elements",
    "nelements",
    "composition",
    "composition_reduced",
    "chemsys",
    "symmetry",
    "property_name",
    "deprecated",
    "deprecation_reasons",
    "last_updated",
    "origins",
    "warnings",
    "task_ids",
    "uncorrected_energy_per_atom",
    "equilibrium_reaction_energy_per_atom",
    "decomposes_to",
    "xas",
    "grain_boundaries",
    "cbm",
    "vbm",
    "is_gap_direct",
    "is_metal",
    "es_source_calc_id",
    "bandstructure",
    "dos",
    "dos_energy_up",
    "dos_energy_down",
    "is_magnetic",
    "ordering",
    "total_magnetization_normalized_vol",
    "total_magnetization_normalized_formula_units",
    "num_magnetic_sites",
    "num_unique_magnetic_sites",
    "types_of_magnetic_species",
    "bulk_modulus",
    "shear_modulus",
    "universal_anisotropy",
    "homogeneous_poisson",
    "e_total",
    "e_ionic",
    "e_electronic",
    "n",
    "e_ij_max",
    "weighted_surface_energy_EV_PER_ANG2",
    "weighted_surface_energy",
    "weighted_work_function",
    "surface_anisotropy",
    "shape_factor",
    "has_reconstructed",
    "possible_species",
    "has_props",
    "theoretical",
    "database_IDs"
  ]
}
