{"builder_meta": null, "nsites": null, "elements": null, "nelements": null, "composition": null, "composition_reduced": null, "formula_pretty": "Sr3As4", "formula_anonymous": "A3B4", "chemsys": null, "volume": 404.25358395338986, "density": 4.6215064556256085, "density_atomic": 28.875255996670706, "symmetry": null, "property_name": null, "material_id": "mp-15339", "deprecated": null, "deprecation_reasons": null, "last_updated": null, "origins": null, "warnings": null, "structure": {"@module": "pymatgen.core.structure", "@class": "Structure", "charge": 0, "lattice": {"matrix": [[5.70990289, 1e-08, 1.905428919999999], [2.854952469999999, 7.46885451, 0.95271497], [0.00865327, 1e-08, 9.4820761]], "pbc": [true, true, true], "a": 6.0194393744270505, "b": 8.05246590253995, "c": 9.48208004845313, "alpha": 83.18655642531824, "beta": 71.49354804905983, "gamma": 68.05206684246457, "volume": 404.2535839533899}, "properties": {}, "sites": [{"species": [{"element": "Sr", "occu": 1}], "abc": [0.55495517, 0.00457579, 0.33431139], "properties": {"magmom": -0.0}, "label": "Sr", "xyz": [3.1846966786878887, 0.034175918670978495, 4.2317530949308715]}, {"species": [{"element": "Sr", "occu": 1}], "abc": [0.89384135, 0.99542421, 0.66568861], "properties": {"magmom": -0.0}, "label": "Sr", "xyz": [7.951396497882054, 7.434678615816987, 8.963616763472487]}, {"species": [{"element": "Sr", "occu": 1}], "abc": [0.30952996, 0.49542421000000003, 0.83431139], "properties": {"magmom": -0.0}, "label": "Sr", "xyz": [3.189018106904628, 3.7002513566601007, 8.972789489834646]}, {"species": [{"element": "Sr", "occu": 1}], "abc": [0.63926656, 0.50457579, 0.16568861000000001], "properties": {"magmom": -0.0}, "label": "Sr", "xyz": [5.092123624665314, 3.768603172827864, 3.269865908568712]}, {"species": [{"element": "Sr", "occu": 1}], "abc": [0.00187301, 0.5, 0.5], "properties": {"magmom": 0.0}, "label": "Sr", "xyz": [1.4424975752119984, 3.73442726001873, 5.220964422421449]}, {"species": [{"element": "Sr", "occu": 1}], "abc": [0.25187301, 0.0, -0.0], "properties": {"magmom": 0.0}, "label": "Sr", "xyz": [1.438170427711999, 2.5187301e-09, 0.479926117421449]}, {"species": [{"element": "As", "occu": 1}], "abc": [0.41379232, 0.67129735, 0.5040995500000001], "properties": {"magmom": 0.0}, "label": "As", "xyz": [4.2835981008277875, 5.0138222492774664, 6.207917183143979]}, {"species": [{"element": "As", "occu": 1}], "abc": [0.58918921, 0.32870265, 0.49590045], "properties": {"magmom": 0.0}, "label": "As", "xyz": [4.306934775935834, 2.455032280752348, 6.137983900343869]}, {"species": [{"element": "As", "occu": 1}], "abc": [0.83508967, 0.82870265, 0.00409955], "properties": {"magmom": 0.0}, "label": "As", "xyz": [7.134223072168219, 6.189459533293344, 2.419593673420681]}, {"species": [{"element": "As", "occu": 1}], "abc": [0.66789186, 0.17129735000000001, 0.99590045], "properties": {"magmom": 0.0}, "label": "As", "xyz": [4.311261249595401, 1.2793950017364717, 10.879021870067167]}, {"species": [{"element": "As", "occu": 1}], "abc": [0.31724704, 0.17201098, 0.65904388], "properties": {"magmom": 0.0}, "label": "As", "xyz": [2.3082358473935534, 1.2847249935054292, 7.017473343850035]}, {"species": [{"element": "As", "occu": 1}], "abc": [0.14830089999999901, 0.82798902, 0.34095612000000003], "properties": {"magmom": 0.0}, "label": "As", "xyz": [3.2136034206459865, 6.184129531150051, 4.304386234672387]}, {"species": [{"element": "As", "occu": 1}], "abc": [0.72628992, 0.67201098, 0.84095612], "properties": {"magmom": 0.0}, "label": "As", "xyz": [6.072881340768501, 5.019152254414981, 9.998138665123587]}, {"species": [{"element": "As", "occu": 1}], "abc": [0.23925802000000002, 0.32798902, 0.15904388], "properties": {"magmom": 0.0}, "label": "As", "xyz": [2.3039093722710446, 2.4497022752404995, 2.2764353733988356]}]}, "task_ids": null, "uncorrected_energy_per_atom": null, "energy_per_atom": -16.02776293642857, "formation_energy_per_atom": -1.132461913571429, "energy_above_hull": 0.0, "is_stable": true, "equilibrium_reaction_energy_per_atom": null, "decomposes_to": null, "xas": null, "grain_boundaries": null, "band_gap": 0.616699999999999, "cbm": null, "vbm": null, "efermi": 2.90668447, "is_gap_direct": null, "is_metal": null, "es_source_calc_id": null, "bandstructure": null, "dos": null, "dos_energy_up": null, "dos_energy_down": null, "is_magnetic": null, "ordering": null, "total_magnetization": 0.0, "total_magnetization_normalized_vol": null, "total_magnetization_normalized_formula_units": null, "num_magnetic_sites": null, "num_unique_magnetic_sites": null, "types_of_magnetic_species": null, "bulk_modulus": null, "shear_modulus": null, "universal_anisotropy": null, "homogeneous_poisson": null, "e_total": null, "e_ionic": null, "e_electronic": null, "n": null, "e_ij_max": null, "weighted_surface_energy_EV_PER_ANG2": null, "weighted_surface_energy": null, "weighted_work_function": null, "surface_anisotropy": null, "shape_factor": null, "has_reconstructed": null, "possible_species": null, "has_props": null, "theoretical": null, "database_IDs": null, "fields_not_requested": ["builder_meta", "nsites", "elements", "nelements", "composition", "composition_reduced", "chemsys", "symmetry", "property_name", "deprecated", "deprecation_reasons", "last_updated", "origins", "warnings", "task_ids", "uncorrected_energy_per_atom", "equilibrium_reaction_energy_per_atom", "decomposes_to", "xas", "grain_boundaries", "cbm", "vbm", "is_gap_direct", "is_metal", "es_source_calc_id", "bandstructure", "dos", "dos_energy_up", "dos_energy_down", "is_magnetic", "ordering", "total_magnetization_normalized_vol", "total_magnetization_normalized_formula_units", "num_magnetic_sites", "num_unique_magnetic_sites", "types_of_magnetic_species", "bulk_modulus", "shear_modulus", "universal_anisotropy", "homogeneous_poisson", "e_total", "e_ionic", "e_electronic", "n", "e_ij_max", "weighted_surface_energy_EV_PER_ANG2", "weighted_surface_energy", "weighted_work_function", "surface_anisotropy", "shape_factor", "has_reconstructed", "possible_species", "has_props", "theoretical", "database_IDs"]}