{
  "builder_meta": null,
  "nsites": null,
  "elements": null,
  "nelements": null,
  "composition": null,
  "composition_reduced": null,
  "formula_pretty": "Sr3Au2",
  "formula_anonymous": "A2B3",
  "chemsys": null,
  "volume": 499.63265445519994,
  "density": 6.54859518047132,
  "density_atomic": 33.308843630346665,
  "symmetry": null,
  "property_name": null,
  "material_id": "mp-30421",
  "deprecated": null,
  "deprecation_reasons": null,
  "last_updated": null,
  "origins": null,
  "warnings": null,
  "structure": {
    "@module": "pymatgen.core.structure",
    "@class": "Structure",
    "charge": 0,
    "lattice": {
      "matrix": [
        [7.87732546, 0.02687958, 2.73239215],
        [1.95295366, 7.6314979, 2.73224231],
        [0.03455205, 0.02708206, 8.33768682]
      ],
      "pbc": [true, true, true],
      "a": 8.33780221497049,
      "b": 8.3378016429012,
      "c": 8.337802395747621,
      "alpha": 70.63211258644709,
      "beta": 70.63211416052009,
      "gamma": 70.63210817260972,
      "volume": 499.63265445519994
    },
    "properties": {},
    "sites": [
      {
        "species": [{ "element": "Sr", "occu": 1 }],
        "abc": [0.16946143, 0.89688867, 0.65431641],
        "properties": { "magmom": -0.0 },
        "label": "Sr",
        "xyz": [3.1090928210301807, 6.866879289977998, 8.369037560360118]
      },
      {
        "species": [{ "element": "Sr", "occu": 1 }],
        "abc": [0.89688867, 0.65431641, 0.16946143],
        "properties": { "magmom": -0.0 },
        "label": "Sr",
        "xyz": [8.34878882248653, 5.022111664221843, 5.6513188722706005]
      },
      {
        "species": [{ "element": "Sr", "occu": 1 }],
        "abc": [0.65431641, 0.16946143, 0.89688867],
        "properties": { "magmom": -0.0 },
        "label": "Sr",
        "xyz": [5.516202977506405, 1.335121890238165, 9.728835554125613]
      },
      {
        "species": [{ "element": "Sr", "occu": 1 }],
        "abc": [0.83053857, 0.10311133, 0.34568359],
        "properties": { "magmom": -0.0 },
        "label": "Sr",
        "xyz": [6.755738348969818, 0.8185802500220031, 5.433283719639881]
      },
      {
        "species": [{ "element": "Sr", "occu": 1 }],
        "abc": [0.10311133, 0.34568359, 0.83053857],
        "properties": { "magmom": -0.0 },
        "label": "Sr",
        "xyz": [1.5160423475134694, 2.6633478757781566, 8.1510024077294]
      },
      {
        "species": [{ "element": "Sr", "occu": 1 }],
        "abc": [0.34568359, 0.83053857, 0.10311133],
        "properties": { "magmom": -0.0 },
        "label": "Sr",
        "xyz": [4.348628192493594, 6.350337649761835, 4.073485725874385]
      },
      {
        "species": [{ "element": "Sr", "occu": 1 }],
        "abc": [0.5, 0.5, 0.5],
        "properties": { "magmom": 0.0 },
        "label": "Sr",
        "xyz": [4.932415585, 3.84272977, 6.9011606400000005]
      },
      {
        "species": [{ "element": "Sr", "occu": 1 }],
        "abc": [0.30067125, 0.30067225000000003, 0.30067125],
        "properties": { "magmom": -0.0 },
        "label": "Sr",
        "xyz": [2.9660730718765222, 2.3108043582141256, 4.14996392440151]
      },
      {
        "species": [{ "element": "Sr", "occu": 1 }],
        "abc": [0.69932875, 0.69932775, 0.69932875],
        "properties": { "magmom": -0.0 },
        "label": "Sr",
        "xyz": [6.898758098123478, 5.374655181785876, 9.652357355598491]
      },
      {
        "species": [{ "element": "Au", "occu": 1 }],
        "abc": [0.54564716, 0.90886446, 0.34179441],
        "properties": { "magmom": -0.0 },
        "label": "Au",
        "xyz": [6.085020136789658, 6.9599204810829125, 6.823934695727773]
      },
      {
        "species": [{ "element": "Au", "occu": 1 }],
        "abc": [0.90886446, 0.34179441, 0.54564716],
        "properties": { "magmom": -0.0 },
        "label": "Au",
        "xyz": [7.84578302237887, 2.6476104662344158, 7.9666743985439075]
      },
      {
        "species": [{ "element": "Au", "occu": 1 }],
        "abc": [0.34179441, 0.54564716, 0.90886446],
        "properties": { "magmom": -0.0 },
        "label": "Au",
        "xyz": [3.789452556434427, 4.1979063677057, 10.002583848989637]
      },
      {
        "species": [{ "element": "Au", "occu": 1 }],
        "abc": [0.45435284000000004, 0.09113554, 0.65820559],
        "properties": { "magmom": -0.0 },
        "label": "Au",
        "xyz": [3.7798110332103425, 0.7255390589170887, 6.9783865842722275]
      },
      {
        "species": [{ "element": "Au", "occu": 1 }],
        "abc": [0.09113554, 0.65820559, 0.45435284000000004],
        "properties": { "magmom": -0.0 },
        "label": "Au",
        "xyz": [2.0190481476211297, 5.037849073765585, 5.835646881456093]
      },
      {
        "species": [{ "element": "Au", "occu": 1 }],
        "abc": [0.65820559, 0.45435284000000004, 0.09113554],
        "properties": { "magmom": -0.0 },
        "label": "Au",
        "xyz": [6.075378613565572, 3.487553172294301, 3.7997374310103615]
      }
    ]
  },
  "task_ids": null,
  "uncorrected_energy_per_atom": null,
  "energy_per_atom": -30.002925507999997,
  "formation_energy_per_atom": -0.681544805999999,
  "energy_above_hull": 0.0,
  "is_stable": true,
  "equilibrium_reaction_energy_per_atom": null,
  "decomposes_to": null,
  "xas": null,
  "grain_boundaries": null,
  "band_gap": 0.0,
  "cbm": null,
  "vbm": null,
  "efermi": 2.85133019,
  "is_gap_direct": null,
  "is_metal": null,
  "es_source_calc_id": null,
  "bandstructure": null,
  "dos": null,
  "dos_energy_up": null,
  "dos_energy_down": null,
  "is_magnetic": null,
  "ordering": null,
  "total_magnetization": 1.5e-6,
  "total_magnetization_normalized_vol": null,
  "total_magnetization_normalized_formula_units": null,
  "num_magnetic_sites": null,
  "num_unique_magnetic_sites": null,
  "types_of_magnetic_species": null,
  "bulk_modulus": null,
  "shear_modulus": null,
  "universal_anisotropy": null,
  "homogeneous_poisson": null,
  "e_total": null,
  "e_ionic": null,
  "e_electronic": null,
  "n": null,
  "e_ij_max": null,
  "weighted_surface_energy_EV_PER_ANG2": null,
  "weighted_surface_energy": null,
  "weighted_work_function": null,
  "surface_anisotropy": null,
  "shape_factor": null,
  "has_reconstructed": null,
  "possible_species": null,
  "has_props": null,
  "theoretical": null,
  "database_IDs": null,
  "fields_not_requested": [
    "builder_meta",
    "nsites",
    "elements",
    "nelements",
    "composition",
    "composition_reduced",
    "chemsys",
    "symmetry",
    "property_name",
    "deprecated",
    "deprecation_reasons",
    "last_updated",
    "origins",
    "warnings",
    "task_ids",
    "uncorrected_energy_per_atom",
    "equilibrium_reaction_energy_per_atom",
    "decomposes_to",
    "xas",
    "grain_boundaries",
    "cbm",
    "vbm",
    "is_gap_direct",
    "is_metal",
    "es_source_calc_id",
    "bandstructure",
    "dos",
    "dos_energy_up",
    "dos_energy_down",
    "is_magnetic",
    "ordering",
    "total_magnetization_normalized_vol",
    "total_magnetization_normalized_formula_units",
    "num_magnetic_sites",
    "num_unique_magnetic_sites",
    "types_of_magnetic_species",
    "bulk_modulus",
    "shear_modulus",
    "universal_anisotropy",
    "homogeneous_poisson",
    "e_total",
    "e_ionic",
    "e_electronic",
    "n",
    "e_ij_max",
    "weighted_surface_energy_EV_PER_ANG2",
    "weighted_surface_energy",
    "weighted_work_function",
    "surface_anisotropy",
    "shape_factor",
    "has_reconstructed",
    "possible_species",
    "has_props",
    "theoretical",
    "database_IDs"
  ]
}
