{
  "builder_meta": null,
  "nsites": null,
  "elements": null,
  "nelements": null,
  "composition": null,
  "composition_reduced": null,
  "formula_pretty": "Sr3As",
  "formula_anonymous": "AB3",
  "chemsys": null,
  "volume": 286.96441348949736,
  "density": 3.909192334743506,
  "density_atomic": 35.87055168618717,
  "symmetry": null,
  "property_name": null,
  "material_id": "mp-971740",
  "deprecated": null,
  "deprecation_reasons": null,
  "last_updated": null,
  "origins": null,
  "warnings": null,
  "structure": {
    "@module": "pymatgen.core.structure",
    "@class": "Structure",
    "charge": 0,
    "lattice": {
      "matrix": [
        [3.783134, -6.552581, 0.0],
        [3.783134, 6.552581, 0.0],
        [0.0, 0.0, 5.788072]
      ],
      "pbc": [true, true, true],
      "a": 7.566268606355249,
      "b": 7.566268606355249,
      "c": 5.788072,
      "alpha": 90.0,
      "beta": 90.0,
      "gamma": 120.00000530197143,
      "volume": 286.96441348949736
    },
    "properties": {},
    "sites": [
      {
        "species": [{ "element": "Sr", "occu": 1 }],
        "abc": [0.175623, 0.351246, 0.25],
        "properties": { "magmom": 0.001 },
        "label": "Sr",
        "xyz": [1.993216027446, 1.150783932963, 1.447018]
      },
      {
        "species": [{ "element": "Sr", "occu": 1 }],
        "abc": [0.648753999999999, 0.824376999999999, 0.25],
        "properties": { "magmom": 0.001 },
        "label": "Sr",
        "xyz": [5.573051972553992, 1.1507839329629999, 1.447018]
      },
      {
        "species": [{ "element": "Sr", "occu": 1 }],
        "abc": [0.175623, 0.824376999999999, 0.25],
        "properties": { "magmom": -0.002 },
        "label": "Sr",
        "xyz": [3.7831339999999964, 4.251013134073994, 1.447018]
      },
      {
        "species": [{ "element": "Sr", "occu": 1 }],
        "abc": [0.824376999999999, 0.648753999999999, 0.75],
        "properties": { "magmom": 0.001 },
        "label": "Sr",
        "xyz": [5.573051972553992, -1.1507839329629999, 4.341054]
      },
      {
        "species": [{ "element": "Sr", "occu": 1 }],
        "abc": [0.351246, 0.175623, 0.75],
        "properties": { "magmom": 0.001 },
        "label": "Sr",
        "xyz": [1.993216027446, -1.150783932963, 4.341054]
      },
      {
        "species": [{ "element": "Sr", "occu": 1 }],
        "abc": [0.824376999999999, 0.175623, 0.75],
        "properties": { "magmom": -0.002 },
        "label": "Sr",
        "xyz": [3.7831339999999964, -4.251013134073994, 4.341054]
      },
      {
        "species": [{ "element": "As", "occu": 1 }],
        "abc": [0.333333, 0.666667, 0.75],
        "properties": { "magmom": -0.0 },
        "label": "As",
        "xyz": [3.783134, 2.1841980350540005, 4.341054]
      },
      {
        "species": [{ "element": "As", "occu": 1 }],
        "abc": [0.666667, 0.333333, 0.25],
        "properties": { "magmom": -0.0 },
        "label": "As",
        "xyz": [3.783134, -2.1841980350540005, 1.447018]
      }
    ]
  },
  "task_ids": null,
  "uncorrected_energy_per_atom": null,
  "energy_per_atom": -15.49009191138889,
  "formation_energy_per_atom": -0.45396336201389004,
  "energy_above_hull": 0.37888953402777703,
  "is_stable": false,
  "equilibrium_reaction_energy_per_atom": null,
  "decomposes_to": null,
  "xas": null,
  "grain_boundaries": null,
  "band_gap": 0.0,
  "cbm": null,
  "vbm": null,
  "efermi": 3.30397242,
  "is_gap_direct": null,
  "is_metal": null,
  "es_source_calc_id": null,
  "bandstructure": null,
  "dos": null,
  "dos_energy_up": null,
  "dos_energy_down": null,
  "is_magnetic": null,
  "ordering": null,
  "total_magnetization": 0.0020786,
  "total_magnetization_normalized_vol": null,
  "total_magnetization_normalized_formula_units": null,
  "num_magnetic_sites": null,
  "num_unique_magnetic_sites": null,
  "types_of_magnetic_species": null,
  "bulk_modulus": null,
  "shear_modulus": null,
  "universal_anisotropy": null,
  "homogeneous_poisson": null,
  "e_total": null,
  "e_ionic": null,
  "e_electronic": null,
  "n": null,
  "e_ij_max": null,
  "weighted_surface_energy_EV_PER_ANG2": null,
  "weighted_surface_energy": null,
  "weighted_work_function": null,
  "surface_anisotropy": null,
  "shape_factor": null,
  "has_reconstructed": null,
  "possible_species": null,
  "has_props": null,
  "theoretical": null,
  "database_IDs": null,
  "fields_not_requested": [
    "builder_meta",
    "nsites",
    "elements",
    "nelements",
    "composition",
    "composition_reduced",
    "chemsys",
    "symmetry",
    "property_name",
    "deprecated",
    "deprecation_reasons",
    "last_updated",
    "origins",
    "warnings",
    "task_ids",
    "uncorrected_energy_per_atom",
    "equilibrium_reaction_energy_per_atom",
    "decomposes_to",
    "xas",
    "grain_boundaries",
    "cbm",
    "vbm",
    "is_gap_direct",
    "is_metal",
    "es_source_calc_id",
    "bandstructure",
    "dos",
    "dos_energy_up",
    "dos_energy_down",
    "is_magnetic",
    "ordering",
    "total_magnetization_normalized_vol",
    "total_magnetization_normalized_formula_units",
    "num_magnetic_sites",
    "num_unique_magnetic_sites",
    "types_of_magnetic_species",
    "bulk_modulus",
    "shear_modulus",
    "universal_anisotropy",
    "homogeneous_poisson",
    "e_total",
    "e_ionic",
    "e_electronic",
    "n",
    "e_ij_max",
    "weighted_surface_energy_EV_PER_ANG2",
    "weighted_surface_energy",
    "weighted_work_function",
    "surface_anisotropy",
    "shape_factor",
    "has_reconstructed",
    "possible_species",
    "has_props",
    "theoretical",
    "database_IDs"
  ]
}
