{"builder_meta": null, "nsites": null, "elements": null, "nelements": null, "composition": null, "composition_reduced": null, "formula_pretty": "Sr3Ca", "formula_anonymous": "AB3", "chemsys": null, "volume": 424.9061399952555, "density": 2.367771780202035, "density_atomic": 53.11326749940694, "symmetry": null, "property_name": null, "material_id": "mp-1187116", "deprecated": null, "deprecation_reasons": null, "last_updated": null, "origins": null, "warnings": null, "structure": {"@module": "pymatgen.core.structure", "@class": "Structure", "charge": 0, "lattice": {"matrix": [[4.2190718, -7.30765133, -0.0], [4.21907285, 7.30765135, 0.0], [-0.0, 0.0, 6.89077743]], "pbc": [true, true, true], "a": 8.438147593779455, "b": 8.438148136099766, "c": 6.89077743, "alpha": 90.0, "beta": 90.0, "gamma": 120.00002520679696, "volume": 424.9061399952555}, "properties": {}, "sites": [{"species": [{"element": "Sr", "occu": 1}], "abc": [0.16854514, 0.33708928, 0.25], "properties": {"magmom": -0.004}, "label": "Sr", "xyz": [2.1333082764751, 1.2316618155764918, 1.7226943575]}, {"species": [{"element": "Sr", "occu": 1}], "abc": [0.6629107200000001, 0.83145486, 0.25], "properties": {"magmom": -0.004}, "label": "Sr", "xyz": [6.304836550496248, 1.2316618254638039, 1.7226943575]}, {"species": [{"element": "Sr", "occu": 1}], "abc": [0.16854414, 0.83145586, 0.25], "properties": {"magmom": -0.004}, "label": "Sr", "xyz": [4.219072673028653, 4.844327728959705, 1.7226943575]}, {"species": [{"element": "Sr", "occu": 1}], "abc": [0.83145486, 0.6629107200000001, 0.75], "properties": {"magmom": -0.004}, "label": "Sr", "xyz": [6.3048363735249, -1.2316617955764908, 5.1680830725]}, {"species": [{"element": "Sr", "occu": 1}], "abc": [0.33708928, 0.16854514, 0.75], "properties": {"magmom": -0.004}, "label": "Sr", "xyz": [2.1333080995037528, -1.231661805463803, 5.1680830725]}, {"species": [{"element": "Sr", "occu": 1}], "abc": [0.83145586, 0.16854414, 0.75], "properties": {"magmom": -0.004}, "label": "Sr", "xyz": [4.219071976971347, -4.844327708959705, 5.1680830725]}, {"species": [{"element": "Ca", "occu": 1}], "abc": [0.333333, 0.666667, 0.75], "properties": {"magmom": -0.013000000000000001}, "label": "Ca", "xyz": [4.21907250000035, 2.4358886617675606, 5.1680830725]}, {"species": [{"element": "Ca", "occu": 1}], "abc": [0.666667, 0.333333, 0.25], "properties": {"magmom": -0.013000000000000001}, "label": "Ca", "xyz": [4.21907214999965, -2.4358886417675594, 1.7226943575]}]}, "task_ids": null, "uncorrected_energy_per_atom": null, "energy_per_atom": -13.1131833, "formation_energy_per_atom": 0.005635927499998, "energy_above_hull": 0.005635927499998, "is_stable": false, "equilibrium_reaction_energy_per_atom": null, "decomposes_to": null, "xas": null, "grain_boundaries": null, "band_gap": 0.0, "cbm": null, "vbm": null, "efermi": 1.68955273, "is_gap_direct": null, "is_metal": null, "es_source_calc_id": null, "bandstructure": null, "dos": null, "dos_energy_up": null, "dos_energy_down": null, "is_magnetic": null, "ordering": null, "total_magnetization": 0.120677899999999, "total_magnetization_normalized_vol": null, "total_magnetization_normalized_formula_units": null, "num_magnetic_sites": null, "num_unique_magnetic_sites": null, "types_of_magnetic_species": null, "bulk_modulus": null, "shear_modulus": null, "universal_anisotropy": null, "homogeneous_poisson": null, "e_total": null, "e_ionic": null, "e_electronic": null, "n": null, "e_ij_max": null, "weighted_surface_energy_EV_PER_ANG2": null, "weighted_surface_energy": null, "weighted_work_function": null, "surface_anisotropy": null, "shape_factor": null, "has_reconstructed": null, "possible_species": null, "has_props": null, "theoretical": null, "database_IDs": null, "fields_not_requested": ["builder_meta", "nsites", "elements", "nelements", "composition", "composition_reduced", "chemsys", "symmetry", "property_name", "deprecated", "deprecation_reasons", "last_updated", "origins", "warnings", "task_ids", "uncorrected_energy_per_atom", "equilibrium_reaction_energy_per_atom", "decomposes_to", "xas", "grain_boundaries", "cbm", "vbm", "is_gap_direct", "is_metal", "es_source_calc_id", "bandstructure", "dos", "dos_energy_up", "dos_energy_down", "is_magnetic", "ordering", "total_magnetization_normalized_vol", "total_magnetization_normalized_formula_units", "num_magnetic_sites", "num_unique_magnetic_sites", "types_of_magnetic_species", "bulk_modulus", "shear_modulus", "universal_anisotropy", "homogeneous_poisson", "e_total", "e_ionic", "e_electronic", "n", "e_ij_max", "weighted_surface_energy_EV_PER_ANG2", "weighted_surface_energy", "weighted_work_function", "surface_anisotropy", "shape_factor", "has_reconstructed", "possible_species", "has_props", "theoretical", "database_IDs"]}