{"builder_meta": null, "nsites": null, "elements": null, "nelements": null, "composition": null, "composition_reduced": null, "formula_pretty": "Sr3Ce", "formula_anonymous": "AB3", "chemsys": null, "volume": 377.25001859944683, "density": 3.547553918679556, "density_atomic": 47.156252324930854, "symmetry": null, "property_name": null, "material_id": "mp-1187237", "deprecated": null, "deprecation_reasons": null, "last_updated": null, "origins": null, "warnings": null, "structure": {"@module": "pymatgen.core.structure", "@class": "Structure", "charge": 0, "lattice": {"matrix": [[4.096618, -7.095551, 0.0], [4.096618, 7.095551, 0.0], [0.0, 0.0, 6.489148]], "pbc": [true, true, true], "a": 8.193236419848082, "b": 8.193236419848082, "c": 6.489148, "alpha": 90.0, "beta": 90.0, "gamma": 120.00000339022624, "volume": 377.25001859944683}, "properties": {}, "sites": [{"species": [{"element": "Sr", "occu": 1}], "abc": [0.170558, 0.341115, 0.25], "properties": {"magmom": 0.047}, "label": "Sr", "xyz": [2.096128821914, 1.210195891907, 1.622287]}, {"species": [{"element": "Sr", "occu": 1}], "abc": [0.658884999999999, 0.829442, 0.25], "properties": {"magmom": 0.047}, "label": "Sr", "xyz": [6.097107178085997, 1.2101958919070075, 1.622287]}, {"species": [{"element": "Sr", "occu": 1}], "abc": [0.170558, 0.829442, 0.25], "properties": {"magmom": 0.047}, "label": "Sr", "xyz": [4.096618, 4.675145025084001, 1.622287]}, {"species": [{"element": "Sr", "occu": 1}], "abc": [0.829442, 0.658884999999999, 0.75], "properties": {"magmom": 0.047}, "label": "Sr", "xyz": [6.097107178085997, -1.2101958919070075, 4.866861]}, {"species": [{"element": "Sr", "occu": 1}], "abc": [0.341115, 0.170558, 0.75], "properties": {"magmom": 0.047}, "label": "Sr", "xyz": [2.096128821914, -1.210195891907, 4.866861]}, {"species": [{"element": "Sr", "occu": 1}], "abc": [0.829442, 0.170558, 0.75], "properties": {"magmom": 0.047}, "label": "Sr", "xyz": [4.096618, -4.675145025084001, 4.866861]}, {"species": [{"element": "Ce", "occu": 1}], "abc": [0.333333, 0.666667, 0.75], "properties": {"magmom": 1.309}, "label": "Ce", "xyz": [4.096618, 2.365188397034, 4.866861]}, {"species": [{"element": "Ce", "occu": 1}], "abc": [0.666667, 0.333333, 0.25], "properties": {"magmom": 1.309}, "label": "Ce", "xyz": [4.096618, -2.365188397034, 1.622287]}]}, "task_ids": null, "uncorrected_energy_per_atom": null, "energy_per_atom": -18.789499181249997, "formation_energy_per_atom": 0.279903811250001, "energy_above_hull": 0.279903811250001, "is_stable": false, "equilibrium_reaction_energy_per_atom": null, "decomposes_to": null, "xas": null, "grain_boundaries": null, "band_gap": 0.0, "cbm": null, "vbm": null, "efermi": 2.73332327, "is_gap_direct": null, "is_metal": null, "es_source_calc_id": null, "bandstructure": null, "dos": null, "dos_energy_up": null, "dos_energy_down": null, "is_magnetic": null, "ordering": null, "total_magnetization": 4.7426867, "total_magnetization_normalized_vol": null, "total_magnetization_normalized_formula_units": null, "num_magnetic_sites": null, "num_unique_magnetic_sites": null, "types_of_magnetic_species": null, "bulk_modulus": null, "shear_modulus": null, "universal_anisotropy": null, "homogeneous_poisson": null, "e_total": null, "e_ionic": null, "e_electronic": null, "n": null, "e_ij_max": null, "weighted_surface_energy_EV_PER_ANG2": null, "weighted_surface_energy": null, "weighted_work_function": null, "surface_anisotropy": null, "shape_factor": null, "has_reconstructed": null, "possible_species": null, "has_props": null, "theoretical": null, "database_IDs": null, "fields_not_requested": ["builder_meta", "nsites", "elements", "nelements", "composition", "composition_reduced", "chemsys", "symmetry", "property_name", "deprecated", "deprecation_reasons", "last_updated", "origins", "warnings", "task_ids", "uncorrected_energy_per_atom", "equilibrium_reaction_energy_per_atom", "decomposes_to", "xas", "grain_boundaries", "cbm", "vbm", "is_gap_direct", "is_metal", "es_source_calc_id", "bandstructure", "dos", "dos_energy_up", "dos_energy_down", "is_magnetic", "ordering", "total_magnetization_normalized_vol", "total_magnetization_normalized_formula_units", "num_magnetic_sites", "num_unique_magnetic_sites", "types_of_magnetic_species", "bulk_modulus", "shear_modulus", "universal_anisotropy", "homogeneous_poisson", "e_total", "e_ionic", "e_electronic", "n", "e_ij_max", "weighted_surface_energy_EV_PER_ANG2", "weighted_surface_energy", "weighted_work_function", "surface_anisotropy", "shape_factor", "has_reconstructed", "possible_species", "has_props", "theoretical", "database_IDs"]}