{"builder_meta": null, "nsites": null, "elements": null, "nelements": null, "composition": null, "composition_reduced": null, "formula_pretty": "Sr3Dy", "formula_anonymous": "AB3", "chemsys": null, "volume": 371.97171150345184, "density": 3.797745234518573, "density_atomic": 46.49646393793148, "symmetry": null, "property_name": null, "material_id": "mp-1187112", "deprecated": null, "deprecation_reasons": null, "last_updated": null, "origins": null, "warnings": null, "structure": {"@module": "pymatgen.core.structure", "@class": "Structure", "charge": 0, "lattice": {"matrix": [[4.047789, -7.010977, 0.0], [4.047789, 7.010977, 0.0], [0.0, 0.0, 6.553654]], "pbc": [true, true, true], "a": 8.095578687348421, "b": 8.095578687348421, "c": 6.553654, "alpha": 90.0, "beta": 90.0, "gamma": 120.00000561721485, "volume": 371.97171150345184}, "properties": {}, "sites": [{"species": [{"element": "Sr", "occu": 1}], "abc": [0.17175, 0.3435, 0.25], "properties": {"magmom": -0.002}, "label": "Sr", "xyz": [2.0856232822500003, 1.20413529975, 1.6384135]}, {"species": [{"element": "Sr", "occu": 1}], "abc": [0.6565000000000001, 0.82825, 0.25], "properties": {"magmom": -0.002}, "label": "Sr", "xyz": [6.00995471775, 1.204135299749999, 1.6384135]}, {"species": [{"element": "Sr", "occu": 1}], "abc": [0.17175, 0.82825, 0.25], "properties": {"magmom": -0.002}, "label": "Sr", "xyz": [4.047789, 4.6027064005, 1.6384135]}, {"species": [{"element": "Sr", "occu": 1}], "abc": [0.82825, 0.6565000000000001, 0.75], "properties": {"magmom": -0.002}, "label": "Sr", "xyz": [6.00995471775, -1.204135299749999, 4.9152404999999995]}, {"species": [{"element": "Sr", "occu": 1}], "abc": [0.3435, 0.17175, 0.75], "properties": {"magmom": -0.002}, "label": "Sr", "xyz": [2.0856232822500003, -1.20413529975, 4.9152404999999995]}, {"species": [{"element": "Sr", "occu": 1}], "abc": [0.82825, 0.17175, 0.75], "properties": {"magmom": -0.002}, "label": "Sr", "xyz": [4.047789, -4.6027064005, 4.9152404999999995]}, {"species": [{"element": "Dy", "occu": 1}], "abc": [0.333333, 0.666667, 0.75], "properties": {"magmom": -0.014}, "label": "Dy", "xyz": [4.047789, 2.3369970073179998, 4.9152404999999995]}, {"species": [{"element": "Dy", "occu": 1}], "abc": [0.666667, 0.333333, 0.25], "properties": {"magmom": -0.016}, "label": "Dy", "xyz": [4.047789, -2.3369970073179998, 1.6384135]}]}, "task_ids": null, "uncorrected_energy_per_atom": null, "energy_per_atom": -19.140016978749994, "formation_energy_per_atom": 0.214679630000002, "energy_above_hull": 0.214679630000002, "is_stable": false, "equilibrium_reaction_energy_per_atom": null, "decomposes_to": null, "xas": null, "grain_boundaries": null, "band_gap": 0.0, "cbm": null, "vbm": null, "efermi": 2.02352393, "is_gap_direct": null, "is_metal": null, "es_source_calc_id": null, "bandstructure": null, "dos": null, "dos_energy_up": null, "dos_energy_down": null, "is_magnetic": null, "ordering": null, "total_magnetization": 0.1206752, "total_magnetization_normalized_vol": null, "total_magnetization_normalized_formula_units": null, "num_magnetic_sites": null, "num_unique_magnetic_sites": null, "types_of_magnetic_species": null, "bulk_modulus": null, "shear_modulus": null, "universal_anisotropy": null, "homogeneous_poisson": null, "e_total": null, "e_ionic": null, "e_electronic": null, "n": null, "e_ij_max": null, "weighted_surface_energy_EV_PER_ANG2": null, "weighted_surface_energy": null, "weighted_work_function": null, "surface_anisotropy": null, "shape_factor": null, "has_reconstructed": null, "possible_species": null, "has_props": null, "theoretical": null, "database_IDs": null, "fields_not_requested": ["builder_meta", "nsites", "elements", "nelements", "composition", "composition_reduced", "chemsys", "symmetry", "property_name", "deprecated", "deprecation_reasons", "last_updated", "origins", "warnings", "task_ids", "uncorrected_energy_per_atom", "equilibrium_reaction_energy_per_atom", "decomposes_to", "xas", "grain_boundaries", "cbm", "vbm", "is_gap_direct", "is_metal", "es_source_calc_id", "bandstructure", "dos", "dos_energy_up", "dos_energy_down", "is_magnetic", "ordering", "total_magnetization_normalized_vol", "total_magnetization_normalized_formula_units", "num_magnetic_sites", "num_unique_magnetic_sites", "types_of_magnetic_species", "bulk_modulus", "shear_modulus", "universal_anisotropy", "homogeneous_poisson", "e_total", "e_ionic", "e_electronic", "n", "e_ij_max", "weighted_surface_energy_EV_PER_ANG2", "weighted_surface_energy", "weighted_work_function", "surface_anisotropy", "shape_factor", "has_reconstructed", "possible_species", "has_props", "theoretical", "database_IDs"]}