{
  "builder_meta": null,
  "nsites": null,
  "elements": null,
  "nelements": null,
  "composition": null,
  "composition_reduced": null,
  "formula_pretty": "Sr3Er",
  "formula_anonymous": "AB3",
  "chemsys": null,
  "volume": 373.4467449695304,
  "density": 3.825066960191068,
  "density_atomic": 46.6808431211913,
  "symmetry": null,
  "property_name": null,
  "material_id": "mp-1187113",
  "deprecated": null,
  "deprecation_reasons": null,
  "last_updated": null,
  "origins": null,
  "warnings": null,
  "structure": {
    "@module": "pymatgen.core.structure",
    "@class": "Structure",
    "charge": 0,
    "lattice": {
      "matrix": [
        [4.050391, -7.015483, 0.0],
        [4.050391, 7.015483, 0.0],
        [0.0, 0.0, 6.571192]
      ],
      "pbc": [true, true, true],
      "a": 8.100781997817865,
      "b": 8.100781997817865,
      "c": 6.571192,
      "alpha": 90.0,
      "beta": 90.0,
      "gamma": 119.99999998217841,
      "volume": 373.4467449695304
    },
    "properties": {},
    "sites": [
      {
        "species": [{ "element": "Sr", "occu": 1 }],
        "abc": [0.171731, 0.343462, 0.25],
        "properties": { "magmom": -0.008 },
        "label": "Sr",
        "xyz": [2.086733090463, 1.2047759110729999, 1.642798]
      },
      {
        "species": [{ "element": "Sr", "occu": 1 }],
        "abc": [0.656538, 0.828268999999999, 0.25],
        "properties": { "magmom": -0.008 },
        "label": "Sr",
        "xyz": [6.014048909536996, 1.2047759110729936, 1.642798]
      },
      {
        "species": [{ "element": "Sr", "occu": 1 }],
        "abc": [0.171731, 0.828268999999999, 0.25],
        "properties": { "magmom": -0.008 },
        "label": "Sr",
        "xyz": [4.050390999999996, 4.605931177853993, 1.642798]
      },
      {
        "species": [{ "element": "Sr", "occu": 1 }],
        "abc": [0.828268999999999, 0.656538, 0.75],
        "properties": { "magmom": -0.008 },
        "label": "Sr",
        "xyz": [6.014048909536996, -1.2047759110729936, 4.928394]
      },
      {
        "species": [{ "element": "Sr", "occu": 1 }],
        "abc": [0.343462, 0.171731, 0.75],
        "properties": { "magmom": -0.007 },
        "label": "Sr",
        "xyz": [2.086733090463, -1.2047759110729999, 4.928394]
      },
      {
        "species": [{ "element": "Sr", "occu": 1 }],
        "abc": [0.828268999999999, 0.171731, 0.75],
        "properties": { "magmom": -0.008 },
        "label": "Sr",
        "xyz": [4.050390999999996, -4.605931177853993, 4.928394]
      },
      {
        "species": [{ "element": "Er", "occu": 1 }],
        "abc": [0.333333, 0.666667, 0.75],
        "properties": { "magmom": -0.05 },
        "label": "Er",
        "xyz": [4.050391, 2.338499010322, 4.928394]
      },
      {
        "species": [{ "element": "Er", "occu": 1 }],
        "abc": [0.666667, 0.333333, 0.25],
        "properties": { "magmom": -0.051000000000000004 },
        "label": "Er",
        "xyz": [4.050391, -2.338499010322, 1.642798]
      }
    ]
  },
  "task_ids": null,
  "uncorrected_energy_per_atom": null,
  "energy_per_atom": -19.615755612916665,
  "formation_energy_per_atom": 0.22484898124999803,
  "energy_above_hull": 0.22484898124999803,
  "is_stable": false,
  "equilibrium_reaction_energy_per_atom": null,
  "decomposes_to": null,
  "xas": null,
  "grain_boundaries": null,
  "band_gap": 0.0,
  "cbm": null,
  "vbm": null,
  "efermi": 1.965254799999999,
  "is_gap_direct": null,
  "is_metal": null,
  "es_source_calc_id": null,
  "bandstructure": null,
  "dos": null,
  "dos_energy_up": null,
  "dos_energy_down": null,
  "is_magnetic": null,
  "ordering": null,
  "total_magnetization": 0.3348132,
  "total_magnetization_normalized_vol": null,
  "total_magnetization_normalized_formula_units": null,
  "num_magnetic_sites": null,
  "num_unique_magnetic_sites": null,
  "types_of_magnetic_species": null,
  "bulk_modulus": null,
  "shear_modulus": null,
  "universal_anisotropy": null,
  "homogeneous_poisson": null,
  "e_total": null,
  "e_ionic": null,
  "e_electronic": null,
  "n": null,
  "e_ij_max": null,
  "weighted_surface_energy_EV_PER_ANG2": null,
  "weighted_surface_energy": null,
  "weighted_work_function": null,
  "surface_anisotropy": null,
  "shape_factor": null,
  "has_reconstructed": null,
  "possible_species": null,
  "has_props": null,
  "theoretical": null,
  "database_IDs": null,
  "fields_not_requested": [
    "builder_meta",
    "nsites",
    "elements",
    "nelements",
    "composition",
    "composition_reduced",
    "chemsys",
    "symmetry",
    "property_name",
    "deprecated",
    "deprecation_reasons",
    "last_updated",
    "origins",
    "warnings",
    "task_ids",
    "uncorrected_energy_per_atom",
    "equilibrium_reaction_energy_per_atom",
    "decomposes_to",
    "xas",
    "grain_boundaries",
    "cbm",
    "vbm",
    "is_gap_direct",
    "is_metal",
    "es_source_calc_id",
    "bandstructure",
    "dos",
    "dos_energy_up",
    "dos_energy_down",
    "is_magnetic",
    "ordering",
    "total_magnetization_normalized_vol",
    "total_magnetization_normalized_formula_units",
    "num_magnetic_sites",
    "num_unique_magnetic_sites",
    "types_of_magnetic_species",
    "bulk_modulus",
    "shear_modulus",
    "universal_anisotropy",
    "homogeneous_poisson",
    "e_total",
    "e_ionic",
    "e_electronic",
    "n",
    "e_ij_max",
    "weighted_surface_energy_EV_PER_ANG2",
    "weighted_surface_energy",
    "weighted_work_function",
    "surface_anisotropy",
    "shape_factor",
    "has_reconstructed",
    "possible_species",
    "has_props",
    "theoretical",
    "database_IDs"
  ]
}
