{"builder_meta": null, "nsites": null, "elements": null, "nelements": null, "composition": null, "composition_reduced": null, "formula_pretty": "Sr3Eu", "formula_anonymous": "AB3", "chemsys": null, "volume": 436.57008984249615, "density": 3.1556511716677242, "density_atomic": 54.57126123031202, "symmetry": null, "property_name": null, "material_id": "mp-1187298", "deprecated": null, "deprecation_reasons": null, "last_updated": null, "origins": null, "warnings": null, "structure": {"@module": "pymatgen.core.structure", "@class": "Structure", "charge": 0, "lattice": {"matrix": [[4.26001331, -7.37849739, 0.0], [4.25999658, 7.37848765, 0.0], [0.0, 0.0, 6.9445840400000005]], "pbc": [true, true, true], "a": 8.519972836553762, "b": 8.519956036436703, "c": 6.9445840400000005, "alpha": 90.0, "beta": 90.0, "gamma": 119.99964704290588, "volume": 436.5700898424962}, "properties": {}, "sites": [{"species": [{"element": "Sr", "occu": 1}], "abc": [0.1679104, 0.33580628, 0.25], "properties": {"magmom": -0.006}, "label": "Sr", "xyz": [2.1458341432299464, 1.2388160416185865, 1.7361460100000001]}, {"species": [{"element": "Sr", "occu": 1}], "abc": [0.66418805, 0.8320945, 0.25], "properties": {"magmom": -0.006}, "label": "Sr", "xyz": [6.374169657579755, 1.2388891984887351, 1.7361460100000001]}, {"species": [{"element": "Sr", "occu": 1}], "abc": [0.16791167, 0.8321029, 0.25], "properties": {"magmom": -0.006}, "label": "Sr", "xyz": [4.26006145731241, 4.900725152333644, 1.7361460100000001]}, {"species": [{"element": "Sr", "occu": 1}], "abc": [0.83208823, 0.6641912, 0.75], "properties": {"magmom": -0.006}, "label": "Sr", "xyz": [6.374159175360438, -1.2388342668660393, 5.20843803]}, {"species": [{"element": "Sr", "occu": 1}], "abc": [0.33581146, 0.16790523000000002, 0.75], "properties": {"magmom": -0.006}, "label": "Sr", "xyz": [2.145836994814646, -1.2388973152166798, 5.20843803]}, {"species": [{"element": "Sr", "occu": 1}], "abc": [0.83208633, 0.16789727000000002, 0.75], "properties": {"magmom": -0.006}, "label": "Sr", "xyz": [4.259940636860389, -4.900718880995963, 5.20843803]}, {"species": [{"element": "Eu", "occu": 1}], "abc": [0.33335673, 0.66668006, 0.75], "properties": {"magmom": 6.874}, "label": "Eu", "xyz": [4.260158882332271, 2.4594188269673247, 5.20843803]}, {"species": [{"element": "Eu", "occu": 1}], "abc": [0.66664714, 0.33332255, 0.25], "properties": {"magmom": 6.874}, "label": "Eu", "xyz": [4.259878612510312, -2.4594378638994567, 1.7361460100000001]}]}, "task_ids": null, "uncorrected_energy_per_atom": null, "energy_per_atom": -20.95232525875, "formation_energy_per_atom": 0.037141222499997004, "energy_above_hull": 0.037141222499997004, "is_stable": false, "equilibrium_reaction_energy_per_atom": null, "decomposes_to": null, "xas": null, "grain_boundaries": null, "band_gap": 0.0, "cbm": null, "vbm": null, "efermi": 1.6190181300000002, "is_gap_direct": null, "is_metal": null, "es_source_calc_id": null, "bandstructure": null, "dos": null, "dos_energy_up": null, "dos_energy_down": null, "is_magnetic": null, "ordering": null, "total_magnetization": 14.6333753, "total_magnetization_normalized_vol": null, "total_magnetization_normalized_formula_units": null, "num_magnetic_sites": null, "num_unique_magnetic_sites": null, "types_of_magnetic_species": null, "bulk_modulus": null, "shear_modulus": null, "universal_anisotropy": null, "homogeneous_poisson": null, "e_total": null, "e_ionic": null, "e_electronic": null, "n": null, "e_ij_max": null, "weighted_surface_energy_EV_PER_ANG2": null, "weighted_surface_energy": null, "weighted_work_function": null, "surface_anisotropy": null, "shape_factor": null, "has_reconstructed": null, "possible_species": null, "has_props": null, "theoretical": null, "database_IDs": null, "fields_not_requested": ["builder_meta", "nsites", "elements", "nelements", "composition", "composition_reduced", "chemsys", "symmetry", "property_name", "deprecated", "deprecation_reasons", "last_updated", "origins", "warnings", "task_ids", "uncorrected_energy_per_atom", "equilibrium_reaction_energy_per_atom", "decomposes_to", "xas", "grain_boundaries", "cbm", "vbm", "is_gap_direct", "is_metal", "es_source_calc_id", "bandstructure", "dos", "dos_energy_up", "dos_energy_down", "is_magnetic", "ordering", "total_magnetization_normalized_vol", "total_magnetization_normalized_formula_units", "num_magnetic_sites", "num_unique_magnetic_sites", "types_of_magnetic_species", "bulk_modulus", "shear_modulus", "universal_anisotropy", "homogeneous_poisson", "e_total", "e_ionic", "e_electronic", "n", "e_ij_max", "weighted_surface_energy_EV_PER_ANG2", "weighted_surface_energy", "weighted_work_function", "surface_anisotropy", "shape_factor", "has_reconstructed", "possible_species", "has_props", "theoretical", "database_IDs"]}