{"builder_meta": null, "nsites": null, "elements": null, "nelements": null, "composition": null, "composition_reduced": null, "formula_pretty": "Sr3Fe", "formula_anonymous": "AB3", "chemsys": null, "volume": 314.3364768797762, "density": 3.367233153937547, "density_atomic": 39.29205960997203, "symmetry": null, "property_name": null, "material_id": "mp-1187133", "deprecated": null, "deprecation_reasons": null, "last_updated": null, "origins": null, "warnings": null, "structure": {"@module": "pymatgen.core.structure", "@class": "Structure", "charge": 0, "lattice": {"matrix": [[3.925924, -6.7999, 0.0], [3.925924, 6.7999, 0.0], [0.0, 0.0, 5.887357]], "pbc": [true, true, true], "a": 7.851848143193805, "b": 7.851848143193805, "c": 5.887357, "alpha": 90.0, "beta": 90.0, "gamma": 120.00000120654725, "volume": 314.3364768797762}, "properties": {}, "sites": [{"species": [{"element": "Sr", "occu": 1}], "abc": [0.178342, 0.356684, 0.25], "properties": {"magmom": -0.043000000000000003}, "label": "Sr", "xyz": [2.100471414024, 1.2127077658, 1.47183925]}, {"species": [{"element": "Sr", "occu": 1}], "abc": [0.643316, 0.821658, 0.25], "properties": {"magmom": -0.052000000000000005}, "label": "Sr", "xyz": [5.751376585976001, 1.2127077657999994, 1.47183925]}, {"species": [{"element": "Sr", "occu": 1}], "abc": [0.178342, 0.821658, 0.25], "properties": {"magmom": -0.043000000000000003}, "label": "Sr", "xyz": [3.925924, 4.3744844683999995, 1.47183925]}, {"species": [{"element": "Sr", "occu": 1}], "abc": [0.821658, 0.643316, 0.75], "properties": {"magmom": -0.048}, "label": "Sr", "xyz": [5.751376585976001, -1.2127077657999994, 4.415517749999999]}, {"species": [{"element": "Sr", "occu": 1}], "abc": [0.356684, 0.178342, 0.75], "properties": {"magmom": -0.048}, "label": "Sr", "xyz": [2.100471414024, -1.2127077658, 4.415517749999999]}, {"species": [{"element": "Sr", "occu": 1}], "abc": [0.821658, 0.178342, 0.75], "properties": {"magmom": -0.049}, "label": "Sr", "xyz": [3.925924, -4.3744844683999995, 4.415517749999999]}, {"species": [{"element": "Fe", "occu": 1}], "abc": [0.333333, 0.666667, 0.75], "properties": {"magmom": 2.958}, "label": "Fe", "xyz": [3.925924, 2.2666378666000004, 4.415517749999999]}, {"species": [{"element": "Fe", "occu": 1}], "abc": [0.666667, 0.333333, 0.25], "properties": {"magmom": 2.961}, "label": "Fe", "xyz": [3.925924, -2.2666378666000004, 1.47183925]}]}, "task_ids": null, "uncorrected_energy_per_atom": null, "energy_per_atom": -2.8151860475, "formation_energy_per_atom": 0.5716403225000001, "energy_above_hull": 0.5716403225000001, "is_stable": false, "equilibrium_reaction_energy_per_atom": null, "decomposes_to": null, "xas": null, "grain_boundaries": null, "band_gap": 0.0, "cbm": null, "vbm": null, "efermi": 1.843425949999999, "is_gap_direct": null, "is_metal": null, "es_source_calc_id": null, "bandstructure": null, "dos": null, "dos_energy_up": null, "dos_energy_down": null, "is_magnetic": null, "ordering": null, "total_magnetization": 5.1426664, "total_magnetization_normalized_vol": null, "total_magnetization_normalized_formula_units": null, "num_magnetic_sites": null, "num_unique_magnetic_sites": null, "types_of_magnetic_species": null, "bulk_modulus": null, "shear_modulus": null, "universal_anisotropy": null, "homogeneous_poisson": null, "e_total": null, "e_ionic": null, "e_electronic": null, "n": null, "e_ij_max": null, "weighted_surface_energy_EV_PER_ANG2": null, "weighted_surface_energy": null, "weighted_work_function": null, "surface_anisotropy": null, "shape_factor": null, "has_reconstructed": null, "possible_species": null, "has_props": null, "theoretical": null, "database_IDs": null, "fields_not_requested": ["builder_meta", "nsites", "elements", "nelements", "composition", "composition_reduced", "chemsys", "symmetry", "property_name", "deprecated", "deprecation_reasons", "last_updated", "origins", "warnings", "task_ids", "uncorrected_energy_per_atom", "equilibrium_reaction_energy_per_atom", "decomposes_to", "xas", "grain_boundaries", "cbm", "vbm", "is_gap_direct", "is_metal", "es_source_calc_id", "bandstructure", "dos", "dos_energy_up", "dos_energy_down", "is_magnetic", "ordering", "total_magnetization_normalized_vol", "total_magnetization_normalized_formula_units", "num_magnetic_sites", "num_unique_magnetic_sites", "types_of_magnetic_species", "bulk_modulus", "shear_modulus", "universal_anisotropy", "homogeneous_poisson", "e_total", "e_ionic", "e_electronic", "n", "e_ij_max", "weighted_surface_energy_EV_PER_ANG2", "weighted_surface_energy", "weighted_work_function", "surface_anisotropy", "shape_factor", "has_reconstructed", "possible_species", "has_props", "theoretical", "database_IDs"]}