{"builder_meta": null, "nsites": null, "elements": null, "nelements": null, "composition": null, "composition_reduced": null, "formula_pretty": "Sr3Hg", "formula_anonymous": "AB3", "chemsys": null, "volume": 705.648983231853, "density": 4.362377605313788, "density_atomic": 44.10306145199081, "symmetry": null, "property_name": null, "material_id": "mp-1105844", "deprecated": null, "deprecation_reasons": null, "last_updated": null, "origins": null, "warnings": null, "structure": {"@module": "pymatgen.core.structure", "@class": "Structure", "charge": 0, "lattice": {"matrix": [[-0.0, 0.0, 7.49693752], [8.72947944, 0.0, -0.0], [0.0, 10.7824259, 0.0]], "pbc": [true, true, true], "a": 7.49693752, "b": 8.72947944, "c": 10.7824259, "alpha": 90.0, "beta": 90.0, "gamma": 90.0, "volume": 705.648983231853}, "properties": {}, "sites": [{"species": [{"element": "Sr", "occu": 1}], "abc": [0.338202, 0.67251324, 0.06549365], "properties": {"magmom": 0.0}, "label": "Sr", "xyz": [5.870690501707786, 0.7061804280455349, 2.53547926313904]}, {"species": [{"element": "Sr", "occu": 1}], "abc": [0.161798, 0.17251324, 0.43450635], "properties": {"magmom": 0.0}, "label": "Sr", "xyz": [1.5059507817077857, 4.685032521954465, 1.21298949686096]}, {"species": [{"element": "Sr", "occu": 1}], "abc": [0.661798, 0.32748676, 0.56549365], "properties": {"magmom": 0.0}, "label": "Sr", "xyz": [2.8587889382922143, 6.097393378045535, 4.96145825686096]}, {"species": [{"element": "Sr", "occu": 1}], "abc": [0.838202, 0.82748676, 0.93450635], "properties": {"magmom": 0.0}, "label": "Sr", "xyz": [7.2235286582922145, 10.076245471954465, 6.2839480231390406]}, {"species": [{"element": "Sr", "occu": 1}], "abc": [0.661798, 0.32748676, 0.93450635], "properties": {"magmom": 0.0}, "label": "Sr", "xyz": [2.8587889382922143, 10.076245471954465, 4.96145825686096]}, {"species": [{"element": "Sr", "occu": 1}], "abc": [0.838202, 0.82748676, 0.56549365], "properties": {"magmom": 0.0}, "label": "Sr", "xyz": [7.2235286582922145, 6.097393378045535, 6.2839480231390406]}, {"species": [{"element": "Sr", "occu": 1}], "abc": [0.338202, 0.67251324, 0.43450635], "properties": {"magmom": 0.0}, "label": "Sr", "xyz": [5.870690501707786, 4.685032521954465, 2.53547926313904]}, {"species": [{"element": "Sr", "occu": 1}], "abc": [0.161798, 0.17251324, 0.06549365], "properties": {"magmom": 0.0}, "label": "Sr", "xyz": [1.5059507817077857, 0.7061804280455349, 1.21298949686096]}, {"species": [{"element": "Sr", "occu": 1}], "abc": [0.85892106, 0.53618579, 0.25], "properties": {"magmom": -0.016}, "label": "Sr", "xyz": [4.6806228298251575, 2.695606475, 6.439277521432172]}, {"species": [{"element": "Sr", "occu": 1}], "abc": [0.64107894, 0.03618579, 0.25], "properties": {"magmom": -0.016}, "label": "Sr", "xyz": [0.31588310982515766, 2.695606475, 4.806128758567829]}, {"species": [{"element": "Sr", "occu": 1}], "abc": [0.14107894, 0.46381421, 0.75], "properties": {"magmom": -0.016}, "label": "Sr", "xyz": [4.048856610174843, 8.086819425, 1.057659998567829]}, {"species": [{"element": "Sr", "occu": 1}], "abc": [0.35892106, 0.96381421, 0.75], "properties": {"magmom": -0.016}, "label": "Sr", "xyz": [8.413596330174842, 8.086819425, 2.6908087614321716]}, {"species": [{"element": "Hg", "occu": 1}], "abc": [0.04789767, 0.8775964700000001, 0.25], "properties": {"magmom": 0.108}, "label": "Hg", "xyz": [7.6609603414815775, 2.695606475, 0.35908583934357846]}, {"species": [{"element": "Hg", "occu": 1}], "abc": [0.45210233, 0.37759647, 0.25], "properties": {"magmom": 0.108}, "label": "Hg", "xyz": [3.2962206214815772, 2.695606475, 3.3893829206564217]}, {"species": [{"element": "Hg", "occu": 1}], "abc": [0.95210233, 0.12240353, 0.75], "properties": {"magmom": 0.108}, "label": "Hg", "xyz": [1.0685190985184232, 8.086819425, 7.137851680656422]}, {"species": [{"element": "Hg", "occu": 1}], "abc": [0.54789767, 0.62240353, 0.75], "properties": {"magmom": 0.108}, "label": "Hg", "xyz": [5.433258818518424, 8.086819425, 4.107554599343579]}]}, "task_ids": null, "uncorrected_energy_per_atom": null, "energy_per_atom": -1.619633973125001, "formation_energy_per_atom": -0.272894896250003, "energy_above_hull": 0.0035957093749970004, "is_stable": false, "equilibrium_reaction_energy_per_atom": null, "decomposes_to": null, "xas": null, "grain_boundaries": null, "band_gap": 0.0, "cbm": null, "vbm": null, "efermi": 1.96925659, "is_gap_direct": null, "is_metal": null, "es_source_calc_id": null, "bandstructure": null, "dos": null, "dos_energy_up": null, "dos_energy_down": null, "is_magnetic": null, "ordering": null, "total_magnetization": 0.113299799999999, "total_magnetization_normalized_vol": null, "total_magnetization_normalized_formula_units": null, "num_magnetic_sites": null, "num_unique_magnetic_sites": null, "types_of_magnetic_species": null, "bulk_modulus": null, "shear_modulus": null, "universal_anisotropy": null, "homogeneous_poisson": null, "e_total": null, "e_ionic": null, "e_electronic": null, "n": null, "e_ij_max": null, "weighted_surface_energy_EV_PER_ANG2": null, "weighted_surface_energy": null, "weighted_work_function": null, "surface_anisotropy": null, "shape_factor": null, "has_reconstructed": null, "possible_species": null, "has_props": null, "theoretical": null, "database_IDs": null, "fields_not_requested": ["builder_meta", "nsites", "elements", "nelements", "composition", "composition_reduced", "chemsys", "symmetry", "property_name", "deprecated", "deprecation_reasons", "last_updated", "origins", "warnings", "task_ids", "uncorrected_energy_per_atom", "equilibrium_reaction_energy_per_atom", "decomposes_to", "xas", "grain_boundaries", "cbm", "vbm", "is_gap_direct", "is_metal", "es_source_calc_id", "bandstructure", "dos", "dos_energy_up", "dos_energy_down", "is_magnetic", "ordering", "total_magnetization_normalized_vol", "total_magnetization_normalized_formula_units", "num_magnetic_sites", "num_unique_magnetic_sites", "types_of_magnetic_species", "bulk_modulus", "shear_modulus", "universal_anisotropy", "homogeneous_poisson", "e_total", "e_ionic", "e_electronic", "n", "e_ij_max", "weighted_surface_energy_EV_PER_ANG2", "weighted_surface_energy", "weighted_work_function", "surface_anisotropy", "shape_factor", "has_reconstructed", "possible_species", "has_props", "theoretical", "database_IDs"]}