{"builder_meta": null, "nsites": null, "elements": null, "nelements": null, "composition": null, "composition_reduced": null, "formula_pretty": "Sr3H", "formula_anonymous": "AB3", "chemsys": null, "volume": 357.56126360972263, "density": 2.450841673227326, "density_atomic": 44.69515795121533, "symmetry": null, "property_name": null, "material_id": "mp-1187129", "deprecated": null, "deprecation_reasons": null, "last_updated": null, "origins": null, "warnings": null, "structure": {"@module": "pymatgen.core.structure", "@class": "Structure", "charge": 0, "lattice": {"matrix": [[3.933089, -6.812311, 0.0], [3.933089, 6.812311, 0.0], [0.0, 0.0, 6.672556]], "pbc": [true, true, true], "a": 7.866178884480189, "b": 7.866178884480189, "c": 6.672556, "alpha": 90.0, "beta": 90.0, "gamma": 120.00000743902956, "volume": 357.56126360972263}, "properties": {}, "sites": [{"species": [{"element": "Sr", "occu": 1}], "abc": [0.167136999999999, 0.334273999999999, 0.25], "properties": {"magmom": -0.0}, "label": "Sr", "xyz": [1.9720940885789924, 1.1385892236070003, 1.668139]}, {"species": [{"element": "Sr", "occu": 1}], "abc": [0.665725999999999, 0.832862999999999, 0.25], "properties": {"magmom": 0.0}, "label": "Sr", "xyz": [5.894083911420992, 1.138589223607, 1.668139]}, {"species": [{"element": "Sr", "occu": 1}], "abc": [0.167136999999999, 0.832862999999999, 0.25], "properties": {"magmom": -0.0}, "label": "Sr", "xyz": [3.933088999999992, 4.535132552786001, 1.668139]}, {"species": [{"element": "Sr", "occu": 1}], "abc": [0.832862999999999, 0.665725999999999, 0.75], "properties": {"magmom": -0.0}, "label": "Sr", "xyz": [5.894083911420992, -1.138589223607, 5.004417]}, {"species": [{"element": "Sr", "occu": 1}], "abc": [0.334273999999999, 0.167136999999999, 0.75], "properties": {"magmom": 0.0}, "label": "Sr", "xyz": [1.9720940885789924, -1.1385892236070003, 5.004417]}, {"species": [{"element": "Sr", "occu": 1}], "abc": [0.832862999999999, 0.167136999999999, 0.75], "properties": {"magmom": -0.0}, "label": "Sr", "xyz": [3.933088999999992, -4.535132552786001, 5.004417]}, {"species": [{"element": "H", "occu": 1}], "abc": [0.333333, 0.666667, 0.75], "properties": {"magmom": 0.0}, "label": "H", "xyz": [3.933089, 2.2707748748740006, 5.004417]}, {"species": [{"element": "H", "occu": 1}], "abc": [0.666667, 0.333333, 0.25], "properties": {"magmom": 0.0}, "label": "H", "xyz": [3.933089, -2.2707748748740006, 1.668139]}]}, "task_ids": null, "uncorrected_energy_per_atom": null, "energy_per_atom": -11.784556181041667, "formation_energy_per_atom": 0.43846772177083004, "energy_above_hull": 0.6813100642708321, "is_stable": false, "equilibrium_reaction_energy_per_atom": null, "decomposes_to": null, "xas": null, "grain_boundaries": null, "band_gap": 0.0, "cbm": null, "vbm": null, "efermi": 1.26621757, "is_gap_direct": null, "is_metal": null, "es_source_calc_id": null, "bandstructure": null, "dos": null, "dos_energy_up": null, "dos_energy_down": null, "is_magnetic": null, "ordering": null, "total_magnetization": 0.007585, "total_magnetization_normalized_vol": null, "total_magnetization_normalized_formula_units": null, "num_magnetic_sites": null, "num_unique_magnetic_sites": null, "types_of_magnetic_species": null, "bulk_modulus": null, "shear_modulus": null, "universal_anisotropy": null, "homogeneous_poisson": null, "e_total": null, "e_ionic": null, "e_electronic": null, "n": null, "e_ij_max": null, "weighted_surface_energy_EV_PER_ANG2": null, "weighted_surface_energy": null, "weighted_work_function": null, "surface_anisotropy": null, "shape_factor": null, "has_reconstructed": null, "possible_species": null, "has_props": null, "theoretical": null, "database_IDs": null, "fields_not_requested": ["builder_meta", "nsites", "elements", "nelements", "composition", "composition_reduced", "chemsys", "symmetry", "property_name", "deprecated", "deprecation_reasons", "last_updated", "origins", "warnings", "task_ids", "uncorrected_energy_per_atom", "equilibrium_reaction_energy_per_atom", "decomposes_to", "xas", "grain_boundaries", "cbm", "vbm", "is_gap_direct", "is_metal", "es_source_calc_id", "bandstructure", "dos", "dos_energy_up", "dos_energy_down", "is_magnetic", "ordering", "total_magnetization_normalized_vol", "total_magnetization_normalized_formula_units", "num_magnetic_sites", "num_unique_magnetic_sites", "types_of_magnetic_species", "bulk_modulus", "shear_modulus", "universal_anisotropy", "homogeneous_poisson", "e_total", "e_ionic", "e_electronic", "n", "e_ij_max", "weighted_surface_energy_EV_PER_ANG2", "weighted_surface_energy", "weighted_work_function", "surface_anisotropy", "shape_factor", "has_reconstructed", "possible_species", "has_props", "theoretical", "database_IDs"]}