{
  "builder_meta": null,
  "nsites": null,
  "elements": null,
  "nelements": null,
  "composition": null,
  "composition_reduced": null,
  "formula_pretty": "Sr3Hg2",
  "formula_anonymous": "A2B3",
  "chemsys": null,
  "volume": 365.0052893255554,
  "density": 6.041908947799252,
  "density_atomic": 36.50052893255554,
  "symmetry": null,
  "property_name": null,
  "material_id": "mp-13427",
  "deprecated": null,
  "deprecation_reasons": null,
  "last_updated": null,
  "origins": null,
  "warnings": null,
  "structure": {
    "@module": "pymatgen.core.structure",
    "@class": "Structure",
    "charge": 0,
    "lattice": {
      "matrix": [
        [4.49416387, -0.0, -0.0],
        [0.0, 9.01208184, 0.0],
        [-0.0, -0.0, 9.01208184]
      ],
      "pbc": [true, true, true],
      "a": 4.49416387,
      "b": 9.01208184,
      "c": 9.01208184,
      "alpha": 90.0,
      "beta": 90.0,
      "gamma": 90.0,
      "volume": 365.0052893255554
    },
    "properties": {},
    "sites": [
      {
        "species": [{ "element": "Sr", "occu": 1 }],
        "abc": [0.0, 0.5, 0.5],
        "properties": { "magmom": -0.019 },
        "label": "Sr",
        "xyz": [0.0, 4.50604092, 4.50604092]
      },
      {
        "species": [{ "element": "Sr", "occu": 1 }],
        "abc": [0.0, 0.0, -0.0],
        "properties": { "magmom": -0.019 },
        "label": "Sr",
        "xyz": [0.0, 0.0, 0.0]
      },
      {
        "species": [{ "element": "Sr", "occu": 1 }],
        "abc": [0.5, 0.84727239, 0.34727239],
        "properties": { "magmom": -0.019 },
        "label": "Sr",
        "xyz": [2.247081935, 7.635688119452398, 3.1296471994523976]
      },
      {
        "species": [{ "element": "Sr", "occu": 1 }],
        "abc": [0.5, 0.65272761, 0.84727239],
        "properties": { "magmom": -0.019 },
        "label": "Sr",
        "xyz": [2.247081935, 5.8824346405476025, 7.635688119452398]
      },
      {
        "species": [{ "element": "Sr", "occu": 1 }],
        "abc": [0.5, 0.15272761, 0.65272761],
        "properties": { "magmom": -0.019 },
        "label": "Sr",
        "xyz": [2.247081935, 1.3763937205476027, 5.8824346405476025]
      },
      {
        "species": [{ "element": "Sr", "occu": 1 }],
        "abc": [0.5, 0.34727239, 0.15272761],
        "properties": { "magmom": -0.019 },
        "label": "Sr",
        "xyz": [2.247081935, 3.1296471994523976, 1.3763937205476027]
      },
      {
        "species": [{ "element": "Hg", "occu": 1 }],
        "abc": [-0.0, 0.64322522, 0.14322522000000001],
        "properties": { "magmom": -0.025 },
        "label": "Hg",
        "xyz": [0.0, 5.796798324192006, 1.290757404192005]
      },
      {
        "species": [{ "element": "Hg", "occu": 1 }],
        "abc": [-0.0, 0.8567747800000001, 0.64322522],
        "properties": { "magmom": -0.025 },
        "label": "Hg",
        "xyz": [0.0, 7.721324435807996, 5.796798324192006]
      },
      {
        "species": [{ "element": "Hg", "occu": 1 }],
        "abc": [0.0, 0.14322522000000001, 0.35677478],
        "properties": { "magmom": -0.025 },
        "label": "Hg",
        "xyz": [0.0, 1.290757404192005, 3.2152835158079953]
      },
      {
        "species": [{ "element": "Hg", "occu": 1 }],
        "abc": [0.0, 0.35677478, 0.8567747800000001],
        "properties": { "magmom": -0.025 },
        "label": "Hg",
        "xyz": [0.0, 3.2152835158079953, 7.721324435807996]
      }
    ]
  },
  "task_ids": null,
  "uncorrected_energy_per_atom": null,
  "energy_per_atom": -1.581710637999998,
  "formation_energy_per_atom": -0.442384969000001,
  "energy_above_hull": 0.0,
  "is_stable": true,
  "equilibrium_reaction_energy_per_atom": null,
  "decomposes_to": null,
  "xas": null,
  "grain_boundaries": null,
  "band_gap": 0.0,
  "cbm": null,
  "vbm": null,
  "efermi": 2.3377136,
  "is_gap_direct": null,
  "is_metal": null,
  "es_source_calc_id": null,
  "bandstructure": null,
  "dos": null,
  "dos_energy_up": null,
  "dos_energy_down": null,
  "is_magnetic": null,
  "ordering": null,
  "total_magnetization": 0.8823481,
  "total_magnetization_normalized_vol": null,
  "total_magnetization_normalized_formula_units": null,
  "num_magnetic_sites": null,
  "num_unique_magnetic_sites": null,
  "types_of_magnetic_species": null,
  "bulk_modulus": null,
  "shear_modulus": null,
  "universal_anisotropy": null,
  "homogeneous_poisson": null,
  "e_total": null,
  "e_ionic": null,
  "e_electronic": null,
  "n": null,
  "e_ij_max": null,
  "weighted_surface_energy_EV_PER_ANG2": null,
  "weighted_surface_energy": null,
  "weighted_work_function": null,
  "surface_anisotropy": null,
  "shape_factor": null,
  "has_reconstructed": null,
  "possible_species": null,
  "has_props": null,
  "theoretical": null,
  "database_IDs": null,
  "fields_not_requested": [
    "builder_meta",
    "nsites",
    "elements",
    "nelements",
    "composition",
    "composition_reduced",
    "chemsys",
    "symmetry",
    "property_name",
    "deprecated",
    "deprecation_reasons",
    "last_updated",
    "origins",
    "warnings",
    "task_ids",
    "uncorrected_energy_per_atom",
    "equilibrium_reaction_energy_per_atom",
    "decomposes_to",
    "xas",
    "grain_boundaries",
    "cbm",
    "vbm",
    "is_gap_direct",
    "is_metal",
    "es_source_calc_id",
    "bandstructure",
    "dos",
    "dos_energy_up",
    "dos_energy_down",
    "is_magnetic",
    "ordering",
    "total_magnetization_normalized_vol",
    "total_magnetization_normalized_formula_units",
    "num_magnetic_sites",
    "num_unique_magnetic_sites",
    "types_of_magnetic_species",
    "bulk_modulus",
    "shear_modulus",
    "universal_anisotropy",
    "homogeneous_poisson",
    "e_total",
    "e_ionic",
    "e_electronic",
    "n",
    "e_ij_max",
    "weighted_surface_energy_EV_PER_ANG2",
    "weighted_surface_energy",
    "weighted_work_function",
    "surface_anisotropy",
    "shape_factor",
    "has_reconstructed",
    "possible_species",
    "has_props",
    "theoretical",
    "database_IDs"
  ]
}
