{
  "builder_meta": null,
  "nsites": null,
  "elements": null,
  "nelements": null,
  "composition": null,
  "composition_reduced": null,
  "formula_pretty": "Sr3Li",
  "formula_anonymous": "AB3",
  "chemsys": null,
  "volume": 376.0450393521323,
  "density": 2.382773624561609,
  "density_atomic": 47.005629919016535,
  "symmetry": null,
  "property_name": null,
  "material_id": "mp-1187126",
  "deprecated": null,
  "deprecation_reasons": null,
  "last_updated": null,
  "origins": null,
  "warnings": null,
  "structure": {
    "@module": "pymatgen.core.structure",
    "@class": "Structure",
    "charge": 0,
    "lattice": {
      "matrix": [
        [4.0565, -7.026064, 0.0],
        [4.0565, 7.026064, 0.0],
        [0.0, 0.0, 6.596997]
      ],
      "pbc": [true, true, true],
      "a": 8.112999912615308,
      "b": 8.112999912615308,
      "c": 6.596997,
      "alpha": 90.0,
      "beta": 90.0,
      "gamma": 119.9999992873999,
      "volume": 376.0450393521323
    },
    "properties": {},
    "sites": [
      {
        "species": [{ "element": "Sr", "occu": 1 }],
        "abc": [0.169759, 0.339518, 0.25],
        "properties": { "magmom": 0.002 },
        "label": "Sr",
        "xyz": [2.0658821505, 1.192737598576, 1.64924925]
      },
      {
        "species": [{ "element": "Sr", "occu": 1 }],
        "abc": [0.660482, 0.830241, 0.25],
        "properties": { "magmom": 0.002 },
        "label": "Sr",
        "xyz": [6.047117849499999, 1.1927375985760005, 1.64924925]
      },
      {
        "species": [{ "element": "Sr", "occu": 1 }],
        "abc": [0.169759, 0.830241, 0.25],
        "properties": { "magmom": 0.002 },
        "label": "Sr",
        "xyz": [4.0565, 4.640588802848001, 1.64924925]
      },
      {
        "species": [{ "element": "Sr", "occu": 1 }],
        "abc": [0.830241, 0.660482, 0.75],
        "properties": { "magmom": 0.002 },
        "label": "Sr",
        "xyz": [6.047117849499999, -1.1927375985760005, 4.9477477499999996]
      },
      {
        "species": [{ "element": "Sr", "occu": 1 }],
        "abc": [0.339518, 0.169759, 0.75],
        "properties": { "magmom": 0.002 },
        "label": "Sr",
        "xyz": [2.0658821505, -1.192737598576, 4.9477477499999996]
      },
      {
        "species": [{ "element": "Sr", "occu": 1 }],
        "abc": [0.830241, 0.169759, 0.75],
        "properties": { "magmom": 0.002 },
        "label": "Sr",
        "xyz": [4.0565, -4.640588802848001, 4.9477477499999996]
      },
      {
        "species": [{ "element": "Li", "occu": 1 }],
        "abc": [0.333333, 0.666667, 0.75],
        "properties": { "magmom": 0.001 },
        "label": "Li",
        "xyz": [4.0565, 2.342026017376, 4.9477477499999996]
      },
      {
        "species": [{ "element": "Li", "occu": 1 }],
        "abc": [0.666667, 0.333333, 0.25],
        "properties": { "magmom": 0.001 },
        "label": "Li",
        "xyz": [4.0565, -2.342026017376, 1.64924925]
      }
    ]
  },
  "task_ids": null,
  "uncorrected_energy_per_atom": null,
  "energy_per_atom": -11.883916135416666,
  "formation_energy_per_atom": 0.072006270416666,
  "energy_above_hull": 0.072006270416666,
  "is_stable": false,
  "equilibrium_reaction_energy_per_atom": null,
  "decomposes_to": null,
  "xas": null,
  "grain_boundaries": null,
  "band_gap": 0.0,
  "cbm": null,
  "vbm": null,
  "efermi": 1.23359947,
  "is_gap_direct": null,
  "is_metal": null,
  "es_source_calc_id": null,
  "bandstructure": null,
  "dos": null,
  "dos_energy_up": null,
  "dos_energy_down": null,
  "is_magnetic": null,
  "ordering": null,
  "total_magnetization": 0.104913899999999,
  "total_magnetization_normalized_vol": null,
  "total_magnetization_normalized_formula_units": null,
  "num_magnetic_sites": null,
  "num_unique_magnetic_sites": null,
  "types_of_magnetic_species": null,
  "bulk_modulus": null,
  "shear_modulus": null,
  "universal_anisotropy": null,
  "homogeneous_poisson": null,
  "e_total": null,
  "e_ionic": null,
  "e_electronic": null,
  "n": null,
  "e_ij_max": null,
  "weighted_surface_energy_EV_PER_ANG2": null,
  "weighted_surface_energy": null,
  "weighted_work_function": null,
  "surface_anisotropy": null,
  "shape_factor": null,
  "has_reconstructed": null,
  "possible_species": null,
  "has_props": null,
  "theoretical": null,
  "database_IDs": null,
  "fields_not_requested": [
    "builder_meta",
    "nsites",
    "elements",
    "nelements",
    "composition",
    "composition_reduced",
    "chemsys",
    "symmetry",
    "property_name",
    "deprecated",
    "deprecation_reasons",
    "last_updated",
    "origins",
    "warnings",
    "task_ids",
    "uncorrected_energy_per_atom",
    "equilibrium_reaction_energy_per_atom",
    "decomposes_to",
    "xas",
    "grain_boundaries",
    "cbm",
    "vbm",
    "is_gap_direct",
    "is_metal",
    "es_source_calc_id",
    "bandstructure",
    "dos",
    "dos_energy_up",
    "dos_energy_down",
    "is_magnetic",
    "ordering",
    "total_magnetization_normalized_vol",
    "total_magnetization_normalized_formula_units",
    "num_magnetic_sites",
    "num_unique_magnetic_sites",
    "types_of_magnetic_species",
    "bulk_modulus",
    "shear_modulus",
    "universal_anisotropy",
    "homogeneous_poisson",
    "e_total",
    "e_ionic",
    "e_electronic",
    "n",
    "e_ij_max",
    "weighted_surface_energy_EV_PER_ANG2",
    "weighted_surface_energy",
    "weighted_work_function",
    "surface_anisotropy",
    "shape_factor",
    "has_reconstructed",
    "possible_species",
    "has_props",
    "theoretical",
    "database_IDs"
  ]
}
