{"builder_meta": null, "nsites": null, "elements": null, "nelements": null, "composition": null, "composition_reduced": null, "formula_pretty": "Sr3Li2", "formula_anonymous": "A2B3", "chemsys": null, "volume": 843.5533629319417, "density": 2.1790721135734152, "density_atomic": 42.177668146597085, "symmetry": null, "property_name": null, "material_id": "mp-7507", "deprecated": null, "deprecation_reasons": null, "last_updated": null, "origins": null, "warnings": null, "structure": {"@module": "pymatgen.core.structure", "@class": "Structure", "charge": 0, "lattice": {"matrix": [[8.78108905, 1.06e-06, 1.06e-06], [1.06e-06, 9.80126406, 0.0], [1.06e-06, 0.0, 9.80126406]], "pbc": [true, true, true], "a": 8.781089050000128, "b": 9.801264060000056, "c": 9.801264060000056, "alpha": 89.99999999999933, "beta": 89.99998688710042, "gamma": 89.99998688710042, "volume": 843.5533629319417}, "properties": {}, "sites": [{"species": [{"element": "Sr", "occu": 1}], "abc": [-0.0, 0.15031457, 0.84968543], "properties": {"magmom": -0.0}, "label": "Sr", "xyz": [1.06e-06, 1.4732727926353542, 8.327991267364645]}, {"species": [{"element": "Sr", "occu": 1}], "abc": [0.5, 0.65031457, 0.65031457], "properties": {"magmom": -0.0}, "label": "Sr", "xyz": [4.390545903666889, 6.373905352635354, 6.373905352635354]}, {"species": [{"element": "Sr", "occu": 1}], "abc": [0.5, 0.34968543, 0.34968543], "properties": {"magmom": -0.0}, "label": "Sr", "xyz": [4.390545266333112, 3.4273597673646456, 3.4273597673646456]}, {"species": [{"element": "Sr", "occu": 1}], "abc": [0.0, 0.84968543, 0.15031457], "properties": {"magmom": -0.0}, "label": "Sr", "xyz": [1.06e-06, 8.327991267364645, 1.4732727926353542]}, {"species": [{"element": "Sr", "occu": 1}], "abc": [0.0, 0.71167905, 0.71167905], "properties": {"magmom": 0.0}, "label": "Sr", "xyz": [1.508759586e-06, 6.975354295019942, 6.975354295019942]}, {"species": [{"element": "Sr", "occu": 1}], "abc": [0.5, 0.78831995, 0.21168005], "properties": {"magmom": 0.0}, "label": "Sr", "xyz": [4.390545585, 7.7265325237159965, 2.0747325962840026]}, {"species": [{"element": "Sr", "occu": 1}], "abc": [0.5, 0.21168005, 0.78831995], "properties": {"magmom": 0.0}, "label": "Sr", "xyz": [4.390545585, 2.0747325962840026, 7.7265325237159965]}, {"species": [{"element": "Sr", "occu": 1}], "abc": [-0.0, 0.28832095, 0.28832095], "properties": {"magmom": 0.0}, "label": "Sr", "xyz": [6.11240414e-07, 2.825909764980057, 2.825909764980057]}, {"species": [{"element": "Sr", "occu": 1}], "abc": [0.750000999999999, 0.5, 0.0], "properties": {"magmom": 0.0}, "label": "Sr", "xyz": [6.585826098589042, 4.900632825001059, 7.95001059999999e-07]}, {"species": [{"element": "Sr", "occu": 1}], "abc": [0.249999, 0.5, 0.0], "properties": {"magmom": 0.0}, "label": "Sr", "xyz": [2.19526401141095, 4.90063229499894, 2.6499894e-07]}, {"species": [{"element": "Sr", "occu": 1}], "abc": [0.750000999999999, 0.0, 0.5], "properties": {"magmom": 0.0}, "label": "Sr", "xyz": [6.585826098589042, 7.95001059999999e-07, 4.900632825001059]}, {"species": [{"element": "Sr", "occu": 1}], "abc": [0.249999, 0.0, 0.5], "properties": {"magmom": 0.0}, "label": "Sr", "xyz": [2.19526401141095, 2.6499894e-07, 4.90063229499894]}, {"species": [{"element": "Li", "occu": 1}], "abc": [0.68012066, 0.88741305, 0.88741305], "properties": {"magmom": 0.0}, "label": "Li", "xyz": [5.97220196152044, 8.697770354267881, 8.697770354267881]}, {"species": [{"element": "Li", "occu": 1}], "abc": [0.68012066, 0.11258695, 0.11258695], "properties": {"magmom": 0.0}, "label": "Li", "xyz": [5.972200318889108, 1.1034951475879167, 1.1034951475879167]}, {"species": [{"element": "Li", "occu": 1}], "abc": [0.18012066000000002, 0.38741305, 0.61258695], "properties": {"magmom": 0.0}, "label": "Li", "xyz": [1.5816566152047733, 3.7971377942678823, 6.004126647587915]}, {"species": [{"element": "Li", "occu": 1}], "abc": [0.18012066000000002, 0.61258695, 0.38741305], "properties": {"magmom": 0.0}, "label": "Li", "xyz": [1.5816566152047733, 6.004126647587915, 3.7971377942678823]}, {"species": [{"element": "Li", "occu": 1}], "abc": [0.31987934, 0.88741305, 0.88741305], "properties": {"magmom": 0.0}, "label": "Li", "xyz": [2.808890851110893, 8.697769972412082, 8.697769972412082]}, {"species": [{"element": "Li", "occu": 1}], "abc": [0.8198793400000001, 0.61258695, 0.38741305], "properties": {"magmom": 0.0}, "label": "Li", "xyz": [7.199434554795228, 6.004127325732116, 3.797138472412083]}, {"species": [{"element": "Li", "occu": 1}], "abc": [0.8198793400000001, 0.38741305, 0.61258695], "properties": {"magmom": 0.0}, "label": "Li", "xyz": [7.199434554795228, 3.797138472412083, 6.004127325732116]}, {"species": [{"element": "Li", "occu": 1}], "abc": [0.31987934, 0.11258695, 0.11258695], "properties": {"magmom": 0.0}, "label": "Li", "xyz": [2.808889208479561, 1.1034947657321175, 1.1034947657321175]}]}, "task_ids": null, "uncorrected_energy_per_atom": null, "energy_per_atom": -10.020893492999999, "formation_energy_per_atom": 0.021185714333331003, "energy_above_hull": 0.021185714333334, "is_stable": false, "equilibrium_reaction_energy_per_atom": null, "decomposes_to": null, "xas": null, "grain_boundaries": null, "band_gap": 0.0, "cbm": null, "vbm": null, "efermi": 1.20918597, "is_gap_direct": null, "is_metal": null, "es_source_calc_id": null, "bandstructure": null, "dos": null, "dos_energy_up": null, "dos_energy_down": null, "is_magnetic": null, "ordering": null, "total_magnetization": 4.02e-05, "total_magnetization_normalized_vol": null, "total_magnetization_normalized_formula_units": null, "num_magnetic_sites": null, "num_unique_magnetic_sites": null, "types_of_magnetic_species": null, "bulk_modulus": null, "shear_modulus": null, "universal_anisotropy": null, "homogeneous_poisson": null, "e_total": null, "e_ionic": null, "e_electronic": null, "n": null, "e_ij_max": null, "weighted_surface_energy_EV_PER_ANG2": null, "weighted_surface_energy": null, "weighted_work_function": null, "surface_anisotropy": null, "shape_factor": null, "has_reconstructed": null, "possible_species": null, "has_props": null, "theoretical": null, "database_IDs": null, "fields_not_requested": ["builder_meta", "nsites", "elements", "nelements", "composition", "composition_reduced", "chemsys", "symmetry", "property_name", "deprecated", "deprecation_reasons", "last_updated", "origins", "warnings", "task_ids", "uncorrected_energy_per_atom", "equilibrium_reaction_energy_per_atom", "decomposes_to", "xas", "grain_boundaries", "cbm", "vbm", "is_gap_direct", "is_metal", "es_source_calc_id", "bandstructure", "dos", "dos_energy_up", "dos_energy_down", "is_magnetic", "ordering", "total_magnetization_normalized_vol", "total_magnetization_normalized_formula_units", "num_magnetic_sites", "num_unique_magnetic_sites", "types_of_magnetic_species", "bulk_modulus", "shear_modulus", "universal_anisotropy", "homogeneous_poisson", "e_total", "e_ionic", "e_electronic", "n", "e_ij_max", "weighted_surface_energy_EV_PER_ANG2", "weighted_surface_energy", "weighted_work_function", "surface_anisotropy", "shape_factor", "has_reconstructed", "possible_species", "has_props", "theoretical", "database_IDs"]}