{
  "builder_meta": null,
  "nsites": null,
  "elements": null,
  "nelements": null,
  "composition": null,
  "composition_reduced": null,
  "formula_pretty": "Sr3Mg",
  "formula_anonymous": "AB3",
  "chemsys": null,
  "volume": 186.11695328305333,
  "density": 2.562091699056454,
  "density_atomic": 46.529238320763326,
  "symmetry": null,
  "property_name": null,
  "material_id": "mp-1094297",
  "deprecated": null,
  "deprecation_reasons": null,
  "last_updated": null,
  "origins": null,
  "warnings": null,
  "structure": {
    "@module": "pymatgen.core.structure",
    "@class": "Structure",
    "charge": 0,
    "lattice": {
      "matrix": [
        [-2.158975, 3.338585, 6.455292],
        [2.158975, -3.338585, 6.455292],
        [2.158975, 3.338585, -6.455292]
      ],
      "pbc": [true, true, true],
      "a": 7.581432427853855,
      "b": 7.581432427853855,
      "c": 7.581432427853855,
      "alpha": 146.90963288602757,
      "beta": 127.74586650948869,
      "gamma": 63.25819241432997,
      "volume": 186.11695328305333
    },
    "properties": {},
    "sites": [
      {
        "species": [{ "element": "Sr", "occu": 1 }],
        "abc": [0.905076, 0.5, 0.405076],
        "properties": { "magmom": 0.0 },
        "label": "Sr",
        "xyz": [-1.1102230246251565e-16, 2.70476131492, 6.455292]
      },
      {
        "species": [{ "element": "Sr", "occu": 1 }],
        "abc": [0.233968999999999, 0.284785, 0.949183999999999],
        "properties": { "magmom": 0.001 },
        "label": "Sr",
        "xyz": [2.158975, 2.9992779292799936, -2.7785513355600004]
      },
      {
        "species": [{ "element": "Sr", "occu": 1 }],
        "abc": [0.664399, 0.715214999999999, 0.949183999999999],
        "properties": { "magmom": 0.001 },
        "label": "Sr",
        "xyz": [2.158974999999996, 2.99927792928, 2.7785513355599996]
      },
      {
        "species": [{ "element": "Mg", "occu": 1 }],
        "abc": [0.363222, 0.0, 0.363222],
        "properties": { "magmom": -0.0 },
        "label": "Mg",
        "xyz": [0.0, 2.42529504174, 0.0]
      }
    ]
  },
  "task_ids": null,
  "uncorrected_energy_per_atom": null,
  "energy_per_atom": -12.372335969166667,
  "formation_energy_per_atom": 0.029235729583332003,
  "energy_above_hull": 0.063046204583333,
  "is_stable": false,
  "equilibrium_reaction_energy_per_atom": null,
  "decomposes_to": null,
  "xas": null,
  "grain_boundaries": null,
  "band_gap": 0.0,
  "cbm": null,
  "vbm": null,
  "efermi": 1.76573398,
  "is_gap_direct": null,
  "is_metal": null,
  "es_source_calc_id": null,
  "bandstructure": null,
  "dos": null,
  "dos_energy_up": null,
  "dos_energy_down": null,
  "is_magnetic": null,
  "ordering": null,
  "total_magnetization": 0.0117079,
  "total_magnetization_normalized_vol": null,
  "total_magnetization_normalized_formula_units": null,
  "num_magnetic_sites": null,
  "num_unique_magnetic_sites": null,
  "types_of_magnetic_species": null,
  "bulk_modulus": null,
  "shear_modulus": null,
  "universal_anisotropy": null,
  "homogeneous_poisson": null,
  "e_total": null,
  "e_ionic": null,
  "e_electronic": null,
  "n": null,
  "e_ij_max": null,
  "weighted_surface_energy_EV_PER_ANG2": null,
  "weighted_surface_energy": null,
  "weighted_work_function": null,
  "surface_anisotropy": null,
  "shape_factor": null,
  "has_reconstructed": null,
  "possible_species": null,
  "has_props": null,
  "theoretical": null,
  "database_IDs": null,
  "fields_not_requested": [
    "builder_meta",
    "nsites",
    "elements",
    "nelements",
    "composition",
    "composition_reduced",
    "chemsys",
    "symmetry",
    "property_name",
    "deprecated",
    "deprecation_reasons",
    "last_updated",
    "origins",
    "warnings",
    "task_ids",
    "uncorrected_energy_per_atom",
    "equilibrium_reaction_energy_per_atom",
    "decomposes_to",
    "xas",
    "grain_boundaries",
    "cbm",
    "vbm",
    "is_gap_direct",
    "is_metal",
    "es_source_calc_id",
    "bandstructure",
    "dos",
    "dos_energy_up",
    "dos_energy_down",
    "is_magnetic",
    "ordering",
    "total_magnetization_normalized_vol",
    "total_magnetization_normalized_formula_units",
    "num_magnetic_sites",
    "num_unique_magnetic_sites",
    "types_of_magnetic_species",
    "bulk_modulus",
    "shear_modulus",
    "universal_anisotropy",
    "homogeneous_poisson",
    "e_total",
    "e_ionic",
    "e_electronic",
    "n",
    "e_ij_max",
    "weighted_surface_energy_EV_PER_ANG2",
    "weighted_surface_energy",
    "weighted_work_function",
    "surface_anisotropy",
    "shape_factor",
    "has_reconstructed",
    "possible_species",
    "has_props",
    "theoretical",
    "database_IDs"
  ]
}
