{
  "builder_meta": null,
  "nsites": null,
  "elements": null,
  "nelements": null,
  "composition": null,
  "composition_reduced": null,
  "formula_pretty": "Sr3N2",
  "formula_anonymous": "A2B3",
  "chemsys": null,
  "volume": 942.3971394064233,
  "density": 4.100238627116327,
  "density_atomic": 23.559928485160583,
  "symmetry": null,
  "property_name": null,
  "material_id": "mp-986716",
  "deprecated": null,
  "deprecation_reasons": null,
  "last_updated": null,
  "origins": null,
  "warnings": null,
  "structure": {
    "@module": "pymatgen.core.structure",
    "@class": "Structure",
    "charge": 0,
    "lattice": {
      "matrix": [
        [-6.176247, 6.176247, 6.176247],
        [6.176247, -6.176247, 6.176247],
        [6.176247, 6.176247, -6.176247]
      ],
      "pbc": [true, true, true],
      "a": 10.697573604094856,
      "b": 10.697573604094856,
      "c": 10.697573604094856,
      "alpha": 109.47122063449069,
      "beta": 109.47122063449069,
      "gamma": 109.47122063449069,
      "volume": 942.3971394064233
    },
    "properties": {},
    "sites": [
      {
        "species": [{ "element": "Sr", "occu": 1 }],
        "abc": [0.539911, 0.266942, 0.9949119999999991],
        "properties": { "magmom": -0.0 },
        "label": "Sr",
        "xyz": [4.458898287920994, 7.830746222606995, -1.1614988345729937]
      },
      {
        "species": [{ "element": "Sr", "occu": 1 }],
        "abc": [0.455001, 0.494911999999999, 0.22797],
        "properties": { "magmom": -0.0 },
        "label": "Sr",
        "xyz": [1.6544992226069943, 1.161498834573006, 4.458898287920993]
      },
      {
        "species": [{ "element": "Sr", "occu": 1 }],
        "abc": [0.766942, 0.227030999999999, 0.27203000000000005],
        "properties": { "magmom": -0.0 },
        "label": "Sr",
        "xyz": [-1.6544992226070059, 5.014748165427006, 4.458898287920993]
      },
      {
        "species": [{ "element": "Sr", "occu": 1 }],
        "abc": [0.227030999999999, 0.27203000000000005, 0.766942],
        "properties": { "magmom": -0.0 },
        "label": "Sr",
        "xyz": [5.014748165427006, 4.458898287920993, -1.6544992226070057]
      },
      {
        "species": [{ "element": "Sr", "occu": 1 }],
        "abc": [0.544999, 0.505088, 0.7720300000000001],
        "properties": { "magmom": -0.0 },
        "label": "Sr",
        "xyz": [4.521747777393001, 5.014748165427001, 1.7173487120789988]
      },
      {
        "species": [{ "element": "Sr", "occu": 1 }],
        "abc": [0.733058, 0.005088, 0.460088999999999],
        "properties": { "magmom": -0.0 },
        "label": "Sr",
        "xyz": [-1.654499222607006, 7.337745834572994, 1.7173487120790067]
      },
      {
        "species": [{ "element": "Sr", "occu": 1 }],
        "abc": [0.039910999999999, 0.044999, 0.272968999999999],
        "properties": { "magmom": -0.0 },
        "label": "Sr",
        "xyz": [1.717348712079, 1.654499222606988, -1.1614988345730002]
      },
      {
        "species": [{ "element": "Sr", "occu": 1 }],
        "abc": [0.044999, 0.272968999999999, 0.039910999999999],
        "properties": { "magmom": -0.0 },
        "label": "Sr",
        "xyz": [1.654499222606988, -1.161498834573, 1.717348712079]
      },
      {
        "species": [{ "element": "Sr", "occu": 1 }],
        "abc": [0.9949119999999991, 0.539911, 0.266942],
        "properties": { "magmom": -0.0 },
        "label": "Sr",
        "xyz": [-1.161498834572994, 4.458898287920994, 7.8307462226069955]
      },
      {
        "species": [{ "element": "Sr", "occu": 1 }],
        "abc": [0.955001, 0.727031, 0.960089],
        "properties": { "magmom": -0.0 },
        "label": "Sr",
        "xyz": [4.521747777393, 7.337745834573, 4.4588982879209995]
      },
      {
        "species": [{ "element": "Sr", "occu": 1 }],
        "abc": [0.494911999999999, 0.22797, 0.455001],
        "properties": { "magmom": -0.0 },
        "label": "Sr",
        "xyz": [1.161498834573006, 4.458898287920993, 1.6544992226069946]
      },
      {
        "species": [{ "element": "Sr", "occu": 1 }],
        "abc": [0.505088, 0.7720300000000001, 0.544999],
        "properties": { "magmom": -0.0 },
        "label": "Sr",
        "xyz": [5.014748165427001, 1.7173487120789992, 4.521747777393]
      },
      {
        "species": [{ "element": "Sr", "occu": 1 }],
        "abc": [0.7720300000000001, 0.544999, 0.505088],
        "properties": { "magmom": -0.0 },
        "label": "Sr",
        "xyz": [1.7173487120789992, 4.521747777393001, 5.014748165427001]
      },
      {
        "species": [{ "element": "Sr", "occu": 1 }],
        "abc": [0.772969, 0.72797, 0.233058],
        "properties": { "magmom": -0.0 },
        "label": "Sr",
        "xyz": [1.1614988345729997, 1.7173487120790003, 7.830746222606999]
      },
      {
        "species": [{ "element": "Sr", "occu": 1 }],
        "abc": [0.233058, 0.772969, 0.72797],
        "properties": { "magmom": -0.0 },
        "label": "Sr",
        "xyz": [7.830746222607, 1.161498834573, 1.7173487120790005]
      },
      {
        "species": [{ "element": "Sr", "occu": 1 }],
        "abc": [0.460088999999999, 0.733058, 0.005088],
        "properties": { "magmom": -0.0 },
        "label": "Sr",
        "xyz": [1.7173487120790065, -1.6544992226070063, 7.337745834572994]
      },
      {
        "species": [{ "element": "Sr", "occu": 1 }],
        "abc": [0.22797, 0.455001, 0.494911999999999],
        "properties": { "magmom": -0.0 },
        "label": "Sr",
        "xyz": [4.458898287920993, 1.6544992226069943, 1.1614988345730057]
      },
      {
        "species": [{ "element": "Sr", "occu": 1 }],
        "abc": [0.27203000000000005, 0.766942, 0.227030999999999],
        "properties": { "magmom": -0.0 },
        "label": "Sr",
        "xyz": [4.458898287920993, -1.6544992226070059, 5.014748165427006]
      },
      {
        "species": [{ "element": "Sr", "occu": 1 }],
        "abc": [0.727031, 0.960089, 0.955001],
        "properties": { "magmom": -0.0 },
        "label": "Sr",
        "xyz": [7.337745834573, 4.4588982879209995, 4.521747777393]
      },
      {
        "species": [{ "element": "Sr", "occu": 1 }],
        "abc": [0.960089, 0.955001, 0.727031],
        "properties": { "magmom": -0.0 },
        "label": "Sr",
        "xyz": [4.4588982879209995, 4.521747777393, 7.337745834573]
      },
      {
        "species": [{ "element": "Sr", "occu": 1 }],
        "abc": [0.266942, 0.9949119999999991, 0.539911],
        "properties": { "magmom": -0.0 },
        "label": "Sr",
        "xyz": [7.8307462226069955, -1.1614988345729942, 4.458898287920993]
      },
      {
        "species": [{ "element": "Sr", "occu": 1 }],
        "abc": [0.272968999999999, 0.039910999999999, 0.044999],
        "properties": { "magmom": -0.0 },
        "label": "Sr",
        "xyz": [-1.1614988345730002, 1.7173487120790003, 1.6544992226069877]
      },
      {
        "species": [{ "element": "Sr", "occu": 1 }],
        "abc": [0.72797, 0.233058, 0.772969],
        "properties": { "magmom": -0.0 },
        "label": "Sr",
        "xyz": [1.7173487120790005, 7.830746222607, 1.161498834573]
      },
      {
        "species": [{ "element": "Sr", "occu": 1 }],
        "abc": [0.005088, 0.460088999999999, 0.733058],
        "properties": { "magmom": -0.0 },
        "label": "Sr",
        "xyz": [7.337745834572994, 1.7173487120790063, -1.6544992226070065]
      },
      {
        "species": [{ "element": "N", "occu": 1 }],
        "abc": [0.75, 0.955565, 0.205565],
        "properties": { "magmom": 0.0 },
        "label": "N",
        "xyz": [2.5392404291100004, -2.220446049250313e-16, 9.2643705]
      },
      {
        "species": [{ "element": "N", "occu": 1 }],
        "abc": [0.455565, 0.705565, 0.75],
        "properties": { "magmom": 0.0 },
        "label": "N",
        "xyz": [6.176247, 3.0881235, 2.5392404291100004]
      },
      {
        "species": [{ "element": "N", "occu": 1 }],
        "abc": [0.794435, 0.25, 0.044434999999999],
        "properties": { "magmom": 0.0 },
        "label": "N",
        "xyz": [-3.0881235000000062, 3.6370065708899935, 6.176247000000006]
      },
      {
        "species": [{ "element": "N", "occu": 1 }],
        "abc": [0.205565, 0.75, 0.955565],
        "properties": { "magmom": 0.0 },
        "label": "N",
        "xyz": [9.2643705, 2.5392404291100004, 0.0]
      },
      {
        "species": [{ "element": "N", "occu": 1 }],
        "abc": [0.25, 0.544435, 0.294435],
        "properties": { "magmom": 0.0 },
        "label": "N",
        "xyz": [3.6370065708899997, 2.220446049250313e-16, 3.0881235]
      },
      {
        "species": [{ "element": "N", "occu": 1 }],
        "abc": [0.25, 0.044434999999999, 0.794435],
        "properties": { "magmom": 0.0 },
        "label": "N",
        "xyz": [3.6370065708899935, 6.176247000000006, -3.0881235000000062]
      },
      {
        "species": [{ "element": "N", "occu": 1 }],
        "abc": [0.75, 0.455565, 0.705565],
        "properties": { "magmom": 0.0 },
        "label": "N",
        "xyz": [2.5392404291100004, 6.176247, 3.0881235]
      },
      {
        "species": [{ "element": "N", "occu": 1 }],
        "abc": [0.294435, 0.25, 0.544435],
        "properties": { "magmom": 0.0 },
        "label": "N",
        "xyz": [3.0881235, 3.6370065708899997, 0.0]
      },
      {
        "species": [{ "element": "N", "occu": 1 }],
        "abc": [0.955565, 0.205565, 0.75],
        "properties": { "magmom": 0.0 },
        "label": "N",
        "xyz": [0.0, 9.2643705, 2.5392404291100004]
      },
      {
        "species": [{ "element": "N", "occu": 1 }],
        "abc": [0.705565, 0.75, 0.455565],
        "properties": { "magmom": 0.0 },
        "label": "N",
        "xyz": [3.0881235, 2.5392404291100004, 6.176247]
      },
      {
        "species": [{ "element": "N", "occu": 1 }],
        "abc": [0.5, 0.5, 0.0],
        "properties": { "magmom": -0.0 },
        "label": "N",
        "xyz": [0.0, 0.0, 6.176247]
      },
      {
        "species": [{ "element": "N", "occu": 1 }],
        "abc": [0.5, 0.0, 0.5],
        "properties": { "magmom": -0.0 },
        "label": "N",
        "xyz": [0.0, 6.176247, 0.0]
      },
      {
        "species": [{ "element": "N", "occu": 1 }],
        "abc": [0.544435, 0.294435, 0.25],
        "properties": { "magmom": 0.0 },
        "label": "N",
        "xyz": [2.220446049250313e-16, 3.0881235, 3.6370065708899997]
      },
      {
        "species": [{ "element": "N", "occu": 1 }],
        "abc": [0.044434999999999, 0.794435, 0.25],
        "properties": { "magmom": 0.0 },
        "label": "N",
        "xyz": [6.176247000000006, -3.0881235000000062, 3.6370065708899935]
      },
      {
        "species": [{ "element": "N", "occu": 1 }],
        "abc": [0.0, 0.0, 0.0],
        "properties": { "magmom": -0.0 },
        "label": "N",
        "xyz": [0.0, 0.0, 0.0]
      },
      {
        "species": [{ "element": "N", "occu": 1 }],
        "abc": [0.0, 0.5, 0.5],
        "properties": { "magmom": -0.0 },
        "label": "N",
        "xyz": [6.176247, 0.0, 0.0]
      }
    ]
  },
  "task_ids": null,
  "uncorrected_energy_per_atom": null,
  "energy_per_atom": -13.378548142,
  "formation_energy_per_atom": -0.6396512315,
  "energy_above_hull": 0.031059600000000003,
  "is_stable": false,
  "equilibrium_reaction_energy_per_atom": null,
  "decomposes_to": null,
  "xas": null,
  "grain_boundaries": null,
  "band_gap": 0.3481,
  "cbm": null,
  "vbm": null,
  "efermi": 2.1160501,
  "is_gap_direct": null,
  "is_metal": null,
  "es_source_calc_id": null,
  "bandstructure": null,
  "dos": null,
  "dos_energy_up": null,
  "dos_energy_down": null,
  "is_magnetic": null,
  "ordering": null,
  "total_magnetization": 0.0214156,
  "total_magnetization_normalized_vol": null,
  "total_magnetization_normalized_formula_units": null,
  "num_magnetic_sites": null,
  "num_unique_magnetic_sites": null,
  "types_of_magnetic_species": null,
  "bulk_modulus": null,
  "shear_modulus": null,
  "universal_anisotropy": null,
  "homogeneous_poisson": null,
  "e_total": null,
  "e_ionic": null,
  "e_electronic": null,
  "n": null,
  "e_ij_max": null,
  "weighted_surface_energy_EV_PER_ANG2": null,
  "weighted_surface_energy": null,
  "weighted_work_function": null,
  "surface_anisotropy": null,
  "shape_factor": null,
  "has_reconstructed": null,
  "possible_species": null,
  "has_props": null,
  "theoretical": null,
  "database_IDs": null,
  "fields_not_requested": [
    "builder_meta",
    "nsites",
    "elements",
    "nelements",
    "composition",
    "composition_reduced",
    "chemsys",
    "symmetry",
    "property_name",
    "deprecated",
    "deprecation_reasons",
    "last_updated",
    "origins",
    "warnings",
    "task_ids",
    "uncorrected_energy_per_atom",
    "equilibrium_reaction_energy_per_atom",
    "decomposes_to",
    "xas",
    "grain_boundaries",
    "cbm",
    "vbm",
    "is_gap_direct",
    "is_metal",
    "es_source_calc_id",
    "bandstructure",
    "dos",
    "dos_energy_up",
    "dos_energy_down",
    "is_magnetic",
    "ordering",
    "total_magnetization_normalized_vol",
    "total_magnetization_normalized_formula_units",
    "num_magnetic_sites",
    "num_unique_magnetic_sites",
    "types_of_magnetic_species",
    "bulk_modulus",
    "shear_modulus",
    "universal_anisotropy",
    "homogeneous_poisson",
    "e_total",
    "e_ionic",
    "e_electronic",
    "n",
    "e_ij_max",
    "weighted_surface_energy_EV_PER_ANG2",
    "weighted_surface_energy",
    "weighted_work_function",
    "surface_anisotropy",
    "shape_factor",
    "has_reconstructed",
    "possible_species",
    "has_props",
    "theoretical",
    "database_IDs"
  ]
}
