{
  "builder_meta": null,
  "nsites": null,
  "elements": null,
  "nelements": null,
  "composition": null,
  "composition_reduced": null,
  "formula_pretty": "Sr3Pt2",
  "formula_anonymous": "A2B3",
  "chemsys": null,
  "volume": 449.2962561141631,
  "density": 7.240513297142619,
  "density_atomic": 29.953083740944205,
  "symmetry": null,
  "property_name": null,
  "material_id": "mp-1104074",
  "deprecated": null,
  "deprecation_reasons": null,
  "last_updated": null,
  "origins": null,
  "warnings": null,
  "structure": {
    "@module": "pymatgen.core.structure",
    "@class": "Structure",
    "charge": 0,
    "lattice": {
      "matrix": [
        [4.68396259, 2.70435355, 5.91166759],
        [-4.68402121, 2.70425249, 5.91166759],
        [5.7590000000000016e-5, -5.40860706, 5.9116675999999995]
      ],
      "pbc": [true, true, true],
      "a": 8.01254312703361,
      "b": 8.01254328662613,
      "c": 8.012542926293012,
      "alpha": 71.54697479130391,
      "beta": 71.54698108245677,
      "gamma": 71.5469907880503,
      "volume": 449.29625611416304
    },
    "properties": {},
    "sites": [
      {
        "species": [{ "element": "Sr", "occu": 1 }],
        "abc": [0.0, -0.0, -0.0],
        "properties": { "magmom": 0.0 },
        "label": "Sr",
        "xyz": [0.0, 0.0, 0.0]
      },
      {
        "species": [{ "element": "Sr", "occu": 1 }],
        "abc": [0.79788505, 0.79788505, 0.79788505],
        "properties": { "magmom": 0.0 },
        "label": "Sr",
        "xyz": [
          -8.218216017805716e-7, -8.138427514126079e-7, 14.150493579870439
        ]
      },
      {
        "species": [{ "element": "Sr", "occu": 1 }],
        "abc": [0.20211495000000002, 0.20211495000000002, 0.20211495000000002],
        "properties": { "magmom": 0.0 },
        "label": "Sr",
        "xyz": [
          -2.0817839845068057e-7, -2.061572490497099e-7, 3.5845092001295615
        ]
      },
      {
        "species": [{ "element": "Sr", "occu": 1 }],
        "abc": [0.6098503200000001, 0.32679568000000003, 0.8443128],
        "properties": { "magmom": -0.0 },
        "label": "Sr",
        "xyz": [1.3258468118973081, -2.033567261706488, 10.52843642552842]
      },
      {
        "species": [{ "element": "Sr", "occu": 1 }],
        "abc": [0.32679568000000003, 0.8443128, 0.6098503200000001],
        "properties": { "magmom": -0.0 },
        "label": "Sr",
        "xyz": [-2.424045202100948, -0.13143469722372325, 10.528436423183795]
      },
      {
        "species": [{ "element": "Sr", "occu": 1 }],
        "abc": [0.8443128, 0.6098503200000001, 0.32679568000000003],
        "properties": { "magmom": -0.0 },
        "label": "Sr",
        "xyz": [1.0981965558160758, 2.1650001423522363, 10.52843642035325]
      },
      {
        "species": [{ "element": "Sr", "occu": 1 }],
        "abc": [0.39014968, 0.67320432, 0.1556872],
        "properties": { "magmom": -0.0 },
        "label": "Sr",
        "xyz": [-1.325847841897308, 2.033566241706489, 7.20656635447158]
      },
      {
        "species": [{ "element": "Sr", "occu": 1 }],
        "abc": [0.67320432, 0.1556872, 0.39014968],
        "properties": { "magmom": -0.0 },
        "label": "Sr",
        "xyz": [2.424044172100948, 0.13143367722372323, 7.2065663568162055]
      },
      {
        "species": [{ "element": "Sr", "occu": 1 }],
        "abc": [0.1556872, 0.39014968, 0.67320432],
        "properties": { "magmom": -0.0 },
        "label": "Sr",
        "xyz": [-1.098197585816076, -2.165001162352236, 7.206566359646751]
      },
      {
        "species": [{ "element": "Pt", "occu": 1 }],
        "abc": [0.9598640700000001, 0.14775056, 0.58676151],
        "properties": { "magmom": -0.0 },
        "label": "Pt",
        "xyz": [3.8039344301311253, -0.17819582052141758, 10.016588517974919]
      },
      {
        "species": [{ "element": "Pt", "occu": 1 }],
        "abc": [0.14775056, 0.58676151, 0.9598640700000001],
        "properties": { "magmom": -0.0 },
        "label": "Pt",
        "xyz": [-2.0562899837882855, -3.2052065597381865, 10.016588521705943]
      },
      {
        "species": [{ "element": "Pt", "occu": 1 }],
        "abc": [0.58676151, 0.9598640700000001, 0.14775056],
        "properties": { "magmom": -0.0 },
        "label": "Pt",
        "xyz": [-1.747646191550264, 3.3834006519959416, 10.01658851358481]
      },
      {
        "species": [{ "element": "Pt", "occu": 1 }],
        "abc": [0.04013593, 0.85224944, 0.41323849],
        "properties": { "magmom": -0.0 },
        "label": "Pt",
        "xyz": [-3.803935460131125, 0.178194800521418, 7.7184142620250835]
      },
      {
        "species": [{ "element": "Pt", "occu": 1 }],
        "abc": [0.85224944, 0.41323849, 0.04013593],
        "properties": { "magmom": -0.0 },
        "label": "Pt",
        "xyz": [2.0562889537882856, 3.2052055397381864, 7.718414258294057]
      },
      {
        "species": [{ "element": "Pt", "occu": 1 }],
        "abc": [0.41323849, 0.04013593, 0.85224944],
        "properties": { "magmom": -0.0 },
        "label": "Pt",
        "xyz": [1.7476451615502635, -3.3834016719959408, 7.718414266415192]
      }
    ]
  },
  "task_ids": null,
  "uncorrected_energy_per_atom": null,
  "energy_per_atom": -30.470795022666668,
  "formation_energy_per_atom": -0.788311620666668,
  "energy_above_hull": 0.0,
  "is_stable": true,
  "equilibrium_reaction_energy_per_atom": null,
  "decomposes_to": null,
  "xas": null,
  "grain_boundaries": null,
  "band_gap": 0.0,
  "cbm": null,
  "vbm": null,
  "efermi": 3.13665307,
  "is_gap_direct": null,
  "is_metal": null,
  "es_source_calc_id": null,
  "bandstructure": null,
  "dos": null,
  "dos_energy_up": null,
  "dos_energy_down": null,
  "is_magnetic": null,
  "ordering": null,
  "total_magnetization": 6e-7,
  "total_magnetization_normalized_vol": null,
  "total_magnetization_normalized_formula_units": null,
  "num_magnetic_sites": null,
  "num_unique_magnetic_sites": null,
  "types_of_magnetic_species": null,
  "bulk_modulus": null,
  "shear_modulus": null,
  "universal_anisotropy": null,
  "homogeneous_poisson": null,
  "e_total": null,
  "e_ionic": null,
  "e_electronic": null,
  "n": null,
  "e_ij_max": null,
  "weighted_surface_energy_EV_PER_ANG2": null,
  "weighted_surface_energy": null,
  "weighted_work_function": null,
  "surface_anisotropy": null,
  "shape_factor": null,
  "has_reconstructed": null,
  "possible_species": null,
  "has_props": null,
  "theoretical": null,
  "database_IDs": null,
  "fields_not_requested": [
    "builder_meta",
    "nsites",
    "elements",
    "nelements",
    "composition",
    "composition_reduced",
    "chemsys",
    "symmetry",
    "property_name",
    "deprecated",
    "deprecation_reasons",
    "last_updated",
    "origins",
    "warnings",
    "task_ids",
    "uncorrected_energy_per_atom",
    "equilibrium_reaction_energy_per_atom",
    "decomposes_to",
    "xas",
    "grain_boundaries",
    "cbm",
    "vbm",
    "is_gap_direct",
    "is_metal",
    "es_source_calc_id",
    "bandstructure",
    "dos",
    "dos_energy_up",
    "dos_energy_down",
    "is_magnetic",
    "ordering",
    "total_magnetization_normalized_vol",
    "total_magnetization_normalized_formula_units",
    "num_magnetic_sites",
    "num_unique_magnetic_sites",
    "types_of_magnetic_species",
    "bulk_modulus",
    "shear_modulus",
    "universal_anisotropy",
    "homogeneous_poisson",
    "e_total",
    "e_ionic",
    "e_electronic",
    "n",
    "e_ij_max",
    "weighted_surface_energy_EV_PER_ANG2",
    "weighted_surface_energy",
    "weighted_work_function",
    "surface_anisotropy",
    "shape_factor",
    "has_reconstructed",
    "possible_species",
    "has_props",
    "theoretical",
    "database_IDs"
  ]
}
