{"builder_meta": null, "nsites": null, "elements": null, "nelements": null, "composition": null, "composition_reduced": null, "formula_pretty": "Sr3P4", "formula_anonymous": "A3B4", "chemsys": null, "volume": 366.17862612291646, "density": 3.5076971761491142, "density_atomic": 26.155616151636888, "symmetry": null, "property_name": null, "material_id": "mp-14288", "deprecated": null, "deprecation_reasons": null, "last_updated": null, "origins": null, "warnings": null, "structure": {"@module": "pymatgen.core.structure", "@class": "Structure", "charge": 0, "lattice": {"matrix": [[5.5614427200000005, 0.0, 1.86928712], [2.78071107, 7.16239717, 0.93467489], [0.004521, 3.983e-05, 9.19430499]], "pbc": [true, true, true], "a": 5.867186673767837, "b": 7.739890465997634, "c": 9.19430610161345, "alpha": 83.05356389976396, "beta": 71.39353184201397, "gamma": 67.72684535741838, "volume": 366.17862612291657}, "properties": {}, "sites": [{"species": [{"element": "Sr", "occu": 1}], "abc": [0.58216331, 0.99571504, 0.33670022], "properties": {"magmom": 0.0}, "label": "Sr", "xyz": [6.0079859582387165, 7.131719995392199, 5.1146247354830106]}, {"species": [{"element": "Sr", "occu": 1}], "abc": [0.9145775700000001, 0.00428496, 0.66329978], "properties": {"magmom": 0.0}, "label": "Sr", "xyz": [5.1012847825636785, 0.0307170046078006, 7.8121935934784545]}, {"species": [{"element": "Sr", "occu": 1}], "abc": [0.32785171, 0.5042813700000001, 0.8367168500000001], "properties": {"magmom": -0.0}, "label": "Sr", "xyz": [3.2293720906516676, 3.6118967838038594, 8.777218021978857]}, {"species": [{"element": "Sr", "occu": 1}], "abc": [0.6688509300000001, 0.49571863, 0.16328315000000002], "properties": {"magmom": -0.0}, "label": "Sr", "xyz": [5.098964620581115, 3.5505402161961417, 3.214885265443141]}, {"species": [{"element": "Sr", "occu": 1}], "abc": [0.0041561, 0.5, 0.5], "properties": {"magmom": -0.0}, "label": "Sr", "xyz": [1.415729947088592, 3.5812185000000003, 5.072258884199432]}, {"species": [{"element": "Sr", "occu": 1}], "abc": [0.25419721, -0.0, 0.0], "properties": {"magmom": -0.0}, "label": "Sr", "xyz": [1.4137032229988113, 0.0, 0.47516757059293524]}, {"species": [{"element": "P", "occu": 1}], "abc": [0.42204975, 0.66068706, 0.49717463], "properties": {"magmom": 0.0}, "label": "P", "xyz": [4.186633057665304, 4.732122931265133, 5.977634948314547]}, {"species": [{"element": "P", "occu": 1}], "abc": [0.57991244, 0.33931294, 0.50282537], "properties": {"magmom": 0.0}, "label": "P", "xyz": [4.170954339625452, 2.430314068734867, 6.024299948179446]}, {"species": [{"element": "P", "occu": 1}], "abc": [0.83278889, 0.8392905900000001, 0.99712679], "properties": {"magmom": 0.0}, "label": "P", "xyz": [6.969840354364802, 6.011372262183677, 11.509073206602062]}, {"species": [{"element": "P", "occu": 1}], "abc": [0.66920628, 0.16070941, 0.00287321], "properties": {"magmom": 0.0}, "label": "P", "xyz": [4.16865181930686, 1.1510647378163241, 1.4275668989811465]}, {"species": [{"element": "P", "occu": 1}], "abc": [0.34120975000000003, 0.1840482, 0.65387228], "properties": {"magmom": -0.0}, "label": "P", "xyz": [2.4123595038619743, 1.3182523505565065, 6.821745388809794]}, {"species": [{"element": "P", "occu": 1}], "abc": [0.17912923, 0.8159518, 0.34612772], "properties": {"magmom": -0.0}, "label": "P", "xyz": [3.2667079983912517, 5.844184649443494, 4.279897444538142]}, {"species": [{"element": "P", "occu": 1}], "abc": [0.74508175, 0.68400269, 0.8461406100000001], "properties": {"magmom": 0.0}, "label": "P", "xyz": [6.049568728032949, 4.899132632908883, 9.811766690422157]}, {"species": [{"element": "P", "occu": 1}], "abc": [0.27522705000000003, 0.31599731000000003, 0.15385939], "properties": {"magmom": 0.0}, "label": "P", "xyz": [2.4100522898789882, 2.263304367091117, 2.224463287840498]}]}, "task_ids": null, "uncorrected_energy_per_atom": null, "energy_per_atom": -12.742934245714284, "formation_energy_per_atom": -1.107893037414965, "energy_above_hull": 0.0, "is_stable": true, "equilibrium_reaction_energy_per_atom": null, "decomposes_to": null, "xas": null, "grain_boundaries": null, "band_gap": 0.8898, "cbm": null, "vbm": null, "efermi": 3.61388811, "is_gap_direct": null, "is_metal": null, "es_source_calc_id": null, "bandstructure": null, "dos": null, "dos_energy_up": null, "dos_energy_down": null, "is_magnetic": null, "ordering": null, "total_magnetization": 0.0, "total_magnetization_normalized_vol": null, "total_magnetization_normalized_formula_units": null, "num_magnetic_sites": null, "num_unique_magnetic_sites": null, "types_of_magnetic_species": null, "bulk_modulus": null, "shear_modulus": null, "universal_anisotropy": null, "homogeneous_poisson": null, "e_total": null, "e_ionic": null, "e_electronic": null, "n": null, "e_ij_max": null, "weighted_surface_energy_EV_PER_ANG2": null, "weighted_surface_energy": null, "weighted_work_function": null, "surface_anisotropy": null, "shape_factor": null, "has_reconstructed": null, "possible_species": null, "has_props": null, "theoretical": null, "database_IDs": null, "fields_not_requested": ["builder_meta", "nsites", "elements", "nelements", "composition", "composition_reduced", "chemsys", "symmetry", "property_name", "deprecated", "deprecation_reasons", "last_updated", "origins", "warnings", "task_ids", "uncorrected_energy_per_atom", "equilibrium_reaction_energy_per_atom", "decomposes_to", "xas", "grain_boundaries", "cbm", "vbm", "is_gap_direct", "is_metal", "es_source_calc_id", "bandstructure", "dos", "dos_energy_up", "dos_energy_down", "is_magnetic", "ordering", "total_magnetization_normalized_vol", "total_magnetization_normalized_formula_units", "num_magnetic_sites", "num_unique_magnetic_sites", "types_of_magnetic_species", "bulk_modulus", "shear_modulus", "universal_anisotropy", "homogeneous_poisson", "e_total", "e_ionic", "e_electronic", "n", "e_ij_max", "weighted_surface_energy_EV_PER_ANG2", "weighted_surface_energy", "weighted_work_function", "surface_anisotropy", "shape_factor", "has_reconstructed", "possible_species", "has_props", "theoretical", "database_IDs"]}