{"builder_meta": null, "nsites": null, "elements": null, "nelements": null, "composition": null, "composition_reduced": null, "formula_pretty": "Sr3Sn5", "formula_anonymous": "A3B5", "chemsys": null, "volume": 508.2366765581399, "density": 5.596220531180905, "density_atomic": 31.764792284883743, "symmetry": null, "property_name": null, "material_id": "mp-18192", "deprecated": null, "deprecation_reasons": null, "last_updated": null, "origins": null, "warnings": null, "structure": {"@module": "pymatgen.core.structure", "@class": "Structure", "charge": 0, "lattice": {"matrix": [[6.89563696, 0.0067538500000000005, -1.04e-06], [-1.4538454, 6.74063862, -1e-08], [-1.06e-06, -1.05e-06, 10.93198016]], "pbc": [true, true, true], "a": 6.895640267488505, "b": 6.895641772346985, "c": 10.931980160000101, "alpha": 90.00000429124572, "beta": 90.00001420231624, "gamma": 102.11519572018648, "volume": 508.2366765581399}, "properties": {}, "sites": [{"species": [{"element": "Sr", "occu": 1}], "abc": [0.14824391, 0.14824391, 0.25], "properties": {"magmom": 0.0}, "label": "Sr", "xyz": [0.8067121932593996, 1.000259579557358, 2.7329948843438947]}, {"species": [{"element": "Sr", "occu": 1}], "abc": [0.85175609, 0.85175609, 0.75], "properties": {"magmom": 0.0}, "label": "Sr", "xyz": [4.6350783067406, 5.747131840442642, 8.198984225656105]}, {"species": [{"element": "Sr", "occu": 1}], "abc": [0.70359026, 0.29640974000000003, 0.999997999999999], "properties": {"magmom": -0.0}, "label": "Sr", "xyz": [4.420768004539934, 2.00274183386776, 10.9319575613417]}, {"species": [{"element": "Sr", "occu": 1}], "abc": [0.29640974000000003, 0.70359026, 0.500002], "properties": {"magmom": -0.0}, "label": "Sr", "xyz": [1.0210219654600667, 4.7446490611322405, 5.466011628658287]}, {"species": [{"element": "Sr", "occu": 1}], "abc": [0.29640974000000003, 0.70359026, 0.999997999999999], "properties": {"magmom": -0.0}, "label": "Sr", "xyz": [1.0210214354643068, 4.74464853613644, 10.931957980737637]}, {"species": [{"element": "Sr", "occu": 1}], "abc": [0.70359026, 0.29640974000000003, 0.500002], "properties": {"magmom": -0.0}, "label": "Sr", "xyz": [4.420768534535693, 2.0027423588635602, 5.466011209262351]}, {"species": [{"element": "Sn", "occu": 1}], "abc": [0.54514218, 0.54514218, 0.25], "properties": {"magmom": 0.0}, "label": "Sn", "xyz": [2.966549849124001, 3.678287977911385, 2.732994467600711]}, {"species": [{"element": "Sn", "occu": 1}], "abc": [0.45485882, 0.45485882, 0.75], "properties": {"magmom": 0.0}, "label": "Sn", "xyz": [2.4752460926675592, 3.0691101894810857, 8.198984642398239]}, {"species": [{"element": "Sn", "occu": 1}], "abc": [0.59215744, 0.98765233, 0.25], "properties": {"magmom": 0.0}, "label": "Sn", "xyz": [2.6474086676332003, 6.661406518757128, 2.732994414279739]}, {"species": [{"element": "Sn", "occu": 1}], "abc": [0.40784356, 0.01234667, 0.75], "properties": {"magmom": 0.0}, "label": "Sn", "xyz": [2.794390181849159, 0.08597816735810142, 8.198984695719231]}, {"species": [{"element": "Sn", "occu": 1}], "abc": [0.98765233, 0.59215744, 0.25], "properties": {"magmom": 0.0}, "label": "Sn", "xyz": [5.949586275158341, 3.9981895023733034, 2.7329940069200025]}, {"species": [{"element": "Sn", "occu": 1}], "abc": [0.01234667, 0.40784356, 0.75], "properties": {"magmom": 0.0}, "label": "Sn", "xyz": [-0.5078041246407009, 2.749208651511467, 8.198985103081027]}, {"species": [{"element": "Sn", "occu": 1}], "abc": [0.18898127, 0.18898127, 0.55379764], "properties": {"magmom": -0.0}, "label": "Sn", "xyz": [1.0283960930585827, 1.275130216681515, 6.054104614704489]}, {"species": [{"element": "Sn", "occu": 1}], "abc": [0.81101873, 0.81101873, 0.05379464], "properties": {"magmom": -0.0}, "label": "Sn", "xyz": [4.413394822893601, 5.472261615346592, 0.588081085624676]}, {"species": [{"element": "Sn", "occu": 1}], "abc": [0.18898127, 0.18898127, 0.94620236], "properties": {"magmom": -0.0}, "label": "Sn", "xyz": [1.0283956771095795, 1.275129804656559, 10.343865228434845]}, {"species": [{"element": "Sn", "occu": 1}], "abc": [0.81101873, 0.81101873, 0.44620436], "properties": {"magmom": -0.0}, "label": "Sn", "xyz": [4.413394406939298, 5.4722612033163855, 4.877896359255832]}]}, "task_ids": null, "uncorrected_energy_per_atom": null, "energy_per_atom": -21.7627808325, "formation_energy_per_atom": -0.6167930687499991, "energy_above_hull": 0.0, "is_stable": true, "equilibrium_reaction_energy_per_atom": null, "decomposes_to": null, "xas": null, "grain_boundaries": null, "band_gap": 0.0, "cbm": null, "vbm": null, "efermi": 5.32002991, "is_gap_direct": null, "is_metal": null, "es_source_calc_id": null, "bandstructure": null, "dos": null, "dos_energy_up": null, "dos_energy_down": null, "is_magnetic": null, "ordering": null, "total_magnetization": 1e-07, "total_magnetization_normalized_vol": null, "total_magnetization_normalized_formula_units": null, "num_magnetic_sites": null, "num_unique_magnetic_sites": null, "types_of_magnetic_species": null, "bulk_modulus": null, "shear_modulus": null, "universal_anisotropy": null, "homogeneous_poisson": null, "e_total": null, "e_ionic": null, "e_electronic": null, "n": null, "e_ij_max": null, "weighted_surface_energy_EV_PER_ANG2": null, "weighted_surface_energy": null, "weighted_work_function": null, "surface_anisotropy": null, "shape_factor": null, "has_reconstructed": null, "possible_species": null, "has_props": null, "theoretical": null, "database_IDs": null, "fields_not_requested": ["builder_meta", "nsites", "elements", "nelements", "composition", "composition_reduced", "chemsys", "symmetry", "property_name", "deprecated", "deprecation_reasons", "last_updated", "origins", "warnings", "task_ids", "uncorrected_energy_per_atom", "equilibrium_reaction_energy_per_atom", "decomposes_to", "xas", "grain_boundaries", "cbm", "vbm", "is_gap_direct", "is_metal", "es_source_calc_id", "bandstructure", "dos", "dos_energy_up", "dos_energy_down", "is_magnetic", "ordering", "total_magnetization_normalized_vol", "total_magnetization_normalized_formula_units", "num_magnetic_sites", "num_unique_magnetic_sites", "types_of_magnetic_species", "bulk_modulus", "shear_modulus", "universal_anisotropy", "homogeneous_poisson", "e_total", "e_ionic", "e_electronic", "n", "e_ij_max", "weighted_surface_energy_EV_PER_ANG2", "weighted_surface_energy", "weighted_work_function", "surface_anisotropy", "shape_factor", "has_reconstructed", "possible_species", "has_props", "theoretical", "database_IDs"]}