{
  "builder_meta": null,
  "nsites": null,
  "elements": null,
  "nelements": null,
  "composition": null,
  "composition_reduced": null,
  "formula_pretty": "Sr3Sm",
  "formula_anonymous": "AB3",
  "chemsys": null,
  "volume": 379.20305284777163,
  "density": 3.619000152806835,
  "density_atomic": 47.400381605971454,
  "symmetry": null,
  "property_name": null,
  "material_id": "mp-1187166",
  "deprecated": null,
  "deprecation_reasons": null,
  "last_updated": null,
  "origins": null,
  "warnings": null,
  "structure": {
    "@module": "pymatgen.core.structure",
    "@class": "Structure",
    "charge": 0,
    "lattice": {
      "matrix": [
        [4.088566, -7.081604, 0.0],
        [4.088566, 7.081604, 0.0],
        [0.0, 0.0, 6.54846]
      ],
      "pbc": [true, true, true],
      "a": 8.177131963541497,
      "b": 8.177131963541497,
      "c": 6.54846,
      "alpha": 90.0,
      "beta": 90.0,
      "gamma": 119.99999970502184,
      "volume": 379.20305284777163
    },
    "properties": {},
    "sites": [
      {
        "species": [{ "element": "Sr", "occu": 1 }],
        "abc": [0.172093, 0.344186, 0.25],
        "properties": { "magmom": 0.012 },
        "label": "Sr",
        "xyz": [2.1108407659140003, 1.2186944771719999, 1.637115]
      },
      {
        "species": [{ "element": "Sr", "occu": 1 }],
        "abc": [0.655814, 0.827907, 0.25],
        "properties": { "magmom": 0.012 },
        "label": "Sr",
        "xyz": [6.066291234086, 1.2186944771719999, 1.637115]
      },
      {
        "species": [{ "element": "Sr", "occu": 1 }],
        "abc": [0.172093, 0.827907, 0.25],
        "properties": { "magmom": 0.012 },
        "label": "Sr",
        "xyz": [4.088566, 4.644215045656, 1.637115]
      },
      {
        "species": [{ "element": "Sr", "occu": 1 }],
        "abc": [0.827907, 0.655814, 0.75],
        "properties": { "magmom": 0.012 },
        "label": "Sr",
        "xyz": [6.066291234086, -1.2186944771719999, 4.911345000000001]
      },
      {
        "species": [{ "element": "Sr", "occu": 1 }],
        "abc": [0.344186, 0.172093, 0.75],
        "properties": { "magmom": 0.011 },
        "label": "Sr",
        "xyz": [2.1108407659140003, -1.2186944771719999, 4.911345000000001]
      },
      {
        "species": [{ "element": "Sr", "occu": 1 }],
        "abc": [0.827907, 0.172093, 0.75],
        "properties": { "magmom": 0.011 },
        "label": "Sr",
        "xyz": [4.088566, -4.644215045656, 4.911345000000001]
      },
      {
        "species": [{ "element": "Sm", "occu": 1 }],
        "abc": [0.333333, 0.666667, 0.75],
        "properties": { "magmom": 0.076 },
        "label": "Sm",
        "xyz": [4.088566, 2.360539387736, 4.911345000000001]
      },
      {
        "species": [{ "element": "Sm", "occu": 1 }],
        "abc": [0.666667, 0.333333, 0.25],
        "properties": { "magmom": 0.081 },
        "label": "Sm",
        "xyz": [4.088566, -2.360539387736, 1.637115]
      }
    ]
  },
  "task_ids": null,
  "uncorrected_energy_per_atom": null,
  "energy_per_atom": -18.609806592499996,
  "formation_energy_per_atom": 0.18267029,
  "energy_above_hull": 0.18267029,
  "is_stable": false,
  "equilibrium_reaction_energy_per_atom": null,
  "decomposes_to": null,
  "xas": null,
  "grain_boundaries": null,
  "band_gap": 0.0,
  "cbm": null,
  "vbm": null,
  "efermi": 1.98729943,
  "is_gap_direct": null,
  "is_metal": null,
  "es_source_calc_id": null,
  "bandstructure": null,
  "dos": null,
  "dos_energy_up": null,
  "dos_energy_down": null,
  "is_magnetic": null,
  "ordering": null,
  "total_magnetization": 0.5647053,
  "total_magnetization_normalized_vol": null,
  "total_magnetization_normalized_formula_units": null,
  "num_magnetic_sites": null,
  "num_unique_magnetic_sites": null,
  "types_of_magnetic_species": null,
  "bulk_modulus": null,
  "shear_modulus": null,
  "universal_anisotropy": null,
  "homogeneous_poisson": null,
  "e_total": null,
  "e_ionic": null,
  "e_electronic": null,
  "n": null,
  "e_ij_max": null,
  "weighted_surface_energy_EV_PER_ANG2": null,
  "weighted_surface_energy": null,
  "weighted_work_function": null,
  "surface_anisotropy": null,
  "shape_factor": null,
  "has_reconstructed": null,
  "possible_species": null,
  "has_props": null,
  "theoretical": null,
  "database_IDs": null,
  "fields_not_requested": [
    "builder_meta",
    "nsites",
    "elements",
    "nelements",
    "composition",
    "composition_reduced",
    "chemsys",
    "symmetry",
    "property_name",
    "deprecated",
    "deprecation_reasons",
    "last_updated",
    "origins",
    "warnings",
    "task_ids",
    "uncorrected_energy_per_atom",
    "equilibrium_reaction_energy_per_atom",
    "decomposes_to",
    "xas",
    "grain_boundaries",
    "cbm",
    "vbm",
    "is_gap_direct",
    "is_metal",
    "es_source_calc_id",
    "bandstructure",
    "dos",
    "dos_energy_up",
    "dos_energy_down",
    "is_magnetic",
    "ordering",
    "total_magnetization_normalized_vol",
    "total_magnetization_normalized_formula_units",
    "num_magnetic_sites",
    "num_unique_magnetic_sites",
    "types_of_magnetic_species",
    "bulk_modulus",
    "shear_modulus",
    "universal_anisotropy",
    "homogeneous_poisson",
    "e_total",
    "e_ionic",
    "e_electronic",
    "n",
    "e_ij_max",
    "weighted_surface_energy_EV_PER_ANG2",
    "weighted_surface_energy",
    "weighted_work_function",
    "surface_anisotropy",
    "shape_factor",
    "has_reconstructed",
    "possible_species",
    "has_props",
    "theoretical",
    "database_IDs"
  ]
}
