{"builder_meta": null, "nsites": null, "elements": null, "nelements": null, "composition": null, "composition_reduced": null, "formula_pretty": "Sr3Sc", "formula_anonymous": "AB3", "chemsys": null, "volume": 179.05819046071653, "density": 2.854604672826996, "density_atomic": 44.76454761517913, "symmetry": null, "property_name": null, "material_id": "mp-1187149", "deprecated": null, "deprecation_reasons": null, "last_updated": null, "origins": null, "warnings": null, "structure": {"@module": "pymatgen.core.structure", "@class": "Structure", "charge": 0, "lattice": {"matrix": [[-2.781317, 2.781317, 5.78673], [2.781317, -2.781317, 5.78673], [2.781317, 2.781317, -5.78673]], "pbc": [true, true, true], "a": 6.996977390407804, "b": 6.996977390407804, "c": 6.996977390407804, "alpha": 133.155701738077, "beta": 133.155701738077, "gamma": 68.40973335293769, "volume": 179.05819046071653}, "properties": {}, "sites": [{"species": [{"element": "Sr", "occu": 1}], "abc": [0.75, 0.25, 0.5], "properties": {"magmom": 0.032}, "label": "Sr", "xyz": [-2.220446049250313e-16, 2.7813170000000005, 2.893365]}, {"species": [{"element": "Sr", "occu": 1}], "abc": [0.25, 0.75, 0.5], "properties": {"magmom": 0.032}, "label": "Sr", "xyz": [2.7813170000000005, -2.220446049250313e-16, 2.893365]}, {"species": [{"element": "Sr", "occu": 1}], "abc": [0.5, 0.5, 0.0], "properties": {"magmom": 0.023}, "label": "Sr", "xyz": [0.0, 0.0, 5.78673]}, {"species": [{"element": "Sc", "occu": 1}], "abc": [0.0, 0.0, 0.0], "properties": {"magmom": 0.371}, "label": "Sc", "xyz": [0.0, 0.0, 0.0]}]}, "task_ids": null, "uncorrected_energy_per_atom": null, "energy_per_atom": -13.9143023875, "formation_energy_per_atom": 0.29456525374999903, "energy_above_hull": 0.29456525374999903, "is_stable": false, "equilibrium_reaction_energy_per_atom": null, "decomposes_to": null, "xas": null, "grain_boundaries": null, "band_gap": 0.0, "cbm": null, "vbm": null, "efermi": 2.01025895, "is_gap_direct": null, "is_metal": null, "es_source_calc_id": null, "bandstructure": null, "dos": null, "dos_energy_up": null, "dos_energy_down": null, "is_magnetic": null, "ordering": null, "total_magnetization": 0.9991121, "total_magnetization_normalized_vol": null, "total_magnetization_normalized_formula_units": null, "num_magnetic_sites": null, "num_unique_magnetic_sites": null, "types_of_magnetic_species": null, "bulk_modulus": null, "shear_modulus": null, "universal_anisotropy": null, "homogeneous_poisson": null, "e_total": null, "e_ionic": null, "e_electronic": null, "n": null, "e_ij_max": null, "weighted_surface_energy_EV_PER_ANG2": null, "weighted_surface_energy": null, "weighted_work_function": null, "surface_anisotropy": null, "shape_factor": null, "has_reconstructed": null, "possible_species": null, "has_props": null, "theoretical": null, "database_IDs": null, "fields_not_requested": ["builder_meta", "nsites", "elements", "nelements", "composition", "composition_reduced", "chemsys", "symmetry", "property_name", "deprecated", "deprecation_reasons", "last_updated", "origins", "warnings", "task_ids", "uncorrected_energy_per_atom", "equilibrium_reaction_energy_per_atom", "decomposes_to", "xas", "grain_boundaries", "cbm", "vbm", "is_gap_direct", "is_metal", "es_source_calc_id", "bandstructure", "dos", "dos_energy_up", "dos_energy_down", "is_magnetic", "ordering", "total_magnetization_normalized_vol", "total_magnetization_normalized_formula_units", "num_magnetic_sites", "num_unique_magnetic_sites", "types_of_magnetic_species", "bulk_modulus", "shear_modulus", "universal_anisotropy", "homogeneous_poisson", "e_total", "e_ionic", "e_electronic", "n", "e_ij_max", "weighted_surface_energy_EV_PER_ANG2", "weighted_surface_energy", "weighted_work_function", "surface_anisotropy", "shape_factor", "has_reconstructed", "possible_species", "has_props", "theoretical", "database_IDs"]}