{
  "builder_meta": null,
  "nsites": null,
  "elements": null,
  "nelements": null,
  "composition": null,
  "composition_reduced": null,
  "formula_pretty": "Sr3Tl5",
  "formula_anonymous": "A3B5",
  "chemsys": null,
  "volume": 536.0936712276819,
  "density": 7.959137309768908,
  "density_atomic": 33.505854451730116,
  "symmetry": null,
  "property_name": null,
  "material_id": "mp-1188539",
  "deprecated": null,
  "deprecation_reasons": null,
  "last_updated": null,
  "origins": null,
  "warnings": null,
  "structure": {
    "@module": "pymatgen.core.structure",
    "@class": "Structure",
    "charge": 0,
    "lattice": {
      "matrix": [
        [5.385443, 4.296089, 0.0],
        [-5.385443, 4.296089, 0.0],
        [0.0, 0.0, 11.585532]
      ],
      "pbc": [true, true, true],
      "a": 6.889076643656246,
      "b": 6.889076643656246,
      "c": 11.585532,
      "alpha": 90.0,
      "beta": 90.0,
      "gamma": 102.83969661201368,
      "volume": 536.0936712276819
    },
    "properties": {},
    "sites": [
      {
        "species": [{ "element": "Sr", "occu": 1 }],
        "abc": [0.608586, 0.608586, 0.75],
        "properties": { "magmom": 0.001 },
        "label": "Sr",
        "xyz": [0.0, 5.229079240308, 8.689149]
      },
      {
        "species": [{ "element": "Sr", "occu": 1 }],
        "abc": [0.391414, 0.391414, 0.25],
        "properties": { "magmom": 0.001 },
        "label": "Sr",
        "xyz": [0.0, 3.363098759692, 2.896383]
      },
      {
        "species": [{ "element": "Sr", "occu": 1 }],
        "abc": [0.793215999999999, 0.206784, 0.0],
        "properties": { "magmom": 0.001 },
        "label": "Sr",
        "xyz": [3.1581961093759947, 4.296088999999997, 0.0]
      },
      {
        "species": [{ "element": "Sr", "occu": 1 }],
        "abc": [0.793215999999999, 0.206784, 0.5],
        "properties": { "magmom": 0.001 },
        "label": "Sr",
        "xyz": [3.1581961093759947, 4.296088999999997, 5.792766]
      },
      {
        "species": [{ "element": "Sr", "occu": 1 }],
        "abc": [0.206784, 0.793215999999999, 0.0],
        "properties": { "magmom": 0.001 },
        "label": "Sr",
        "xyz": [-3.1581961093759947, 4.296088999999997, 0.0]
      },
      {
        "species": [{ "element": "Sr", "occu": 1 }],
        "abc": [0.206784, 0.793215999999999, 0.5],
        "properties": { "magmom": 0.001 },
        "label": "Sr",
        "xyz": [-3.1581961093759947, 4.296088999999997, 5.792766]
      },
      {
        "species": [{ "element": "Tl", "occu": 1 }],
        "abc": [0.013680999999999001, 0.013680999999999001, 0.25],
        "properties": { "magmom": -0.001 },
        "label": "Tl",
        "xyz": [0.0, 0.11754958721799143, 2.896383]
      },
      {
        "species": [{ "element": "Tl", "occu": 1 }],
        "abc": [0.986319, 0.986319, 0.75],
        "properties": { "magmom": -0.001 },
        "label": "Tl",
        "xyz": [0.0, 8.474628412782, 8.689149]
      },
      {
        "species": [{ "element": "Tl", "occu": 1 }],
        "abc": [0.917470999999999, 0.521287, 0.25],
        "properties": { "magmom": 0.002 },
        "label": "Tl",
        "xyz": [2.133626349511995, 6.181032417461996, 2.896383]
      },
      {
        "species": [{ "element": "Tl", "occu": 1 }],
        "abc": [0.478713, 0.082528999999999, 0.75],
        "properties": { "magmom": 0.002 },
        "label": "Tl",
        "xyz": [2.1336263495120056, 2.411145582537996, 8.689149]
      },
      {
        "species": [{ "element": "Tl", "occu": 1 }],
        "abc": [0.082528999999999, 0.478713, 0.75],
        "properties": { "magmom": 0.002 },
        "label": "Tl",
        "xyz": [-2.1336263495120056, 2.411145582537996, 8.689149]
      },
      {
        "species": [{ "element": "Tl", "occu": 1 }],
        "abc": [0.521287, 0.917470999999999, 0.25],
        "properties": { "magmom": 0.002 },
        "label": "Tl",
        "xyz": [-2.133626349511995, 6.181032417461996, 2.896383]
      },
      {
        "species": [{ "element": "Tl", "occu": 1 }],
        "abc": [0.693010999999999, 0.693010999999999, 0.042075999999999],
        "properties": { "magmom": 0.001 },
        "label": "Tl",
        "xyz": [0.0, 5.954473867957992, 0.48747284443198846]
      },
      {
        "species": [{ "element": "Tl", "occu": 1 }],
        "abc": [0.306989, 0.306989, 0.957924],
        "properties": { "magmom": 0.001 },
        "label": "Tl",
        "xyz": [0.0, 2.6377041320420003, 11.098059155568]
      },
      {
        "species": [{ "element": "Tl", "occu": 1 }],
        "abc": [0.693010999999999, 0.693010999999999, 0.457924],
        "properties": { "magmom": 0.001 },
        "label": "Tl",
        "xyz": [0.0, 5.954473867957992, 5.305293155568]
      },
      {
        "species": [{ "element": "Tl", "occu": 1 }],
        "abc": [0.306989, 0.306989, 0.542076],
        "properties": { "magmom": 0.001 },
        "label": "Tl",
        "xyz": [0.0, 2.6377041320420003, 6.2802388444320005]
      }
    ]
  },
  "task_ids": null,
  "uncorrected_energy_per_atom": null,
  "energy_per_atom": -39.35546258875001,
  "formation_energy_per_atom": -0.438774325000011,
  "energy_above_hull": 0.008633411249995001,
  "is_stable": false,
  "equilibrium_reaction_energy_per_atom": null,
  "decomposes_to": null,
  "xas": null,
  "grain_boundaries": null,
  "band_gap": 0.0,
  "cbm": null,
  "vbm": null,
  "efermi": 4.5660152400000005,
  "is_gap_direct": null,
  "is_metal": null,
  "es_source_calc_id": null,
  "bandstructure": null,
  "dos": null,
  "dos_energy_up": null,
  "dos_energy_down": null,
  "is_magnetic": null,
  "ordering": null,
  "total_magnetization": 0.1373554,
  "total_magnetization_normalized_vol": null,
  "total_magnetization_normalized_formula_units": null,
  "num_magnetic_sites": null,
  "num_unique_magnetic_sites": null,
  "types_of_magnetic_species": null,
  "bulk_modulus": null,
  "shear_modulus": null,
  "universal_anisotropy": null,
  "homogeneous_poisson": null,
  "e_total": null,
  "e_ionic": null,
  "e_electronic": null,
  "n": null,
  "e_ij_max": null,
  "weighted_surface_energy_EV_PER_ANG2": null,
  "weighted_surface_energy": null,
  "weighted_work_function": null,
  "surface_anisotropy": null,
  "shape_factor": null,
  "has_reconstructed": null,
  "possible_species": null,
  "has_props": null,
  "theoretical": null,
  "database_IDs": null,
  "fields_not_requested": [
    "builder_meta",
    "nsites",
    "elements",
    "nelements",
    "composition",
    "composition_reduced",
    "chemsys",
    "symmetry",
    "property_name",
    "deprecated",
    "deprecation_reasons",
    "last_updated",
    "origins",
    "warnings",
    "task_ids",
    "uncorrected_energy_per_atom",
    "equilibrium_reaction_energy_per_atom",
    "decomposes_to",
    "xas",
    "grain_boundaries",
    "cbm",
    "vbm",
    "is_gap_direct",
    "is_metal",
    "es_source_calc_id",
    "bandstructure",
    "dos",
    "dos_energy_up",
    "dos_energy_down",
    "is_magnetic",
    "ordering",
    "total_magnetization_normalized_vol",
    "total_magnetization_normalized_formula_units",
    "num_magnetic_sites",
    "num_unique_magnetic_sites",
    "types_of_magnetic_species",
    "bulk_modulus",
    "shear_modulus",
    "universal_anisotropy",
    "homogeneous_poisson",
    "e_total",
    "e_ionic",
    "e_electronic",
    "n",
    "e_ij_max",
    "weighted_surface_energy_EV_PER_ANG2",
    "weighted_surface_energy",
    "weighted_work_function",
    "surface_anisotropy",
    "shape_factor",
    "has_reconstructed",
    "possible_species",
    "has_props",
    "theoretical",
    "database_IDs"
  ]
}
