{
  "builder_meta": null,
  "nsites": null,
  "elements": null,
  "nelements": null,
  "composition": null,
  "composition_reduced": null,
  "formula_pretty": "Sr3Tb",
  "formula_anonymous": "AB3",
  "chemsys": null,
  "volume": 374.7826329635593,
  "density": 3.73758541507794,
  "density_atomic": 46.84782912044491,
  "symmetry": null,
  "property_name": null,
  "material_id": "mp-1187160",
  "deprecated": null,
  "deprecation_reasons": null,
  "last_updated": null,
  "origins": null,
  "warnings": null,
  "structure": {
    "@module": "pymatgen.core.structure",
    "@class": "Structure",
    "charge": 0,
    "lattice": {
      "matrix": [
        [4.068609, -7.047038, 0.0],
        [4.068609, 7.047038, 0.0],
        [0.0, 0.0, 6.535772]
      ],
      "pbc": [true, true, true],
      "a": 8.137218429434286,
      "b": 8.137218429434286,
      "c": 6.535772,
      "alpha": 90.0,
      "beta": 90.0,
      "gamma": 120.00000349150557,
      "volume": 374.7826329635593
    },
    "properties": {},
    "sites": [
      {
        "species": [{ "element": "Sr", "occu": 1 }],
        "abc": [0.171748999999999, 0.343499, 0.25],
        "properties": { "magmom": -0.0 },
        "label": "Sr",
        "xyz": [2.096342650031996, 1.210328776500007, 1.633943]
      },
      {
        "species": [{ "element": "Sr", "occu": 1 }],
        "abc": [0.656501, 0.828251, 0.25],
        "properties": { "magmom": -0.0 },
        "label": "Sr",
        "xyz": [6.040875349968001, 1.210328776499999, 1.633943]
      },
      {
        "species": [{ "element": "Sr", "occu": 1 }],
        "abc": [0.171748999999999, 0.828251, 0.25],
        "properties": { "magmom": -0.0 },
        "label": "Sr",
        "xyz": [4.068608999999996, 4.626394541076007, 1.633943]
      },
      {
        "species": [{ "element": "Sr", "occu": 1 }],
        "abc": [0.828251, 0.656501, 0.75],
        "properties": { "magmom": -0.0 },
        "label": "Sr",
        "xyz": [6.040875349968001, -1.210328776499999, 4.901828999999999]
      },
      {
        "species": [{ "element": "Sr", "occu": 1 }],
        "abc": [0.343499, 0.171748999999999, 0.75],
        "properties": { "magmom": -0.0 },
        "label": "Sr",
        "xyz": [2.096342650031996, -1.210328776500007, 4.901828999999999]
      },
      {
        "species": [{ "element": "Sr", "occu": 1 }],
        "abc": [0.828251, 0.171748999999999, 0.75],
        "properties": { "magmom": -0.0 },
        "label": "Sr",
        "xyz": [4.068608999999996, -4.626394541076007, 4.901828999999999]
      },
      {
        "species": [{ "element": "Tb", "occu": 1 }],
        "abc": [0.333333, 0.666667, 0.75],
        "properties": { "magmom": -0.004 },
        "label": "Tb",
        "xyz": [4.068609, 2.349017364692, 4.901828999999999]
      },
      {
        "species": [{ "element": "Tb", "occu": 1 }],
        "abc": [0.666667, 0.333333, 0.25],
        "properties": { "magmom": -0.004 },
        "label": "Tb",
        "xyz": [4.068609, -2.349017364692, 1.633943]
      }
    ]
  },
  "task_ids": null,
  "uncorrected_energy_per_atom": null,
  "energy_per_atom": -18.957417082499997,
  "formation_energy_per_atom": 0.20843725750000103,
  "energy_above_hull": 0.20843725750000103,
  "is_stable": false,
  "equilibrium_reaction_energy_per_atom": null,
  "decomposes_to": null,
  "xas": null,
  "grain_boundaries": null,
  "band_gap": 0.0,
  "cbm": null,
  "vbm": null,
  "efermi": 2.01110079,
  "is_gap_direct": null,
  "is_metal": null,
  "es_source_calc_id": null,
  "bandstructure": null,
  "dos": null,
  "dos_energy_up": null,
  "dos_energy_down": null,
  "is_magnetic": null,
  "ordering": null,
  "total_magnetization": 0.0229761,
  "total_magnetization_normalized_vol": null,
  "total_magnetization_normalized_formula_units": null,
  "num_magnetic_sites": null,
  "num_unique_magnetic_sites": null,
  "types_of_magnetic_species": null,
  "bulk_modulus": null,
  "shear_modulus": null,
  "universal_anisotropy": null,
  "homogeneous_poisson": null,
  "e_total": null,
  "e_ionic": null,
  "e_electronic": null,
  "n": null,
  "e_ij_max": null,
  "weighted_surface_energy_EV_PER_ANG2": null,
  "weighted_surface_energy": null,
  "weighted_work_function": null,
  "surface_anisotropy": null,
  "shape_factor": null,
  "has_reconstructed": null,
  "possible_species": null,
  "has_props": null,
  "theoretical": null,
  "database_IDs": null,
  "fields_not_requested": [
    "builder_meta",
    "nsites",
    "elements",
    "nelements",
    "composition",
    "composition_reduced",
    "chemsys",
    "symmetry",
    "property_name",
    "deprecated",
    "deprecation_reasons",
    "last_updated",
    "origins",
    "warnings",
    "task_ids",
    "uncorrected_energy_per_atom",
    "equilibrium_reaction_energy_per_atom",
    "decomposes_to",
    "xas",
    "grain_boundaries",
    "cbm",
    "vbm",
    "is_gap_direct",
    "is_metal",
    "es_source_calc_id",
    "bandstructure",
    "dos",
    "dos_energy_up",
    "dos_energy_down",
    "is_magnetic",
    "ordering",
    "total_magnetization_normalized_vol",
    "total_magnetization_normalized_formula_units",
    "num_magnetic_sites",
    "num_unique_magnetic_sites",
    "types_of_magnetic_species",
    "bulk_modulus",
    "shear_modulus",
    "universal_anisotropy",
    "homogeneous_poisson",
    "e_total",
    "e_ionic",
    "e_electronic",
    "n",
    "e_ij_max",
    "weighted_surface_energy_EV_PER_ANG2",
    "weighted_surface_energy",
    "weighted_work_function",
    "surface_anisotropy",
    "shape_factor",
    "has_reconstructed",
    "possible_species",
    "has_props",
    "theoretical",
    "database_IDs"
  ]
}
