{"builder_meta": null, "nsites": null, "elements": null, "nelements": null, "composition": null, "composition_reduced": null, "formula_pretty": "Sr3Tm", "formula_anonymous": "AB3", "chemsys": null, "volume": 369.016320881381, "density": 3.886067438557359, "density_atomic": 46.12704011017262, "symmetry": null, "property_name": null, "material_id": "mp-982013", "deprecated": null, "deprecation_reasons": null, "last_updated": null, "origins": null, "warnings": null, "structure": {"@module": "pymatgen.core.structure", "@class": "Structure", "charge": 0, "lattice": {"matrix": [[4.024097, -6.96994, 0.0], [4.024097, 6.96994, 0.0], [0.0, 0.0, 6.578367]], "pbc": [true, true, true], "a": 8.048193602853313, "b": 8.048193602853313, "c": 6.578367, "alpha": 90.0, "beta": 90.0, "gamma": 119.99999673529058, "volume": 369.016320881381}, "properties": {}, "sites": [{"species": [{"element": "Sr", "occu": 1}], "abc": [0.171836, 0.343672, 0.25], "properties": {"magmom": 0.005}, "label": "Sr", "xyz": [2.074454196276, 1.1976866098399999, 1.64459175]}, {"species": [{"element": "Sr", "occu": 1}], "abc": [0.656328, 0.828164, 0.25], "properties": {"magmom": 0.005}, "label": "Sr", "xyz": [5.973739803724001, 1.1976866098399999, 1.64459175]}, {"species": [{"element": "Sr", "occu": 1}], "abc": [0.171836, 0.828164, 0.25], "properties": {"magmom": 0.005}, "label": "Sr", "xyz": [4.024097, 4.5745667803200005, 1.64459175]}, {"species": [{"element": "Sr", "occu": 1}], "abc": [0.828164, 0.656328, 0.75], "properties": {"magmom": 0.005}, "label": "Sr", "xyz": [5.973739803724001, -1.1976866098399999, 4.93377525]}, {"species": [{"element": "Sr", "occu": 1}], "abc": [0.343672, 0.171836, 0.75], "properties": {"magmom": 0.005}, "label": "Sr", "xyz": [2.074454196276, -1.1976866098399999, 4.93377525]}, {"species": [{"element": "Sr", "occu": 1}], "abc": [0.828164, 0.171836, 0.75], "properties": {"magmom": 0.005}, "label": "Sr", "xyz": [4.024097, -4.5745667803200005, 4.93377525]}, {"species": [{"element": "Tm", "occu": 1}], "abc": [0.333333, 0.666667, 0.75], "properties": {"magmom": 0.039}, "label": "Tm", "xyz": [4.024097, 2.32331797996, 4.93377525]}, {"species": [{"element": "Tm", "occu": 1}], "abc": [0.666667, 0.333333, 0.25], "properties": {"magmom": 0.04}, "label": "Tm", "xyz": [4.024097, -2.32331797996, 1.64459175]}]}, "task_ids": null, "uncorrected_energy_per_atom": null, "energy_per_atom": -19.910403486666667, "formation_energy_per_atom": 0.22910438833333302, "energy_above_hull": 0.22910438833333302, "is_stable": false, "equilibrium_reaction_energy_per_atom": null, "decomposes_to": null, "xas": null, "grain_boundaries": null, "band_gap": 0.0, "cbm": null, "vbm": null, "efermi": 1.91022191, "is_gap_direct": null, "is_metal": null, "es_source_calc_id": null, "bandstructure": null, "dos": null, "dos_energy_up": null, "dos_energy_down": null, "is_magnetic": null, "ordering": null, "total_magnetization": 0.308786, "total_magnetization_normalized_vol": null, "total_magnetization_normalized_formula_units": null, "num_magnetic_sites": null, "num_unique_magnetic_sites": null, "types_of_magnetic_species": null, "bulk_modulus": null, "shear_modulus": null, "universal_anisotropy": null, "homogeneous_poisson": null, "e_total": null, "e_ionic": null, "e_electronic": null, "n": null, "e_ij_max": null, "weighted_surface_energy_EV_PER_ANG2": null, "weighted_surface_energy": null, "weighted_work_function": null, "surface_anisotropy": null, "shape_factor": null, "has_reconstructed": null, "possible_species": null, "has_props": null, "theoretical": null, "database_IDs": null, "fields_not_requested": ["builder_meta", "nsites", "elements", "nelements", "composition", "composition_reduced", "chemsys", "symmetry", "property_name", "deprecated", "deprecation_reasons", "last_updated", "origins", "warnings", "task_ids", "uncorrected_energy_per_atom", "equilibrium_reaction_energy_per_atom", "decomposes_to", "xas", "grain_boundaries", "cbm", "vbm", "is_gap_direct", "is_metal", "es_source_calc_id", "bandstructure", "dos", "dos_energy_up", "dos_energy_down", "is_magnetic", "ordering", "total_magnetization_normalized_vol", "total_magnetization_normalized_formula_units", "num_magnetic_sites", "num_unique_magnetic_sites", "types_of_magnetic_species", "bulk_modulus", "shear_modulus", "universal_anisotropy", "homogeneous_poisson", "e_total", "e_ionic", "e_electronic", "n", "e_ij_max", "weighted_surface_energy_EV_PER_ANG2", "weighted_surface_energy", "weighted_work_function", "surface_anisotropy", "shape_factor", "has_reconstructed", "possible_species", "has_props", "theoretical", "database_IDs"]}