{
  "builder_meta": null,
  "nsites": null,
  "elements": null,
  "nelements": null,
  "composition": null,
  "composition_reduced": null,
  "formula_pretty": "Sr3Yb",
  "formula_anonymous": "AB3",
  "chemsys": null,
  "volume": 379.8489046155011,
  "density": 3.8111415899099663,
  "density_atomic": 47.48111307693764,
  "symmetry": null,
  "property_name": null,
  "material_id": "mp-1187163",
  "deprecated": null,
  "deprecation_reasons": null,
  "last_updated": null,
  "origins": null,
  "warnings": null,
  "structure": {
    "@module": "pymatgen.core.structure",
    "@class": "Structure",
    "charge": 0.0,
    "lattice": {
      "matrix": [
        [4.085538143664675, -7.076360130604566, -0.0],
        [4.085538143664675, 7.076360130604566, 0.0],
        [0.0, -0.0, 6.569339192068645]
      ],
      "pbc": [true, true, true],
      "a": 8.171076711263263,
      "b": 8.171076711263263,
      "c": 6.569339192068645,
      "alpha": 90.0,
      "beta": 90.0,
      "gamma": 120.00000343250254,
      "volume": 379.8489046155011
    },
    "properties": {},
    "sites": [
      {
        "species": [{ "element": "Sr", "occu": 1 }],
        "abc": [0.172442711409935, 0.344885422825534, 0.25],
        "properties": { "magmom": 0.042 },
        "label": "Sr",
        "xyz": [2.113563825209888, 1.2202667278746935, 1.6423347980171612]
      },
      {
        "species": [{ "element": "Sr", "occu": 1 }],
        "abc": [0.6551145771744651, 0.827557288590064, 0.25],
        "properties": { "magmom": 0.042 },
        "label": "Sr",
        "xyz": [6.057512462119455, 1.2202667278746935, 1.6423347980171612]
      },
      {
        "species": [{ "element": "Sr", "occu": 1 }],
        "abc": [0.172442711415591, 0.827557288584408, 0.25],
        "properties": { "magmom": 0.042 },
        "label": "Sr",
        "xyz": [4.085538143664672, 4.635826674855284, 1.6423347980171612]
      },
      {
        "species": [{ "element": "Sr", "occu": 1 }],
        "abc": [0.827557288590064, 0.6551145771744651, 0.75],
        "properties": { "magmom": 0.042 },
        "label": "Sr",
        "xyz": [6.057512462119455, -1.2202667278746935, 4.927004394051483]
      },
      {
        "species": [{ "element": "Sr", "occu": 1 }],
        "abc": [0.344885422825534, 0.172442711409935, 0.75],
        "properties": { "magmom": 0.042 },
        "label": "Sr",
        "xyz": [2.113563825209888, -1.2202667278746935, 4.927004394051483]
      },
      {
        "species": [{ "element": "Sr", "occu": 1 }],
        "abc": [0.827557288584408, 0.172442711415591, 0.75],
        "properties": { "magmom": 0.042 },
        "label": "Sr",
        "xyz": [4.085538143664672, -4.635826674855284, 4.927004394051483]
      },
      {
        "species": [{ "element": "Yb", "occu": 1 }],
        "abc": [0.33333300000000304, 0.666666999999996, 0.75],
        "properties": { "magmom": 0.40700000000000003 },
        "label": "Yb",
        "xyz": [4.085538143664672, 2.358791427774893, 4.927004394051483]
      },
      {
        "species": [{ "element": "Yb", "occu": 1 }],
        "abc": [0.666666999999996, 0.33333300000000304, 0.25],
        "properties": { "magmom": 0.40700000000000003 },
        "label": "Yb",
        "xyz": [4.085538143664672, -2.358791427774893, 1.6423347980171612]
      }
    ]
  },
  "task_ids": null,
  "uncorrected_energy_per_atom": null,
  "energy_per_atom": -20.26038250125,
  "formation_energy_per_atom": 0.2312079975,
  "energy_above_hull": 0.2312079975,
  "is_stable": false,
  "equilibrium_reaction_energy_per_atom": null,
  "decomposes_to": null,
  "xas": null,
  "grain_boundaries": null,
  "band_gap": 0.0,
  "cbm": null,
  "vbm": null,
  "efermi": 1.5528611300000001,
  "is_gap_direct": null,
  "is_metal": null,
  "es_source_calc_id": null,
  "bandstructure": null,
  "dos": null,
  "dos_energy_up": null,
  "dos_energy_down": null,
  "is_magnetic": null,
  "ordering": null,
  "total_magnetization": 1.7862705,
  "total_magnetization_normalized_vol": null,
  "total_magnetization_normalized_formula_units": null,
  "num_magnetic_sites": null,
  "num_unique_magnetic_sites": null,
  "types_of_magnetic_species": null,
  "bulk_modulus": null,
  "shear_modulus": null,
  "universal_anisotropy": null,
  "homogeneous_poisson": null,
  "e_total": null,
  "e_ionic": null,
  "e_electronic": null,
  "n": null,
  "e_ij_max": null,
  "weighted_surface_energy_EV_PER_ANG2": null,
  "weighted_surface_energy": null,
  "weighted_work_function": null,
  "surface_anisotropy": null,
  "shape_factor": null,
  "has_reconstructed": null,
  "possible_species": null,
  "has_props": null,
  "theoretical": null,
  "database_IDs": null,
  "fields_not_requested": [
    "builder_meta",
    "nsites",
    "elements",
    "nelements",
    "composition",
    "composition_reduced",
    "chemsys",
    "symmetry",
    "property_name",
    "deprecated",
    "deprecation_reasons",
    "last_updated",
    "origins",
    "warnings",
    "task_ids",
    "uncorrected_energy_per_atom",
    "equilibrium_reaction_energy_per_atom",
    "decomposes_to",
    "xas",
    "grain_boundaries",
    "cbm",
    "vbm",
    "is_gap_direct",
    "is_metal",
    "es_source_calc_id",
    "bandstructure",
    "dos",
    "dos_energy_up",
    "dos_energy_down",
    "is_magnetic",
    "ordering",
    "total_magnetization_normalized_vol",
    "total_magnetization_normalized_formula_units",
    "num_magnetic_sites",
    "num_unique_magnetic_sites",
    "types_of_magnetic_species",
    "bulk_modulus",
    "shear_modulus",
    "universal_anisotropy",
    "homogeneous_poisson",
    "e_total",
    "e_ionic",
    "e_electronic",
    "n",
    "e_ij_max",
    "weighted_surface_energy_EV_PER_ANG2",
    "weighted_surface_energy",
    "weighted_work_function",
    "surface_anisotropy",
    "shape_factor",
    "has_reconstructed",
    "possible_species",
    "has_props",
    "theoretical",
    "database_IDs"
  ]
}
