{"builder_meta": null, "nsites": null, "elements": null, "nelements": null, "composition": null, "composition_reduced": null, "formula_pretty": "Sr4As3", "formula_anonymous": "A3B4", "chemsys": null, "volume": 1731.8365228506282, "density": 4.412501760552795, "density_atomic": 30.925652193761216, "symmetry": null, "property_name": null, "material_id": "mp-29424", "deprecated": null, "deprecation_reasons": null, "last_updated": null, "origins": null, "warnings": null, "structure": {"@module": "pymatgen.core.structure", "@class": "Structure", "charge": 0, "lattice": {"matrix": [[10.99894385, 0.0, 0.0], [0.0, 12.2323335, 0.0], [0.0, -0.0, 12.87201675]], "pbc": [true, true, true], "a": 10.99894385, "b": 12.2323335, "c": 12.87201675, "alpha": 90.0, "beta": 90.0, "gamma": 90.0, "volume": 1731.8365228506282}, "properties": {}, "sites": [{"species": [{"element": "Sr", "occu": 1}], "abc": [-0.0, 0.60287826, 0.7934651500000001], "properties": {"magmom": 0.0}, "label": "Sr", "xyz": [0.0, 7.37460793621971, 10.213496701341263]}, {"species": [{"element": "Sr", "occu": 1}], "abc": [-0.0, 0.39712174, 0.20653485], "properties": {"magmom": 0.0}, "label": "Sr", "xyz": [0.0, 4.857725563780289, 2.6585200486587373]}, {"species": [{"element": "Sr", "occu": 1}], "abc": [-0.0, 0.10287826, 0.70653485], "properties": {"magmom": 0.0}, "label": "Sr", "xyz": [0.0, 1.25844118621971, 9.094528423658739]}, {"species": [{"element": "Sr", "occu": 1}], "abc": [-0.0, 0.89712174, 0.29346515], "properties": {"magmom": 0.0}, "label": "Sr", "xyz": [0.0, 10.97389231378029, 3.777488326341263]}, {"species": [{"element": "Sr", "occu": 1}], "abc": [0.72336214, 0.40395796, 0.76411636], "properties": {"magmom": -0.0}, "label": "Sr", "xyz": [7.956219561075839, 4.94134848669966, 9.835718584869031]}, {"species": [{"element": "Sr", "occu": 1}], "abc": [0.72336214, 0.59604204, 0.23588364], "properties": {"magmom": -0.0}, "label": "Sr", "xyz": [7.956219561075839, 7.29098501330034, 3.03629816513097]}, {"species": [{"element": "Sr", "occu": 1}], "abc": [0.27663786, 0.9039579600000001, 0.7358836400000001], "properties": {"magmom": -0.0}, "label": "Sr", "xyz": [3.0427242889241612, 11.05751523669966, 9.47230654013097]}, {"species": [{"element": "Sr", "occu": 1}], "abc": [0.27663786, 0.09604204, 0.26411636], "properties": {"magmom": -0.0}, "label": "Sr", "xyz": [3.0427242889241612, 1.17481826330034, 3.39971020986903]}, {"species": [{"element": "Sr", "occu": 1}], "abc": [0.27663786, 0.59604204, 0.23588364], "properties": {"magmom": -0.0}, "label": "Sr", "xyz": [3.0427242889241612, 7.29098501330034, 3.03629816513097]}, {"species": [{"element": "Sr", "occu": 1}], "abc": [0.27663786, 0.40395796, 0.76411636], "properties": {"magmom": -0.0}, "label": "Sr", "xyz": [3.0427242889241612, 4.94134848669966, 9.835718584869031]}, {"species": [{"element": "Sr", "occu": 1}], "abc": [0.72336214, 0.09604204, 0.26411636], "properties": {"magmom": -0.0}, "label": "Sr", "xyz": [7.956219561075839, 1.17481826330034, 3.39971020986903]}, {"species": [{"element": "Sr", "occu": 1}], "abc": [0.72336214, 0.9039579600000001, 0.7358836400000001], "properties": {"magmom": -0.0}, "label": "Sr", "xyz": [7.956219561075839, 11.05751523669966, 9.47230654013097]}, {"species": [{"element": "Sr", "occu": 1}], "abc": [-0.0, 0.77416258, 0.57745493], "properties": {"magmom": -0.0}, "label": "Sr", "xyz": [0.0, 9.46981486178043, 7.433009531330078]}, {"species": [{"element": "Sr", "occu": 1}], "abc": [-0.0, 0.22583742, 0.42254507], "properties": {"magmom": -0.0}, "label": "Sr", "xyz": [0.0, 2.76251863821957, 5.439007218669923]}, {"species": [{"element": "Sr", "occu": 1}], "abc": [-0.0, 0.27416258, 0.92254507], "properties": {"magmom": -0.0}, "label": "Sr", "xyz": [0.0, 3.3536481117804295, 11.875015593669922]}, {"species": [{"element": "Sr", "occu": 1}], "abc": [-0.0, 0.7258374200000001, 0.07745493], "properties": {"magmom": -0.0}, "label": "Sr", "xyz": [0.0, 8.878685388219571, 0.9970011563300776]}, {"species": [{"element": "Sr", "occu": 1}], "abc": [0.6773746700000001, 0.6735892, 0.9329795200000001], "properties": {"magmom": 0.0}, "label": "Sr", "xyz": [7.45040596074228, 8.2395677363982, 12.00932800884696]}, {"species": [{"element": "Sr", "occu": 1}], "abc": [0.6773746700000001, 0.3264108, 0.06702048000000001], "properties": {"magmom": 0.0}, "label": "Sr", "xyz": [7.45040596074228, 3.9927657636018, 0.8626887411530401]}, {"species": [{"element": "Sr", "occu": 1}], "abc": [0.32262533, 0.1735892, 0.56702048], "properties": {"magmom": 0.0}, "label": "Sr", "xyz": [3.5485378892577204, 2.1234009863981997, 7.298697116153041]}, {"species": [{"element": "Sr", "occu": 1}], "abc": [0.32262533, 0.8264108, 0.43297952], "properties": {"magmom": 0.0}, "label": "Sr", "xyz": [3.5485378892577204, 10.108932513601799, 5.57331963384696]}, {"species": [{"element": "Sr", "occu": 1}], "abc": [0.32262533, 0.3264108, 0.06702048000000001], "properties": {"magmom": 0.0}, "label": "Sr", "xyz": [3.5485378892577204, 3.9927657636018, 0.8626887411530401]}, {"species": [{"element": "Sr", "occu": 1}], "abc": [0.32262533, 0.6735892, 0.9329795200000001], "properties": {"magmom": 0.0}, "label": "Sr", "xyz": [3.5485378892577204, 8.2395677363982, 12.00932800884696]}, {"species": [{"element": "Sr", "occu": 1}], "abc": [0.6773746700000001, 0.8264108, 0.43297952], "properties": {"magmom": 0.0}, "label": "Sr", "xyz": [7.45040596074228, 10.108932513601799, 5.57331963384696]}, {"species": [{"element": "Sr", "occu": 1}], "abc": [0.6773746700000001, 0.1735892, 0.56702048], "properties": {"magmom": 0.0}, "label": "Sr", "xyz": [7.45040596074228, 2.1234009863981997, 7.298697116153041]}, {"species": [{"element": "Sr", "occu": 1}], "abc": [0.5, 0.12293895, 0.8680278100000001], "properties": {"magmom": 0.0}, "label": "Sr", "xyz": [5.499471925, 1.503830236539825, 11.173268509785819]}, {"species": [{"element": "Sr", "occu": 1}], "abc": [0.5, 0.87706105, 0.13197219], "properties": {"magmom": 0.0}, "label": "Sr", "xyz": [5.499471925, 10.728503263460174, 1.6987482402141825]}, {"species": [{"element": "Sr", "occu": 1}], "abc": [0.5, 0.62293895, 0.63197219], "properties": {"magmom": 0.0}, "label": "Sr", "xyz": [5.499471925, 7.6199969865398245, 8.134756615214183]}, {"species": [{"element": "Sr", "occu": 1}], "abc": [0.5, 0.37706105, 0.36802781], "properties": {"magmom": 0.0}, "label": "Sr", "xyz": [5.499471925, 4.612336513460175, 4.737260134785818]}, {"species": [{"element": "Sr", "occu": 1}], "abc": [0.81686303, 0.0, 0.0], "properties": {"magmom": -0.0}, "label": "Sr", "xyz": [8.984630600110865, 0.0, 0.0]}, {"species": [{"element": "Sr", "occu": 1}], "abc": [0.18313697, 0.5, 0.5], "properties": {"magmom": -0.0}, "label": "Sr", "xyz": [2.0143132498891347, 6.11616675, 6.436008375]}, {"species": [{"element": "Sr", "occu": 1}], "abc": [0.18313697, 0.0, 0.0], "properties": {"magmom": -0.0}, "label": "Sr", "xyz": [2.0143132498891347, 0.0, 0.0]}, {"species": [{"element": "Sr", "occu": 1}], "abc": [0.81686303, 0.5, 0.5], "properties": {"magmom": -0.0}, "label": "Sr", "xyz": [8.984630600110865, 6.11616675, 6.436008375]}, {"species": [{"element": "As", "occu": 1}], "abc": [0.88420563, 0.5, 0.0], "properties": {"magmom": 0.0}, "label": "As", "xyz": [9.725328076223875, 6.11616675, 0.0]}, {"species": [{"element": "As", "occu": 1}], "abc": [0.11579437000000001, 0.0, 0.5], "properties": {"magmom": 0.0}, "label": "As", "xyz": [1.2736157737761247, 0.0, 6.436008375]}, {"species": [{"element": "As", "occu": 1}], "abc": [0.11579437000000001, 0.5, 0.0], "properties": {"magmom": 0.0}, "label": "As", "xyz": [1.2736157737761247, 6.11616675, 0.0]}, {"species": [{"element": "As", "occu": 1}], "abc": [0.88420563, 0.0, 0.5], "properties": {"magmom": 0.0}, "label": "As", "xyz": [9.725328076223875, 0.0, 6.436008375]}, {"species": [{"element": "As", "occu": 1}], "abc": [0.5, 0.86346774, 0.88648761], "properties": {"magmom": -0.0}, "label": "As", "xyz": [5.499471925, 10.56222536217129, 11.410883364587468]}, {"species": [{"element": "As", "occu": 1}], "abc": [0.5, 0.13653226000000002, 0.11351239], "properties": {"magmom": -0.0}, "label": "As", "xyz": [5.499471925, 1.6701081378287101, 1.4611333854125326]}, {"species": [{"element": "As", "occu": 1}], "abc": [0.5, 0.36346774, 0.61351239], "properties": {"magmom": -0.0}, "label": "As", "xyz": [5.499471925, 4.4460586121712895, 7.8971417604125325]}, {"species": [{"element": "As", "occu": 1}], "abc": [0.5, 0.63653226, 0.38648761], "properties": {"magmom": -0.0}, "label": "As", "xyz": [5.499471925, 7.786274887828709, 4.974874989587468]}, {"species": [{"element": "As", "occu": 1}], "abc": [0.23403255, 0.83763483, 0.17666624], "properties": {"magmom": 0.0}, "label": "As", "xyz": [2.5741108765223175, 10.246228591775806, 2.27405080043952]}, {"species": [{"element": "As", "occu": 1}], "abc": [0.23403255, 0.16236517, 0.82333376], "properties": {"magmom": 0.0}, "label": "As", "xyz": [2.5741108765223175, 1.9861049082241948, 10.59796594956048]}, {"species": [{"element": "As", "occu": 1}], "abc": [0.76596745, 0.33763483, 0.32333376], "properties": {"magmom": 0.0}, "label": "As", "xyz": [8.424832973477683, 4.130061841775805, 4.16195757456048]}, {"species": [{"element": "As", "occu": 1}], "abc": [0.76596745, 0.6623651700000001, 0.67666624], "properties": {"magmom": 0.0}, "label": "As", "xyz": [8.424832973477683, 8.102271658224195, 8.71005917543952]}, {"species": [{"element": "As", "occu": 1}], "abc": [0.76596745, 0.16236517, 0.82333376], "properties": {"magmom": 0.0}, "label": "As", "xyz": [8.424832973477683, 1.9861049082241948, 10.59796594956048]}, {"species": [{"element": "As", "occu": 1}], "abc": [0.76596745, 0.83763483, 0.17666624], "properties": {"magmom": 0.0}, "label": "As", "xyz": [8.424832973477683, 10.246228591775806, 2.27405080043952]}, {"species": [{"element": "As", "occu": 1}], "abc": [0.23403255, 0.6623651700000001, 0.67666624], "properties": {"magmom": 0.0}, "label": "As", "xyz": [2.5741108765223175, 8.102271658224195, 8.71005917543952]}, {"species": [{"element": "As", "occu": 1}], "abc": [0.23403255, 0.33763483, 0.32333376], "properties": {"magmom": 0.0}, "label": "As", "xyz": [2.5741108765223175, 4.130061841775805, 4.16195757456048]}, {"species": [{"element": "As", "occu": 1}], "abc": [0.5, 0.46243696, 0.90857837], "properties": {"magmom": -0.0}, "label": "As", "xyz": [5.499471925, 5.65668311744616, 11.695235997327698]}, {"species": [{"element": "As", "occu": 1}], "abc": [0.5, 0.53756304, 0.09142163], "properties": {"magmom": -0.0}, "label": "As", "xyz": [5.499471925, 6.57565038255384, 1.1767807526723026]}, {"species": [{"element": "As", "occu": 1}], "abc": [0.5, 0.96243696, 0.59142163], "properties": {"magmom": -0.0}, "label": "As", "xyz": [5.499471925, 11.77284986744616, 7.612789127672303]}, {"species": [{"element": "As", "occu": 1}], "abc": [0.5, 0.03756304, 0.40857837], "properties": {"magmom": -0.0}, "label": "As", "xyz": [5.499471925, 0.45948363255383995, 5.259227622327698]}, {"species": [{"element": "As", "occu": 1}], "abc": [-0.0, 0.860845299999999, 0.85887413], "properties": {"magmom": -0.0}, "label": "As", "xyz": [0.0, 10.530146801507538, 11.055442187501678]}, {"species": [{"element": "As", "occu": 1}], "abc": [-0.0, 0.1391547, 0.14112587000000001], "properties": {"magmom": -0.0}, "label": "As", "xyz": [0.0, 1.7021866984924499, 1.8165745624983227]}, {"species": [{"element": "As", "occu": 1}], "abc": [-0.0, 0.3608453, 0.64112587], "properties": {"magmom": -0.0}, "label": "As", "xyz": [0.0, 4.41398005150755, 8.252582937498323]}, {"species": [{"element": "As", "occu": 1}], "abc": [-0.0, 0.6391547, 0.35887413], "properties": {"magmom": -0.0}, "label": "As", "xyz": [0.0, 7.8183534484924495, 4.619433812501677]}]}, "task_ids": null, "uncorrected_energy_per_atom": null, "energy_per_atom": -16.285861979107143, "formation_energy_per_atom": -1.327970944464285, "energy_above_hull": 0.0, "is_stable": true, "equilibrium_reaction_energy_per_atom": null, "decomposes_to": null, "xas": null, "grain_boundaries": null, "band_gap": 0.8578000000000001, "cbm": null, "vbm": null, "efermi": 2.72132361, "is_gap_direct": null, "is_metal": null, "es_source_calc_id": null, "bandstructure": null, "dos": null, "dos_energy_up": null, "dos_energy_down": null, "is_magnetic": null, "ordering": null, "total_magnetization": 1e-07, "total_magnetization_normalized_vol": null, "total_magnetization_normalized_formula_units": null, "num_magnetic_sites": null, "num_unique_magnetic_sites": null, "types_of_magnetic_species": null, "bulk_modulus": null, "shear_modulus": null, "universal_anisotropy": null, "homogeneous_poisson": null, "e_total": null, "e_ionic": null, "e_electronic": null, "n": null, "e_ij_max": null, "weighted_surface_energy_EV_PER_ANG2": null, "weighted_surface_energy": null, "weighted_work_function": null, "surface_anisotropy": null, "shape_factor": null, "has_reconstructed": null, "possible_species": null, "has_props": null, "theoretical": null, "database_IDs": null, "fields_not_requested": ["builder_meta", "nsites", "elements", "nelements", "composition", "composition_reduced", "chemsys", "symmetry", "property_name", "deprecated", "deprecation_reasons", "last_updated", "origins", "warnings", "task_ids", "uncorrected_energy_per_atom", "equilibrium_reaction_energy_per_atom", "decomposes_to", "xas", "grain_boundaries", "cbm", "vbm", "is_gap_direct", "is_metal", "es_source_calc_id", "bandstructure", "dos", "dos_energy_up", "dos_energy_down", "is_magnetic", "ordering", "total_magnetization_normalized_vol", "total_magnetization_normalized_formula_units", "num_magnetic_sites", "num_unique_magnetic_sites", "types_of_magnetic_species", "bulk_modulus", "shear_modulus", "universal_anisotropy", "homogeneous_poisson", "e_total", "e_ionic", "e_electronic", "n", "e_ij_max", "weighted_surface_energy_EV_PER_ANG2", "weighted_surface_energy", "weighted_work_function", "surface_anisotropy", "shape_factor", "has_reconstructed", "possible_species", "has_props", "theoretical", "database_IDs"]}