{
  "builder_meta": null,
  "nsites": null,
  "elements": null,
  "nelements": null,
  "composition": null,
  "composition_reduced": null,
  "formula_pretty": "Sr4Al",
  "formula_anonymous": "AB4",
  "chemsys": null,
  "volume": 554.1094064282075,
  "density": 2.2623316757047442,
  "density_atomic": 55.410940642820755,
  "symmetry": null,
  "property_name": null,
  "material_id": "mp-1208483",
  "deprecated": null,
  "deprecation_reasons": null,
  "last_updated": null,
  "origins": null,
  "warnings": null,
  "structure": {
    "@module": "pymatgen.core.structure",
    "@class": "Structure",
    "charge": 0,
    "lattice": {
      "matrix": [
        [-6.519113, -6.519113, 0.0],
        [-6.519113, 0.0, -6.519113],
        [0.0, -6.519113, -6.519113]
      ],
      "pbc": [true, true, true],
      "a": 9.219418019242754,
      "b": 9.219418019242754,
      "c": 9.219418019242754,
      "alpha": 59.99999999999999,
      "beta": 59.99999999999999,
      "gamma": 59.99999999999999,
      "volume": 554.1094064282075
    },
    "properties": {},
    "sites": [
      {
        "species": [{ "element": "Sr", "occu": 1 }],
        "abc": [0.612966999999999, 0.612966999999999, 0.612966999999999],
        "properties": { "magmom": 0.037 },
        "label": "Sr",
        "xyz": [-7.992002276541988, -7.992002276541988, -7.992002276541988]
      },
      {
        "species": [{ "element": "Sr", "occu": 1 }],
        "abc": [0.161098, 0.612966999999999, 0.612966999999999],
        "properties": { "magmom": 0.038 },
        "label": "Sr",
        "xyz": [-5.046217204344994, -5.046217204344994, -7.992002276541988]
      },
      {
        "species": [{ "element": "Sr", "occu": 1 }],
        "abc": [0.612966999999999, 0.161098, 0.612966999999999],
        "properties": { "magmom": 0.039 },
        "label": "Sr",
        "xyz": [-5.046217204344994, -7.992002276541988, -5.046217204344994]
      },
      {
        "species": [{ "element": "Sr", "occu": 1 }],
        "abc": [0.588901999999999, 0.137033, 0.137033],
        "properties": { "magmom": 0.038 },
        "label": "Sr",
        "xyz": [-4.732452295654993, -4.732452295654993, -1.7866672234579999]
      },
      {
        "species": [{ "element": "Sr", "occu": 1 }],
        "abc": [0.137033, 0.137033, 0.137033],
        "properties": { "magmom": 0.037 },
        "label": "Sr",
        "xyz": [-1.7866672234579999, -1.7866672234579999, -1.7866672234579999]
      },
      {
        "species": [{ "element": "Sr", "occu": 1 }],
        "abc": [0.612966999999999, 0.612966999999999, 0.161098],
        "properties": { "magmom": 0.038 },
        "label": "Sr",
        "xyz": [-7.992002276541988, -5.046217204344994, -5.046217204344994]
      },
      {
        "species": [{ "element": "Sr", "occu": 1 }],
        "abc": [0.137033, 0.588901999999999, 0.137033],
        "properties": { "magmom": 0.039 },
        "label": "Sr",
        "xyz": [-4.732452295654993, -1.7866672234579999, -4.732452295654993]
      },
      {
        "species": [{ "element": "Sr", "occu": 1 }],
        "abc": [0.137033, 0.137033, 0.588901999999999],
        "properties": { "magmom": 0.038 },
        "label": "Sr",
        "xyz": [-1.7866672234579999, -4.732452295654993, -4.732452295654993]
      },
      {
        "species": [{ "element": "Al", "occu": 1 }],
        "abc": [0.0, 0.0, 0.0],
        "properties": { "magmom": 0.063 },
        "label": "Al",
        "xyz": [0.0, 0.0, 0.0]
      },
      {
        "species": [{ "element": "Al", "occu": 1 }],
        "abc": [0.75, 0.75, 0.75],
        "properties": { "magmom": 0.063 },
        "label": "Al",
        "xyz": [-9.7786695, -9.7786695, -9.7786695]
      }
    ]
  },
  "task_ids": null,
  "uncorrected_energy_per_atom": null,
  "energy_per_atom": -13.142897044814816,
  "formation_energy_per_atom": 0.320051477185182,
  "energy_above_hull": 0.40836704362962806,
  "is_stable": false,
  "equilibrium_reaction_energy_per_atom": null,
  "decomposes_to": null,
  "xas": null,
  "grain_boundaries": null,
  "band_gap": 0.0,
  "cbm": null,
  "vbm": null,
  "efermi": 1.16301201,
  "is_gap_direct": null,
  "is_metal": null,
  "es_source_calc_id": null,
  "bandstructure": null,
  "dos": null,
  "dos_energy_up": null,
  "dos_energy_down": null,
  "is_magnetic": null,
  "ordering": null,
  "total_magnetization": 2.2762963,
  "total_magnetization_normalized_vol": null,
  "total_magnetization_normalized_formula_units": null,
  "num_magnetic_sites": null,
  "num_unique_magnetic_sites": null,
  "types_of_magnetic_species": null,
  "bulk_modulus": null,
  "shear_modulus": null,
  "universal_anisotropy": null,
  "homogeneous_poisson": null,
  "e_total": null,
  "e_ionic": null,
  "e_electronic": null,
  "n": null,
  "e_ij_max": null,
  "weighted_surface_energy_EV_PER_ANG2": null,
  "weighted_surface_energy": null,
  "weighted_work_function": null,
  "surface_anisotropy": null,
  "shape_factor": null,
  "has_reconstructed": null,
  "possible_species": null,
  "has_props": null,
  "theoretical": null,
  "database_IDs": null,
  "fields_not_requested": [
    "builder_meta",
    "nsites",
    "elements",
    "nelements",
    "composition",
    "composition_reduced",
    "chemsys",
    "symmetry",
    "property_name",
    "deprecated",
    "deprecation_reasons",
    "last_updated",
    "origins",
    "warnings",
    "task_ids",
    "uncorrected_energy_per_atom",
    "equilibrium_reaction_energy_per_atom",
    "decomposes_to",
    "xas",
    "grain_boundaries",
    "cbm",
    "vbm",
    "is_gap_direct",
    "is_metal",
    "es_source_calc_id",
    "bandstructure",
    "dos",
    "dos_energy_up",
    "dos_energy_down",
    "is_magnetic",
    "ordering",
    "total_magnetization_normalized_vol",
    "total_magnetization_normalized_formula_units",
    "num_magnetic_sites",
    "num_unique_magnetic_sites",
    "types_of_magnetic_species",
    "bulk_modulus",
    "shear_modulus",
    "universal_anisotropy",
    "homogeneous_poisson",
    "e_total",
    "e_ionic",
    "e_electronic",
    "n",
    "e_ij_max",
    "weighted_surface_energy_EV_PER_ANG2",
    "weighted_surface_energy",
    "weighted_work_function",
    "surface_anisotropy",
    "shape_factor",
    "has_reconstructed",
    "possible_species",
    "has_props",
    "theoretical",
    "database_IDs"
  ]
}
