{
  "builder_meta": null,
  "nsites": null,
  "elements": null,
  "nelements": null,
  "composition": null,
  "composition_reduced": null,
  "formula_pretty": "Sr4Bi3",
  "formula_anonymous": "A3B4",
  "chemsys": null,
  "volume": 528.515718466239,
  "density": 6.14190280596822,
  "density_atomic": 37.751122747588504,
  "symmetry": null,
  "property_name": null,
  "material_id": "mp-30893",
  "deprecated": null,
  "deprecation_reasons": null,
  "last_updated": null,
  "origins": null,
  "warnings": null,
  "structure": {
    "@module": "pymatgen.core.structure",
    "@class": "Structure",
    "charge": 0,
    "lattice": {
      "matrix": [
        [8.31732484, 0.0, -2.94061881],
        [-4.15866242, 7.20301483, -2.94061881],
        [-0.0, -1e-8, 8.82185542]
      ],
      "pbc": [true, true, true],
      "a": 8.821855330927097,
      "b": 8.821855516298484,
      "c": 8.82185542,
      "alpha": 109.47122278881693,
      "beta": 109.47122315822837,
      "gamma": 109.47121768509535,
      "volume": 528.5157184662392
    },
    "properties": {},
    "sites": [
      {
        "species": [{ "element": "Sr", "occu": 1 }],
        "abc": [0.64541381, 0.64541381, 0.64541381],
        "properties": { "magmom": 0.0 },
        "label": "Sr",
        "xyz": [2.68405815699602, 4.648925238462664, 1.8979153380518174]
      },
      {
        "species": [{ "element": "Sr", "occu": 1 }],
        "abc": [0.35458619, 0.5, 0.0],
        "properties": { "magmom": 0.0 },
        "label": "Sr",
        "xyz": [0.8698773160079596, 3.601507415, -2.5130122250802343]
      },
      {
        "species": [{ "element": "Sr", "occu": 1 }],
        "abc": [0.5, 0.0, 0.35458619],
        "properties": { "magmom": 0.0 },
        "label": "Sr",
        "xyz": [4.15866242, -3.5458619e-9, 1.65779869710865]
      },
      {
        "species": [{ "element": "Sr", "occu": 1 }],
        "abc": [-0.0, 0.35458619, 0.5],
        "properties": { "magmom": 0.0 },
        "label": "Sr",
        "xyz": [-1.4746042630039797, 2.5540895800831978, 3.368224889919766]
      },
      {
        "species": [{ "element": "Sr", "occu": 1 }],
        "abc": [0.5, 0.0, 0.85458619],
        "properties": { "magmom": 0.0 },
        "label": "Sr",
        "xyz": [4.15866242, -8.5458619e-9, 6.068726407108651]
      },
      {
        "species": [{ "element": "Sr", "occu": 1 }],
        "abc": [-0.0, 0.85458619, 0.5],
        "properties": { "magmom": 0.0 },
        "label": "Sr",
        "xyz": [-3.5539354730039796, 6.155596995083197, 1.897915484919766]
      },
      {
        "species": [{ "element": "Sr", "occu": 1 }],
        "abc": [0.14541381, 0.14541381, 0.14541381],
        "properties": { "magmom": 0.0 },
        "label": "Sr",
        "xyz": [0.6047269469960201, 1.047417828462664, 0.4276064380518181]
      },
      {
        "species": [{ "element": "Sr", "occu": 1 }],
        "abc": [0.85458619, 0.5, 0.0],
        "properties": { "magmom": 0.0 },
        "label": "Sr",
        "xyz": [5.028539736007959, 3.601507415, -3.9833216300802343]
      },
      {
        "species": [{ "element": "Bi", "occu": 1 }],
        "abc": [0.75, 0.875, 0.125],
        "properties": { "magmom": 0.0 },
        "label": "Bi",
        "xyz": [2.5991640125, 6.302637975, -3.675773638750001]
      },
      {
        "species": [{ "element": "Bi", "occu": 1 }],
        "abc": [0.625, 0.375, 0.25],
        "properties": { "magmom": 0.0 },
        "label": "Bi",
        "xyz": [3.6388296174999994, 2.7011305587499996, -0.735154955]
      },
      {
        "species": [{ "element": "Bi", "occu": 1 }],
        "abc": [0.875, 0.125, 0.75],
        "properties": { "magmom": 0.0 },
        "label": "Bi",
        "xyz": [6.7578264325, 0.90037684625, 3.6757727550000006]
      },
      {
        "species": [{ "element": "Bi", "occu": 1 }],
        "abc": [0.125, 0.75, 0.875],
        "properties": { "magmom": 0.0 },
        "label": "Bi",
        "xyz": [-2.0793312100000003, 5.40226111375, 5.14608203375]
      },
      {
        "species": [{ "element": "Bi", "occu": 1 }],
        "abc": [0.375, 0.25, 0.625],
        "properties": { "magmom": 0.0 },
        "label": "Bi",
        "xyz": [2.0793312100000003, 1.80075370125, 3.67577288125]
      },
      {
        "species": [{ "element": "Bi", "occu": 1 }],
        "abc": [0.25, 0.625, 0.375],
        "properties": { "magmom": 0.0 },
        "label": "Bi",
        "xyz": [-0.5198328024999999, 4.501884264999999, 0.7351543237500002]
      }
    ]
  },
  "task_ids": null,
  "uncorrected_energy_per_atom": null,
  "energy_per_atom": -34.774504084285724,
  "formation_energy_per_atom": -1.047437582142862,
  "energy_above_hull": 0.0,
  "is_stable": true,
  "equilibrium_reaction_energy_per_atom": null,
  "decomposes_to": null,
  "xas": null,
  "grain_boundaries": null,
  "band_gap": 0.0,
  "cbm": null,
  "vbm": null,
  "efermi": 2.81204044,
  "is_gap_direct": null,
  "is_metal": null,
  "es_source_calc_id": null,
  "bandstructure": null,
  "dos": null,
  "dos_energy_up": null,
  "dos_energy_down": null,
  "is_magnetic": null,
  "ordering": null,
  "total_magnetization": 1.7e-6,
  "total_magnetization_normalized_vol": null,
  "total_magnetization_normalized_formula_units": null,
  "num_magnetic_sites": null,
  "num_unique_magnetic_sites": null,
  "types_of_magnetic_species": null,
  "bulk_modulus": null,
  "shear_modulus": null,
  "universal_anisotropy": null,
  "homogeneous_poisson": null,
  "e_total": null,
  "e_ionic": null,
  "e_electronic": null,
  "n": null,
  "e_ij_max": null,
  "weighted_surface_energy_EV_PER_ANG2": null,
  "weighted_surface_energy": null,
  "weighted_work_function": null,
  "surface_anisotropy": null,
  "shape_factor": null,
  "has_reconstructed": null,
  "possible_species": null,
  "has_props": null,
  "theoretical": null,
  "database_IDs": null,
  "fields_not_requested": [
    "builder_meta",
    "nsites",
    "elements",
    "nelements",
    "composition",
    "composition_reduced",
    "chemsys",
    "symmetry",
    "property_name",
    "deprecated",
    "deprecation_reasons",
    "last_updated",
    "origins",
    "warnings",
    "task_ids",
    "uncorrected_energy_per_atom",
    "equilibrium_reaction_energy_per_atom",
    "decomposes_to",
    "xas",
    "grain_boundaries",
    "cbm",
    "vbm",
    "is_gap_direct",
    "is_metal",
    "es_source_calc_id",
    "bandstructure",
    "dos",
    "dos_energy_up",
    "dos_energy_down",
    "is_magnetic",
    "ordering",
    "total_magnetization_normalized_vol",
    "total_magnetization_normalized_formula_units",
    "num_magnetic_sites",
    "num_unique_magnetic_sites",
    "types_of_magnetic_species",
    "bulk_modulus",
    "shear_modulus",
    "universal_anisotropy",
    "homogeneous_poisson",
    "e_total",
    "e_ionic",
    "e_electronic",
    "n",
    "e_ij_max",
    "weighted_surface_energy_EV_PER_ANG2",
    "weighted_surface_energy",
    "weighted_work_function",
    "surface_anisotropy",
    "shape_factor",
    "has_reconstructed",
    "possible_species",
    "has_props",
    "theoretical",
    "database_IDs"
  ]
}
