{
  "builder_meta": null,
  "nsites": null,
  "elements": null,
  "nelements": null,
  "composition": null,
  "composition_reduced": null,
  "formula_pretty": "Sr4Ir",
  "formula_anonymous": "AB4",
  "chemsys": null,
  "volume": 487.3801736024335,
  "density": 3.698014891191382,
  "density_atomic": 48.73801736024335,
  "symmetry": null,
  "property_name": null,
  "material_id": "mp-1208741",
  "deprecated": null,
  "deprecation_reasons": null,
  "last_updated": null,
  "origins": null,
  "warnings": null,
  "structure": {
    "@module": "pymatgen.core.structure",
    "@class": "Structure",
    "charge": 0.0,
    "lattice": {
      "matrix": [
        [-6.24615304, -6.24615304, 0.0],
        [-6.24615304, 0.0, -6.24615304],
        [0.0, -6.24615304, -6.24615304]
      ],
      "pbc": [true, true, true],
      "a": 8.833394341825937,
      "b": 8.833394341825937,
      "c": 8.833394341825937,
      "alpha": 59.99999999999999,
      "beta": 59.99999999999999,
      "gamma": 59.99999999999999,
      "volume": 487.3801736024335
    },
    "properties": {},
    "sites": [
      {
        "species": [{ "element": "Sr", "occu": 1 }],
        "abc": [0.62320536, 0.62320536, 0.62320536],
        "properties": { "magmom": -0.0 },
        "label": "Sr",
        "xyz": [-7.785272107816589, -7.785272107816589, -7.785272107816589]
      },
      {
        "species": [{ "element": "Sr", "occu": 1 }],
        "abc": [0.13038292, 0.62320536, 0.62320536],
        "properties": { "magmom": -0.0 },
        "label": "Sr",
        "xyz": [-4.707027726030372, -4.707027726030372, -7.785272107816589]
      },
      {
        "species": [{ "element": "Sr", "occu": 1 }],
        "abc": [0.62320536, 0.13038292, 0.62320536],
        "properties": { "magmom": -0.0 },
        "label": "Sr",
        "xyz": [-4.707027726030372, -7.785272107816589, -4.707027726030372]
      },
      {
        "species": [{ "element": "Sr", "occu": 1 }],
        "abc": [0.61961708, 0.12679464000000001, 0.12679464000000001],
        "properties": { "magmom": -0.0 },
        "label": "Sr",
        "xyz": [-4.662201833969629, -4.662201833969629, -1.5839574521834114]
      },
      {
        "species": [{ "element": "Sr", "occu": 1 }],
        "abc": [0.12679464000000001, 0.12679464000000001, 0.12679464000000001],
        "properties": { "magmom": -0.0 },
        "label": "Sr",
        "xyz": [-1.5839574521834114, -1.5839574521834114, -1.5839574521834114]
      },
      {
        "species": [{ "element": "Sr", "occu": 1 }],
        "abc": [0.62320536, 0.62320536, 0.13038292],
        "properties": { "magmom": -0.0 },
        "label": "Sr",
        "xyz": [-7.785272107816589, -4.707027726030372, -4.707027726030372]
      },
      {
        "species": [{ "element": "Sr", "occu": 1 }],
        "abc": [0.12679464000000001, 0.61961708, 0.12679464000000001],
        "properties": { "magmom": -0.0 },
        "label": "Sr",
        "xyz": [-4.662201833969629, -1.5839574521834114, -4.662201833969629]
      },
      {
        "species": [{ "element": "Sr", "occu": 1 }],
        "abc": [0.12679464000000001, 0.12679464000000001, 0.61961708],
        "properties": { "magmom": -0.0 },
        "label": "Sr",
        "xyz": [-1.5839574521834114, -4.662201833969629, -4.662201833969629]
      },
      {
        "species": [{ "element": "Ir", "occu": 1 }],
        "abc": [0.0, -0.0, -0.0],
        "properties": { "magmom": 0.0 },
        "label": "Ir",
        "xyz": [0.0, 0.0, 0.0]
      },
      {
        "species": [{ "element": "Ir", "occu": 1 }],
        "abc": [0.75, 0.75, 0.75],
        "properties": { "magmom": 0.0 },
        "label": "Ir",
        "xyz": [-9.36922956, -9.36922956, -9.36922956]
      }
    ]
  },
  "task_ids": null,
  "uncorrected_energy_per_atom": null,
  "energy_per_atom": -22.396108634,
  "formation_energy_per_atom": 0.192290911999998,
  "energy_above_hull": 0.291312259499996,
  "is_stable": false,
  "equilibrium_reaction_energy_per_atom": null,
  "decomposes_to": null,
  "xas": null,
  "grain_boundaries": null,
  "band_gap": 0.0,
  "cbm": null,
  "vbm": null,
  "efermi": 1.52286997,
  "is_gap_direct": null,
  "is_metal": null,
  "es_source_calc_id": null,
  "bandstructure": null,
  "dos": null,
  "dos_energy_up": null,
  "dos_energy_down": null,
  "is_magnetic": null,
  "ordering": null,
  "total_magnetization": 3.0600000000000005e-5,
  "total_magnetization_normalized_vol": null,
  "total_magnetization_normalized_formula_units": null,
  "num_magnetic_sites": null,
  "num_unique_magnetic_sites": null,
  "types_of_magnetic_species": null,
  "bulk_modulus": null,
  "shear_modulus": null,
  "universal_anisotropy": null,
  "homogeneous_poisson": null,
  "e_total": null,
  "e_ionic": null,
  "e_electronic": null,
  "n": null,
  "e_ij_max": null,
  "weighted_surface_energy_EV_PER_ANG2": null,
  "weighted_surface_energy": null,
  "weighted_work_function": null,
  "surface_anisotropy": null,
  "shape_factor": null,
  "has_reconstructed": null,
  "possible_species": null,
  "has_props": null,
  "theoretical": null,
  "database_IDs": null,
  "fields_not_requested": [
    "builder_meta",
    "nsites",
    "elements",
    "nelements",
    "composition",
    "composition_reduced",
    "chemsys",
    "symmetry",
    "property_name",
    "deprecated",
    "deprecation_reasons",
    "last_updated",
    "origins",
    "warnings",
    "task_ids",
    "uncorrected_energy_per_atom",
    "equilibrium_reaction_energy_per_atom",
    "decomposes_to",
    "xas",
    "grain_boundaries",
    "cbm",
    "vbm",
    "is_gap_direct",
    "is_metal",
    "es_source_calc_id",
    "bandstructure",
    "dos",
    "dos_energy_up",
    "dos_energy_down",
    "is_magnetic",
    "ordering",
    "total_magnetization_normalized_vol",
    "total_magnetization_normalized_formula_units",
    "num_magnetic_sites",
    "num_unique_magnetic_sites",
    "types_of_magnetic_species",
    "bulk_modulus",
    "shear_modulus",
    "universal_anisotropy",
    "homogeneous_poisson",
    "e_total",
    "e_ionic",
    "e_electronic",
    "n",
    "e_ij_max",
    "weighted_surface_energy_EV_PER_ANG2",
    "weighted_surface_energy",
    "weighted_work_function",
    "surface_anisotropy",
    "shape_factor",
    "has_reconstructed",
    "possible_species",
    "has_props",
    "theoretical",
    "database_IDs"
  ]
}
