{"builder_meta": null, "nsites": null, "elements": null, "nelements": null, "composition": null, "composition_reduced": null, "formula_pretty": "Sr4N3", "formula_anonymous": "A3B4", "chemsys": null, "volume": 156.63028381413116, "density": 4.16114772841652, "density_atomic": 22.375754830590164, "symmetry": null, "property_name": null, "material_id": "mp-1173210", "deprecated": null, "deprecation_reasons": null, "last_updated": null, "origins": null, "warnings": null, "structure": {"@module": "pymatgen.core.structure", "@class": "Structure", "charge": 0, "lattice": {"matrix": [[1.957728, 6.804685, 0.0], [-1.957728, 6.804685, 0.0], [0.0, 2.911348, 5.878755]], "pbc": [true, true, true], "a": 7.080708783109852, "b": 7.080708783109852, "c": 6.560160632723028, "alpha": 64.7548581019339, "beta": 64.7548581019339, "gamma": 32.10136708988076, "volume": 156.63028381413116}, "properties": {}, "sites": [{"species": [{"element": "Sr", "occu": 1}], "abc": [0.631496, 0.631496, 0.554573], "properties": {"magmom": 0.008}, "label": "Sr", "xyz": [0.0, 10.208817711923999, 3.2601987966149997]}, {"species": [{"element": "Sr", "occu": 1}], "abc": [0.137652, 0.137652, 0.002804], "properties": {"magmom": 0.003}, "label": "Sr", "xyz": [0.0, 1.8815204190319998, 0.01648402902]}, {"species": [{"element": "Sr", "occu": 1}], "abc": [0.368504, 0.368504, 0.445426999999999], "properties": {"magmom": 0.008}, "label": "Sr", "xyz": [0.0, 6.3119002880759965, 2.618556203384994]}, {"species": [{"element": "Sr", "occu": 1}], "abc": [0.862348, 0.862348, 0.997196], "properties": {"magmom": 0.003}, "label": "Sr", "xyz": [0.0, 14.639197580968, 5.86227097098]}, {"species": [{"element": "N", "occu": 1}], "abc": [0.775164, 0.775164, 0.711548], "properties": {"magmom": 0.14}, "label": "N", "xyz": [0.0, 12.621057533384, 4.18301636274]}, {"species": [{"element": "N", "occu": 1}], "abc": [0.5, 0.5, 0.0], "properties": {"magmom": 0.373}, "label": "N", "xyz": [0.0, 6.804685, 0.0]}, {"species": [{"element": "N", "occu": 1}], "abc": [0.224835999999999, 0.224835999999999, 0.288452], "properties": {"magmom": 0.14}, "label": "N", "xyz": [0.0, 3.899660466615986, 1.6957386372599998]}]}, "task_ids": null, "uncorrected_energy_per_atom": null, "energy_per_atom": -13.091244985714285, "formation_energy_per_atom": -0.5242598008928571, "energy_above_hull": 0.145912927142859, "is_stable": false, "equilibrium_reaction_energy_per_atom": null, "decomposes_to": null, "xas": null, "grain_boundaries": null, "band_gap": 0.0, "cbm": null, "vbm": null, "efermi": 2.21293152, "is_gap_direct": null, "is_metal": null, "es_source_calc_id": null, "bandstructure": null, "dos": null, "dos_energy_up": null, "dos_energy_down": null, "is_magnetic": null, "ordering": null, "total_magnetization": 1.0003423, "total_magnetization_normalized_vol": null, "total_magnetization_normalized_formula_units": null, "num_magnetic_sites": null, "num_unique_magnetic_sites": null, "types_of_magnetic_species": null, "bulk_modulus": null, "shear_modulus": null, "universal_anisotropy": null, "homogeneous_poisson": null, "e_total": null, "e_ionic": null, "e_electronic": null, "n": null, "e_ij_max": null, "weighted_surface_energy_EV_PER_ANG2": null, "weighted_surface_energy": null, "weighted_work_function": null, "surface_anisotropy": null, "shape_factor": null, "has_reconstructed": null, "possible_species": null, "has_props": null, "theoretical": null, "database_IDs": null, "fields_not_requested": ["builder_meta", "nsites", "elements", "nelements", "composition", "composition_reduced", "chemsys", "symmetry", "property_name", "deprecated", "deprecation_reasons", "last_updated", "origins", "warnings", "task_ids", "uncorrected_energy_per_atom", "equilibrium_reaction_energy_per_atom", "decomposes_to", "xas", "grain_boundaries", "cbm", "vbm", "is_gap_direct", "is_metal", "es_source_calc_id", "bandstructure", "dos", "dos_energy_up", "dos_energy_down", "is_magnetic", "ordering", "total_magnetization_normalized_vol", "total_magnetization_normalized_formula_units", "num_magnetic_sites", "num_unique_magnetic_sites", "types_of_magnetic_species", "bulk_modulus", "shear_modulus", "universal_anisotropy", "homogeneous_poisson", "e_total", "e_ionic", "e_electronic", "n", "e_ij_max", "weighted_surface_energy_EV_PER_ANG2", "weighted_surface_energy", "weighted_work_function", "surface_anisotropy", "shape_factor", "has_reconstructed", "possible_species", "has_props", "theoretical", "database_IDs"]}