{"builder_meta": null, "nsites": null, "elements": null, "nelements": null, "composition": null, "composition_reduced": null, "formula_pretty": "Sr4Pd", "formula_anonymous": "AB4", "chemsys": null, "volume": 505.310630554545, "density": 3.002906543632049, "density_atomic": 50.5310630554545, "symmetry": null, "property_name": null, "material_id": "mp-1208722", "deprecated": null, "deprecation_reasons": null, "last_updated": null, "origins": null, "warnings": null, "structure": {"@module": "pymatgen.core.structure", "@class": "Structure", "charge": 0, "lattice": {"matrix": [[-6.32183, -6.32183, 0.0], [-6.32183, 0.0, -6.32183], [0.0, -6.32183, -6.32183]], "pbc": [true, true, true], "a": 8.940417725017104, "b": 8.940417725017104, "c": 8.940417725017104, "alpha": 60.00000000000001, "beta": 60.00000000000001, "gamma": 60.00000000000001, "volume": 505.310630554545}, "properties": {}, "sites": [{"species": [{"element": "Sr", "occu": 1}], "abc": [0.619408, 0.619408, 0.619408], "properties": {"magmom": 0.001}, "label": "Sr", "xyz": [-7.83158415328, -7.83158415328, -7.83158415328]}, {"species": [{"element": "Sr", "occu": 1}], "abc": [0.141774999999999, 0.619408, 0.619408], "properties": {"magmom": -0.003}, "label": "Sr", "xyz": [-4.812069524889994, -4.812069524889994, -7.83158415328]}, {"species": [{"element": "Sr", "occu": 1}], "abc": [0.619408, 0.141774999999999, 0.619408], "properties": {"magmom": 0.001}, "label": "Sr", "xyz": [-4.812069524889994, -7.83158415328, -4.812069524889994]}, {"species": [{"element": "Sr", "occu": 1}], "abc": [0.608225, 0.13059199999999901, 0.13059199999999901], "properties": {"magmom": -0.003}, "label": "Sr", "xyz": [-4.670675475109994, -4.670675475109994, -1.6511608467199876]}, {"species": [{"element": "Sr", "occu": 1}], "abc": [0.13059199999999901, 0.13059199999999901, 0.13059199999999901], "properties": {"magmom": 0.001}, "label": "Sr", "xyz": [-1.6511608467199876, -1.6511608467199876, -1.6511608467199876]}, {"species": [{"element": "Sr", "occu": 1}], "abc": [0.619408, 0.619408, 0.141774999999999], "properties": {"magmom": 0.001}, "label": "Sr", "xyz": [-7.83158415328, -4.812069524889994, -4.812069524889994]}, {"species": [{"element": "Sr", "occu": 1}], "abc": [0.13059199999999901, 0.608225, 0.13059199999999901], "properties": {"magmom": 0.001}, "label": "Sr", "xyz": [-4.670675475109994, -1.6511608467199876, -4.670675475109994]}, {"species": [{"element": "Sr", "occu": 1}], "abc": [0.13059199999999901, 0.13059199999999901, 0.608225], "properties": {"magmom": 0.001}, "label": "Sr", "xyz": [-1.6511608467199876, -4.670675475109994, -4.670675475109994]}, {"species": [{"element": "Pd", "occu": 1}], "abc": [0.0, 0.0, 0.0], "properties": {"magmom": -0.0}, "label": "Pd", "xyz": [0.0, 0.0, 0.0]}, {"species": [{"element": "Pd", "occu": 1}], "abc": [0.75, 0.75, 0.75], "properties": {"magmom": -0.0}, "label": "Pd", "xyz": [-9.482745000000001, -9.482745000000001, -9.482745000000001]}]}, "task_ids": null, "uncorrected_energy_per_atom": null, "energy_per_atom": -2.4350607010000003, "formation_energy_per_atom": -0.045141866999999, "energy_above_hull": 0.218075648999999, "is_stable": false, "equilibrium_reaction_energy_per_atom": null, "decomposes_to": null, "xas": null, "grain_boundaries": null, "band_gap": 0.0, "cbm": null, "vbm": null, "efermi": 1.39917584, "is_gap_direct": null, "is_metal": null, "es_source_calc_id": null, "bandstructure": null, "dos": null, "dos_energy_up": null, "dos_energy_down": null, "is_magnetic": null, "ordering": null, "total_magnetization": 0.0017821999999990002, "total_magnetization_normalized_vol": null, "total_magnetization_normalized_formula_units": null, "num_magnetic_sites": null, "num_unique_magnetic_sites": null, "types_of_magnetic_species": null, "bulk_modulus": null, "shear_modulus": null, "universal_anisotropy": null, "homogeneous_poisson": null, "e_total": null, "e_ionic": null, "e_electronic": null, "n": null, "e_ij_max": null, "weighted_surface_energy_EV_PER_ANG2": null, "weighted_surface_energy": null, "weighted_work_function": null, "surface_anisotropy": null, "shape_factor": null, "has_reconstructed": null, "possible_species": null, "has_props": null, "theoretical": null, "database_IDs": null, "fields_not_requested": ["builder_meta", "nsites", "elements", "nelements", "composition", "composition_reduced", "chemsys", "symmetry", "property_name", "deprecated", "deprecation_reasons", "last_updated", "origins", "warnings", "task_ids", "uncorrected_energy_per_atom", "equilibrium_reaction_energy_per_atom", "decomposes_to", "xas", "grain_boundaries", "cbm", "vbm", "is_gap_direct", "is_metal", "es_source_calc_id", "bandstructure", "dos", "dos_energy_up", "dos_energy_down", "is_magnetic", "ordering", "total_magnetization_normalized_vol", "total_magnetization_normalized_formula_units", "num_magnetic_sites", "num_unique_magnetic_sites", "types_of_magnetic_species", "bulk_modulus", "shear_modulus", "universal_anisotropy", "homogeneous_poisson", "e_total", "e_ionic", "e_electronic", "n", "e_ij_max", "weighted_surface_energy_EV_PER_ANG2", "weighted_surface_energy", "weighted_work_function", "surface_anisotropy", "shape_factor", "has_reconstructed", "possible_species", "has_props", "theoretical", "database_IDs"]}