{"builder_meta": null, "nsites": null, "elements": null, "nelements": null, "composition": null, "composition_reduced": null, "formula_pretty": "Sr4Rh", "formula_anonymous": "AB4", "chemsys": null, "volume": 468.9945046362067, "density": 3.210546509767579, "density_atomic": 46.899450463620674, "symmetry": null, "property_name": null, "material_id": "mp-1208743", "deprecated": null, "deprecation_reasons": null, "last_updated": null, "origins": null, "warnings": null, "structure": {"@module": "pymatgen.core.structure", "@class": "Structure", "charge": 0, "lattice": {"matrix": [[0.0, 6.166602, 6.166602], [6.166602, 0.0, 6.166602], [6.166602, 6.166602, 0.0]], "pbc": [true, true, true], "a": 8.720892182157053, "b": 8.720892182157053, "c": 8.720892182157053, "alpha": 60.00000000000001, "beta": 60.00000000000001, "gamma": 60.00000000000001, "volume": 468.9945046362067}, "properties": {}, "sites": [{"species": [{"element": "Sr", "occu": 1}], "abc": [0.378671, 0.378671, 0.378671], "properties": {"magmom": -0.0}, "label": "Sr", "xyz": [4.670226691883999, 4.670226691883999, 4.670226691883999]}, {"species": [{"element": "Sr", "occu": 1}], "abc": [0.378671, 0.378671, 0.863987], "properties": {"magmom": -0.0}, "label": "Sr", "xyz": [7.662977308116, 7.662977308116, 4.670226691883999]}, {"species": [{"element": "Sr", "occu": 1}], "abc": [0.378671, 0.863987, 0.378671], "properties": {"magmom": -0.0}, "label": "Sr", "xyz": [7.662977308116, 4.670226691883999, 7.662977308116]}, {"species": [{"element": "Sr", "occu": 1}], "abc": [0.871328999999999, 0.871328999999999, 0.386013], "properties": {"magmom": -0.0}, "label": "Sr", "xyz": [7.753527691883994, 7.753527691883994, 10.746278308115988]}, {"species": [{"element": "Sr", "occu": 1}], "abc": [0.871328999999999, 0.871328999999999, 0.871328999999999], "properties": {"magmom": -0.0}, "label": "Sr", "xyz": [10.746278308115988, 10.746278308115988, 10.746278308115988]}, {"species": [{"element": "Sr", "occu": 1}], "abc": [0.863987, 0.378671, 0.378671], "properties": {"magmom": -0.0}, "label": "Sr", "xyz": [4.670226691883999, 7.662977308116, 7.662977308116]}, {"species": [{"element": "Sr", "occu": 1}], "abc": [0.871328999999999, 0.386013, 0.871328999999999], "properties": {"magmom": -0.0}, "label": "Sr", "xyz": [7.753527691883994, 10.746278308115988, 7.753527691883994]}, {"species": [{"element": "Sr", "occu": 1}], "abc": [0.386013, 0.871328999999999, 0.871328999999999], "properties": {"magmom": -0.0}, "label": "Sr", "xyz": [10.746278308115988, 7.753527691883994, 7.753527691883994]}, {"species": [{"element": "Rh", "occu": 1}], "abc": [0.0, 0.0, 0.0], "properties": {"magmom": -0.0}, "label": "Rh", "xyz": [0.0, 0.0, 0.0]}, {"species": [{"element": "Rh", "occu": 1}], "abc": [0.25, 0.25, 0.25], "properties": {"magmom": -0.0}, "label": "Rh", "xyz": [3.083301, 3.083301, 3.083301]}]}, "task_ids": null, "uncorrected_energy_per_atom": null, "energy_per_atom": -16.861990246166663, "formation_energy_per_atom": 0.08178433583333601, "energy_above_hull": 0.15828843783333402, "is_stable": false, "equilibrium_reaction_energy_per_atom": null, "decomposes_to": null, "xas": null, "grain_boundaries": null, "band_gap": 0.0, "cbm": null, "vbm": null, "efermi": 1.64500538, "is_gap_direct": null, "is_metal": null, "es_source_calc_id": null, "bandstructure": null, "dos": null, "dos_energy_up": null, "dos_energy_down": null, "is_magnetic": null, "ordering": null, "total_magnetization": 0.000382299999999, "total_magnetization_normalized_vol": null, "total_magnetization_normalized_formula_units": null, "num_magnetic_sites": null, "num_unique_magnetic_sites": null, "types_of_magnetic_species": null, "bulk_modulus": null, "shear_modulus": null, "universal_anisotropy": null, "homogeneous_poisson": null, "e_total": null, "e_ionic": null, "e_electronic": null, "n": null, "e_ij_max": null, "weighted_surface_energy_EV_PER_ANG2": null, "weighted_surface_energy": null, "weighted_work_function": null, "surface_anisotropy": null, "shape_factor": null, "has_reconstructed": null, "possible_species": null, "has_props": null, "theoretical": null, "database_IDs": null, "fields_not_requested": ["builder_meta", "nsites", "elements", "nelements", "composition", "composition_reduced", "chemsys", "symmetry", "property_name", "deprecated", "deprecation_reasons", "last_updated", "origins", "warnings", "task_ids", "uncorrected_energy_per_atom", "equilibrium_reaction_energy_per_atom", "decomposes_to", "xas", "grain_boundaries", "cbm", "vbm", "is_gap_direct", "is_metal", "es_source_calc_id", "bandstructure", "dos", "dos_energy_up", "dos_energy_down", "is_magnetic", "ordering", "total_magnetization_normalized_vol", "total_magnetization_normalized_formula_units", "num_magnetic_sites", "num_unique_magnetic_sites", "types_of_magnetic_species", "bulk_modulus", "shear_modulus", "universal_anisotropy", "homogeneous_poisson", "e_total", "e_ionic", "e_electronic", "n", "e_ij_max", "weighted_surface_energy_EV_PER_ANG2", "weighted_surface_energy", "weighted_work_function", "surface_anisotropy", "shape_factor", "has_reconstructed", "possible_species", "has_props", "theoretical", "database_IDs"]}