{
  "builder_meta": null,
  "nsites": null,
  "elements": null,
  "nelements": null,
  "composition": null,
  "composition_reduced": null,
  "formula_pretty": "Sr5As3",
  "formula_anonymous": "A3B5",
  "chemsys": null,
  "volume": 511.02997253141064,
  "density": 4.307821284225516,
  "density_atomic": 31.939373283213165,
  "symmetry": null,
  "property_name": null,
  "material_id": "mp-15698",
  "deprecated": null,
  "deprecation_reasons": null,
  "last_updated": null,
  "origins": null,
  "warnings": null,
  "structure": {
    "@module": "pymatgen.core.structure",
    "@class": "Structure",
    "charge": 0,
    "lattice": {
      "matrix": [
        [9.00956521, -1.009999999999998e-6, -0.0],
        [-4.5047821, 7.80251253, 0.0],
        [0.0, 0.0, 7.26955946]
      ],
      "pbc": [true, true, true],
      "a": 9.009565210000057,
      "b": 9.009565114326406,
      "c": 7.26955946,
      "alpha": 90.0,
      "beta": 90.0,
      "gamma": 120.00000306597077,
      "volume": 511.02997253141064
    },
    "properties": {},
    "sites": [
      {
        "species": [{ "element": "Sr", "occu": 1 }],
        "abc": [0.0, 0.25536663, 0.75],
        "properties": { "magmom": 0.048 },
        "label": "Sr",
        "xyz": [-1.150371023761323, 1.9925013303188737, 5.452169595]
      },
      {
        "species": [{ "element": "Sr", "occu": 1 }],
        "abc": [-0.0, 0.74463337, 0.25],
        "properties": { "magmom": 0.048 },
        "label": "Sr",
        "xyz": [-3.354411076238677, 5.810011199681125, 1.817389865]
      },
      {
        "species": [{ "element": "Sr", "occu": 1 }],
        "abc": [0.25536663, 0.25536563, 0.25],
        "properties": { "magmom": 0.048 },
        "label": "Sr",
        "xyz": [1.1503757864637192, 1.9924932698860476, 1.817389865]
      },
      {
        "species": [{ "element": "Sr", "occu": 1 }],
        "abc": [0.25536663, 0.0, 0.75],
        "properties": { "magmom": 0.048 },
        "label": "Sr",
        "xyz": [2.300742305442942, -2.5792029629999947e-7, 5.452169595]
      },
      {
        "species": [{ "element": "Sr", "occu": 1 }],
        "abc": [0.74463337, 0.74463437, 0.75],
        "properties": { "magmom": 0.048 },
        "label": "Sr",
        "xyz": [3.3544073235362806, 5.810018250113952, 5.452169595]
      },
      {
        "species": [{ "element": "Sr", "occu": 1 }],
        "abc": [0.74463337, -0.0, 0.25],
        "properties": { "magmom": 0.048 },
        "label": "Sr",
        "xyz": [6.708822904557057, -7.520797036999984e-7, 1.817389865]
      },
      {
        "species": [{ "element": "Sr", "occu": 1 }],
        "abc": [0.333333, 0.666667, 0.5],
        "properties": { "magmom": 0.004 },
        "label": "Sr",
        "xyz": [-4.1681157703088445e-6, 5.201677284171179, 3.63477973]
      },
      {
        "species": [{ "element": "Sr", "occu": 1 }],
        "abc": [0.666667, 0.333333, 0.0],
        "properties": { "magmom": 0.004 },
        "label": "Sr",
        "xyz": [4.50478727811577, 2.6008342358288195, 0.0]
      },
      {
        "species": [{ "element": "Sr", "occu": 1 }],
        "abc": [0.666667, 0.333333, 0.5],
        "properties": { "magmom": 0.004 },
        "label": "Sr",
        "xyz": [4.50478727811577, 2.6008342358288195, 3.63477973]
      },
      {
        "species": [{ "element": "Sr", "occu": 1 }],
        "abc": [0.333333, 0.666667, -0.0],
        "properties": { "magmom": 0.004 },
        "label": "Sr",
        "xyz": [-4.1681157703088445e-6, 5.201677284171179, 0.0]
      },
      {
        "species": [{ "element": "As", "occu": 1 }],
        "abc": [0.60917042, -0.0, 0.75],
        "properties": { "magmom": 0.016 },
        "label": "As",
        "xyz": [5.488360622993088, -6.152621241999988e-7, 5.452169595]
      },
      {
        "species": [{ "element": "As", "occu": 1 }],
        "abc": [0.60917042, 0.60917042, 0.25],
        "properties": { "magmom": 0.016 },
        "label": "As",
        "xyz": [2.7441806191276066, 4.753059219693238, 1.817389865]
      },
      {
        "species": [{ "element": "As", "occu": 1 }],
        "abc": [0.0, 0.39082958, 0.25],
        "properties": { "magmom": 0.016 },
        "label": "As",
        "xyz": [-1.760602096134518, 3.0494526950446375, 1.817389865]
      },
      {
        "species": [{ "element": "As", "occu": 1 }],
        "abc": [-0.0, 0.60917042, 0.75],
        "properties": { "magmom": 0.016 },
        "label": "As",
        "xyz": [-2.7441800038654818, 4.753059834955362, 5.452169595]
      },
      {
        "species": [{ "element": "As", "occu": 1 }],
        "abc": [0.39082958, 0.39082958, 0.75],
        "properties": { "magmom": 0.016 },
        "label": "As",
        "xyz": [1.760602490872394, 3.0494523003067617, 5.452169595]
      },
      {
        "species": [{ "element": "As", "occu": 1 }],
        "abc": [0.39082958, 0.0, 0.25],
        "properties": { "magmom": 0.016 },
        "label": "As",
        "xyz": [3.521204587006912, -3.947378757999992e-7, 1.817389865]
      }
    ]
  },
  "task_ids": null,
  "uncorrected_energy_per_atom": null,
  "energy_per_atom": -16.230641633125,
  "formation_energy_per_atom": -1.2492793440625,
  "energy_above_hull": 0.0,
  "is_stable": true,
  "equilibrium_reaction_energy_per_atom": null,
  "decomposes_to": null,
  "xas": null,
  "grain_boundaries": null,
  "band_gap": 0.0,
  "cbm": null,
  "vbm": null,
  "efermi": 3.22082414,
  "is_gap_direct": null,
  "is_metal": null,
  "es_source_calc_id": null,
  "bandstructure": null,
  "dos": null,
  "dos_energy_up": null,
  "dos_energy_down": null,
  "is_magnetic": null,
  "ordering": null,
  "total_magnetization": 1.9343671,
  "total_magnetization_normalized_vol": null,
  "total_magnetization_normalized_formula_units": null,
  "num_magnetic_sites": null,
  "num_unique_magnetic_sites": null,
  "types_of_magnetic_species": null,
  "bulk_modulus": null,
  "shear_modulus": null,
  "universal_anisotropy": null,
  "homogeneous_poisson": null,
  "e_total": null,
  "e_ionic": null,
  "e_electronic": null,
  "n": null,
  "e_ij_max": null,
  "weighted_surface_energy_EV_PER_ANG2": null,
  "weighted_surface_energy": null,
  "weighted_work_function": null,
  "surface_anisotropy": null,
  "shape_factor": null,
  "has_reconstructed": null,
  "possible_species": null,
  "has_props": null,
  "theoretical": null,
  "database_IDs": null,
  "fields_not_requested": [
    "builder_meta",
    "nsites",
    "elements",
    "nelements",
    "composition",
    "composition_reduced",
    "chemsys",
    "symmetry",
    "property_name",
    "deprecated",
    "deprecation_reasons",
    "last_updated",
    "origins",
    "warnings",
    "task_ids",
    "uncorrected_energy_per_atom",
    "equilibrium_reaction_energy_per_atom",
    "decomposes_to",
    "xas",
    "grain_boundaries",
    "cbm",
    "vbm",
    "is_gap_direct",
    "is_metal",
    "es_source_calc_id",
    "bandstructure",
    "dos",
    "dos_energy_up",
    "dos_energy_down",
    "is_magnetic",
    "ordering",
    "total_magnetization_normalized_vol",
    "total_magnetization_normalized_formula_units",
    "num_magnetic_sites",
    "num_unique_magnetic_sites",
    "types_of_magnetic_species",
    "bulk_modulus",
    "shear_modulus",
    "universal_anisotropy",
    "homogeneous_poisson",
    "e_total",
    "e_ionic",
    "e_electronic",
    "n",
    "e_ij_max",
    "weighted_surface_energy_EV_PER_ANG2",
    "weighted_surface_energy",
    "weighted_work_function",
    "surface_anisotropy",
    "shape_factor",
    "has_reconstructed",
    "possible_species",
    "has_props",
    "theoretical",
    "database_IDs"
  ]
}
