{"builder_meta": null, "nsites": null, "elements": null, "nelements": null, "composition": null, "composition_reduced": null, "formula_pretty": "Sr5Cd3", "formula_anonymous": "A3B5", "chemsys": null, "volume": 631.440440395261, "density": 4.077884955604881, "density_atomic": 39.465027524703814, "symmetry": null, "property_name": null, "material_id": "mp-542484", "deprecated": null, "deprecation_reasons": null, "last_updated": null, "origins": null, "warnings": null, "structure": {"@module": "pymatgen.core.structure", "@class": "Structure", "charge": 0, "lattice": {"matrix": [[7.95408648, 0.0, -3.6978199800000002], [-1.71910019, 7.76609083, -3.69781996], [-0.0543945, -0.06775103, 10.28660766]], "pbc": [true, true, true], "a": 8.771622674044181, "b": 8.771621554743598, "c": 10.28697458509872, "alpha": 115.23589380601125, "beta": 115.23589576886005, "gamma": 89.99999929145838, "volume": 631.440440395261}, "properties": {}, "sites": [{"species": [{"element": "Sr", "occu": 1}], "abc": [-0.0, 0.0, 0.0], "properties": {"magmom": 0.0}, "label": "Sr", "xyz": [0.0, 0.0, 0.0]}, {"species": [{"element": "Sr", "occu": 1}], "abc": [0.5, 0.5, 0.0], "properties": {"magmom": 0.0}, "label": "Sr", "xyz": [3.117493145, 3.883045415, -3.6978199700000003]}, {"species": [{"element": "Sr", "occu": 1}], "abc": [0.31593726, 0.81593726, 0.29355051], "properties": {"magmom": 0.0}, "label": "Sr", "xyz": [1.0943468563839702, 6.3167545233318005, -1.1658292738272578]}, {"species": [{"element": "Sr", "occu": 1}], "abc": [0.47761425, 0.31593726, 0.29355051], "properties": {"magmom": 0.0}, "label": "Sr", "xyz": [3.239889711670066, 2.4337091083318003, 0.0852283022444813]}, {"species": [{"element": "Sr", "occu": 1}], "abc": [0.81593726, 0.97761425, 0.29355051], "properties": {"magmom": 0.0}, "label": "Sr", "xyz": [4.793451152156342, 7.572352712792802, -3.6125916645219784]}, {"species": [{"element": "Sr", "occu": 1}], "abc": [0.52238575, 0.68406274, 0.70644949], "properties": {"magmom": 0.0}, "label": "Sr", "xyz": [2.940702078329935, 5.264630691668199, 2.8057394177555173]}, {"species": [{"element": "Sr", "occu": 1}], "abc": [0.18406274, 0.02238575, 0.70644949], "properties": {"magmom": 0.0}, "label": "Sr", "xyz": [1.3871406378436575, 0.12598708720719776, 6.503559384521978]}, {"species": [{"element": "Sr", "occu": 1}], "abc": [0.02238575, 0.52238575, 0.70644949], "properties": {"magmom": 0.0}, "label": "Sr", "xyz": [-0.7584022174424375, 4.009032502207197, 5.252501808450238]}, {"species": [{"element": "Sr", "occu": 1}], "abc": [0.68406274, 0.18406274, 0.70644949], "properties": {"magmom": 0.0}, "label": "Sr", "xyz": [5.086244933616029, 1.3815852766681995, 4.056796993827257]}, {"species": [{"element": "Sr", "occu": 1}], "abc": [0.97761425, 0.47761425, 0.29355051], "properties": {"magmom": 0.0}, "label": "Sr", "xyz": [6.938994007442438, 3.6893072977928023, -2.3615340884502394]}, {"species": [{"element": "Cd", "occu": 1}], "abc": [0.25, 0.25, 0.5], "properties": {"magmom": 0.0}, "label": "Cd", "xyz": [1.5315493225, 1.9076471924999998, 3.2943938449999997]}, {"species": [{"element": "Cd", "occu": 1}], "abc": [0.75, 0.75, 0.5], "properties": {"magmom": 0.0}, "label": "Cd", "xyz": [4.649042467499999, 5.7906926075, -0.4034261250000002]}, {"species": [{"element": "Cd", "occu": 1}], "abc": [0.37870042, 0.87870042, 0.0], "properties": {"magmom": 0.0}, "label": "Cd", "xyz": [1.5016418317172417, 6.824067274079148, -4.649641931446775]}, {"species": [{"element": "Cd", "occu": 1}], "abc": [0.12129958, 0.37870042, 0.0], "properties": {"magmom": 0.0}, "label": "Cd", "xyz": [0.31380338533259866, 2.9410218590791484, -1.8489099824259916]}, {"species": [{"element": "Cd", "occu": 1}], "abc": [0.87870042, 0.62129958, -0.0], "properties": {"magmom": 0.0}, "label": "Cd", "xyz": [5.921182904667401, 4.825068970920851, -5.5467299575740086]}, {"species": [{"element": "Cd", "occu": 1}], "abc": [0.62129958, 0.12129958, -0.0], "properties": {"magmom": 0.0}, "label": "Cd", "xyz": [4.733344458282758, 0.9420235559208514, -2.7459980085532254]}]}, "task_ids": null, "uncorrected_energy_per_atom": null, "energy_per_atom": -1.6471465900000002, "formation_energy_per_atom": -0.229375212499999, "energy_above_hull": 0.0, "is_stable": true, "equilibrium_reaction_energy_per_atom": null, "decomposes_to": null, "xas": null, "grain_boundaries": null, "band_gap": 0.0, "cbm": null, "vbm": null, "efermi": 1.93363188, "is_gap_direct": null, "is_metal": null, "es_source_calc_id": null, "bandstructure": null, "dos": null, "dos_energy_up": null, "dos_energy_down": null, "is_magnetic": null, "ordering": null, "total_magnetization": 0.0161129, "total_magnetization_normalized_vol": null, "total_magnetization_normalized_formula_units": null, "num_magnetic_sites": null, "num_unique_magnetic_sites": null, "types_of_magnetic_species": null, "bulk_modulus": null, "shear_modulus": null, "universal_anisotropy": null, "homogeneous_poisson": null, "e_total": null, "e_ionic": null, "e_electronic": null, "n": null, "e_ij_max": null, "weighted_surface_energy_EV_PER_ANG2": null, "weighted_surface_energy": null, "weighted_work_function": null, "surface_anisotropy": null, "shape_factor": null, "has_reconstructed": null, "possible_species": null, "has_props": null, "theoretical": null, "database_IDs": null, "fields_not_requested": ["builder_meta", "nsites", "elements", "nelements", "composition", "composition_reduced", "chemsys", "symmetry", "property_name", "deprecated", "deprecation_reasons", "last_updated", "origins", "warnings", "task_ids", "uncorrected_energy_per_atom", "equilibrium_reaction_energy_per_atom", "decomposes_to", "xas", "grain_boundaries", "cbm", "vbm", "is_gap_direct", "is_metal", "es_source_calc_id", "bandstructure", "dos", "dos_energy_up", "dos_energy_down", "is_magnetic", "ordering", "total_magnetization_normalized_vol", "total_magnetization_normalized_formula_units", "num_magnetic_sites", "num_unique_magnetic_sites", "types_of_magnetic_species", "bulk_modulus", "shear_modulus", "universal_anisotropy", "homogeneous_poisson", "e_total", "e_ionic", "e_electronic", "n", "e_ij_max", "weighted_surface_energy_EV_PER_ANG2", "weighted_surface_energy", "weighted_work_function", "surface_anisotropy", "shape_factor", "has_reconstructed", "possible_species", "has_props", "theoretical", "database_IDs"]}