{
  "builder_meta": null,
  "nsites": null,
  "elements": null,
  "nelements": null,
  "composition": null,
  "composition_reduced": null,
  "formula_pretty": "Sr5Ge3",
  "formula_anonymous": "A3B5",
  "chemsys": null,
  "volume": 525.6279435982453,
  "density": 4.144935031473728,
  "density_atomic": 32.851746474890334,
  "symmetry": null,
  "property_name": null,
  "material_id": "mp-17757",
  "deprecated": null,
  "deprecation_reasons": null,
  "last_updated": null,
  "origins": null,
  "warnings": null,
  "structure": {
    "@module": "pymatgen.core.structure",
    "@class": "Structure",
    "charge": 0,
    "lattice": {
      "matrix": [
        [7.40413672, -0.00040351, -3.39469171],
        [-1.55610347, 7.23877054, -3.39469039],
        [0.00914275, 0.011317220000000001, 9.7965684]
      ],
      "pbc": [true, true, true],
      "a": 8.145254602356847,
      "b": 8.145255047208545,
      "c": 9.796579203233374,
      "alpha": 114.57728234686664,
      "beta": 114.57729879620186,
      "gamma": 90.00051508090858,
      "volume": 525.6279435982453
    },
    "properties": {},
    "sites": [
      {
        "species": [{ "element": "Sr", "occu": 1 }],
        "abc": [0.18120246, 0.03904842, 0.7204411900000001],
        "properties": { "magmom": -0.004 },
        "label": "Sr",
        "xyz": [1.2874712196701863, 0.290742826769204, 6.310167611100106]
      },
      {
        "species": [{ "element": "Sr", "occu": 1 }],
        "abc": [0.03892737, 0.53892757, 0.72031332],
        "properties": { "magmom": -0.004 },
        "label": "Sr",
        "xyz": [-0.5438178475192116, 3.909309253638089, 5.094960045794933]
      },
      {
        "species": [{ "element": "Sr", "occu": 1 }],
        "abc": [0.68119154, 0.18119176, 0.72056504],
        "properties": { "magmom": -0.004 },
        "label": "Sr",
        "xyz": [4.768270114215402, 1.319485499862434, 4.131539500829415]
      },
      {
        "species": [{ "element": "Sr", "occu": 1 }],
        "abc": [0.96107263, 0.46107243000000003, 0.27968668],
        "properties": { "magmom": -0.004 },
        "label": "Sr",
        "xyz": [6.400993847519212, 3.340374996361911, -2.0877737457949324]
      },
      {
        "species": [{ "element": "Sr", "occu": 1 }],
        "abc": [0.53904869, 0.68120261, 0.72044159],
        "properties": { "magmom": -0.004 },
        "label": "Sr",
        "xyz": [2.9377552716498125, 4.9390052694733875, 2.9154792416004778]
      },
      {
        "species": [{ "element": "Sr", "occu": 1 }],
        "abc": [0.81879754, 0.96095158, 0.27955881],
        "properties": { "magmom": -0.004 },
        "label": "Sr",
        "xyz": [4.569704780329814, 6.9589414232307965, -3.302981311100106]
      },
      {
        "species": [{ "element": "Sr", "occu": 1 }],
        "abc": [0.46095131, 0.31879739, 0.27955841],
        "properties": { "magmom": -0.004 },
        "label": "Sr",
        "xyz": [2.9194207283501874, 2.3106789805266126, 0.09170705839952165]
      },
      {
        "species": [{ "element": "Sr", "occu": 1 }],
        "abc": [0.31880846, 0.81880824, 0.27943496],
        "properties": { "magmom": -0.004 },
        "label": "Sr",
        "xyz": [1.0889058857845988, 5.930198750137565, -1.124353200829416]
      },
      {
        "species": [{ "element": "Sr", "occu": 1 }],
        "abc": [0.5, 0.5, 0.0],
        "properties": { "magmom": 0.0 },
        "label": "Sr",
        "xyz": [2.924016625, 3.619183515, -3.39469105]
      },
      {
        "species": [{ "element": "Sr", "occu": 1 }],
        "abc": [-0.0, 0.0, 0.0],
        "properties": { "magmom": 0.0 },
        "label": "Sr",
        "xyz": [0.0, 0.0, 0.0]
      },
      {
        "species": [{ "element": "Ge", "occu": 1 }],
        "abc": [0.61305853, 0.11305852, 0.00021539999999900002],
        "properties": { "magmom": 0.001 },
        "label": "Ge",
        "xyz": [4.363240387545508, 0.8181597463537483, -2.462833200054059]
      },
      {
        "species": [{ "element": "Ge", "occu": 1 }],
        "abc": [0.8870493700000001, 0.61295106, 4.7e-7],
        "properties": { "magmom": 0.001 },
        "label": "Ge",
        "xyz": [5.614019545760781, 4.436654147617577, -5.092033611234888]
      },
      {
        "species": [{ "element": "Ge", "occu": 1 }],
        "abc": [0.11295063, 0.38704894, -4.7e-7],
        "properties": { "magmom": 0.001 },
        "label": "Ge",
        "xyz": [0.23401370423921927, 2.801712882382423, -1.6973484887651118]
      },
      {
        "species": [{ "element": "Ge", "occu": 1 }],
        "abc": [0.38694147, 0.8869414800000001, 0.999784599999999],
        "properties": { "magmom": 0.001 },
        "label": "Ge",
        "xyz": [1.493935612454493, 6.431524503646252, 5.47001950005404]
      },
      {
        "species": [{ "element": "Ge", "occu": 1 }],
        "abc": [0.74987855, 0.75012095, 0.49999998],
        "properties": { "magmom": 0.027 },
        "label": "Ge",
        "xyz": [4.389508869197805, 5.435309460576758, -0.19375087342585928]
      },
      {
        "species": [{ "element": "Ge", "occu": 1 }],
        "abc": [0.25012145, 0.24987905, 0.50000002],
        "properties": { "magmom": 0.027 },
        "label": "Ge",
        "xyz": [1.4676671308021958, 1.814374789423242, 3.200937173425859]
      }
    ]
  },
  "task_ids": null,
  "uncorrected_energy_per_atom": null,
  "energy_per_atom": -15.303989155,
  "formation_energy_per_atom": -0.6359593937499991,
  "energy_above_hull": 0.005282372499999,
  "is_stable": false,
  "equilibrium_reaction_energy_per_atom": null,
  "decomposes_to": null,
  "xas": null,
  "grain_boundaries": null,
  "band_gap": 0.0,
  "cbm": null,
  "vbm": null,
  "efermi": 2.84394036,
  "is_gap_direct": null,
  "is_metal": null,
  "es_source_calc_id": null,
  "bandstructure": null,
  "dos": null,
  "dos_energy_up": null,
  "dos_energy_down": null,
  "is_magnetic": null,
  "ordering": null,
  "total_magnetization": 0.1681461,
  "total_magnetization_normalized_vol": null,
  "total_magnetization_normalized_formula_units": null,
  "num_magnetic_sites": null,
  "num_unique_magnetic_sites": null,
  "types_of_magnetic_species": null,
  "bulk_modulus": null,
  "shear_modulus": null,
  "universal_anisotropy": null,
  "homogeneous_poisson": null,
  "e_total": null,
  "e_ionic": null,
  "e_electronic": null,
  "n": null,
  "e_ij_max": null,
  "weighted_surface_energy_EV_PER_ANG2": null,
  "weighted_surface_energy": null,
  "weighted_work_function": null,
  "surface_anisotropy": null,
  "shape_factor": null,
  "has_reconstructed": null,
  "possible_species": null,
  "has_props": null,
  "theoretical": null,
  "database_IDs": null,
  "fields_not_requested": [
    "builder_meta",
    "nsites",
    "elements",
    "nelements",
    "composition",
    "composition_reduced",
    "chemsys",
    "symmetry",
    "property_name",
    "deprecated",
    "deprecation_reasons",
    "last_updated",
    "origins",
    "warnings",
    "task_ids",
    "uncorrected_energy_per_atom",
    "equilibrium_reaction_energy_per_atom",
    "decomposes_to",
    "xas",
    "grain_boundaries",
    "cbm",
    "vbm",
    "is_gap_direct",
    "is_metal",
    "es_source_calc_id",
    "bandstructure",
    "dos",
    "dos_energy_up",
    "dos_energy_down",
    "is_magnetic",
    "ordering",
    "total_magnetization_normalized_vol",
    "total_magnetization_normalized_formula_units",
    "num_magnetic_sites",
    "num_unique_magnetic_sites",
    "types_of_magnetic_species",
    "bulk_modulus",
    "shear_modulus",
    "universal_anisotropy",
    "homogeneous_poisson",
    "e_total",
    "e_ionic",
    "e_electronic",
    "n",
    "e_ij_max",
    "weighted_surface_energy_EV_PER_ANG2",
    "weighted_surface_energy",
    "weighted_work_function",
    "surface_anisotropy",
    "shape_factor",
    "has_reconstructed",
    "possible_species",
    "has_props",
    "theoretical",
    "database_IDs"
  ]
}
