{
  "builder_meta": null,
  "nsites": null,
  "elements": null,
  "nelements": null,
  "composition": null,
  "composition_reduced": null,
  "formula_pretty": "Sr5In3",
  "formula_anonymous": "A3B5",
  "chemsys": null,
  "volume": 635.4938416805269,
  "density": 4.089611585496235,
  "density_atomic": 39.71836510503293,
  "symmetry": null,
  "property_name": null,
  "material_id": "mp-570362",
  "deprecated": null,
  "deprecation_reasons": null,
  "last_updated": null,
  "origins": null,
  "warnings": null,
  "structure": {
    "@module": "pymatgen.core.structure",
    "@class": "Structure",
    "charge": 0,
    "lattice": {
      "matrix": [
        [-4.38434169, 4.38434169, 8.26164941],
        [4.38434169, -4.38434169, 8.26164941],
        [4.38611688, 4.38611688, -8.26164941]
      ],
      "pbc": [true, true, true],
      "a": 10.329557351750243,
      "b": 10.329557351750243,
      "c": 10.331064492287096,
      "alpha": 129.76181057774102,
      "beta": 129.76181057774102,
      "gamma": 73.7767006589218,
      "volume": 635.4938416805269
    },
    "properties": {},
    "sites": [
      {
        "species": [{ "element": "Sr", "occu": 1 }],
        "abc": [0.0317046, 0.5317046, 0.8530693500000001],
        "properties": { "magmom": 0.014 },
        "label": "Sr",
        "xyz": [5.933832720845628, 1.549491030845629, -2.3930706073480117]
      },
      {
        "species": [{ "element": "Sr", "occu": 1 }],
        "abc": [0.32136575, 0.82136575, 0.8530693500000001],
        "properties": { "magmom": 0.014 },
        "label": "Sr",
        "xyz": [5.933832720845628, 1.549491030845629, 2.3930871306468315]
      },
      {
        "species": [{ "element": "Sr", "occu": 1 }],
        "abc": [0.968295399999999, 0.4682954, 0.14693065],
        "properties": { "magmom": 0.014 },
        "label": "Sr",
        "xyz": [-1.5477158408456235, 2.836625849154368, 10.654720017348005]
      },
      {
        "species": [{ "element": "Sr", "occu": 1 }],
        "abc": [0.0, 0.0, 0.0],
        "properties": { "magmom": 0.005 },
        "label": "Sr",
        "xyz": [0.0, 0.0, 0.0]
      },
      {
        "species": [{ "element": "Sr", "occu": 1 }],
        "abc": [0.46812663, 0.32150996, 0.5],
        "properties": { "magmom": 0.015 },
        "label": "Sr",
        "xyz": [1.550240861270028, 2.835876018729972, 2.3928759628879117]
      },
      {
        "species": [{ "element": "Sr", "occu": 1 }],
        "abc": [0.17849004000000002, 0.03187337, 0.5],
        "properties": { "magmom": 0.015 },
        "label": "Sr",
        "xyz": [1.5502408612700278, 2.8358760187299725, -2.3928759628879117]
      },
      {
        "species": [{ "element": "Sr", "occu": 1 }],
        "abc": [0.67863425, 0.17863425, 0.14693065],
        "properties": { "magmom": 0.014 },
        "label": "Sr",
        "xyz": [-1.547715840845628, 2.8366258491543723, 5.868562279353169]
      },
      {
        "species": [{ "element": "Sr", "occu": 1 }],
        "abc": [0.53187337, 0.67849004, 0.5],
        "properties": { "magmom": 0.015 },
        "label": "Sr",
        "xyz": [2.8358760187299725, 1.5502408612700278, 5.868773447112089]
      },
      {
        "species": [{ "element": "Sr", "occu": 1 }],
        "abc": [0.82150996, 0.96812663, 0.5],
        "properties": { "magmom": 0.015 },
        "label": "Sr",
        "xyz": [2.8358760187299725, 1.5502408612700278, 10.654525372887912]
      },
      {
        "species": [{ "element": "Sr", "occu": 1 }],
        "abc": [0.5, 0.5, 0.0],
        "properties": { "magmom": 0.005 },
        "label": "Sr",
        "xyz": [0.0, 0.0, 8.26164941]
      },
      {
        "species": [{ "element": "In", "occu": 1 }],
        "abc": [0.88651236, 0.61348764, 0.5],
        "properties": { "magmom": 0.025 },
        "label": "In",
        "xyz": [0.9960247777034237, 3.3900921022965766, 8.26164941]
      },
      {
        "species": [{ "element": "In", "occu": 1 }],
        "abc": [0.61345369, 0.11345369, 0.72690637],
        "properties": { "magmom": 0.025 },
        "label": "In",
        "xyz": [0.9961254546365259, 5.380467144636526, 8.344265904014492e-6]
      },
      {
        "species": [{ "element": "In", "occu": 1 }],
        "abc": [0.11348764, 0.38651236, 0.5],
        "properties": { "magmom": 0.025 },
        "label": "In",
        "xyz": [3.390092102296577, 0.9960247777034232, 0.0]
      },
      {
        "species": [{ "element": "In", "occu": 1 }],
        "abc": [0.25, 0.25, 0.0],
        "properties": { "magmom": -0.092 },
        "label": "In",
        "xyz": [0.0, 0.0, 4.130824705]
      },
      {
        "species": [{ "element": "In", "occu": 1 }],
        "abc": [0.38654631, 0.8865463100000001, 0.27309363000000003],
        "properties": { "magmom": 0.025 },
        "label": "In",
        "xyz": [3.3899914253634753, -0.9943502646365259, 8.261641065734098]
      },
      {
        "species": [{ "element": "In", "occu": 1 }],
        "abc": [0.75, 0.75, 0.0],
        "properties": { "magmom": -0.092 },
        "label": "In",
        "xyz": [0.0, 0.0, 12.392474115]
      }
    ]
  },
  "task_ids": null,
  "uncorrected_energy_per_atom": null,
  "energy_per_atom": -2.4270326575,
  "formation_energy_per_atom": -0.33457494749999905,
  "energy_above_hull": 0.00672603554228,
  "is_stable": false,
  "equilibrium_reaction_energy_per_atom": null,
  "decomposes_to": null,
  "xas": null,
  "grain_boundaries": null,
  "band_gap": 0.0,
  "cbm": null,
  "vbm": null,
  "efermi": 2.95473963,
  "is_gap_direct": null,
  "is_metal": null,
  "es_source_calc_id": null,
  "bandstructure": null,
  "dos": null,
  "dos_energy_up": null,
  "dos_energy_down": null,
  "is_magnetic": null,
  "ordering": null,
  "total_magnetization": 0.7382825,
  "total_magnetization_normalized_vol": null,
  "total_magnetization_normalized_formula_units": null,
  "num_magnetic_sites": null,
  "num_unique_magnetic_sites": null,
  "types_of_magnetic_species": null,
  "bulk_modulus": null,
  "shear_modulus": null,
  "universal_anisotropy": null,
  "homogeneous_poisson": null,
  "e_total": null,
  "e_ionic": null,
  "e_electronic": null,
  "n": null,
  "e_ij_max": null,
  "weighted_surface_energy_EV_PER_ANG2": null,
  "weighted_surface_energy": null,
  "weighted_work_function": null,
  "surface_anisotropy": null,
  "shape_factor": null,
  "has_reconstructed": null,
  "possible_species": null,
  "has_props": null,
  "theoretical": null,
  "database_IDs": null,
  "fields_not_requested": [
    "builder_meta",
    "nsites",
    "elements",
    "nelements",
    "composition",
    "composition_reduced",
    "chemsys",
    "symmetry",
    "property_name",
    "deprecated",
    "deprecation_reasons",
    "last_updated",
    "origins",
    "warnings",
    "task_ids",
    "uncorrected_energy_per_atom",
    "equilibrium_reaction_energy_per_atom",
    "decomposes_to",
    "xas",
    "grain_boundaries",
    "cbm",
    "vbm",
    "is_gap_direct",
    "is_metal",
    "es_source_calc_id",
    "bandstructure",
    "dos",
    "dos_energy_up",
    "dos_energy_down",
    "is_magnetic",
    "ordering",
    "total_magnetization_normalized_vol",
    "total_magnetization_normalized_formula_units",
    "num_magnetic_sites",
    "num_unique_magnetic_sites",
    "types_of_magnetic_species",
    "bulk_modulus",
    "shear_modulus",
    "universal_anisotropy",
    "homogeneous_poisson",
    "e_total",
    "e_ionic",
    "e_electronic",
    "n",
    "e_ij_max",
    "weighted_surface_energy_EV_PER_ANG2",
    "weighted_surface_energy",
    "weighted_work_function",
    "surface_anisotropy",
    "shape_factor",
    "has_reconstructed",
    "possible_species",
    "has_props",
    "theoretical",
    "database_IDs"
  ]
}
