{"builder_meta": null, "nsites": null, "elements": null, "nelements": null, "composition": null, "composition_reduced": null, "formula_pretty": "Sr5Pt4", "formula_anonymous": "A4B5", "chemsys": null, "volume": 1021.6951306819319, "density": 7.92119103788391, "density_atomic": 28.38042029672033, "symmetry": null, "property_name": null, "material_id": "mp-1203497", "deprecated": null, "deprecation_reasons": null, "last_updated": null, "origins": null, "warnings": null, "structure": {"@module": "pymatgen.core.structure", "@class": "Structure", "charge": 0, "lattice": {"matrix": [[-7.8963719999999995, 0.0, 0.0], [0.0, 0.0, -8.223405], [0.0, -15.734105, 0.0]], "pbc": [true, true, true], "a": 7.8963719999999995, "b": 8.223405, "c": 15.734105, "alpha": 90.0, "beta": 90.0, "gamma": 90.0, "volume": 1021.6951306819319}, "properties": {}, "sites": [{"species": [{"element": "Sr", "occu": 1}], "abc": [0.342754, 0.827931, 0.8787800000000001], "properties": {"magmom": 0.0}, "label": "Sr", "xyz": [-2.7065130884879998, -13.8268167919, -6.808411925054999]}, {"species": [{"element": "Sr", "occu": 1}], "abc": [0.842754, 0.672068999999999, 0.6212200000000001], "properties": {"magmom": -0.0}, "label": "Sr", "xyz": [-6.654699088488, -9.774340708100002, -5.526695574944992]}, {"species": [{"element": "Sr", "occu": 1}], "abc": [0.657246, 0.172069, 0.378781], "properties": {"magmom": 0.0}, "label": "Sr", "xyz": [-5.189858911511999, -5.959780026004999, -1.414993074945]}, {"species": [{"element": "Sr", "occu": 1}], "abc": [0.157246, 0.327931, 0.121219], "properties": {"magmom": 0.0}, "label": "Sr", "xyz": [-1.241672911512, -1.9072724739949998, -2.6967094250549994]}, {"species": [{"element": "Sr", "occu": 1}], "abc": [0.657246, 0.172069, 0.121219], "properties": {"magmom": 0.0}, "label": "Sr", "xyz": [-5.189858911511999, -1.9072724739949998, -1.414993074945]}, {"species": [{"element": "Sr", "occu": 1}], "abc": [0.157246, 0.327931, 0.378781], "properties": {"magmom": -0.0}, "label": "Sr", "xyz": [-1.241672911512, -5.959780026004999, -2.6967094250549994]}, {"species": [{"element": "Sr", "occu": 1}], "abc": [0.342754, 0.827931, 0.6212200000000001], "properties": {"magmom": 0.0}, "label": "Sr", "xyz": [-2.7065130884879998, -9.774340708100002, -6.808411925054999]}, {"species": [{"element": "Sr", "occu": 1}], "abc": [0.842754, 0.672068999999999, 0.8787800000000001], "properties": {"magmom": 0.0}, "label": "Sr", "xyz": [-6.654699088488, -13.8268167919, -5.526695574944992]}, {"species": [{"element": "Sr", "occu": 1}], "abc": [0.49862000000000006, 0.318867, 0.904683999999999], "properties": {"magmom": 0.0}, "label": "Sr", "xyz": [-3.9372890066400004, -14.234393047819985, -2.622172482135]}, {"species": [{"element": "Sr", "occu": 1}], "abc": [0.9986200000000001, 0.181133, 0.595316], "properties": {"magmom": 0.0}, "label": "Sr", "xyz": [-7.88547500664, -9.366764452179998, -1.489530017865]}, {"species": [{"element": "Sr", "occu": 1}], "abc": [0.50138, 0.681133, 0.404684], "properties": {"magmom": 0.0}, "label": "Sr", "xyz": [-3.95908299336, -6.36734054782, -5.601232517864999]}, {"species": [{"element": "Sr", "occu": 1}], "abc": [0.0013800000000000002, 0.818867, 0.095316], "properties": {"magmom": 0.0}, "label": "Sr", "xyz": [-0.010896993360000001, -1.49971195218, -6.733874982135]}, {"species": [{"element": "Sr", "occu": 1}], "abc": [0.50138, 0.681133, 0.095316], "properties": {"magmom": 0.0}, "label": "Sr", "xyz": [-3.95908299336, -1.49971195218, -5.601232517864999]}, {"species": [{"element": "Sr", "occu": 1}], "abc": [0.0013800000000000002, 0.818867, 0.404684], "properties": {"magmom": 0.0}, "label": "Sr", "xyz": [-0.010896993360000001, -6.36734054782, -6.733874982135]}, {"species": [{"element": "Sr", "occu": 1}], "abc": [0.49862000000000006, 0.318867, 0.595316], "properties": {"magmom": 0.0}, "label": "Sr", "xyz": [-3.9372890066400004, -9.366764452179998, -2.622172482135]}, {"species": [{"element": "Sr", "occu": 1}], "abc": [0.9986200000000001, 0.181133, 0.904683999999999], "properties": {"magmom": 0.0}, "label": "Sr", "xyz": [-7.88547500664, -14.234393047819985, -1.489530017865]}, {"species": [{"element": "Sr", "occu": 1}], "abc": [0.184264999999999, 0.486911999999999, 0.75], "properties": {"magmom": 0.0}, "label": "Sr", "xyz": [-1.455024986579992, -11.80057875, -4.004074575359992]}, {"species": [{"element": "Sr", "occu": 1}], "abc": [0.684265, 0.013087999999999001, 0.75], "properties": {"magmom": 0.0}, "label": "Sr", "xyz": [-5.4032109865799995, -11.80057875, -0.10762792463999178]}, {"species": [{"element": "Sr", "occu": 1}], "abc": [0.815735, 0.513088, 0.25], "properties": {"magmom": 0.0}, "label": "Sr", "xyz": [-6.44134701342, -3.93352625, -4.21933042464]}, {"species": [{"element": "Sr", "occu": 1}], "abc": [0.315735, 0.9869119999999991, 0.25], "properties": {"magmom": 0.0}, "label": "Sr", "xyz": [-2.49316101342, -3.93352625, -8.115777075359992]}, {"species": [{"element": "Pt", "occu": 1}], "abc": [0.33164000000000005, 0.030025, 0.039466], "properties": {"magmom": -0.0}, "label": "Pt", "xyz": [-2.61875281008, -0.62096218793, -0.24690773512499997]}, {"species": [{"element": "Pt", "occu": 1}], "abc": [0.83164, 0.469975, 0.460534], "properties": {"magmom": 0.0}, "label": "Pt", "xyz": [-6.56693881008, -7.24609031207, -3.8647947648749996]}, {"species": [{"element": "Pt", "occu": 1}], "abc": [0.6683600000000001, 0.969974999999999, 0.539466], "properties": {"magmom": 0.0}, "label": "Pt", "xyz": [-5.27761918992, -8.488014687929999, -7.9764972648749914]}, {"species": [{"element": "Pt", "occu": 1}], "abc": [0.16836, 0.530025, 0.960534], "properties": {"magmom": -0.0}, "label": "Pt", "xyz": [-1.32943318992, -15.11314281207, -4.358610235124999]}, {"species": [{"element": "Pt", "occu": 1}], "abc": [0.6683600000000001, 0.969974999999999, 0.960534], "properties": {"magmom": -0.0}, "label": "Pt", "xyz": [-5.27761918992, -15.11314281207, -7.9764972648749914]}, {"species": [{"element": "Pt", "occu": 1}], "abc": [0.16836, 0.530025, 0.539466], "properties": {"magmom": 0.0}, "label": "Pt", "xyz": [-1.32943318992, -8.488014687929999, -4.358610235124999]}, {"species": [{"element": "Pt", "occu": 1}], "abc": [0.33164000000000005, 0.030025, 0.460534], "properties": {"magmom": 0.0}, "label": "Pt", "xyz": [-2.61875281008, -7.24609031207, -0.24690773512499997]}, {"species": [{"element": "Pt", "occu": 1}], "abc": [0.83164, 0.469975, 0.039466], "properties": {"magmom": -0.0}, "label": "Pt", "xyz": [-6.56693881008, -0.62096218793, -3.8647947648749996]}, {"species": [{"element": "Pt", "occu": 1}], "abc": [0.551921, 0.601441, 0.75], "properties": {"magmom": -0.0}, "label": "Pt", "xyz": [-4.3581735306119995, -11.80057875, -4.945892926605]}, {"species": [{"element": "Pt", "occu": 1}], "abc": [0.051920999999999, 0.898559, 0.75], "properties": {"magmom": -0.0}, "label": "Pt", "xyz": [-0.4099875306119921, -11.80057875, -7.389214573395]}, {"species": [{"element": "Pt", "occu": 1}], "abc": [0.448079, 0.398559, 0.25], "properties": {"magmom": -0.0}, "label": "Pt", "xyz": [-3.538198469388, -3.93352625, -3.2775120733949996]}, {"species": [{"element": "Pt", "occu": 1}], "abc": [0.948079, 0.101440999999999, 0.25], "properties": {"magmom": -0.0}, "label": "Pt", "xyz": [-7.486384469388, -3.93352625, -0.8341904266049918]}, {"species": [{"element": "Pt", "occu": 1}], "abc": [0.298282, 0.130788, 0.75], "properties": {"magmom": -0.0}, "label": "Pt", "xyz": [-2.3553456329039997, -11.80057875, -1.07552269314]}, {"species": [{"element": "Pt", "occu": 1}], "abc": [0.798281999999999, 0.369212, 0.75], "properties": {"magmom": -0.0}, "label": "Pt", "xyz": [-6.303531632903992, -11.80057875, -3.03617980686]}, {"species": [{"element": "Pt", "occu": 1}], "abc": [0.701718, 0.869212, 0.25], "properties": {"magmom": -0.0}, "label": "Pt", "xyz": [-5.541026367095999, -3.93352625, -7.14788230686]}, {"species": [{"element": "Pt", "occu": 1}], "abc": [0.201717999999999, 0.630788, 0.25], "properties": {"magmom": -0.0}, "label": "Pt", "xyz": [-1.592840367095992, -3.93352625, -5.18722519314]}]}, "task_ids": null, "uncorrected_energy_per_atom": null, "energy_per_atom": -32.10639187277778, "formation_energy_per_atom": -0.80870598944444, "energy_above_hull": 0.004042353055552, "is_stable": false, "equilibrium_reaction_energy_per_atom": null, "decomposes_to": null, "xas": null, "grain_boundaries": null, "band_gap": 0.0376, "cbm": null, "vbm": null, "efermi": 3.33144812, "is_gap_direct": null, "is_metal": null, "es_source_calc_id": null, "bandstructure": null, "dos": null, "dos_energy_up": null, "dos_energy_down": null, "is_magnetic": null, "ordering": null, "total_magnetization": 0.0022372, "total_magnetization_normalized_vol": null, "total_magnetization_normalized_formula_units": null, "num_magnetic_sites": null, "num_unique_magnetic_sites": null, "types_of_magnetic_species": null, "bulk_modulus": null, "shear_modulus": null, "universal_anisotropy": null, "homogeneous_poisson": null, "e_total": null, "e_ionic": null, "e_electronic": null, "n": null, "e_ij_max": null, "weighted_surface_energy_EV_PER_ANG2": null, "weighted_surface_energy": null, "weighted_work_function": null, "surface_anisotropy": null, "shape_factor": null, "has_reconstructed": null, "possible_species": null, "has_props": null, "theoretical": null, "database_IDs": null, "fields_not_requested": ["builder_meta", "nsites", "elements", "nelements", "composition", "composition_reduced", "chemsys", "symmetry", "property_name", "deprecated", "deprecation_reasons", "last_updated", "origins", "warnings", "task_ids", "uncorrected_energy_per_atom", "equilibrium_reaction_energy_per_atom", "decomposes_to", "xas", "grain_boundaries", "cbm", "vbm", "is_gap_direct", "is_metal", "es_source_calc_id", "bandstructure", "dos", "dos_energy_up", "dos_energy_down", "is_magnetic", "ordering", "total_magnetization_normalized_vol", "total_magnetization_normalized_formula_units", "num_magnetic_sites", "num_unique_magnetic_sites", "types_of_magnetic_species", "bulk_modulus", "shear_modulus", "universal_anisotropy", "homogeneous_poisson", "e_total", "e_ionic", "e_electronic", "n", "e_ij_max", "weighted_surface_energy_EV_PER_ANG2", "weighted_surface_energy", "weighted_work_function", "surface_anisotropy", "shape_factor", "has_reconstructed", "possible_species", "has_props", "theoretical", "database_IDs"]}