{
  "builder_meta": null,
  "nsites": null,
  "elements": null,
  "nelements": null,
  "composition": null,
  "composition_reduced": null,
  "formula_pretty": "Sr5Sb3",
  "formula_anonymous": "A3B5",
  "chemsys": null,
  "volume": 591.4841340732455,
  "density": 4.510835704546249,
  "density_atomic": 36.967758379577845,
  "symmetry": null,
  "property_name": null,
  "material_id": "mp-2585",
  "deprecated": null,
  "deprecation_reasons": null,
  "last_updated": null,
  "origins": null,
  "warnings": null,
  "structure": {
    "@module": "pymatgen.core.structure",
    "@class": "Structure",
    "charge": 0,
    "lattice": {
      "matrix": [
        [9.57206776, -1e-8, 0.0],
        [-4.78603439, 8.28965446, -0.0],
        [-0.0, -0.0, 7.45419771]
      ],
      "pbc": [true, true, true],
      "a": 9.57206776,
      "b": 9.572068545954973,
      "c": 7.45419771,
      "alpha": 90.0,
      "beta": 90.0,
      "gamma": 120.00000086868422,
      "volume": 591.4841340732455
    },
    "properties": {},
    "sites": [
      {
        "species": [{ "element": "Sr", "occu": 1 }],
        "abc": [0.333333, 0.666667, -0.0],
        "properties": { "magmom": 0.004 },
        "label": "Sr",
        "xyz": [-5.126034050562112e-6, 5.5264390665514895, 0.0]
      },
      {
        "species": [{ "element": "Sr", "occu": 1 }],
        "abc": [0.666667, 0.333333, 0.5],
        "properties": { "magmom": 0.004 },
        "label": "Sr",
        "xyz": [4.78603849603405, 2.76321538344851, 3.727098855]
      },
      {
        "species": [{ "element": "Sr", "occu": 1 }],
        "abc": [0.666667, 0.333333, -0.0],
        "properties": { "magmom": 0.004 },
        "label": "Sr",
        "xyz": [4.78603849603405, 2.76321538344851, 0.0]
      },
      {
        "species": [{ "element": "Sr", "occu": 1 }],
        "abc": [0.333333, 0.666667, 0.5],
        "properties": { "magmom": 0.004 },
        "label": "Sr",
        "xyz": [-5.126034050562112e-6, 5.5264390665514895, 3.727098855]
      },
      {
        "species": [{ "element": "Sr", "occu": 1 }],
        "abc": [0.25322177, 0.0, 0.25],
        "properties": { "magmom": 0.044 },
        "label": "Sr",
        "xyz": [2.4238559407471354, -2.5322177000000003e-9, 1.8635494275]
      },
      {
        "species": [{ "element": "Sr", "occu": 1 }],
        "abc": [0.25322177, 0.25322177, 0.75],
        "properties": { "magmom": 0.044 },
        "label": "Sr",
        "xyz": [1.211927841230465, 2.0991209725173765, 5.5906482825]
      },
      {
        "species": [{ "element": "Sr", "occu": 1 }],
        "abc": [0.0, 0.74677823, 0.75],
        "properties": { "magmom": 0.044 },
        "label": "Sr",
        "xyz": [-3.57410629048333, 6.1905334849504055, 5.5906482825]
      },
      {
        "species": [{ "element": "Sr", "occu": 1 }],
        "abc": [-0.0, 0.25322177, 0.25],
        "properties": { "magmom": 0.044 },
        "label": "Sr",
        "xyz": [-1.2119280995166704, 2.099120975049594, 1.8635494275]
      },
      {
        "species": [{ "element": "Sr", "occu": 1 }],
        "abc": [0.74677823, 0.74677823, 0.25],
        "properties": { "magmom": 0.044 },
        "label": "Sr",
        "xyz": [3.5741055287695347, 6.1905334774826235, 1.8635494275]
      },
      {
        "species": [{ "element": "Sr", "occu": 1 }],
        "abc": [0.74677823, -0.0, 0.75],
        "properties": { "magmom": 0.044 },
        "label": "Sr",
        "xyz": [7.1482118192528645, -7.4677823e-9, 5.5906482825]
      },
      {
        "species": [{ "element": "Sb", "occu": 1 }],
        "abc": [0.6103220500000001, -0.0, 0.25],
        "properties": { "magmom": 0.012 },
        "label": "Sb",
        "xyz": [5.842044018022108, -6.103220500000001e-9, 1.8635494275]
      },
      {
        "species": [{ "element": "Sb", "occu": 1 }],
        "abc": [0.6103220500000001, 0.6103220500000001, 0.75],
        "properties": { "magmom": 0.012 },
        "label": "Sb",
        "xyz": [2.921021697746808, 5.059358897715623, 5.5906482825]
      },
      {
        "species": [{ "element": "Sb", "occu": 1 }],
        "abc": [-0.0, 0.38967795, 0.75],
        "properties": { "magmom": 0.012 },
        "label": "Sb",
        "xyz": [-1.8650120697247006, 3.2302955561811566, 5.5906482825]
      },
      {
        "species": [{ "element": "Sb", "occu": 1 }],
        "abc": [0.0, 0.6103220500000001, 0.25],
        "properties": { "magmom": 0.012 },
        "label": "Sb",
        "xyz": [-2.9210223202753, 5.059358903818843, 1.8635494275]
      },
      {
        "species": [{ "element": "Sb", "occu": 1 }],
        "abc": [0.38967795, 0.38967795, 0.25],
        "properties": { "magmom": 0.012 },
        "label": "Sb",
        "xyz": [1.865011672253191, 3.2302955522843773, 1.8635494275]
      },
      {
        "species": [{ "element": "Sb", "occu": 1 }],
        "abc": [0.38967795, 0.0, 0.75],
        "properties": { "magmom": 0.012 },
        "label": "Sb",
        "xyz": [3.7300237419778917, -3.8967795e-9, 5.5906482825]
      }
    ]
  },
  "task_ids": null,
  "uncorrected_energy_per_atom": null,
  "energy_per_atom": -3.673184816875,
  "formation_energy_per_atom": -1.067041795625,
  "energy_above_hull": 0.0,
  "is_stable": true,
  "equilibrium_reaction_energy_per_atom": null,
  "decomposes_to": null,
  "xas": null,
  "grain_boundaries": null,
  "band_gap": 0.0,
  "cbm": null,
  "vbm": null,
  "efermi": 4.01312833,
  "is_gap_direct": null,
  "is_metal": null,
  "es_source_calc_id": null,
  "bandstructure": null,
  "dos": null,
  "dos_energy_up": null,
  "dos_energy_down": null,
  "is_magnetic": null,
  "ordering": null,
  "total_magnetization": 1.927692599999999,
  "total_magnetization_normalized_vol": null,
  "total_magnetization_normalized_formula_units": null,
  "num_magnetic_sites": null,
  "num_unique_magnetic_sites": null,
  "types_of_magnetic_species": null,
  "bulk_modulus": null,
  "shear_modulus": null,
  "universal_anisotropy": null,
  "homogeneous_poisson": null,
  "e_total": null,
  "e_ionic": null,
  "e_electronic": null,
  "n": null,
  "e_ij_max": null,
  "weighted_surface_energy_EV_PER_ANG2": null,
  "weighted_surface_energy": null,
  "weighted_work_function": null,
  "surface_anisotropy": null,
  "shape_factor": null,
  "has_reconstructed": null,
  "possible_species": null,
  "has_props": null,
  "theoretical": null,
  "database_IDs": null,
  "fields_not_requested": [
    "builder_meta",
    "nsites",
    "elements",
    "nelements",
    "composition",
    "composition_reduced",
    "chemsys",
    "symmetry",
    "property_name",
    "deprecated",
    "deprecation_reasons",
    "last_updated",
    "origins",
    "warnings",
    "task_ids",
    "uncorrected_energy_per_atom",
    "equilibrium_reaction_energy_per_atom",
    "decomposes_to",
    "xas",
    "grain_boundaries",
    "cbm",
    "vbm",
    "is_gap_direct",
    "is_metal",
    "es_source_calc_id",
    "bandstructure",
    "dos",
    "dos_energy_up",
    "dos_energy_down",
    "is_magnetic",
    "ordering",
    "total_magnetization_normalized_vol",
    "total_magnetization_normalized_formula_units",
    "num_magnetic_sites",
    "num_unique_magnetic_sites",
    "types_of_magnetic_species",
    "bulk_modulus",
    "shear_modulus",
    "universal_anisotropy",
    "homogeneous_poisson",
    "e_total",
    "e_ionic",
    "e_electronic",
    "n",
    "e_ij_max",
    "weighted_surface_energy_EV_PER_ANG2",
    "weighted_surface_energy",
    "weighted_work_function",
    "surface_anisotropy",
    "shape_factor",
    "has_reconstructed",
    "possible_species",
    "has_props",
    "theoretical",
    "database_IDs"
  ]
}
