{"builder_meta": null, "nsites": null, "elements": null, "nelements": null, "composition": null, "composition_reduced": null, "formula_pretty": "Sr5Sn3", "formula_anonymous": "A3B5", "chemsys": null, "volume": 610.1343979019075, "density": 4.323145678725532, "density_atomic": 38.13339986886922, "symmetry": null, "property_name": null, "material_id": "mp-17720", "deprecated": null, "deprecation_reasons": null, "last_updated": null, "origins": null, "warnings": null, "structure": {"@module": "pymatgen.core.structure", "@class": "Structure", "charge": 0, "lattice": {"matrix": [[7.78887941, -0.00032529, -3.65719073], [-1.71750562, 7.5969978099999995, -3.65773657], [0.056356540000000004, 0.06929965, 10.24409565]], "pbc": [true, true, true], "a": 8.604747910597583, "b": 8.604838063286941, "c": 10.244485062092668, "alpha": 114.84649837355296, "beta": 114.83614244432265, "gamma": 90.0022248277713, "volume": 610.1343979019074}, "properties": {}, "sites": [{"species": [{"element": "Sr", "occu": 1}], "abc": [0.31827631, 0.81839397, 0.27995864], "properties": {"magmom": 0.0}, "label": "Sr", "xyz": [1.0891970550941714, 6.236634701472802, -1.2895436370431734]}, {"species": [{"element": "Sr", "occu": 1}], "abc": [0.46168551, 0.31836988, 0.27994776], "properties": {"magmom": 0.0}, "label": "Sr", "xyz": [3.0649875917299734, 2.437905381236699, 0.014826510233409973]}, {"species": [{"element": "Sr", "occu": 1}], "abc": [0.81827235, 0.96195282, 0.28016552], "properties": {"magmom": 0.0}, "label": "Sr", "xyz": [4.737054443496966, 7.327102663528661, -3.6411056766519545]}, {"species": [{"element": "Sr", "occu": 1}], "abc": [0.53831449, 0.68163012, 0.72005224], "properties": {"magmom": 0.0}, "label": "Sr", "xyz": [3.0627427382700256, 5.228066788763302, 2.91434183976659]}, {"species": [{"element": "Sr", "occu": 1}], "abc": [0.18172765, 0.03804718, 0.71983448], "properties": {"magmom": 0.0}, "label": "Sr", "xyz": [1.390675886503034, 0.3388695064713393, 6.570274026651956]}, {"species": [{"element": "Sr", "occu": 1}], "abc": [0.03812129, 0.53805989, 0.7198408], "properties": {"magmom": 0.0}, "label": "Sr", "xyz": [-0.5866310173691109, 4.137512121000136, 5.266619843065701]}, {"species": [{"element": "Sr", "occu": 1}], "abc": [0.68172369, 0.18160603, 0.72004136], "properties": {"magmom": 0.0}, "label": "Sr", "xyz": [5.038533274905829, 1.429337468527198, 4.218711987043173]}, {"species": [{"element": "Sr", "occu": 1}], "abc": [0.96187871, 0.46194011, 0.2801592], "properties": {"magmom": 0.0}, "label": "Sr", "xyz": [6.7143613473691115, 3.528460048999863, -2.3374514930657013]}, {"species": [{"element": "Sr", "occu": 1}], "abc": [-0.0, 0.0, 0.0], "properties": {"magmom": -0.0}, "label": "Sr", "xyz": [0.0, 0.0, 0.0]}, {"species": [{"element": "Sr", "occu": 1}], "abc": [0.5, 0.5, 0.0], "properties": {"magmom": -0.0}, "label": "Sr", "xyz": [3.035686895, 3.7983362599999997, -3.65746365]}, {"species": [{"element": "Sn", "occu": 1}], "abc": [0.37988191, 0.87988127, 0.99967474], "properties": {"magmom": -0.0}, "label": "Sn", "xyz": [1.5039915703445352, 6.753609619059356, 5.633089157165144]}, {"species": [{"element": "Sn", "occu": 1}], "abc": [0.11981792000000001, 0.37990574, 0.9997255700000001], "properties": {"magmom": -0.0}, "label": "Sn", "xyz": [0.33709816059149617, 2.955384731312283, 8.41349225816798]}, {"species": [{"element": "Sn", "occu": 1}], "abc": [0.88018208, 0.62009426, 0.00027443], "properties": {"magmom": -0.0}, "label": "Sn", "xyz": [5.790632169408503, 4.710587438687717, -5.484323908167977]}, {"species": [{"element": "Sn", "occu": 1}], "abc": [0.6201180900000001, 0.12011873, 0.00032526], "properties": {"magmom": -0.0}, "label": "Sn", "xyz": [4.623738759655465, 0.9123625509406442, -2.703920807165143]}, {"species": [{"element": "Sn", "occu": 1}], "abc": [0.2503229, 0.2499662, 0.49995448000000003], "properties": {"magmom": -0.001}, "label": "Sn", "xyz": [1.5485922330017443, 1.933557916917813, 3.2917924133753615]}, {"species": [{"element": "Sn", "occu": 1}], "abc": [0.7496771, 0.7500338, 0.50004552], "properties": {"magmom": -0.001}, "label": "Sn", "xyz": [4.579138096998255, 5.732414253082187, -0.36262406337536035]}]}, "task_ids": null, "uncorrected_energy_per_atom": null, "energy_per_atom": -19.483209108125, "formation_energy_per_atom": -0.737352021874999, "energy_above_hull": 0.0030214525, "is_stable": false, "equilibrium_reaction_energy_per_atom": null, "decomposes_to": null, "xas": null, "grain_boundaries": null, "band_gap": 0.0, "cbm": null, "vbm": null, "efermi": 3.21560494, "is_gap_direct": null, "is_metal": null, "es_source_calc_id": null, "bandstructure": null, "dos": null, "dos_energy_up": null, "dos_energy_down": null, "is_magnetic": null, "ordering": null, "total_magnetization": 0.0014967, "total_magnetization_normalized_vol": null, "total_magnetization_normalized_formula_units": null, "num_magnetic_sites": null, "num_unique_magnetic_sites": null, "types_of_magnetic_species": null, "bulk_modulus": null, "shear_modulus": null, "universal_anisotropy": null, "homogeneous_poisson": null, "e_total": null, "e_ionic": null, "e_electronic": null, "n": null, "e_ij_max": null, "weighted_surface_energy_EV_PER_ANG2": null, "weighted_surface_energy": null, "weighted_work_function": null, "surface_anisotropy": null, "shape_factor": null, "has_reconstructed": null, "possible_species": null, "has_props": null, "theoretical": null, "database_IDs": null, "fields_not_requested": ["builder_meta", "nsites", "elements", "nelements", "composition", "composition_reduced", "chemsys", "symmetry", "property_name", "deprecated", "deprecation_reasons", "last_updated", "origins", "warnings", "task_ids", "uncorrected_energy_per_atom", "equilibrium_reaction_energy_per_atom", "decomposes_to", "xas", "grain_boundaries", "cbm", "vbm", "is_gap_direct", "is_metal", "es_source_calc_id", "bandstructure", "dos", "dos_energy_up", "dos_energy_down", "is_magnetic", "ordering", "total_magnetization_normalized_vol", "total_magnetization_normalized_formula_units", "num_magnetic_sites", "num_unique_magnetic_sites", "types_of_magnetic_species", "bulk_modulus", "shear_modulus", "universal_anisotropy", "homogeneous_poisson", "e_total", "e_ionic", "e_electronic", "n", "e_ij_max", "weighted_surface_energy_EV_PER_ANG2", "weighted_surface_energy", "weighted_work_function", "surface_anisotropy", "shape_factor", "has_reconstructed", "possible_species", "has_props", "theoretical", "database_IDs"]}