{"builder_meta": null, "nsites": null, "elements": null, "nelements": null, "composition": null, "composition_reduced": null, "formula_pretty": "Sr5Si3", "formula_anonymous": "A3B5", "chemsys": null, "volume": 516.979748856991, "density": 3.355618384898804, "density_atomic": 32.31123430356194, "symmetry": null, "property_name": null, "material_id": "mp-746", "deprecated": null, "deprecation_reasons": null, "last_updated": null, "origins": null, "warnings": null, "structure": {"@module": "pymatgen.core.structure", "@class": "Structure", "charge": 0, "lattice": {"matrix": [[7.35597707, 0.0, -3.33940194], [-1.5159923800000001, 7.19806806, -3.33940196], [-0.00231491, -0.002855099999999, 9.76641115]], "pbc": [true, true, true], "a": 8.078490203697813, "b": 8.078491328401737, "c": 9.766411841676994, "alpha": 114.43026858293592, "beta": 114.43026136794596, "gamma": 89.99999982609074, "volume": 516.979748856991}, "properties": {}, "sites": [{"species": [{"element": "Sr", "occu": 1}], "abc": [0.17880219, 0.03959165, 0.71839385], "properties": {"magmom": -0.009000000000000001}, "label": "Sr", "xyz": [1.2535811528868528, 0.28293230502656475, 6.286824892959545]}, {"species": [{"element": "Sr", "occu": 1}], "abc": [0.03959165, 0.53959165, 0.71839385], "properties": {"magmom": -0.009000000000000001}, "label": "Sr", "xyz": [-0.5284445772554651, 3.881966335026564, 5.082003860303993]}, {"species": [{"element": "Sr", "occu": 1}], "abc": [0.67880219, 0.17880219, 0.71839385], "properties": {"magmom": -0.009000000000000001}, "label": "Sr", "xyz": [4.720527570031167, 1.2849792466159171, 4.152243972830886]}, {"species": [{"element": "Sr", "occu": 1}], "abc": [0.96040835, 0.46040835, 0.28160615], "properties": {"magmom": -0.009000000000000001}, "label": "Sr", "xyz": [6.366114357255466, 3.3132466249734365, -1.9943966103039932]}, {"species": [{"element": "Sr", "occu": 1}], "abc": [0.53959165, 0.67880219, 0.71839385], "properties": {"magmom": -0.009000000000000001}, "label": "Sr", "xyz": [2.9385018398888496, 4.884013276615917, 2.9474229401753345]}, {"species": [{"element": "Sr", "occu": 1}], "abc": [0.82119781, 0.96040835, 0.28160615], "properties": {"magmom": -0.009000000000000001}, "label": "Sr", "xyz": [4.584088627113147, 6.912280654973436, -3.199217642959545]}, {"species": [{"element": "Sr", "occu": 1}], "abc": [0.46040835, 0.32119781000000003, 0.28160615], "properties": {"magmom": -0.009000000000000001}, "label": "Sr", "xyz": [2.89916794011115, 2.3111996833840838, 0.14018430982466512]}, {"species": [{"element": "Sr", "occu": 1}], "abc": [0.32119781000000003, 0.82119781, 0.28160615], "properties": {"magmom": -0.009000000000000001}, "label": "Sr", "xyz": [1.1171422099688326, 5.910233713384084, -1.0646367228308868]}, {"species": [{"element": "Sr", "occu": 1}], "abc": [0.5, 0.5, -0.0], "properties": {"magmom": 0.0}, "label": "Sr", "xyz": [2.919992345, 3.59903403, -3.33940195]}, {"species": [{"element": "Sr", "occu": 1}], "abc": [-0.0, -0.0, -0.0], "properties": {"magmom": 0.0}, "label": "Sr", "xyz": [0.0, 0.0, 0.0]}, {"species": [{"element": "Si", "occu": 1}], "abc": [0.60696396, 0.10696396, 0.0], "properties": {"magmom": 0.001}, "label": "Si", "xyz": [4.302656423781771, 0.7699338640471175, -2.384092283207444]}, {"species": [{"element": "Si", "occu": 1}], "abc": [0.89303604, 0.60696396, 0.0], "properties": {"magmom": 0.001}, "label": "Si", "xyz": [5.648999894628979, 4.368967894047117, -5.009102922139279]}, {"species": [{"element": "Si", "occu": 1}], "abc": [0.10696396, 0.39303604000000003, -0.0], "properties": {"magmom": 0.001}, "label": "Si", "xyz": [0.19098479537102186, 2.8291001659528825, -1.669700977860721]}, {"species": [{"element": "Si", "occu": 1}], "abc": [0.39303604000000003, 0.89303604, -0.0], "properties": {"magmom": 0.001}, "label": "Si", "xyz": [1.5373282662182275, 6.428134195952882, -4.294711616792556]}, {"species": [{"element": "Si", "occu": 1}], "abc": [0.75, 0.75, 0.5], "properties": {"magmom": 0.022}, "label": "Si", "xyz": [4.378831062499999, 5.397123495, -0.12589735000000069]}, {"species": [{"element": "Si", "occu": 1}], "abc": [0.25, 0.25, 0.5], "properties": {"magmom": 0.022}, "label": "Si", "xyz": [1.4588387175, 1.7980894650000003, 3.2135046]}]}, "task_ids": null, "uncorrected_energy_per_atom": null, "energy_per_atom": -13.21259815875, "formation_energy_per_atom": -0.456398266875, "energy_above_hull": 0.00011828999999900001, "is_stable": false, "equilibrium_reaction_energy_per_atom": null, "decomposes_to": null, "xas": null, "grain_boundaries": null, "band_gap": 0.0, "cbm": null, "vbm": null, "efermi": 3.06955211, "is_gap_direct": null, "is_metal": null, "es_source_calc_id": null, "bandstructure": null, "dos": null, "dos_energy_up": null, "dos_energy_down": null, "is_magnetic": null, "ordering": null, "total_magnetization": 0.4198782, "total_magnetization_normalized_vol": null, "total_magnetization_normalized_formula_units": null, "num_magnetic_sites": null, "num_unique_magnetic_sites": null, "types_of_magnetic_species": null, "bulk_modulus": null, "shear_modulus": null, "universal_anisotropy": null, "homogeneous_poisson": null, "e_total": null, "e_ionic": null, "e_electronic": null, "n": null, "e_ij_max": null, "weighted_surface_energy_EV_PER_ANG2": null, "weighted_surface_energy": null, "weighted_work_function": null, "surface_anisotropy": null, "shape_factor": null, "has_reconstructed": null, "possible_species": null, "has_props": null, "theoretical": null, "database_IDs": null, "fields_not_requested": ["builder_meta", "nsites", "elements", "nelements", "composition", "composition_reduced", "chemsys", "symmetry", "property_name", "deprecated", "deprecation_reasons", "last_updated", "origins", "warnings", "task_ids", "uncorrected_energy_per_atom", "equilibrium_reaction_energy_per_atom", "decomposes_to", "xas", "grain_boundaries", "cbm", "vbm", "is_gap_direct", "is_metal", "es_source_calc_id", "bandstructure", "dos", "dos_energy_up", "dos_energy_down", "is_magnetic", "ordering", "total_magnetization_normalized_vol", "total_magnetization_normalized_formula_units", "num_magnetic_sites", "num_unique_magnetic_sites", "types_of_magnetic_species", "bulk_modulus", "shear_modulus", "universal_anisotropy", "homogeneous_poisson", "e_total", "e_ionic", "e_electronic", "n", "e_ij_max", "weighted_surface_energy_EV_PER_ANG2", "weighted_surface_energy", "weighted_work_function", "surface_anisotropy", "shape_factor", "has_reconstructed", "possible_species", "has_props", "theoretical", "database_IDs"]}