{"builder_meta": null, "nsites": null, "elements": null, "nelements": null, "composition": null, "composition_reduced": null, "formula_pretty": "Sr5Tl3", "formula_anonymous": "A3B5", "chemsys": null, "volume": 639.3970500884373, "density": 5.460273948614237, "density_atomic": 39.96231563052733, "symmetry": null, "property_name": null, "material_id": "mp-1106120", "deprecated": null, "deprecation_reasons": null, "last_updated": null, "origins": null, "warnings": null, "structure": {"@module": "pymatgen.core.structure", "@class": "Structure", "charge": 0, "lattice": {"matrix": [[8.991735, 0.0, 0.0], [-4.495868, 4.495868, 7.908309], [0.0, -8.991735, 0.0]], "pbc": [true, true, true], "a": 8.991735, "b": 10.1472661040464, "c": 8.991735, "alpha": 116.29941251036222, "beta": 90.0, "gamma": 116.29941251036222, "volume": 639.3970500884373}, "properties": {}, "sites": [{"species": [{"element": "Sr", "occu": 1}], "abc": [0.5, 0.0, 0.5], "properties": {"magmom": 0.004}, "label": "Sr", "xyz": [4.4958675, -4.4958675, 0.0]}, {"species": [{"element": "Sr", "occu": 1}], "abc": [0.0, 0.0, 0.0], "properties": {"magmom": 0.004}, "label": "Sr", "xyz": [0.0, 0.0, 0.0]}, {"species": [{"element": "Sr", "occu": 1}], "abc": [0.024808, 0.708688, 0.18388000000000002], "properties": {"magmom": 0.001}, "label": "Sr", "xyz": [-2.963100739304, 1.5327674693839997, 5.604523688592]}, {"species": [{"element": "Sr", "occu": 1}], "abc": [0.68388, 0.708688, 0.524807999999999], "properties": {"magmom": 0.001}, "label": "Sr", "xyz": [2.9631000306160002, -1.532766760695992, 5.604523688592]}, {"species": [{"element": "Sr", "occu": 1}], "abc": [0.18388000000000002, 0.708688, 0.68388], "properties": {"magmom": 0.001}, "label": "Sr", "xyz": [-1.5327674693839997, -2.9631000306160002, 5.604523688592]}, {"species": [{"element": "Sr", "occu": 1}], "abc": [0.524807999999999, 0.708688, 0.024808], "properties": {"magmom": 0.001}, "label": "Sr", "xyz": [1.532766760695992, 2.963100739304, 5.604523688592]}, {"species": [{"element": "Sr", "occu": 1}], "abc": [0.975192, 0.291311999999999, 0.8161200000000001], "properties": {"magmom": 0.001}, "label": "Sr", "xyz": [7.458967739304004, -6.028634469384006, 2.3037853114079923]}, {"species": [{"element": "Sr", "occu": 1}], "abc": [0.31612, 0.291311999999999, 0.475192], "properties": {"magmom": 0.001}, "label": "Sr", "xyz": [1.5327669693840045, -2.963100239304005, 2.3037853114079923]}, {"species": [{"element": "Sr", "occu": 1}], "abc": [0.8161200000000001, 0.291311999999999, 0.31612], "properties": {"magmom": 0.001}, "label": "Sr", "xyz": [6.028634469384006, -1.5327669693840045, 2.3037853114079923]}, {"species": [{"element": "Sr", "occu": 1}], "abc": [0.475192, 0.291311999999999, 0.975192], "properties": {"magmom": 0.001}, "label": "Sr", "xyz": [2.963100239304005, -7.458967739304004, 2.3037853114079923]}, {"species": [{"element": "Tl", "occu": 1}], "abc": [0.25, 0.5, 0.25], "properties": {"magmom": 0.02}, "label": "Tl", "xyz": [-2.499999998128999e-07, 2.499999998128999e-07, 3.9541545]}, {"species": [{"element": "Tl", "occu": 1}], "abc": [0.75, 0.5, 0.75], "properties": {"magmom": 0.02}, "label": "Tl", "xyz": [4.495867250000001, -4.495867250000001, 3.9541545]}, {"species": [{"element": "Tl", "occu": 1}], "abc": [0.376687, 0.0, 0.123312999999999], "properties": {"magmom": 0.0}, "label": "Tl", "xyz": [3.387069681945, -1.1087978180549911, 0.0]}, {"species": [{"element": "Tl", "occu": 1}], "abc": [0.623313, 0.0, 0.876687], "properties": {"magmom": 0.0}, "label": "Tl", "xyz": [5.604665318055, -7.8829371819450005, 0.0]}, {"species": [{"element": "Tl", "occu": 1}], "abc": [0.123312999999999, 0.0, 0.623313], "properties": {"magmom": 0.0}, "label": "Tl", "xyz": [1.1087978180549911, -5.604665318055, 0.0]}, {"species": [{"element": "Tl", "occu": 1}], "abc": [0.876687, 0.0, 0.376687], "properties": {"magmom": 0.0}, "label": "Tl", "xyz": [7.8829371819450005, -3.387069681945, 0.0]}]}, "task_ids": null, "uncorrected_energy_per_atom": null, "energy_per_atom": -29.77745087979166, "formation_energy_per_atom": -0.369173493541662, "energy_above_hull": 0.001376028958336, "is_stable": false, "equilibrium_reaction_energy_per_atom": null, "decomposes_to": null, "xas": null, "grain_boundaries": null, "band_gap": 0.0, "cbm": null, "vbm": null, "efermi": 3.0999108, "is_gap_direct": null, "is_metal": null, "es_source_calc_id": null, "bandstructure": null, "dos": null, "dos_energy_up": null, "dos_energy_down": null, "is_magnetic": null, "ordering": null, "total_magnetization": 0.2142354, "total_magnetization_normalized_vol": null, "total_magnetization_normalized_formula_units": null, "num_magnetic_sites": null, "num_unique_magnetic_sites": null, "types_of_magnetic_species": null, "bulk_modulus": null, "shear_modulus": null, "universal_anisotropy": null, "homogeneous_poisson": null, "e_total": null, "e_ionic": null, "e_electronic": null, "n": null, "e_ij_max": null, "weighted_surface_energy_EV_PER_ANG2": null, "weighted_surface_energy": null, "weighted_work_function": null, "surface_anisotropy": null, "shape_factor": null, "has_reconstructed": null, "possible_species": null, "has_props": null, "theoretical": null, "database_IDs": null, "fields_not_requested": ["builder_meta", "nsites", "elements", "nelements", "composition", "composition_reduced", "chemsys", "symmetry", "property_name", "deprecated", "deprecation_reasons", "last_updated", "origins", "warnings", "task_ids", "uncorrected_energy_per_atom", "equilibrium_reaction_energy_per_atom", "decomposes_to", "xas", "grain_boundaries", "cbm", "vbm", "is_gap_direct", "is_metal", "es_source_calc_id", "bandstructure", "dos", "dos_energy_up", "dos_energy_down", "is_magnetic", "ordering", "total_magnetization_normalized_vol", "total_magnetization_normalized_formula_units", "num_magnetic_sites", "num_unique_magnetic_sites", "types_of_magnetic_species", "bulk_modulus", "shear_modulus", "universal_anisotropy", "homogeneous_poisson", "e_total", "e_ionic", "e_electronic", "n", "e_ij_max", "weighted_surface_energy_EV_PER_ANG2", "weighted_surface_energy", "weighted_work_function", "surface_anisotropy", "shape_factor", "has_reconstructed", "possible_species", "has_props", "theoretical", "database_IDs"]}