{
  "builder_meta": null,
  "nsites": null,
  "elements": null,
  "nelements": null,
  "composition": null,
  "composition_reduced": null,
  "formula_pretty": "Sr7Ag3",
  "formula_anonymous": "A3B7",
  "chemsys": null,
  "volume": 815.1908773923775,
  "density": 3.817101380026945,
  "density_atomic": 40.759543869618874,
  "symmetry": null,
  "property_name": null,
  "material_id": "mp-1106092",
  "deprecated": null,
  "deprecation_reasons": null,
  "last_updated": null,
  "origins": null,
  "warnings": null,
  "structure": {
    "@module": "pymatgen.core.structure",
    "@class": "Structure",
    "charge": 0,
    "lattice": {
      "matrix": [
        [-6.056e-5, 1.859999999999999e-6, -7.28840292],
        [-5.68215612, -9.84195943, -3.9500000000000005e-5],
        [-5.68219991, 9.84198372, -4.6070000000000004e-5]
      ],
      "pbc": [true, true, true],
      "a": 7.288402920251837,
      "b": 11.364464949806461,
      "c": 11.364507880417502,
      "alpha": 120.00075904653804,
      "beta": 89.99951703294937,
      "gamma": 89.99957548265505,
      "volume": 815.1908773923775
    },
    "properties": {},
    "sites": [
      {
        "species": [{ "element": "Sr", "occu": 1 }],
        "abc": [0.450867199999999, 0.33332618, 0.666666299999999],
        "properties": { "magmom": 0.0 },
        "label": "Sr",
        "xyz": [-5.682169888020881, 3.280736969368741, -3.286145696712768]
      },
      {
        "species": [{ "element": "Sr", "occu": 1 }],
        "abc": [0.95088046, 0.66666419, 0.33332332000000003],
        "properties": { "magmom": 0.0 },
        "label": "Sr",
        "xyz": [-5.682157331418901, -3.2807174538398045, -6.9304416106758016]
      },
      {
        "species": [{ "element": "Sr", "occu": 1 }],
        "abc": [0.24767589999999903, 0.12497923, 0.87501491],
        "properties": { "magmom": 0.0 },
        "label": "Sr",
        "xyz": [-5.68217613872055, 7.3818424484018, -1.8052070013901096]
      },
      {
        "species": [{ "element": "Sr", "occu": 1 }],
        "abc": [0.24768792, 0.75003283, 0.87500739],
        "properties": { "magmom": 0.0 },
        "label": "Sr",
        "xyz": [-9.23378554787319, 1.2300162639311365, -1.8053192972639687]
      },
      {
        "species": [{ "element": "Sr", "occu": 1 }],
        "abc": [0.24766926, 0.12499746, 0.24998102],
        "properties": { "magmom": 0.0 },
        "label": "Sr",
        "xyz": [-2.130712210519549, 1.2300896596407702, -1.8051298118035006]
      },
      {
        "species": [{ "element": "Sr", "occu": 1 }],
        "abc": [0.74766577, 0.87501227, 0.12497785],
        "properties": { "magmom": 0.0 },
        "label": "Sr",
        "xyz": [-5.682150731716617, -7.381803906373271, -5.449329701966263]
      },
      {
        "species": [{ "element": "Sr", "occu": 1 }],
        "abc": [0.74766215, 0.24998446, 0.12499943000000001],
        "properties": { "magmom": 0.0 },
        "label": "Sr",
        "xyz": [-2.1307677576097506, -1.2300931677295786, -5.449278630343389]
      },
      {
        "species": [{ "element": "Sr", "occu": 1 }],
        "abc": [0.7476767, 0.8750074800000001, 0.7500359],
        "properties": { "magmom": 0.0 },
        "label": "Sr",
        "xyz": [-9.233828310305498, -1.2299456112123268, -5.449438160445338]
      },
      {
        "species": [{ "element": "Sr", "occu": 1 }],
        "abc": [0.4385579, 0.54156606, 0.45843726],
        "properties": { "magmom": 0.0 },
        "label": "Sr",
        "xyz": [-5.682221618792357, -0.8181383259058439, -3.1964291910130065]
      },
      {
        "species": [{ "element": "Sr", "occu": 1 }],
        "abc": [0.43857366000000003, 0.91681327, 0.45842172000000003],
        "properties": { "magmom": 0.0 },
        "label": "Sr",
        "xyz": [-7.814346549174608, -4.511459087344229, -3.1965588777918934]
      },
      {
        "species": [{ "element": "Sr", "occu": 1 }],
        "abc": [0.43856453, 0.5415672500000001, 0.08315203],
        "properties": { "magmom": 0.0 },
        "label": "Sr",
        "xyz": [-3.5497826808293245, -4.511701161841691, -3.196460223780825]
      },
      {
        "species": [{ "element": "Sr", "occu": 1 }],
        "abc": [0.93856004, 0.45844968, 0.54156048],
        "properties": { "magmom": 0.0 },
        "label": "Sr",
        "xyz": [-5.682294404835621, 0.817988022020578, -6.840646794584991]
      },
      {
        "species": [{ "element": "Sr", "occu": 1 }],
        "abc": [0.93856318, 0.08313834, 0.541562099999999],
        "properties": { "magmom": 0.0 },
        "label": "Sr",
        "xyz": [-3.549725982703227, 4.511802947938971, -6.840654855446863]
      },
      {
        "species": [{ "element": "Sr", "occu": 1 }],
        "abc": [0.9385803500000001, 0.45843356, 0.91683355],
        "properties": { "magmom": 0.0 },
        "label": "Sr",
        "xyz": [-7.814579414288364, 4.511578119938787, -6.840812110241892]
      },
      {
        "species": [{ "element": "Ag", "occu": 1 }],
        "abc": [0.16814608, 0.811441299999999, 0.18857685],
        "properties": { "magmom": 0.0 },
        "label": "Ag",
        "xyz": [-5.682277691840439, -6.130201754005858, -1.225557120125383]
      },
      {
        "species": [{ "element": "Ag", "occu": 1 }],
        "abc": [0.16813504, 0.37715169, 0.18859275],
        "properties": { "magmom": 0.0 },
        "label": "Ag",
        "xyz": [-3.2146666728365174, -1.8557845439947318, -1.2254595024500645]
      },
      {
        "species": [{ "element": "Ag", "occu": 1 }],
        "abc": [0.16813761, 0.81140645, 0.62284392],
        "properties": { "magmom": 0.0 },
        "label": "Ag",
        "xyz": [-8.149671974256684, -1.855809328663386, -1.2255153926599907]
      },
      {
        "species": [{ "element": "Ag", "occu": 1 }],
        "abc": [0.66813792, 0.18860086, 0.8114412],
        "properties": { "magmom": -0.0 },
        "label": "Ag",
        "xyz": [-5.68247110692899, 6.129990310290685, -4.869703199920781]
      },
      {
        "species": [{ "element": "Ag", "occu": 1 }],
        "abc": [0.66812954, 0.62281913, 0.81140038],
        "properties": { "magmom": 0.0 },
        "label": "Ag",
        "xyz": [-8.149535159317484, 1.856029963394863, -4.869659272845399]
      },
      {
        "species": [{ "element": "Ag", "occu": 1 }],
        "abc": [0.66812677, 0.18860731, 0.3771716],
        "properties": { "magmom": 0.0 },
        "label": "Ag",
        "xyz": [-3.214901074124984, 1.855852496340711, -4.869601927682526]
      }
    ]
  },
  "task_ids": null,
  "uncorrected_energy_per_atom": null,
  "energy_per_atom": -17.159280429,
  "formation_energy_per_atom": -0.150554536499998,
  "energy_above_hull": 0.013513263899998,
  "is_stable": false,
  "equilibrium_reaction_energy_per_atom": null,
  "decomposes_to": null,
  "xas": null,
  "grain_boundaries": null,
  "band_gap": 0.0,
  "cbm": null,
  "vbm": null,
  "efermi": 2.02375171,
  "is_gap_direct": null,
  "is_metal": null,
  "es_source_calc_id": null,
  "bandstructure": null,
  "dos": null,
  "dos_energy_up": null,
  "dos_energy_down": null,
  "is_magnetic": null,
  "ordering": null,
  "total_magnetization": 0.0076206,
  "total_magnetization_normalized_vol": null,
  "total_magnetization_normalized_formula_units": null,
  "num_magnetic_sites": null,
  "num_unique_magnetic_sites": null,
  "types_of_magnetic_species": null,
  "bulk_modulus": null,
  "shear_modulus": null,
  "universal_anisotropy": null,
  "homogeneous_poisson": null,
  "e_total": null,
  "e_ionic": null,
  "e_electronic": null,
  "n": null,
  "e_ij_max": null,
  "weighted_surface_energy_EV_PER_ANG2": null,
  "weighted_surface_energy": null,
  "weighted_work_function": null,
  "surface_anisotropy": null,
  "shape_factor": null,
  "has_reconstructed": null,
  "possible_species": null,
  "has_props": null,
  "theoretical": null,
  "database_IDs": null,
  "fields_not_requested": [
    "builder_meta",
    "nsites",
    "elements",
    "nelements",
    "composition",
    "composition_reduced",
    "chemsys",
    "symmetry",
    "property_name",
    "deprecated",
    "deprecation_reasons",
    "last_updated",
    "origins",
    "warnings",
    "task_ids",
    "uncorrected_energy_per_atom",
    "equilibrium_reaction_energy_per_atom",
    "decomposes_to",
    "xas",
    "grain_boundaries",
    "cbm",
    "vbm",
    "is_gap_direct",
    "is_metal",
    "es_source_calc_id",
    "bandstructure",
    "dos",
    "dos_energy_up",
    "dos_energy_down",
    "is_magnetic",
    "ordering",
    "total_magnetization_normalized_vol",
    "total_magnetization_normalized_formula_units",
    "num_magnetic_sites",
    "num_unique_magnetic_sites",
    "types_of_magnetic_species",
    "bulk_modulus",
    "shear_modulus",
    "universal_anisotropy",
    "homogeneous_poisson",
    "e_total",
    "e_ionic",
    "e_electronic",
    "n",
    "e_ij_max",
    "weighted_surface_energy_EV_PER_ANG2",
    "weighted_surface_energy",
    "weighted_work_function",
    "surface_anisotropy",
    "shape_factor",
    "has_reconstructed",
    "possible_species",
    "has_props",
    "theoretical",
    "database_IDs"
  ]
}
