{"builder_meta": null, "nsites": null, "elements": null, "nelements": null, "composition": null, "composition_reduced": null, "formula_pretty": "Sr7Au3", "formula_anonymous": "A3B7", "chemsys": null, "volume": 771.3793520639542, "density": 5.184704707674482, "density_atomic": 38.56896760319771, "symmetry": null, "property_name": null, "material_id": "mp-30422", "deprecated": null, "deprecation_reasons": null, "last_updated": null, "origins": null, "warnings": null, "structure": {"@module": "pymatgen.core.structure", "@class": "Structure", "charge": 0, "lattice": {"matrix": [[11.11758545, 2e-08, 0.0], [-5.5587917000000004, 9.62811095, 0.0], [0.0, -0.0, 7.20636818]], "pbc": [true, true, true], "a": 11.11758545, "b": 11.117584523155145, "c": 7.20636818, "alpha": 90.0, "beta": 90.0, "gamma": 119.99999655504413, "volume": 771.3793520639542}, "properties": {}, "sites": [{"species": [{"element": "Sr", "occu": 1}], "abc": [0.45789039000000004, 0.54210961, 0.56875875], "properties": {"magmom": 0.0}, "label": "Sr", "xyz": [2.0771611370005885, 5.219491481299038, 4.098684958096575]}, {"species": [{"element": "Sr", "occu": 1}], "abc": [0.91577777, 0.45789039000000004, 0.06875875000000001], "properties": {"magmom": 0.0}, "label": "Sr", "xyz": [7.635920311743684, 4.408619496174326, 0.49550086809657506]}, {"species": [{"element": "Sr", "occu": 1}], "abc": [0.54210961, 0.08422223, 0.06875875000000001], "properties": {"magmom": 0.0}, "label": "Sr", "xyz": [5.558776079361683, 0.8109009857386107, 0.49550086809657506]}, {"species": [{"element": "Sr", "occu": 1}], "abc": [0.45789039000000004, 0.91577777, 0.56875875], "properties": {"magmom": 0.0}, "label": "Sr", "xyz": [1.7670638316147347e-05, 8.817209984261389, 4.098684958096575]}, {"species": [{"element": "Sr", "occu": 1}], "abc": [0.08422223, 0.54210961, 0.56875875], "properties": {"magmom": 0.0}, "label": "Sr", "xyz": [-2.077126561743684, 5.219491473825674, 4.098684958096575]}, {"species": [{"element": "Sr", "occu": 1}], "abc": [0.54210961, 0.45789039000000004, 0.06875875000000001], "properties": {"magmom": 0.0}, "label": "Sr", "xyz": [3.481632612999411, 4.408619488700963, 0.49550086809657506]}, {"species": [{"element": "Sr", "occu": 1}], "abc": [0.333333, 0.666667, 0.04098045], "properties": {"magmom": 0.0}, "label": "Sr", "xyz": [-4.875459050701636e-06, 6.41874384937031, 0.295320210882081]}, {"species": [{"element": "Sr", "occu": 1}], "abc": [0.666667, 0.333333, 0.5409804500000001], "properties": {"magmom": 0.0}, "label": "Sr", "xyz": [5.55879862545905, 3.20936712062969, 3.8985043008820814]}, {"species": [{"element": "Sr", "occu": 1}], "abc": [0.12485908, 0.87514092, 0.24628564], "properties": {"magmom": 0.0}, "label": "Sr", "xyz": [-3.4765945913179785, 8.425953877142256, 1.7748249992869352]}, {"species": [{"element": "Sr", "occu": 1}], "abc": [0.24972016, 0.12485908, 0.74628564], "properties": {"magmom": 0.0}, "label": "Sr", "xyz": [2.082219599814036, 1.202157080349329, 5.378009089286935]}, {"species": [{"element": "Sr", "occu": 1}], "abc": [0.87514092, 0.75027984, 0.74628564], "properties": {"magmom": 0.0}, "label": "Sr", "xyz": [5.558804611622286, 7.223777560571067, 5.378009089286935]}, {"species": [{"element": "Sr", "occu": 1}], "abc": [0.12485908, 0.24972016, 0.24628564], "properties": {"magmom": 0.0}, "label": "Sr", "xyz": [-1.086162228602916e-05, 2.4043334094289337, 1.7748249992869352]}, {"species": [{"element": "Sr", "occu": 1}], "abc": [0.75027984, 0.87514092, 0.24628564], "properties": {"magmom": 0.0}, "label": "Sr", "xyz": [3.4765741501859635, 8.425953889650671, 1.7748249992869352]}, {"species": [{"element": "Sr", "occu": 1}], "abc": [0.87514092, 0.12485908, 0.74628564], "properties": {"magmom": 0.0}, "label": "Sr", "xyz": [9.035388341317978, 1.2021570928577443, 5.378009089286935]}, {"species": [{"element": "Au", "occu": 1}], "abc": [0.18834037, 0.81165963, 0.83329612], "properties": {"magmom": 0.0}, "label": "Au", "xyz": [-2.4179566573094546, 7.814748975042756, 6.005038643685461]}, {"species": [{"element": "Au", "occu": 1}], "abc": [0.37667974, 0.18834037, 0.33329612000000003], "properties": {"magmom": 0.0}, "label": "Au", "xyz": [3.140824311202853, 1.8133619862576464, 2.4018545536854616]}, {"species": [{"element": "Au", "occu": 1}], "abc": [0.81165963, 0.62332026, 0.33329612000000003], "properties": {"magmom": 0.0}, "label": "Au", "xyz": [5.558787805110541, 6.001396636896039, 2.4018545536854616]}, {"species": [{"element": "Au", "occu": 1}], "abc": [0.18834037, 0.37667974, 0.83329612], "properties": {"magmom": 0.0}, "label": "Au", "xyz": [5.944889458486813e-06, 3.62671433310396, 6.005038643685461]}, {"species": [{"element": "Au", "occu": 1}], "abc": [0.62332026, 0.81165963, 0.83329612], "properties": {"magmom": 0.0}, "label": "Au", "xyz": [2.4179694387971455, 7.814748983742353, 6.005038643685461]}, {"species": [{"element": "Au", "occu": 1}], "abc": [0.81165963, 0.18834037, 0.33329612000000003], "properties": {"magmom": 0.0}, "label": "Au", "xyz": [7.976750407309454, 1.8133619949572441, 2.4018545536854616]}]}, "task_ids": null, "uncorrected_energy_per_atom": null, "energy_per_atom": -26.2947241555, "formation_energy_per_atom": -0.517273361500002, "energy_above_hull": 0.0, "is_stable": true, "equilibrium_reaction_energy_per_atom": null, "decomposes_to": null, "xas": null, "grain_boundaries": null, "band_gap": 0.0, "cbm": null, "vbm": null, "efermi": 2.51075685, "is_gap_direct": null, "is_metal": null, "es_source_calc_id": null, "bandstructure": null, "dos": null, "dos_energy_up": null, "dos_energy_down": null, "is_magnetic": null, "ordering": null, "total_magnetization": 0.00023099999999900002, "total_magnetization_normalized_vol": null, "total_magnetization_normalized_formula_units": null, "num_magnetic_sites": null, "num_unique_magnetic_sites": null, "types_of_magnetic_species": null, "bulk_modulus": null, "shear_modulus": null, "universal_anisotropy": null, "homogeneous_poisson": null, "e_total": null, "e_ionic": null, "e_electronic": null, "n": null, "e_ij_max": null, "weighted_surface_energy_EV_PER_ANG2": null, "weighted_surface_energy": null, "weighted_work_function": null, "surface_anisotropy": null, "shape_factor": null, "has_reconstructed": null, "possible_species": null, "has_props": null, "theoretical": null, "database_IDs": null, "fields_not_requested": ["builder_meta", "nsites", "elements", "nelements", "composition", "composition_reduced", "chemsys", "symmetry", "property_name", "deprecated", "deprecation_reasons", "last_updated", "origins", "warnings", "task_ids", "uncorrected_energy_per_atom", "equilibrium_reaction_energy_per_atom", "decomposes_to", "xas", "grain_boundaries", "cbm", "vbm", "is_gap_direct", "is_metal", "es_source_calc_id", "bandstructure", "dos", "dos_energy_up", "dos_energy_down", "is_magnetic", "ordering", "total_magnetization_normalized_vol", "total_magnetization_normalized_formula_units", "num_magnetic_sites", "num_unique_magnetic_sites", "types_of_magnetic_species", "bulk_modulus", "shear_modulus", "universal_anisotropy", "homogeneous_poisson", "e_total", "e_ionic", "e_electronic", "n", "e_ij_max", "weighted_surface_energy_EV_PER_ANG2", "weighted_surface_energy", "weighted_work_function", "surface_anisotropy", "shape_factor", "has_reconstructed", "possible_species", "has_props", "theoretical", "database_IDs"]}