{
  "builder_meta": null,
  "nsites": null,
  "elements": null,
  "nelements": null,
  "composition": null,
  "composition_reduced": null,
  "formula_pretty": "Sr7Ge6",
  "formula_anonymous": "A6B7",
  "chemsys": null,
  "volume": 1603.4791836002462,
  "density": 4.346060480769488,
  "density_atomic": 30.836138146158582,
  "symmetry": null,
  "property_name": null,
  "material_id": "mp-1198122",
  "deprecated": null,
  "deprecation_reasons": null,
  "last_updated": null,
  "origins": null,
  "warnings": null,
  "structure": {
    "@module": "pymatgen.core.structure",
    "@class": "Structure",
    "charge": 0,
    "lattice": {
      "matrix": [
        [-7.83861436, 0.0, -0.0],
        [-0.0, 0.0, -8.61246681],
        [0.0, -23.75179664, 0.0]
      ],
      "pbc": [true, true, true],
      "a": 7.83861436,
      "b": 8.61246681,
      "c": 23.75179664,
      "alpha": 90.0,
      "beta": 90.0,
      "gamma": 90.0,
      "volume": 1603.4791836002462
    },
    "properties": {},
    "sites": [
      {
        "species": [{ "element": "Sr", "occu": 1 }],
        "abc": [0.47121702, 0.6802700700000001, 0.33769918],
        "properties": { "magmom": 0.004 },
        "label": "Sr",
        "xyz": [-3.6936884996484074, -8.020962248854755, -5.858803399711378]
      },
      {
        "species": [{ "element": "Sr", "occu": 1 }],
        "abc": [0.97121702, 0.81972993, 0.16230082],
        "properties": { "magmom": 0.004 },
        "label": "Sr",
        "xyz": [-7.6129956796484075, -3.8549360711452447, -7.059896815288624]
      },
      {
        "species": [{ "element": "Sr", "occu": 1 }],
        "abc": [0.52878298, 0.31972993, 0.83769918],
        "properties": { "magmom": 0.003 },
        "label": "Sr",
        "xyz": [-4.144925860351593, -19.896860568854752, -2.7536634102886235]
      },
      {
        "species": [{ "element": "Sr", "occu": 1 }],
        "abc": [0.02878298, 0.18027007, 0.66230082],
        "properties": { "magmom": 0.003 },
        "label": "Sr",
        "xyz": [-0.2256186803515928, -15.730834391145244, -1.552569994711377]
      },
      {
        "species": [{ "element": "Sr", "occu": 1 }],
        "abc": [0.52878298, 0.31972993, 0.66230082],
        "properties": { "magmom": 0.003 },
        "label": "Sr",
        "xyz": [-4.144925860351593, -15.730834391145244, -2.7536634102886235]
      },
      {
        "species": [{ "element": "Sr", "occu": 1 }],
        "abc": [0.02878298, 0.18027007, 0.83769918],
        "properties": { "magmom": 0.003 },
        "label": "Sr",
        "xyz": [-0.2256186803515928, -19.896860568854752, -1.552569994711377]
      },
      {
        "species": [{ "element": "Sr", "occu": 1 }],
        "abc": [0.47121702, 0.6802700700000001, 0.16230082],
        "properties": { "magmom": 0.004 },
        "label": "Sr",
        "xyz": [-3.6936884996484074, -3.8549360711452447, -5.858803399711378]
      },
      {
        "species": [{ "element": "Sr", "occu": 1 }],
        "abc": [0.97121702, 0.81972993, 0.33769918],
        "properties": { "magmom": 0.004 },
        "label": "Sr",
        "xyz": [-7.6129956796484075, -8.020962248854755, -7.059896815288624]
      },
      {
        "species": [{ "element": "Sr", "occu": 1 }],
        "abc": [0.36504925, 0.81731374, 0.85995859],
        "properties": { "magmom": 0.002 },
        "label": "Sr",
        "xyz": [-2.86148029315723, -20.425561548501136, -7.0390874591069705]
      },
      {
        "species": [{ "element": "Sr", "occu": 1 }],
        "abc": [0.86504925, 0.68268626, 0.64004141],
        "properties": { "magmom": 0.002 },
        "label": "Sr",
        "xyz": [-6.78078747315723, -15.202133411498862, -5.879612755893031]
      },
      {
        "species": [{ "element": "Sr", "occu": 1 }],
        "abc": [0.63495075, 0.18268626000000002, 0.35995859],
        "properties": { "magmom": 0.001 },
        "label": "Sr",
        "xyz": [-4.97713406684277, -8.549663228501137, -1.573379350893031]
      },
      {
        "species": [{ "element": "Sr", "occu": 1 }],
        "abc": [0.13495075, 0.31731374, 0.14004141],
        "properties": { "magmom": 0.002 },
        "label": "Sr",
        "xyz": [-1.05782688684277, -3.3262350914988623, -2.7328540541069697]
      },
      {
        "species": [{ "element": "Sr", "occu": 1 }],
        "abc": [0.63495075, 0.18268626000000002, 0.14004141],
        "properties": { "magmom": 0.001 },
        "label": "Sr",
        "xyz": [-4.97713406684277, -3.3262350914988623, -1.573379350893031]
      },
      {
        "species": [{ "element": "Sr", "occu": 1 }],
        "abc": [0.13495075, 0.31731374, 0.35995859],
        "properties": { "magmom": 0.002 },
        "label": "Sr",
        "xyz": [-1.05782688684277, -8.549663228501137, -2.7328540541069697]
      },
      {
        "species": [{ "element": "Sr", "occu": 1 }],
        "abc": [0.36504925, 0.81731374, 0.64004141],
        "properties": { "magmom": 0.002 },
        "label": "Sr",
        "xyz": [-2.86148029315723, -15.202133411498862, -7.0390874591069705]
      },
      {
        "species": [{ "element": "Sr", "occu": 1 }],
        "abc": [0.86504925, 0.68268626, 0.85995859],
        "properties": { "magmom": 0.002 },
        "label": "Sr",
        "xyz": [-6.78078747315723, -20.425561548501136, -5.879612755893031]
      },
      {
        "species": [{ "element": "Sr", "occu": 1 }],
        "abc": [0.16175164, 0.67804869, 0.4817261],
        "properties": { "magmom": 0.002 },
        "label": "Sr",
        "xyz": [-1.2679087280575505, -11.441860363380304, -5.83967183818898]
      },
      {
        "species": [{ "element": "Sr", "occu": 1 }],
        "abc": [0.66175164, 0.82195131, 0.0182739],
        "properties": { "magmom": 0.002 },
        "label": "Sr",
        "xyz": [-5.18721590805755, -0.43403795661969596, -7.079028376811022]
      },
      {
        "species": [{ "element": "Sr", "occu": 1 }],
        "abc": [0.83824836, 0.32195131, 0.981726099999999],
        "properties": { "magmom": 0.002 },
        "label": "Sr",
        "xyz": [-6.57070563194245, -23.31775868338028, -2.772794971811021]
      },
      {
        "species": [{ "element": "Sr", "occu": 1 }],
        "abc": [0.33824836, 0.17804869, 0.5182739],
        "properties": { "magmom": 0.002 },
        "label": "Sr",
        "xyz": [-2.65139845194245, -12.309936276619695, -1.5334384331889792]
      },
      {
        "species": [{ "element": "Sr", "occu": 1 }],
        "abc": [0.83824836, 0.32195131, 0.5182739],
        "properties": { "magmom": 0.002 },
        "label": "Sr",
        "xyz": [-6.57070563194245, -12.309936276619695, -2.772794971811021]
      },
      {
        "species": [{ "element": "Sr", "occu": 1 }],
        "abc": [0.33824836, 0.17804869, 0.981726099999999],
        "properties": { "magmom": 0.002 },
        "label": "Sr",
        "xyz": [-2.65139845194245, -23.31775868338028, -1.5334384331889792]
      },
      {
        "species": [{ "element": "Sr", "occu": 1 }],
        "abc": [0.16175164, 0.67804869, 0.0182739],
        "properties": { "magmom": 0.002 },
        "label": "Sr",
        "xyz": [-1.2679087280575505, -0.43403795661969596, -5.83967183818898]
      },
      {
        "species": [{ "element": "Sr", "occu": 1 }],
        "abc": [0.66175164, 0.82195131, 0.4817261],
        "properties": { "magmom": 0.002 },
        "label": "Sr",
        "xyz": [-5.18721590805755, -11.441860363380304, -7.079028376811022]
      },
      {
        "species": [{ "element": "Sr", "occu": 1 }],
        "abc": [0.19881833000000002, 0.52812735, 0.75],
        "properties": { "magmom": 0.006 },
        "label": "Sr",
        "xyz": [-1.558460216569219, -17.81384748, -4.548479273328254]
      },
      {
        "species": [{ "element": "Sr", "occu": 1 }],
        "abc": [0.69881833, 0.97187265, 0.75],
        "properties": { "magmom": 0.006 },
        "label": "Sr",
        "xyz": [-5.477767396569219, -17.81384748, -8.370220941671747]
      },
      {
        "species": [{ "element": "Sr", "occu": 1 }],
        "abc": [0.8011816700000001, 0.47187265, 0.25],
        "properties": { "magmom": 0.006 },
        "label": "Sr",
        "xyz": [-6.2801541434307815, -5.93794916, -4.063987536671747]
      },
      {
        "species": [{ "element": "Sr", "occu": 1 }],
        "abc": [0.30118167, 0.02812735, 0.25],
        "properties": { "magmom": 0.006 },
        "label": "Sr",
        "xyz": [-2.3608469634307814, -5.93794916, -0.2422458683282535]
      },
      {
        "species": [{ "element": "Ge", "occu": 1 }],
        "abc": [0.49641451000000003, 0.5376208, 0.9476177],
        "properties": { "magmom": 0.005 },
        "label": "Ge",
        "xyz": [-3.891201906598364, -22.507622902864526, -4.630241296365648]
      },
      {
        "species": [{ "element": "Ge", "occu": 1 }],
        "abc": [0.99641451, 0.9623792, 0.5523823],
        "properties": { "magmom": 0.006 },
        "label": "Ge",
        "xyz": [-7.810509086598364, -13.120072057135472, -8.288458918634353]
      },
      {
        "species": [{ "element": "Ge", "occu": 1 }],
        "abc": [0.50358549, 0.4623792, 0.4476177],
        "properties": { "magmom": 0.005 },
        "label": "Ge",
        "xyz": [-3.947412453401636, -10.631724582864527, -3.9822255136343525]
      },
      {
        "species": [{ "element": "Ge", "occu": 1 }],
        "abc": [0.00358549, 0.037620799999999004, 0.0523823],
        "properties": { "magmom": 0.006 },
        "label": "Ge",
        "xyz": [-0.0281052734016364, -1.244173737135472, -0.32400789136563946]
      },
      {
        "species": [{ "element": "Ge", "occu": 1 }],
        "abc": [0.50358549, 0.4623792, 0.0523823],
        "properties": { "magmom": 0.005 },
        "label": "Ge",
        "xyz": [-3.947412453401636, -1.244173737135472, -3.9822255136343525]
      },
      {
        "species": [{ "element": "Ge", "occu": 1 }],
        "abc": [0.00358549, 0.037620799999999004, 0.4476177],
        "properties": { "magmom": 0.006 },
        "label": "Ge",
        "xyz": [-0.0281052734016364, -10.631724582864527, -0.32400789136563946]
      },
      {
        "species": [{ "element": "Ge", "occu": 1 }],
        "abc": [0.49641451000000003, 0.5376208, 0.5523823],
        "properties": { "magmom": 0.005 },
        "label": "Ge",
        "xyz": [-3.891201906598364, -13.120072057135472, -4.630241296365648]
      },
      {
        "species": [{ "element": "Ge", "occu": 1 }],
        "abc": [0.99641451, 0.9623792, 0.9476177],
        "properties": { "magmom": 0.006 },
        "label": "Ge",
        "xyz": [-7.810509086598364, -22.507622902864526, -8.288458918634353]
      },
      {
        "species": [{ "element": "Ge", "occu": 1 }],
        "abc": [0.30157079000000003, 0.97207128, 0.40324389],
        "properties": { "magmom": 0.002 },
        "label": "Ge",
        "xyz": [-2.3638971250505447, -9.57776687160253, -8.371931635954217]
      },
      {
        "species": [{ "element": "Ge", "occu": 1 }],
        "abc": [0.80157079, 0.52792872, 0.09675611],
        "properties": { "magmom": 0.002 },
        "label": "Ge",
        "xyz": [-6.283204305050544, -2.2981314483974704, -4.546768579045784]
      },
      {
        "species": [{ "element": "Ge", "occu": 1 }],
        "abc": [0.69842921, 0.02792872, 0.90324389],
        "properties": { "magmom": 0.002 },
        "label": "Ge",
        "xyz": [-5.4747172349494555, -21.45366519160253, -0.24053517404578323]
      },
      {
        "species": [{ "element": "Ge", "occu": 1 }],
        "abc": [0.19842921, 0.47207128000000004, 0.5967561100000001],
        "properties": { "magmom": 0.002 },
        "label": "Ge",
        "xyz": [-1.5554100549494556, -14.174029768397471, -4.065698230954218]
      },
      {
        "species": [{ "element": "Ge", "occu": 1 }],
        "abc": [0.69842921, 0.02792872, 0.5967561100000001],
        "properties": { "magmom": 0.002 },
        "label": "Ge",
        "xyz": [-5.4747172349494555, -14.174029768397471, -0.24053517404578323]
      },
      {
        "species": [{ "element": "Ge", "occu": 1 }],
        "abc": [0.19842921, 0.47207128000000004, 0.90324389],
        "properties": { "magmom": 0.002 },
        "label": "Ge",
        "xyz": [-1.5554100549494556, -21.45366519160253, -4.065698230954218]
      },
      {
        "species": [{ "element": "Ge", "occu": 1 }],
        "abc": [0.30157079000000003, 0.97207128, 0.09675611],
        "properties": { "magmom": 0.002 },
        "label": "Ge",
        "xyz": [-2.3638971250505447, -2.2981314483974704, -8.371931635954217]
      },
      {
        "species": [{ "element": "Ge", "occu": 1 }],
        "abc": [0.80157079, 0.52792872, 0.40324389],
        "properties": { "magmom": 0.002 },
        "label": "Ge",
        "xyz": [-6.283204305050544, -9.57776687160253, -4.546768579045784]
      },
      {
        "species": [{ "element": "Ge", "occu": 1 }],
        "abc": [0.32342552, 0.09163481, 0.75],
        "properties": { "magmom": 0.01 },
        "label": "Ge",
        "xyz": [-2.5352079254624673, -17.81384748, -0.7892017597656561]
      },
      {
        "species": [{ "element": "Ge", "occu": 1 }],
        "abc": [0.82342552, 0.40836519, 0.75],
        "properties": { "magmom": 0.012 },
        "label": "Ge",
        "xyz": [-6.454515105462468, -17.81384748, -3.517031645234344]
      },
      {
        "species": [{ "element": "Ge", "occu": 1 }],
        "abc": [0.67657448, 0.90836519, 0.25],
        "properties": { "magmom": 0.01 },
        "label": "Ge",
        "xyz": [-5.303406434537533, -5.93794916, -7.823265050234345]
      },
      {
        "species": [{ "element": "Ge", "occu": 1 }],
        "abc": [0.17657448, 0.5916348100000001, 0.25],
        "properties": { "magmom": 0.012 },
        "label": "Ge",
        "xyz": [-1.3840992545375328, -5.93794916, -5.095435164765657]
      },
      {
        "species": [{ "element": "Ge", "occu": 1 }],
        "abc": [0.0935849, 0.8822161900000001, 0.75],
        "properties": { "magmom": 0.009000000000000001 },
        "label": "Ge",
        "xyz": [-0.733575941019164, -17.81384748, -7.598057655619655]
      },
      {
        "species": [{ "element": "Ge", "occu": 1 }],
        "abc": [0.5935849, 0.61778381, 0.75],
        "properties": { "magmom": 0.012 },
        "label": "Ge",
        "xyz": [-4.652883121019164, -17.81384748, -5.320642559380347]
      },
      {
        "species": [{ "element": "Ge", "occu": 1 }],
        "abc": [0.906415099999999, 0.11778381, 0.25],
        "properties": { "magmom": 0.01 },
        "label": "Ge",
        "xyz": [-7.105038418980828, -5.93794916, -1.0144091543803462]
      },
      {
        "species": [{ "element": "Ge", "occu": 1 }],
        "abc": [0.4064151, 0.38221619, 0.25],
        "properties": { "magmom": 0.012 },
        "label": "Ge",
        "xyz": [-3.185731238980836, -5.93794916, -3.2918242506196544]
      }
    ]
  },
  "task_ids": null,
  "uncorrected_energy_per_atom": null,
  "energy_per_atom": -15.227670299423078,
  "formation_energy_per_atom": -0.6698631478846171,
  "energy_above_hull": 0.014508441730768,
  "is_stable": false,
  "equilibrium_reaction_energy_per_atom": null,
  "decomposes_to": null,
  "xas": null,
  "grain_boundaries": null,
  "band_gap": 0.0,
  "cbm": null,
  "vbm": null,
  "efermi": 3.08301896,
  "is_gap_direct": null,
  "is_metal": null,
  "es_source_calc_id": null,
  "bandstructure": null,
  "dos": null,
  "dos_energy_up": null,
  "dos_energy_down": null,
  "is_magnetic": null,
  "ordering": null,
  "total_magnetization": 0.6871347,
  "total_magnetization_normalized_vol": null,
  "total_magnetization_normalized_formula_units": null,
  "num_magnetic_sites": null,
  "num_unique_magnetic_sites": null,
  "types_of_magnetic_species": null,
  "bulk_modulus": null,
  "shear_modulus": null,
  "universal_anisotropy": null,
  "homogeneous_poisson": null,
  "e_total": null,
  "e_ionic": null,
  "e_electronic": null,
  "n": null,
  "e_ij_max": null,
  "weighted_surface_energy_EV_PER_ANG2": null,
  "weighted_surface_energy": null,
  "weighted_work_function": null,
  "surface_anisotropy": null,
  "shape_factor": null,
  "has_reconstructed": null,
  "possible_species": null,
  "has_props": null,
  "theoretical": null,
  "database_IDs": null,
  "fields_not_requested": [
    "builder_meta",
    "nsites",
    "elements",
    "nelements",
    "composition",
    "composition_reduced",
    "chemsys",
    "symmetry",
    "property_name",
    "deprecated",
    "deprecation_reasons",
    "last_updated",
    "origins",
    "warnings",
    "task_ids",
    "uncorrected_energy_per_atom",
    "equilibrium_reaction_energy_per_atom",
    "decomposes_to",
    "xas",
    "grain_boundaries",
    "cbm",
    "vbm",
    "is_gap_direct",
    "is_metal",
    "es_source_calc_id",
    "bandstructure",
    "dos",
    "dos_energy_up",
    "dos_energy_down",
    "is_magnetic",
    "ordering",
    "total_magnetization_normalized_vol",
    "total_magnetization_normalized_formula_units",
    "num_magnetic_sites",
    "num_unique_magnetic_sites",
    "types_of_magnetic_species",
    "bulk_modulus",
    "shear_modulus",
    "universal_anisotropy",
    "homogeneous_poisson",
    "e_total",
    "e_ionic",
    "e_electronic",
    "n",
    "e_ij_max",
    "weighted_surface_energy_EV_PER_ANG2",
    "weighted_surface_energy",
    "weighted_work_function",
    "surface_anisotropy",
    "shape_factor",
    "has_reconstructed",
    "possible_species",
    "has_props",
    "theoretical",
    "database_IDs"
  ]
}
