{
  "builder_meta": null,
  "nsites": null,
  "elements": null,
  "nelements": null,
  "composition": null,
  "composition_reduced": null,
  "formula_pretty": "Sr7Pt3",
  "formula_anonymous": "A3B7",
  "chemsys": null,
  "volume": 1398.552668568679,
  "density": 5.692481622307922,
  "density_atomic": 34.963816714216975,
  "symmetry": null,
  "property_name": null,
  "material_id": "mp-30843",
  "deprecated": null,
  "deprecation_reasons": null,
  "last_updated": null,
  "origins": null,
  "warnings": null,
  "structure": {
    "@module": "pymatgen.core.structure",
    "@class": "Structure",
    "charge": 0,
    "lattice": {
      "matrix": [
        [7.19222147, 0.0, 0.0],
        [-0.0, 7.97911146, 0.0],
        [0.0, 0.0, 24.37032059]
      ],
      "pbc": [true, true, true],
      "a": 7.19222147,
      "b": 7.97911146,
      "c": 24.37032059,
      "alpha": 90.0,
      "beta": 90.0,
      "gamma": 90.0,
      "volume": 1398.552668568679
    },
    "properties": {},
    "sites": [
      {
        "species": [{ "element": "Sr", "occu": 1 }],
        "abc": [0.6561992, 0.45647066000000003, 0.38175958],
        "properties": { "magmom": -0.0 },
        "label": "Sr",
        "xyz": [4.719529974836823, 3.642230274359764, 9.303603352903751]
      },
      {
        "species": [{ "element": "Sr", "occu": 1 }],
        "abc": [0.156199199999999, 0.04352934, 0.61824042],
        "properties": { "magmom": -0.0 },
        "label": "Sr",
        "xyz": [1.1234192398368168, 0.3473254556402364, 15.066717237096247]
      },
      {
        "species": [{ "element": "Sr", "occu": 1 }],
        "abc": [0.843800799999999, 0.95647066, 0.11824042],
        "properties": { "magmom": -0.0 },
        "label": "Sr",
        "xyz": [6.068802230163168, 7.631786004359764, 2.8815569420962475]
      },
      {
        "species": [{ "element": "Sr", "occu": 1 }],
        "abc": [0.343800799999999, 0.54352934, 0.88175958],
        "properties": { "magmom": -0.0 },
        "label": "Sr",
        "xyz": [2.472691495163169, 4.3368811856402365, 21.48876364790375]
      },
      {
        "species": [{ "element": "Sr", "occu": 1 }],
        "abc": [0.343800799999999, 0.54352934, 0.61824042],
        "properties": { "magmom": -0.0 },
        "label": "Sr",
        "xyz": [2.472691495163169, 4.3368811856402365, 15.066717237096247]
      },
      {
        "species": [{ "element": "Sr", "occu": 1 }],
        "abc": [0.843800799999999, 0.95647066, 0.38175958],
        "properties": { "magmom": -0.0 },
        "label": "Sr",
        "xyz": [6.068802230163168, 7.631786004359764, 9.303603352903751]
      },
      {
        "species": [{ "element": "Sr", "occu": 1 }],
        "abc": [0.156199199999999, 0.04352934, 0.88175958],
        "properties": { "magmom": -0.0 },
        "label": "Sr",
        "xyz": [1.1234192398368168, 0.3473254556402364, 21.48876364790375]
      },
      {
        "species": [{ "element": "Sr", "occu": 1 }],
        "abc": [0.6561992, 0.45647066000000003, 0.11824042],
        "properties": { "magmom": -0.0 },
        "label": "Sr",
        "xyz": [4.719529974836823, 3.642230274359764, 2.8815569420962475]
      },
      {
        "species": [{ "element": "Sr", "occu": 1 }],
        "abc": [0.17705808, 0.33289371, 0.47721766],
        "properties": { "magmom": 0.0 },
        "label": "Sr",
        "xyz": [1.2734409244129776, 2.656196016422917, 11.629947365409619]
      },
      {
        "species": [{ "element": "Sr", "occu": 1 }],
        "abc": [0.67705808, 0.16710629, 0.52278234],
        "properties": { "magmom": 0.0 },
        "label": "Sr",
        "xyz": [4.869551659412977, 1.3333597135770834, 12.74037322459038]
      },
      {
        "species": [{ "element": "Sr", "occu": 1 }],
        "abc": [0.32294192, 0.83289371, 0.02278234],
        "properties": { "magmom": 0.0 },
        "label": "Sr",
        "xyz": [2.3226698105870223, 6.645751746422917, 0.5552129295903806]
      },
      {
        "species": [{ "element": "Sr", "occu": 1 }],
        "abc": [0.82294192, 0.66710629, 0.97721766],
        "properties": { "magmom": 0.0 },
        "label": "Sr",
        "xyz": [5.918780545587023, 5.322915443577084, 23.815107660409616]
      },
      {
        "species": [{ "element": "Sr", "occu": 1 }],
        "abc": [0.64750511, 0.17601602, 0.25],
        "properties": { "magmom": 0.0 },
        "label": "Sr",
        "xyz": [4.657000154076711, 1.4044514423255892, 6.0925801475]
      },
      {
        "species": [{ "element": "Sr", "occu": 1 }],
        "abc": [0.14750511, 0.32398398, 0.75],
        "properties": { "magmom": 0.0 },
        "label": "Sr",
        "xyz": [1.0608894190767115, 2.585104287674411, 18.277740442499997]
      },
      {
        "species": [{ "element": "Sr", "occu": 1 }],
        "abc": [0.85249489, 0.67601602, 0.25],
        "properties": { "magmom": 0.0 },
        "label": "Sr",
        "xyz": [6.131332050923288, 5.39400717232559, 6.0925801475]
      },
      {
        "species": [{ "element": "Sr", "occu": 1 }],
        "abc": [0.35249489, 0.8239839800000001, 0.75],
        "properties": { "magmom": 0.0 },
        "label": "Sr",
        "xyz": [2.5352213159232884, 6.574660017674412, 18.277740442499997]
      },
      {
        "species": [{ "element": "Sr", "occu": 1 }],
        "abc": [0.18731546000000002, 0.32028836, 0.17427138],
        "properties": { "magmom": 0.0 },
        "label": "Sr",
        "xyz": [1.3472142730749264, 2.5556165237806057, 4.247049400261714]
      },
      {
        "species": [{ "element": "Sr", "occu": 1 }],
        "abc": [0.68731546, 0.17971164, 0.82572862],
        "properties": { "magmom": 0.0 },
        "label": "Sr",
        "xyz": [4.943325008074926, 1.4339392062193945, 20.123271189738286]
      },
      {
        "species": [{ "element": "Sr", "occu": 1 }],
        "abc": [0.31268454, 0.82028836, 0.32572862],
        "properties": { "magmom": 0.0 },
        "label": "Sr",
        "xyz": [2.248896461925074, 6.545172253780606, 7.938110894738286]
      },
      {
        "species": [{ "element": "Sr", "occu": 1 }],
        "abc": [0.81268454, 0.6797116400000001, 0.67427138],
        "properties": { "magmom": 0.0 },
        "label": "Sr",
        "xyz": [5.845007196925073, 5.423494936219395, 16.43220969526171]
      },
      {
        "species": [{ "element": "Sr", "occu": 1 }],
        "abc": [0.81268454, 0.6797116400000001, 0.82572862],
        "properties": { "magmom": 0.0 },
        "label": "Sr",
        "xyz": [5.845007196925073, 5.423494936219395, 20.123271189738286]
      },
      {
        "species": [{ "element": "Sr", "occu": 1 }],
        "abc": [0.31268454, 0.82028836, 0.17427138],
        "properties": { "magmom": 0.0 },
        "label": "Sr",
        "xyz": [2.248896461925074, 6.545172253780606, 4.247049400261714]
      },
      {
        "species": [{ "element": "Sr", "occu": 1 }],
        "abc": [0.68731546, 0.17971164, 0.67427138],
        "properties": { "magmom": 0.0 },
        "label": "Sr",
        "xyz": [4.943325008074926, 1.4339392062193945, 16.43220969526171]
      },
      {
        "species": [{ "element": "Sr", "occu": 1 }],
        "abc": [0.18731546000000002, 0.32028836, 0.32572862],
        "properties": { "magmom": 0.0 },
        "label": "Sr",
        "xyz": [1.3472142730749264, 2.5556165237806057, 7.938110894738286]
      },
      {
        "species": [{ "element": "Sr", "occu": 1 }],
        "abc": [0.17705808, 0.33289371, 0.02278234],
        "properties": { "magmom": 0.0 },
        "label": "Sr",
        "xyz": [1.2734409244129776, 2.656196016422917, 0.5552129295903806]
      },
      {
        "species": [{ "element": "Sr", "occu": 1 }],
        "abc": [0.67705808, 0.16710629, 0.97721766],
        "properties": { "magmom": 0.0 },
        "label": "Sr",
        "xyz": [4.869551659412977, 1.3333597135770834, 23.815107660409616]
      },
      {
        "species": [{ "element": "Sr", "occu": 1 }],
        "abc": [0.32294192, 0.83289371, 0.47721766],
        "properties": { "magmom": 0.0 },
        "label": "Sr",
        "xyz": [2.3226698105870223, 6.645751746422917, 11.629947365409619]
      },
      {
        "species": [{ "element": "Sr", "occu": 1 }],
        "abc": [0.82294192, 0.66710629, 0.52278234],
        "properties": { "magmom": 0.0 },
        "label": "Sr",
        "xyz": [5.918780545587023, 5.322915443577084, 12.74037322459038]
      },
      {
        "species": [{ "element": "Pt", "occu": 1 }],
        "abc": [0.46441376, 0.12254775, 0.4049935],
        "properties": { "magmom": 0.0 },
        "label": "Pt",
        "xyz": [3.340166615635427, 0.977822156422215, 9.869821431866164]
      },
      {
        "species": [{ "element": "Pt", "occu": 1 }],
        "abc": [0.96441376, 0.37745225, 0.5950065],
        "properties": { "magmom": 0.0 },
        "label": "Pt",
        "xyz": [6.936277350635427, 3.0117335735777853, 14.500499158133834]
      },
      {
        "species": [{ "element": "Pt", "occu": 1 }],
        "abc": [0.03558624, 0.6225477500000001, 0.0950065],
        "properties": { "magmom": 0.0 },
        "label": "Pt",
        "xyz": [0.2559441193645728, 4.967377886422216, 2.3153388631338347]
      },
      {
        "species": [{ "element": "Pt", "occu": 1 }],
        "abc": [0.53558624, 0.87745225, 0.9049935],
        "properties": { "magmom": 0.0 },
        "label": "Pt",
        "xyz": [3.8520548543645727, 7.001289303577786, 22.054981726866163]
      },
      {
        "species": [{ "element": "Pt", "occu": 1 }],
        "abc": [0.53558624, 0.87745225, 0.5950065],
        "properties": { "magmom": 0.0 },
        "label": "Pt",
        "xyz": [3.8520548543645727, 7.001289303577786, 14.500499158133834]
      },
      {
        "species": [{ "element": "Pt", "occu": 1 }],
        "abc": [0.03558624, 0.6225477500000001, 0.4049935],
        "properties": { "magmom": 0.0 },
        "label": "Pt",
        "xyz": [0.2559441193645728, 4.967377886422216, 9.869821431866164]
      },
      {
        "species": [{ "element": "Pt", "occu": 1 }],
        "abc": [0.96441376, 0.37745225, 0.9049935],
        "properties": { "magmom": 0.0 },
        "label": "Pt",
        "xyz": [6.936277350635427, 3.0117335735777853, 22.054981726866163]
      },
      {
        "species": [{ "element": "Pt", "occu": 1 }],
        "abc": [0.46441376, 0.12254775, 0.0950065],
        "properties": { "magmom": 0.0 },
        "label": "Pt",
        "xyz": [3.340166615635427, 0.977822156422215, 2.3153388631338347]
      },
      {
        "species": [{ "element": "Pt", "occu": 1 }],
        "abc": [0.96702952, 0.978552, 0.75],
        "properties": { "magmom": 0.0 },
        "label": "Pt",
        "xyz": [6.955090475867794, 7.80797547740592, 18.277740442499997]
      },
      {
        "species": [{ "element": "Pt", "occu": 1 }],
        "abc": [0.46702952000000003, 0.521448, 0.25],
        "properties": { "magmom": 0.0 },
        "label": "Pt",
        "xyz": [3.3589797408677944, 4.1606917125940805, 6.0925801475]
      },
      {
        "species": [{ "element": "Pt", "occu": 1 }],
        "abc": [0.53297048, 0.478552, 0.75],
        "properties": { "magmom": 0.0 },
        "label": "Pt",
        "xyz": [3.833241729132206, 3.81841974740592, 18.277740442499997]
      },
      {
        "species": [{ "element": "Pt", "occu": 1 }],
        "abc": [0.03297048, 0.021448, 0.25],
        "properties": { "magmom": 0.0 },
        "label": "Pt",
        "xyz": [0.23713099413220562, 0.17113598259408, 6.0925801475]
      }
    ]
  },
  "task_ids": null,
  "uncorrected_energy_per_atom": null,
  "energy_per_atom": -26.6875717565,
  "formation_energy_per_atom": -0.6392939375000021,
  "energy_above_hull": 0.0,
  "is_stable": true,
  "equilibrium_reaction_energy_per_atom": null,
  "decomposes_to": null,
  "xas": null,
  "grain_boundaries": null,
  "band_gap": 0.0,
  "cbm": null,
  "vbm": null,
  "efermi": 2.81863714,
  "is_gap_direct": null,
  "is_metal": null,
  "es_source_calc_id": null,
  "bandstructure": null,
  "dos": null,
  "dos_energy_up": null,
  "dos_energy_down": null,
  "is_magnetic": null,
  "ordering": null,
  "total_magnetization": 0.0053086,
  "total_magnetization_normalized_vol": null,
  "total_magnetization_normalized_formula_units": null,
  "num_magnetic_sites": null,
  "num_unique_magnetic_sites": null,
  "types_of_magnetic_species": null,
  "bulk_modulus": null,
  "shear_modulus": null,
  "universal_anisotropy": null,
  "homogeneous_poisson": null,
  "e_total": null,
  "e_ionic": null,
  "e_electronic": null,
  "n": null,
  "e_ij_max": null,
  "weighted_surface_energy_EV_PER_ANG2": null,
  "weighted_surface_energy": null,
  "weighted_work_function": null,
  "surface_anisotropy": null,
  "shape_factor": null,
  "has_reconstructed": null,
  "possible_species": null,
  "has_props": null,
  "theoretical": null,
  "database_IDs": null,
  "fields_not_requested": [
    "builder_meta",
    "nsites",
    "elements",
    "nelements",
    "composition",
    "composition_reduced",
    "chemsys",
    "symmetry",
    "property_name",
    "deprecated",
    "deprecation_reasons",
    "last_updated",
    "origins",
    "warnings",
    "task_ids",
    "uncorrected_energy_per_atom",
    "equilibrium_reaction_energy_per_atom",
    "decomposes_to",
    "xas",
    "grain_boundaries",
    "cbm",
    "vbm",
    "is_gap_direct",
    "is_metal",
    "es_source_calc_id",
    "bandstructure",
    "dos",
    "dos_energy_up",
    "dos_energy_down",
    "is_magnetic",
    "ordering",
    "total_magnetization_normalized_vol",
    "total_magnetization_normalized_formula_units",
    "num_magnetic_sites",
    "num_unique_magnetic_sites",
    "types_of_magnetic_species",
    "bulk_modulus",
    "shear_modulus",
    "universal_anisotropy",
    "homogeneous_poisson",
    "e_total",
    "e_ionic",
    "e_electronic",
    "n",
    "e_ij_max",
    "weighted_surface_energy_EV_PER_ANG2",
    "weighted_surface_energy",
    "weighted_work_function",
    "surface_anisotropy",
    "shape_factor",
    "has_reconstructed",
    "possible_species",
    "has_props",
    "theoretical",
    "database_IDs"
  ]
}
