{"builder_meta": null, "nsites": null, "elements": null, "nelements": null, "composition": null, "composition_reduced": null, "formula_pretty": "Sr8Ga7", "formula_anonymous": "A7B8", "chemsys": null, "volume": 1926.960555784294, "density": 4.098508016847681, "density_atomic": 32.11600926307157, "symmetry": null, "property_name": null, "material_id": "mp-30667", "deprecated": null, "deprecation_reasons": null, "last_updated": null, "origins": null, "warnings": null, "structure": {"@module": "pymatgen.core.structure", "@class": "Structure", "charge": 0, "lattice": {"matrix": [[12.4439314, 0.0, -0.0], [-0.0, 12.4439314, 0.0], [-0.0, -0.0, 12.4439314]], "pbc": [true, true, true], "a": 12.4439314, "b": 12.4439314, "c": 12.4439314, "alpha": 90.0, "beta": 90.0, "gamma": 90.0, "volume": 1926.960555784294}, "properties": {}, "sites": [{"species": [{"element": "Sr", "occu": 1}], "abc": [0.18547253, 0.18547253, 0.18547253], "properties": {"magmom": 0.052000000000000005}, "label": "Sr", "xyz": [2.308007439904442, 2.308007439904442, 2.308007439904442]}, {"species": [{"element": "Sr", "occu": 1}], "abc": [0.31452747000000003, 0.81452747, 0.68547253], "properties": {"magmom": 0.052000000000000005}, "label": "Sr", "xyz": [3.9139582600955585, 10.135923960095559, 8.529973139904442]}, {"species": [{"element": "Sr", "occu": 1}], "abc": [0.68547253, 0.31452747000000003, 0.81452747], "properties": {"magmom": 0.052000000000000005}, "label": "Sr", "xyz": [8.529973139904442, 3.9139582600955585, 10.135923960095559]}, {"species": [{"element": "Sr", "occu": 1}], "abc": [0.81452747, 0.68547253, 0.31452747000000003], "properties": {"magmom": 0.052000000000000005}, "label": "Sr", "xyz": [10.135923960095559, 8.529973139904442, 3.9139582600955585]}, {"species": [{"element": "Sr", "occu": 1}], "abc": [0.81272207, 0.81272207, 0.81272207], "properties": {"magmom": 0.055}, "label": "Sr", "xyz": [10.113457686345997, 10.113457686345997, 10.113457686345997]}, {"species": [{"element": "Sr", "occu": 1}], "abc": [0.68727793, 0.18727793, 0.31272207], "properties": {"magmom": 0.055}, "label": "Sr", "xyz": [8.552439413654003, 2.330473713654002, 3.8914919863459985]}, {"species": [{"element": "Sr", "occu": 1}], "abc": [0.31272207, 0.68727793, 0.18727793], "properties": {"magmom": 0.055}, "label": "Sr", "xyz": [3.8914919863459985, 8.552439413654003, 2.330473713654002]}, {"species": [{"element": "Sr", "occu": 1}], "abc": [0.18727793, 0.31272207, 0.68727793], "properties": {"magmom": 0.055}, "label": "Sr", "xyz": [2.330473713654002, 3.8914919863459985, 8.552439413654003]}, {"species": [{"element": "Sr", "occu": 1}], "abc": [0.5216398600000001, 0.70420908, 0.93831332], "properties": {"magmom": 0.045}, "label": "Sr", "xyz": [6.491250633345605, 8.763129482777114, 11.676306585786248]}, {"species": [{"element": "Sr", "occu": 1}], "abc": [0.93831332, 0.5216398600000001, 0.70420908], "properties": {"magmom": 0.045}, "label": "Sr", "xyz": [11.676306585786248, 6.491250633345605, 8.763129482777114]}, {"species": [{"element": "Sr", "occu": 1}], "abc": [0.70420908, 0.93831332, 0.5216398600000001], "properties": {"magmom": 0.045}, "label": "Sr", "xyz": [8.763129482777114, 11.676306585786248, 6.491250633345605]}, {"species": [{"element": "Sr", "occu": 1}], "abc": [0.7957909200000001, 0.06168668, 0.02163986], "properties": {"magmom": 0.045}, "label": "Sr", "xyz": [9.902767617222889, 0.7676248142137521, 0.269284933345604]}, {"species": [{"element": "Sr", "occu": 1}], "abc": [0.43831332, 0.97836014, 0.29579092], "properties": {"magmom": 0.045}, "label": "Sr", "xyz": [5.454340885786248, 12.174646466654396, 3.680801917222888]}, {"species": [{"element": "Sr", "occu": 1}], "abc": [0.29579092, 0.43831332, 0.97836014], "properties": {"magmom": 0.045}, "label": "Sr", "xyz": [3.680801917222888, 5.454340885786248, 12.174646466654396]}, {"species": [{"element": "Sr", "occu": 1}], "abc": [0.56168668, 0.47836014, 0.20420908000000002], "properties": {"magmom": 0.045}, "label": "Sr", "xyz": [6.989590514213752, 5.952680766654396, 2.541163782777112]}, {"species": [{"element": "Sr", "occu": 1}], "abc": [0.06168668, 0.02163986, 0.7957909200000001], "properties": {"magmom": 0.045}, "label": "Sr", "xyz": [0.7676248142137521, 0.269284933345604, 9.902767617222889]}, {"species": [{"element": "Sr", "occu": 1}], "abc": [0.20420908000000002, 0.56168668, 0.47836014], "properties": {"magmom": 0.045}, "label": "Sr", "xyz": [2.541163782777112, 6.989590514213752, 5.952680766654396]}, {"species": [{"element": "Sr", "occu": 1}], "abc": [0.02163986, 0.7957909200000001, 0.06168668], "properties": {"magmom": 0.045}, "label": "Sr", "xyz": [0.269284933345604, 9.902767617222889, 0.7676248142137521]}, {"species": [{"element": "Sr", "occu": 1}], "abc": [0.47836014, 0.20420908000000002, 0.56168668], "properties": {"magmom": 0.045}, "label": "Sr", "xyz": [5.952680766654396, 2.541163782777112, 6.989590514213752]}, {"species": [{"element": "Sr", "occu": 1}], "abc": [0.97836014, 0.29579092, 0.43831332], "properties": {"magmom": 0.045}, "label": "Sr", "xyz": [12.174646466654396, 3.680801917222888, 5.454340885786248]}, {"species": [{"element": "Sr", "occu": 1}], "abc": [0.79882136, 0.55760424, 0.00464625], "properties": {"magmom": 0.063}, "label": "Sr", "xyz": [9.940478204694704, 6.938788910909135, 0.05781761626725]}, {"species": [{"element": "Sr", "occu": 1}], "abc": [0.00464625, 0.79882136, 0.55760424], "properties": {"magmom": 0.063}, "label": "Sr", "xyz": [0.05781761626725, 9.940478204694704, 6.938788910909135]}, {"species": [{"element": "Sr", "occu": 1}], "abc": [0.55760424, 0.00464625, 0.79882136], "properties": {"magmom": 0.063}, "label": "Sr", "xyz": [6.938788910909135, 0.05781761626725, 9.940478204694704]}, {"species": [{"element": "Sr", "occu": 1}], "abc": [0.94239576, 0.99535375, 0.29882136], "properties": {"magmom": 0.063}, "label": "Sr", "xyz": [11.727108189090865, 12.386113783732752, 3.718512504694704]}, {"species": [{"element": "Sr", "occu": 1}], "abc": [0.50464625, 0.70117864, 0.44239576], "properties": {"magmom": 0.063}, "label": "Sr", "xyz": [6.27978331626725, 8.725418895305296, 5.505142489090865]}, {"species": [{"element": "Sr", "occu": 1}], "abc": [0.44239576, 0.50464625, 0.70117864], "properties": {"magmom": 0.063}, "label": "Sr", "xyz": [5.505142489090865, 6.27978331626725, 8.725418895305296]}, {"species": [{"element": "Sr", "occu": 1}], "abc": [0.49535375000000004, 0.20117864, 0.05760424], "properties": {"magmom": 0.063}, "label": "Sr", "xyz": [6.1641480837327505, 2.503453195305296, 0.716823210909136]}, {"species": [{"element": "Sr", "occu": 1}], "abc": [0.99535375, 0.29882136, 0.94239576], "properties": {"magmom": 0.063}, "label": "Sr", "xyz": [12.386113783732752, 3.718512504694704, 11.727108189090865]}, {"species": [{"element": "Sr", "occu": 1}], "abc": [0.05760424, 0.49535375000000004, 0.20117864], "properties": {"magmom": 0.063}, "label": "Sr", "xyz": [0.716823210909136, 6.1641480837327505, 2.503453195305296]}, {"species": [{"element": "Sr", "occu": 1}], "abc": [0.29882136, 0.94239576, 0.99535375], "properties": {"magmom": 0.063}, "label": "Sr", "xyz": [3.718512504694704, 11.727108189090865, 12.386113783732752]}, {"species": [{"element": "Sr", "occu": 1}], "abc": [0.20117864, 0.05760424, 0.49535375000000004], "properties": {"magmom": 0.063}, "label": "Sr", "xyz": [2.503453195305296, 0.716823210909136, 6.1641480837327505]}, {"species": [{"element": "Sr", "occu": 1}], "abc": [0.70117864, 0.44239576, 0.50464625], "properties": {"magmom": 0.063}, "label": "Sr", "xyz": [8.725418895305296, 5.505142489090865, 6.27978331626725]}, {"species": [{"element": "Ga", "occu": 1}], "abc": [0.43332094, 0.43332094, 0.43332094], "properties": {"magmom": 0.01}, "label": "Ga", "xyz": [5.392216051543516, 5.392216051543516, 5.392216051543516]}, {"species": [{"element": "Ga", "occu": 1}], "abc": [0.06667906, 0.56667906, 0.93332094], "properties": {"magmom": 0.01}, "label": "Ga", "xyz": [0.829749648456484, 7.051715348456485, 11.614181751543516]}, {"species": [{"element": "Ga", "occu": 1}], "abc": [0.93332094, 0.06667906, 0.56667906], "properties": {"magmom": 0.01}, "label": "Ga", "xyz": [11.614181751543516, 0.829749648456484, 7.051715348456485]}, {"species": [{"element": "Ga", "occu": 1}], "abc": [0.56667906, 0.93332094, 0.06667906], "properties": {"magmom": 0.01}, "label": "Ga", "xyz": [7.051715348456485, 11.614181751543516, 0.829749648456484]}, {"species": [{"element": "Ga", "occu": 1}], "abc": [0.74958516, 0.6874332, 0.5796478700000001], "properties": {"magmom": 0.097}, "label": "Ga", "xyz": [9.327786309498023, 8.55437158288248, 7.213098330436119]}, {"species": [{"element": "Ga", "occu": 1}], "abc": [0.5796478700000001, 0.74958516, 0.6874332], "properties": {"magmom": 0.097}, "label": "Ga", "xyz": [7.213098330436119, 9.327786309498023, 8.55437158288248]}, {"species": [{"element": "Ga", "occu": 1}], "abc": [0.6874332, 0.5796478700000001, 0.74958516], "properties": {"magmom": 0.097}, "label": "Ga", "xyz": [8.55437158288248, 7.213098330436119, 9.327786309498023]}, {"species": [{"element": "Ga", "occu": 1}], "abc": [0.812566799999999, 0.42035213, 0.24958516], "properties": {"magmom": 0.097}, "label": "Ga", "xyz": [10.111525517117508, 5.230833069563882, 3.105820609498024]}, {"species": [{"element": "Ga", "occu": 1}], "abc": [0.07964787, 0.75041484, 0.3125668], "properties": {"magmom": 0.097}, "label": "Ga", "xyz": [0.991132630436118, 9.338110790501977, 3.8895598171175196]}, {"species": [{"element": "Ga", "occu": 1}], "abc": [0.3125668, 0.07964787, 0.75041484], "properties": {"magmom": 0.097}, "label": "Ga", "xyz": [3.8895598171175196, 0.991132630436118, 9.338110790501977]}, {"species": [{"element": "Ga", "occu": 1}], "abc": [0.92035213, 0.25041484, 0.1874332], "properties": {"magmom": 0.097}, "label": "Ga", "xyz": [11.452798769563882, 3.1161450905019765, 2.33240588288248]}, {"species": [{"element": "Ga", "occu": 1}], "abc": [0.42035213, 0.24958516, 0.812566799999999], "properties": {"magmom": 0.097}, "label": "Ga", "xyz": [5.230833069563882, 3.105820609498024, 10.111525517117508]}, {"species": [{"element": "Ga", "occu": 1}], "abc": [0.1874332, 0.92035213, 0.25041484], "properties": {"magmom": 0.097}, "label": "Ga", "xyz": [2.33240588288248, 11.452798769563882, 3.1161450905019765]}, {"species": [{"element": "Ga", "occu": 1}], "abc": [0.24958516, 0.812566799999999, 0.42035213], "properties": {"magmom": 0.097}, "label": "Ga", "xyz": [3.105820609498024, 10.111525517117508, 5.230833069563882]}, {"species": [{"element": "Ga", "occu": 1}], "abc": [0.25041484, 0.1874332, 0.92035213], "properties": {"magmom": 0.097}, "label": "Ga", "xyz": [3.1161450905019765, 2.33240588288248, 11.452798769563882]}, {"species": [{"element": "Ga", "occu": 1}], "abc": [0.75041484, 0.3125668, 0.07964787], "properties": {"magmom": 0.097}, "label": "Ga", "xyz": [9.338110790501977, 3.8895598171175196, 0.991132630436118]}, {"species": [{"element": "Ga", "occu": 1}], "abc": [0.75534598, 0.19351464000000002, 0.57444299], "properties": {"magmom": 0.023}, "label": "Ga", "xyz": [9.399473558385772, 2.4080829050556964, 7.148329160770886]}, {"species": [{"element": "Ga", "occu": 1}], "abc": [0.57444299, 0.75534598, 0.19351464000000002], "properties": {"magmom": 0.023}, "label": "Ga", "xyz": [7.148329160770886, 9.399473558385772, 2.4080829050556964]}, {"species": [{"element": "Ga", "occu": 1}], "abc": [0.19351464000000002, 0.57444299, 0.75534598], "properties": {"magmom": 0.023}, "label": "Ga", "xyz": [2.4080829050556964, 7.148329160770886, 9.399473558385772]}, {"species": [{"element": "Ga", "occu": 1}], "abc": [0.30648536, 0.42555701, 0.25534598000000003], "properties": {"magmom": 0.023}, "label": "Ga", "xyz": [3.8138827949443037, 5.295602239229114, 3.1775078583857725]}, {"species": [{"element": "Ga", "occu": 1}], "abc": [0.07444299, 0.74465402, 0.80648536], "properties": {"magmom": 0.023}, "label": "Ga", "xyz": [0.926363460770886, 9.266423541614229, 10.035848494944304]}, {"species": [{"element": "Ga", "occu": 1}], "abc": [0.80648536, 0.07444299, 0.74465402], "properties": {"magmom": 0.023}, "label": "Ga", "xyz": [10.035848494944304, 0.926363460770886, 9.266423541614229]}, {"species": [{"element": "Ga", "occu": 1}], "abc": [0.92555701, 0.24465402, 0.69351464], "properties": {"magmom": 0.023}, "label": "Ga", "xyz": [11.517567939229114, 3.044457841614228, 8.630048605055697]}, {"species": [{"element": "Ga", "occu": 1}], "abc": [0.42555701, 0.25534598000000003, 0.30648536], "properties": {"magmom": 0.023}, "label": "Ga", "xyz": [5.295602239229114, 3.1775078583857725, 3.8138827949443037]}, {"species": [{"element": "Ga", "occu": 1}], "abc": [0.69351464, 0.92555701, 0.24465402], "properties": {"magmom": 0.023}, "label": "Ga", "xyz": [8.630048605055697, 11.517567939229114, 3.044457841614228]}, {"species": [{"element": "Ga", "occu": 1}], "abc": [0.25534598000000003, 0.30648536, 0.42555701], "properties": {"magmom": 0.023}, "label": "Ga", "xyz": [3.1775078583857725, 3.8138827949443037, 5.295602239229114]}, {"species": [{"element": "Ga", "occu": 1}], "abc": [0.24465402, 0.69351464, 0.92555701], "properties": {"magmom": 0.023}, "label": "Ga", "xyz": [3.044457841614228, 8.630048605055697, 11.517567939229114]}, {"species": [{"element": "Ga", "occu": 1}], "abc": [0.74465402, 0.80648536, 0.07444299], "properties": {"magmom": 0.023}, "label": "Ga", "xyz": [9.266423541614229, 10.035848494944304, 0.926363460770886]}]}, "task_ids": null, "uncorrected_energy_per_atom": null, "energy_per_atom": -13.877900770166667, "formation_energy_per_atom": -0.46025275616666605, "energy_above_hull": 0.0, "is_stable": true, "equilibrium_reaction_energy_per_atom": null, "decomposes_to": null, "xas": null, "grain_boundaries": null, "band_gap": 0.0, "cbm": null, "vbm": null, "efermi": 2.260219509999999, "is_gap_direct": null, "is_metal": null, "es_source_calc_id": null, "bandstructure": null, "dos": null, "dos_energy_up": null, "dos_energy_down": null, "is_magnetic": null, "ordering": null, "total_magnetization": 11.8701384, "total_magnetization_normalized_vol": null, "total_magnetization_normalized_formula_units": null, "num_magnetic_sites": null, "num_unique_magnetic_sites": null, "types_of_magnetic_species": null, "bulk_modulus": null, "shear_modulus": null, "universal_anisotropy": null, "homogeneous_poisson": null, "e_total": null, "e_ionic": null, "e_electronic": null, "n": null, "e_ij_max": null, "weighted_surface_energy_EV_PER_ANG2": null, "weighted_surface_energy": null, "weighted_work_function": null, "surface_anisotropy": null, "shape_factor": null, "has_reconstructed": null, "possible_species": null, "has_props": null, "theoretical": null, "database_IDs": null, "fields_not_requested": ["builder_meta", "nsites", "elements", "nelements", "composition", "composition_reduced", "chemsys", "symmetry", "property_name", "deprecated", "deprecation_reasons", "last_updated", "origins", "warnings", "task_ids", "uncorrected_energy_per_atom", "equilibrium_reaction_energy_per_atom", "decomposes_to", "xas", "grain_boundaries", "cbm", "vbm", "is_gap_direct", "is_metal", "es_source_calc_id", "bandstructure", "dos", "dos_energy_up", "dos_energy_down", "is_magnetic", "ordering", "total_magnetization_normalized_vol", "total_magnetization_normalized_formula_units", "num_magnetic_sites", "num_unique_magnetic_sites", "types_of_magnetic_species", "bulk_modulus", "shear_modulus", "universal_anisotropy", "homogeneous_poisson", "e_total", "e_ionic", "e_electronic", "n", "e_ij_max", "weighted_surface_energy_EV_PER_ANG2", "weighted_surface_energy", "weighted_work_function", "surface_anisotropy", "shape_factor", "has_reconstructed", "possible_species", "has_props", "theoretical", "database_IDs"]}