{"builder_meta": null, "nsites": null, "elements": null, "nelements": null, "composition": null, "composition_reduced": null, "formula_pretty": "SrAg", "formula_anonymous": "AB", "chemsys": null, "volume": 1267.0734840884159, "density": 5.123866882793398, "density_atomic": 31.676837102210396, "symmetry": null, "property_name": null, "material_id": "mp-568716", "deprecated": null, "deprecation_reasons": null, "last_updated": null, "origins": null, "warnings": null, "structure": {"@module": "pymatgen.core.structure", "@class": "Structure", "charge": 0, "lattice": {"matrix": [[4.73141993, 0.0, 0.0], [-0.0, 6.36950171, 0.0], [0.0, 0.0, 42.04407955]], "pbc": [true, true, true], "a": 4.73141993, "b": 6.36950171, "c": 42.04407955, "alpha": 90.0, "beta": 90.0, "gamma": 90.0, "volume": 1267.0734840884159}, "properties": {}, "sites": [{"species": [{"element": "Sr", "occu": 1}], "abc": [0.75, 0.8653050800000001, 0.63613029], "properties": {"magmom": -0.0}, "label": "Sr", "xyz": [3.5485649475, 5.511562186731687, 26.745512516924567]}, {"species": [{"element": "Sr", "occu": 1}], "abc": [0.75, 0.6253931500000001, 0.33618922], "properties": {"magmom": 0.0}, "label": "Sr", "xyz": [3.5485649475, 3.9834427383472866, 14.134766309532452]}, {"species": [{"element": "Sr", "occu": 1}], "abc": [0.75, 0.62840755, 0.93613651], "properties": {"magmom": -0.0}, "label": "Sr", "xyz": [3.5485649475, 4.002642964301911, 39.35899789609937]}, {"species": [{"element": "Sr", "occu": 1}], "abc": [0.75, 0.87460685, 0.8361892200000001], "properties": {"magmom": 0.0}, "label": "Sr", "xyz": [3.5485649475, 5.570809826652714, 35.156806084532455]}, {"species": [{"element": "Sr", "occu": 1}], "abc": [0.25, 0.13469492, 0.36386971], "properties": {"magmom": -0.0}, "label": "Sr", "xyz": [1.1828549825, 0.8579395232683131, 15.29856703307543]}, {"species": [{"element": "Sr", "occu": 1}], "abc": [0.25, 0.888205799999999, 0.26407378], "properties": {"magmom": -0.0}, "label": "Sr", "xyz": [1.1828549825, 5.6574283619319115, 11.102739013389199]}, {"species": [{"element": "Sr", "occu": 1}], "abc": [0.25, 0.12905871, 0.96410439], "properties": {"magmom": 0.0}, "label": "Sr", "xyz": [1.1828549825, 0.822039674035394, 40.53488166766422]}, {"species": [{"element": "Sr", "occu": 1}], "abc": [0.25, 0.36530508, 0.86386971], "properties": {"magmom": -0.0}, "label": "Sr", "xyz": [1.1828549825, 2.3268113317316867, 36.32060680807543]}, {"species": [{"element": "Sr", "occu": 1}], "abc": [0.75, 0.3882058, 0.23592622], "properties": {"magmom": -0.0}, "label": "Sr", "xyz": [3.5485649475, 2.472677506931918, 9.9193007616108]}, {"species": [{"element": "Sr", "occu": 1}], "abc": [0.25, 0.12840755, 0.56386349], "properties": {"magmom": -0.0}, "label": "Sr", "xyz": [1.1828549825, 0.8178921093019105, 23.70712142890063]}, {"species": [{"element": "Sr", "occu": 1}], "abc": [0.75, 0.87159245, 0.43613651000000003], "properties": {"magmom": -0.0}, "label": "Sr", "xyz": [3.5485649475, 5.551609600698089, 18.33695812109937]}, {"species": [{"element": "Sr", "occu": 1}], "abc": [0.25, 0.12539315, 0.16381078000000002], "properties": {"magmom": 0.0}, "label": "Sr", "xyz": [1.1828549825, 0.7986918833472866, 6.887273465467549]}, {"species": [{"element": "Sr", "occu": 1}], "abc": [0.75, 0.63469492, 0.13613029000000001], "properties": {"magmom": -0.0}, "label": "Sr", "xyz": [3.5485649475, 4.042690378268313, 5.72347274192457]}, {"species": [{"element": "Sr", "occu": 1}], "abc": [0.25, 0.37159245, 0.06386249000000001], "properties": {"magmom": -0.0}, "label": "Sr", "xyz": [1.1828549825, 2.3668587456980896, 2.6850396098210796]}, {"species": [{"element": "Sr", "occu": 1}], "abc": [0.75, 0.62905871, 0.53589561], "properties": {"magmom": 0.0}, "label": "Sr", "xyz": [3.5485649475, 4.006790529035394, 22.531237657335772]}, {"species": [{"element": "Sr", "occu": 1}], "abc": [0.75, 0.1117942, 0.73592622], "properties": {"magmom": -0.0}, "label": "Sr", "xyz": [3.5485649475, 0.712073348068082, 30.9413405366108]}, {"species": [{"element": "Sr", "occu": 1}], "abc": [0.25, 0.37460685, 0.66381078], "properties": {"magmom": 0.0}, "label": "Sr", "xyz": [1.1828549825, 2.386058971652713, 27.90931324046755]}, {"species": [{"element": "Sr", "occu": 1}], "abc": [0.25, 0.37094129000000003, 0.46410439000000003], "properties": {"magmom": 0.0}, "label": "Sr", "xyz": [1.1828549825, 2.362711180964606, 19.512841892664227]}, {"species": [{"element": "Sr", "occu": 1}], "abc": [0.75, 0.87094129, 0.03589561], "properties": {"magmom": 0.0}, "label": "Sr", "xyz": [3.5485649475, 5.547462035964606, 1.5091978823357755]}, {"species": [{"element": "Sr", "occu": 1}], "abc": [0.25, 0.6117942, 0.76407378], "properties": {"magmom": -0.0}, "label": "Sr", "xyz": [1.1828549825, 3.8968242030680815, 32.1247787883892]}, {"species": [{"element": "Ag", "occu": 1}], "abc": [0.75, 0.37749821, 0.60686266], "properties": {"magmom": -0.0}, "label": "Ag", "xyz": [3.5485649475, 2.404475494116939, 25.514981952964604]}, {"species": [{"element": "Ag", "occu": 1}], "abc": [0.25, 0.88029885, 0.49308728], "properties": {"magmom": 0.0}, "label": "Ag", "xyz": [1.1828549825, 5.607065030386033, 20.731400825413125]}, {"species": [{"element": "Ag", "occu": 1}], "abc": [0.75, 0.13751973, 0.30674652], "properties": {"magmom": -0.0}, "label": "Ag", "xyz": [3.5485649475, 0.8759321553937383, 12.896875088565666]}, {"species": [{"element": "Ag", "occu": 1}], "abc": [0.75, 0.11970115, 0.50691272], "properties": {"magmom": 0.0}, "label": "Ag", "xyz": [3.5485649475, 0.7624366796139666, 21.312678724586874]}, {"species": [{"element": "Ag", "occu": 1}], "abc": [0.75, 0.62126155, 0.70696129], "properties": {"magmom": -0.0}, "label": "Ag", "xyz": [3.5485649475, 3.957126505082251, 29.723536715530617]}, {"species": [{"element": "Ag", "occu": 1}], "abc": [0.25, 0.61861971, 0.59307065], "properties": {"magmom": 0.0}, "label": "Ag", "xyz": [1.1828549825, 3.9402993006847042, 24.93510958737021]}, {"species": [{"element": "Ag", "occu": 1}], "abc": [0.75, 0.36248027, 0.80674652], "properties": {"magmom": -0.0}, "label": "Ag", "xyz": [3.5485649475, 2.3088186996062614, 33.91891486356567]}, {"species": [{"element": "Ag", "occu": 1}], "abc": [0.25, 0.61970115, 0.99308728], "properties": {"magmom": 0.0}, "label": "Ag", "xyz": [1.1828549825, 3.9471875346139664, 41.75344060041312]}, {"species": [{"element": "Ag", "occu": 1}], "abc": [0.25, 0.37873845, 0.29303871], "properties": {"magmom": -0.0}, "label": "Ag", "xyz": [1.1828549825, 2.4123752049177494, 12.320542834469379]}, {"species": [{"element": "Ag", "occu": 1}], "abc": [0.75, 0.38138029, 0.40692935], "properties": {"magmom": 0.0}, "label": "Ag", "xyz": [3.5485649475, 2.429202409315296, 17.108969962629793]}, {"species": [{"element": "Ag", "occu": 1}], "abc": [0.25, 0.8774982100000001, 0.89313734], "properties": {"magmom": -0.0}, "label": "Ag", "xyz": [1.1828549825, 5.589226349116939, 37.5511373720354]}, {"species": [{"element": "Ag", "occu": 1}], "abc": [0.75, 0.8787384500000001, 0.20696129], "properties": {"magmom": -0.0}, "label": "Ag", "xyz": [3.5485649475, 5.597126059917749, 8.70149694053062]}, {"species": [{"element": "Ag", "occu": 1}], "abc": [0.25, 0.12126155, 0.79303871], "properties": {"magmom": -0.0}, "label": "Ag", "xyz": [1.1828549825, 0.7723756500822504, 33.34258260946938]}, {"species": [{"element": "Ag", "occu": 1}], "abc": [0.75, 0.11861971, 0.90692935], "properties": {"magmom": 0.0}, "label": "Ag", "xyz": [3.5485649475, 0.7555484456847041, 38.13100973762979]}, {"species": [{"element": "Ag", "occu": 1}], "abc": [0.75, 0.38029885, 0.00691272], "properties": {"magmom": 0.0}, "label": "Ag", "xyz": [3.5485649475, 2.4223141753860333, 0.29063894958687597]}, {"species": [{"element": "Ag", "occu": 1}], "abc": [0.75, 0.12250179, 0.10686266], "properties": {"magmom": -0.0}, "label": "Ag", "xyz": [3.5485649475, 0.7802753608830608, 4.492942177964603]}, {"species": [{"element": "Ag", "occu": 1}], "abc": [0.25, 0.86248027, 0.69325348], "properties": {"magmom": -0.0}, "label": "Ag", "xyz": [1.1828549825, 5.493569554606262, 29.14720446143433]}, {"species": [{"element": "Ag", "occu": 1}], "abc": [0.25, 0.8813802900000001, 0.09307065], "properties": {"magmom": 0.0}, "label": "Ag", "xyz": [1.1828549825, 5.613953264315296, 3.9130698123702077]}, {"species": [{"element": "Ag", "occu": 1}], "abc": [0.25, 0.62250179, 0.39313734], "properties": {"magmom": -0.0}, "label": "Ag", "xyz": [1.1828549825, 3.965026215883061, 16.529097597035395]}, {"species": [{"element": "Ag", "occu": 1}], "abc": [0.25, 0.6375197300000001, 0.19325348], "properties": {"magmom": -0.0}, "label": "Ag", "xyz": [1.1828549825, 4.060683010393738, 8.125164686434333]}]}, "task_ids": null, "uncorrected_energy_per_atom": null, "energy_per_atom": -18.524215441499997, "formation_energy_per_atom": -0.273446333999999, "energy_above_hull": 0.0, "is_stable": true, "equilibrium_reaction_energy_per_atom": null, "decomposes_to": null, "xas": null, "grain_boundaries": null, "band_gap": 0.0, "cbm": null, "vbm": null, "efermi": 2.35791093, "is_gap_direct": null, "is_metal": null, "es_source_calc_id": null, "bandstructure": null, "dos": null, "dos_energy_up": null, "dos_energy_down": null, "is_magnetic": null, "ordering": null, "total_magnetization": 1.8e-05, "total_magnetization_normalized_vol": null, "total_magnetization_normalized_formula_units": null, "num_magnetic_sites": null, "num_unique_magnetic_sites": null, "types_of_magnetic_species": null, "bulk_modulus": null, "shear_modulus": null, "universal_anisotropy": null, "homogeneous_poisson": null, "e_total": null, "e_ionic": null, "e_electronic": null, "n": null, "e_ij_max": null, "weighted_surface_energy_EV_PER_ANG2": null, "weighted_surface_energy": null, "weighted_work_function": null, "surface_anisotropy": null, "shape_factor": null, "has_reconstructed": null, "possible_species": null, "has_props": null, "theoretical": null, "database_IDs": null, "fields_not_requested": ["builder_meta", "nsites", "elements", "nelements", "composition", "composition_reduced", "chemsys", "symmetry", "property_name", "deprecated", "deprecation_reasons", "last_updated", "origins", "warnings", "task_ids", "uncorrected_energy_per_atom", "equilibrium_reaction_energy_per_atom", "decomposes_to", "xas", "grain_boundaries", "cbm", "vbm", "is_gap_direct", "is_metal", "es_source_calc_id", "bandstructure", "dos", "dos_energy_up", "dos_energy_down", "is_magnetic", "ordering", "total_magnetization_normalized_vol", "total_magnetization_normalized_formula_units", "num_magnetic_sites", "num_unique_magnetic_sites", "types_of_magnetic_species", "bulk_modulus", "shear_modulus", "universal_anisotropy", "homogeneous_poisson", "e_total", "e_ionic", "e_electronic", "n", "e_ij_max", "weighted_surface_energy_EV_PER_ANG2", "weighted_surface_energy", "weighted_work_function", "surface_anisotropy", "shape_factor", "has_reconstructed", "possible_species", "has_props", "theoretical", "database_IDs"]}