{"builder_meta": null, "nsites": null, "elements": null, "nelements": null, "composition": null, "composition_reduced": null, "formula_pretty": "SrAg2", "formula_anonymous": "AB2", "chemsys": null, "volume": 153.69266379315425, "density": 6.555096917066688, "density_atomic": 25.61544396552571, "symmetry": null, "property_name": null, "material_id": "mp-30356", "deprecated": null, "deprecation_reasons": null, "last_updated": null, "origins": null, "warnings": null, "structure": {"@module": "pymatgen.core.structure", "@class": "Structure", "charge": 0, "lattice": {"matrix": [[4.38121532, -2e-08, 1.86741175], [2.03701915, 5.6739353900000005, 1.29404642], [-0.03943439, -0.00163401, 6.16571196]], "pbc": [true, true, true], "a": 4.762591135531242, "b": 6.165837004371426, "c": 6.165838281595651, "alpha": 78.02338195066675, "beta": 67.28121794843702, "gamma": 67.28124581689816, "volume": 153.69266379315428}, "properties": {}, "sites": [{"species": [{"element": "Sr", "occu": 1}], "abc": [0.95498701, 0.79501299, 0.29501299000000003], "properties": {"magmom": 0.0}, "label": "Sr", "xyz": [5.791826746439026, 4.510370266195186, 4.631102797932725]}, {"species": [{"element": "Sr", "occu": 1}], "abc": [0.04501299, 0.20498701, 0.70498701], "properties": {"magmom": 0.0}, "label": "Sr", "xyz": [0.5869733335609744, 1.161931093804814, 4.696067332067276]}, {"species": [{"element": "Ag", "occu": 1}], "abc": [0.66231018, 0.78309487, 0.89228377], "properties": {"magmom": -0.0}, "label": "Ag", "xyz": [4.461716087487868, 4.441771682771229, 7.7517316377233705]}, {"species": [{"element": "Ag", "occu": 1}], "abc": [0.33768982000000003, 0.21690513, 0.10771623], "properties": {"magmom": -0.0}, "label": "Ag", "xyz": [1.9170839925121321, 1.2305296772287722, 1.5754384922766305]}, {"species": [{"element": "Ag", "occu": 1}], "abc": [0.33768982000000003, 0.60771623, 0.71690513], "properties": {"magmom": -0.0}, "label": "Ag", "xyz": [2.689150694578426, 3.4469711875691127, 5.8372494837571365]}, {"species": [{"element": "Ag", "occu": 1}], "abc": [0.66231018, 0.39228377000000003, 0.28309487], "properties": {"magmom": -0.0}, "label": "Ag", "xyz": [3.689649385421574, 2.2253301724308883, 3.4899206462428634]}]}, "task_ids": null, "uncorrected_energy_per_atom": null, "energy_per_atom": -19.565001701666667, "formation_energy_per_atom": -0.279196581666665, "energy_above_hull": 0.0, "is_stable": true, "equilibrium_reaction_energy_per_atom": null, "decomposes_to": null, "xas": null, "grain_boundaries": null, "band_gap": 0.0, "cbm": null, "vbm": null, "efermi": 2.52688846, "is_gap_direct": null, "is_metal": null, "es_source_calc_id": null, "bandstructure": null, "dos": null, "dos_energy_up": null, "dos_energy_down": null, "is_magnetic": null, "ordering": null, "total_magnetization": 0.0, "total_magnetization_normalized_vol": null, "total_magnetization_normalized_formula_units": null, "num_magnetic_sites": null, "num_unique_magnetic_sites": null, "types_of_magnetic_species": null, "bulk_modulus": null, "shear_modulus": null, "universal_anisotropy": null, "homogeneous_poisson": null, "e_total": null, "e_ionic": null, "e_electronic": null, "n": null, "e_ij_max": null, "weighted_surface_energy_EV_PER_ANG2": null, "weighted_surface_energy": null, "weighted_work_function": null, "surface_anisotropy": null, "shape_factor": null, "has_reconstructed": null, "possible_species": null, "has_props": null, "theoretical": null, "database_IDs": null, "fields_not_requested": ["builder_meta", "nsites", "elements", "nelements", "composition", "composition_reduced", "chemsys", "symmetry", "property_name", "deprecated", "deprecation_reasons", "last_updated", "origins", "warnings", "task_ids", "uncorrected_energy_per_atom", "equilibrium_reaction_energy_per_atom", "decomposes_to", "xas", "grain_boundaries", "cbm", "vbm", "is_gap_direct", "is_metal", "es_source_calc_id", "bandstructure", "dos", "dos_energy_up", "dos_energy_down", "is_magnetic", "ordering", "total_magnetization_normalized_vol", "total_magnetization_normalized_formula_units", "num_magnetic_sites", "num_unique_magnetic_sites", "types_of_magnetic_species", "bulk_modulus", "shear_modulus", "universal_anisotropy", "homogeneous_poisson", "e_total", "e_ionic", "e_electronic", "n", "e_ij_max", "weighted_surface_energy_EV_PER_ANG2", "weighted_surface_energy", "weighted_work_function", "surface_anisotropy", "shape_factor", "has_reconstructed", "possible_species", "has_props", "theoretical", "database_IDs"]}