{
  "builder_meta": null,
  "nsites": null,
  "elements": null,
  "nelements": null,
  "composition": null,
  "composition_reduced": null,
  "formula_pretty": "SrAl4",
  "formula_anonymous": "AB4",
  "chemsys": null,
  "volume": 110.70542372145513,
  "density": 2.9331176178106713,
  "density_atomic": 22.141084744291028,
  "symmetry": null,
  "property_name": null,
  "material_id": "mp-2775",
  "deprecated": null,
  "deprecation_reasons": null,
  "last_updated": null,
  "origins": null,
  "warnings": null,
  "structure": {
    "@module": "pymatgen.core.structure",
    "@class": "Structure",
    "charge": 0,
    "lattice": {
      "matrix": [
        [4.16321581, -1e-8, -1.55521319],
        [-0.58096749, 4.12248043, -1.555213199999999],
        [0.028313480000000002, 0.03258302, 6.42573753]
      ],
      "pbc": [true, true, true],
      "a": 4.444215785375856,
      "b": 4.444216040836013,
      "c": 6.42588251610567,
      "alpha": 110.23097678508472,
      "beta": 110.2309747047088,
      "gamma": 90.00001450096617,
      "volume": 110.70542372145513
    },
    "properties": {},
    "sites": [
      {
        "species": [{ "element": "Sr", "occu": 1 }],
        "abc": [-0.0, 0.0, -0.0],
        "properties": { "magmom": -0.0 },
        "label": "Sr",
        "xyz": [0.0, 0.0, 0.0]
      },
      {
        "species": [{ "element": "Al", "occu": 1 }],
        "abc": [0.75, 0.25, 0.5],
        "properties": { "magmom": -0.0 },
        "label": "Al",
        "xyz": [2.9913267249999995, 1.0469116100000002, 1.6576555725000004]
      },
      {
        "species": [{ "element": "Al", "occu": 1 }],
        "abc": [0.25, 0.75, 0.5],
        "properties": { "magmom": -0.0 },
        "label": "Al",
        "xyz": [0.6192350749999999, 3.10815183, 1.6576555675000009]
      },
      {
        "species": [{ "element": "Al", "occu": 1 }],
        "abc": [0.38295963, 0.38295963, 0.76592026],
        "properties": { "magmom": 0.0 },
        "label": "Al",
        "xyz": [1.3935423591584264, 1.60369957147543, 3.730434820212723]
      },
      {
        "species": [{ "element": "Al", "occu": 1 }],
        "abc": [0.61704037, 0.61704037, 0.23407974],
        "properties": { "magmom": 0.0 },
        "label": "Al",
        "xyz": [2.2170194408415735, 2.5513638685245703, -0.4151236802127214]
      }
    ]
  },
  "task_ids": null,
  "uncorrected_energy_per_atom": null,
  "energy_per_atom": -8.67332185,
  "formation_energy_per_atom": -0.258510972,
  "energy_above_hull": 0.0,
  "is_stable": true,
  "equilibrium_reaction_energy_per_atom": null,
  "decomposes_to": null,
  "xas": null,
  "grain_boundaries": null,
  "band_gap": 0.0,
  "cbm": null,
  "vbm": null,
  "efermi": 5.32190309,
  "is_gap_direct": null,
  "is_metal": null,
  "es_source_calc_id": null,
  "bandstructure": null,
  "dos": null,
  "dos_energy_up": null,
  "dos_energy_down": null,
  "is_magnetic": null,
  "ordering": null,
  "total_magnetization": 1e-7,
  "total_magnetization_normalized_vol": null,
  "total_magnetization_normalized_formula_units": null,
  "num_magnetic_sites": null,
  "num_unique_magnetic_sites": null,
  "types_of_magnetic_species": null,
  "bulk_modulus": null,
  "shear_modulus": null,
  "universal_anisotropy": null,
  "homogeneous_poisson": null,
  "e_total": null,
  "e_ionic": null,
  "e_electronic": null,
  "n": null,
  "e_ij_max": null,
  "weighted_surface_energy_EV_PER_ANG2": null,
  "weighted_surface_energy": null,
  "weighted_work_function": null,
  "surface_anisotropy": null,
  "shape_factor": null,
  "has_reconstructed": null,
  "possible_species": null,
  "has_props": null,
  "theoretical": null,
  "database_IDs": null,
  "fields_not_requested": [
    "builder_meta",
    "nsites",
    "elements",
    "nelements",
    "composition",
    "composition_reduced",
    "chemsys",
    "symmetry",
    "property_name",
    "deprecated",
    "deprecation_reasons",
    "last_updated",
    "origins",
    "warnings",
    "task_ids",
    "uncorrected_energy_per_atom",
    "equilibrium_reaction_energy_per_atom",
    "decomposes_to",
    "xas",
    "grain_boundaries",
    "cbm",
    "vbm",
    "is_gap_direct",
    "is_metal",
    "es_source_calc_id",
    "bandstructure",
    "dos",
    "dos_energy_up",
    "dos_energy_down",
    "is_magnetic",
    "ordering",
    "total_magnetization_normalized_vol",
    "total_magnetization_normalized_formula_units",
    "num_magnetic_sites",
    "num_unique_magnetic_sites",
    "types_of_magnetic_species",
    "bulk_modulus",
    "shear_modulus",
    "universal_anisotropy",
    "homogeneous_poisson",
    "e_total",
    "e_ionic",
    "e_electronic",
    "n",
    "e_ij_max",
    "weighted_surface_energy_EV_PER_ANG2",
    "weighted_surface_energy",
    "weighted_work_function",
    "surface_anisotropy",
    "shape_factor",
    "has_reconstructed",
    "possible_species",
    "has_props",
    "theoretical",
    "database_IDs"
  ]
}
