{
  "builder_meta": null,
  "nsites": null,
  "elements": null,
  "nelements": null,
  "composition": null,
  "composition_reduced": null,
  "formula_pretty": "SrAl",
  "formula_anonymous": "AB",
  "chemsys": null,
  "volume": 2085.7842555687293,
  "density": 2.919578381968427,
  "density_atomic": 32.590378993261396,
  "symmetry": null,
  "property_name": null,
  "material_id": "mp-27233",
  "deprecated": null,
  "deprecation_reasons": null,
  "last_updated": null,
  "origins": null,
  "warnings": null,
  "structure": {
    "@module": "pymatgen.core.structure",
    "@class": "Structure",
    "charge": 0.0,
    "lattice": {
      "matrix": [
        [12.776830350000001, -0.0, -0.0],
        [0.0, 12.776830350000001, 0.0],
        [0.0, 0.0, 12.776830350000001]
      ],
      "pbc": [true, true, true],
      "a": 12.776830350000001,
      "b": 12.776830350000001,
      "c": 12.776830350000001,
      "alpha": 90.0,
      "beta": 90.0,
      "gamma": 90.0,
      "volume": 2085.7842555687303
    },
    "properties": {},
    "sites": [
      {
        "species": [{ "element": "Sr", "occu": 1 }],
        "abc": [0.20191023, 0.93608217, 0.9799542],
        "properties": { "magmom": -0.0 },
        "label": "Sr",
        "xyz": [2.5797727546394804, 11.960163079749861, 12.52070856416997]
      },
      {
        "species": [{ "element": "Sr", "occu": 1 }],
        "abc": [0.29435837, 0.70564163, 0.20564163],
        "properties": { "magmom": -0.0 },
        "label": "Sr",
        "xyz": [3.7609669555925294, 9.015863394407472, 2.6274482194074706]
      },
      {
        "species": [{ "element": "Sr", "occu": 1 }],
        "abc": [0.70564163, 0.20564163, 0.29435837],
        "properties": { "magmom": -0.0 },
        "label": "Sr",
        "xyz": [9.015863394407472, 2.6274482194074706, 3.7609669555925294]
      },
      {
        "species": [{ "element": "Sr", "occu": 1 }],
        "abc": [0.79435837, 0.79435837, 0.79435837],
        "properties": { "magmom": -0.0 },
        "label": "Sr",
        "xyz": [10.14938213059253, 10.14938213059253, 10.14938213059253]
      },
      {
        "species": [{ "element": "Sr", "occu": 1 }],
        "abc": [0.80726171, 0.69273829, 0.30726171],
        "properties": { "magmom": -0.0 },
        "label": "Sr",
        "xyz": [10.3142459167209, 8.850999608279102, 3.925830741720899]
      },
      {
        "species": [{ "element": "Sr", "occu": 1 }],
        "abc": [0.69273829, 0.30726171, 0.80726171],
        "properties": { "magmom": -0.0 },
        "label": "Sr",
        "xyz": [8.850999608279102, 3.925830741720899, 10.3142459167209]
      },
      {
        "species": [{ "element": "Sr", "occu": 1 }],
        "abc": [0.30726171, 0.80726171, 0.69273829],
        "properties": { "magmom": -0.0 },
        "label": "Sr",
        "xyz": [3.925830741720899, 10.3142459167209, 8.850999608279102]
      },
      {
        "species": [{ "element": "Sr", "occu": 1 }],
        "abc": [0.19273829, 0.19273829, 0.19273829],
        "properties": { "magmom": -0.0 },
        "label": "Sr",
        "xyz": [2.4625844332791016, 2.4625844332791016, 2.4625844332791016]
      },
      {
        "species": [{ "element": "Sr", "occu": 1 }],
        "abc": [0.0200458, 0.70191023, 0.5639178300000001],
        "properties": { "magmom": -0.0 },
        "label": "Sr",
        "xyz": [0.25612178583003, 8.96818792963948, 7.205082445250142]
      },
      {
        "species": [{ "element": "Sr", "occu": 1 }],
        "abc": [0.5200458, 0.79808977, 0.43608217],
        "properties": { "magmom": -0.0 },
        "label": "Sr",
        "xyz": [6.64453696083003, 10.197057595360521, 5.57174790474986]
      },
      {
        "species": [{ "element": "Sr", "occu": 1 }],
        "abc": [0.9799542, 0.20191023, 0.93608217],
        "properties": { "magmom": -0.0 },
        "label": "Sr",
        "xyz": [12.52070856416997, 2.5797727546394804, 11.960163079749861]
      },
      {
        "species": [{ "element": "Sr", "occu": 1 }],
        "abc": [0.79808977, 0.43608217, 0.5200458],
        "properties": { "magmom": -0.0 },
        "label": "Sr",
        "xyz": [10.197057595360521, 5.57174790474986, 6.64453696083003]
      },
      {
        "species": [{ "element": "Sr", "occu": 1 }],
        "abc": [0.93608217, 0.9799542, 0.20191023],
        "properties": { "magmom": -0.0 },
        "label": "Sr",
        "xyz": [11.960163079749861, 12.52070856416997, 2.5797727546394804]
      },
      {
        "species": [{ "element": "Sr", "occu": 1 }],
        "abc": [0.43608217, 0.5200458, 0.79808977],
        "properties": { "magmom": -0.0 },
        "label": "Sr",
        "xyz": [5.57174790474986, 6.64453696083003, 10.197057595360521]
      },
      {
        "species": [{ "element": "Sr", "occu": 1 }],
        "abc": [0.70191023, 0.5639178300000001, 0.0200458],
        "properties": { "magmom": -0.0 },
        "label": "Sr",
        "xyz": [8.96818792963948, 7.205082445250142, 0.25612178583003]
      },
      {
        "species": [{ "element": "Sr", "occu": 1 }],
        "abc": [0.5639178300000001, 0.0200458, 0.70191023],
        "properties": { "magmom": -0.0 },
        "label": "Sr",
        "xyz": [7.205082445250142, 0.25612178583003, 8.96818792963948]
      },
      {
        "species": [{ "element": "Sr", "occu": 1 }],
        "abc": [0.20564163, 0.29435837, 0.70564163],
        "properties": { "magmom": -0.0 },
        "label": "Sr",
        "xyz": [2.6274482194074706, 3.7609669555925294, 9.015863394407472]
      },
      {
        "species": [{ "element": "Sr", "occu": 1 }],
        "abc": [0.29808977000000003, 0.06391783, 0.4799542],
        "properties": { "magmom": -0.0 },
        "label": "Sr",
        "xyz": [3.80864242036052, 0.8166672702501405, 6.132293389169971]
      },
      {
        "species": [{ "element": "Sr", "occu": 1 }],
        "abc": [0.06391783, 0.4799542, 0.29808977000000003],
        "properties": { "magmom": -0.0 },
        "label": "Sr",
        "xyz": [0.8166672702501405, 6.132293389169971, 3.80864242036052]
      },
      {
        "species": [{ "element": "Sr", "occu": 1 }],
        "abc": [0.4799542, 0.29808977000000003, 0.06391783],
        "properties": { "magmom": -0.0 },
        "label": "Sr",
        "xyz": [6.132293389169971, 3.80864242036052, 0.8166672702501405]
      },
      {
        "species": [{ "element": "Sr", "occu": 1 }],
        "abc": [0.30261983000000003, 0.56321141, 0.49845507],
        "properties": { "magmom": 0.0 },
        "label": "Sr",
        "xyz": [3.866522228455841, 7.196056636754293, 6.368675866487375]
      },
      {
        "species": [{ "element": "Sr", "occu": 1 }],
        "abc": [0.80261983, 0.93678859, 0.50154493],
        "properties": { "magmom": 0.0 },
        "label": "Sr",
        "xyz": [10.254937403455841, 11.969188888245707, 6.408154483512626]
      },
      {
        "species": [{ "element": "Sr", "occu": 1 }],
        "abc": [0.69738017, 0.06321141, 0.0015449300000000001],
        "properties": { "magmom": 0.0 },
        "label": "Sr",
        "xyz": [8.91030812154416, 0.8076414617542935, 0.0197393085126255]
      },
      {
        "species": [{ "element": "Sr", "occu": 1 }],
        "abc": [0.93678859, 0.50154493, 0.80261983],
        "properties": { "magmom": 0.0 },
        "label": "Sr",
        "xyz": [11.969188888245707, 6.408154483512626, 10.254937403455841]
      },
      {
        "species": [{ "element": "Sr", "occu": 1 }],
        "abc": [0.0015449300000000001, 0.69738017, 0.06321141],
        "properties": { "magmom": 0.0 },
        "label": "Sr",
        "xyz": [0.0197393085126255, 8.91030812154416, 0.8076414617542935]
      },
      {
        "species": [{ "element": "Sr", "occu": 1 }],
        "abc": [0.50154493, 0.80261983, 0.93678859],
        "properties": { "magmom": 0.0 },
        "label": "Sr",
        "xyz": [6.408154483512626, 10.254937403455841, 11.969188888245707]
      },
      {
        "species": [{ "element": "Sr", "occu": 1 }],
        "abc": [0.56321141, 0.49845507, 0.30261983000000003],
        "properties": { "magmom": 0.0 },
        "label": "Sr",
        "xyz": [7.196056636754293, 6.368675866487375, 3.866522228455841]
      },
      {
        "species": [{ "element": "Sr", "occu": 1 }],
        "abc": [0.49845507, 0.30261983000000003, 0.56321141],
        "properties": { "magmom": 0.0 },
        "label": "Sr",
        "xyz": [6.368675866487375, 3.866522228455841, 7.196056636754293]
      },
      {
        "species": [{ "element": "Sr", "occu": 1 }],
        "abc": [0.06321141, 0.0015449300000000001, 0.69738017],
        "properties": { "magmom": 0.0 },
        "label": "Sr",
        "xyz": [0.8076414617542935, 0.0197393085126255, 8.91030812154416]
      },
      {
        "species": [{ "element": "Sr", "occu": 1 }],
        "abc": [0.43678859000000003, 0.99845507, 0.19738017],
        "properties": { "magmom": 0.0 },
        "label": "Sr",
        "xyz": [5.580773713245708, 12.757091041487376, 2.5218929465441597]
      },
      {
        "species": [{ "element": "Sr", "occu": 1 }],
        "abc": [0.99845507, 0.19738017, 0.43678859000000003],
        "properties": { "magmom": 0.0 },
        "label": "Sr",
        "xyz": [12.757091041487376, 2.5218929465441597, 5.580773713245708]
      },
      {
        "species": [{ "element": "Sr", "occu": 1 }],
        "abc": [0.19738017, 0.43678859000000003, 0.99845507],
        "properties": { "magmom": 0.0 },
        "label": "Sr",
        "xyz": [2.5218929465441597, 5.580773713245708, 12.757091041487376]
      },
      {
        "species": [{ "element": "Al", "occu": 1 }],
        "abc": [0.06550195, 0.43449805, 0.56550195],
        "properties": { "magmom": -0.0 },
        "label": "Al",
        "xyz": [0.8369073027441826, 5.551507872255818, 7.225322477744183]
      },
      {
        "species": [{ "element": "Al", "occu": 1 }],
        "abc": [0.43449805, 0.56550195, 0.06550195],
        "properties": { "magmom": -0.0 },
        "label": "Al",
        "xyz": [5.551507872255818, 7.225322477744183, 0.8369073027441826]
      },
      {
        "species": [{ "element": "Al", "occu": 1 }],
        "abc": [0.56550195, 0.06550195, 0.43449805],
        "properties": { "magmom": -0.0 },
        "label": "Al",
        "xyz": [7.225322477744183, 0.8369073027441826, 5.551507872255818]
      },
      {
        "species": [{ "element": "Al", "occu": 1 }],
        "abc": [0.93449805, 0.93449805, 0.93449805],
        "properties": { "magmom": -0.0 },
        "label": "Al",
        "xyz": [11.939923047255817, 11.939923047255817, 11.939923047255817]
      },
      {
        "species": [{ "element": "Al", "occu": 1 }],
        "abc": [0.43604516, 0.06395484, 0.93604516],
        "properties": { "magmom": -0.0 },
        "label": "Al",
        "xyz": [5.571275034258607, 0.8171401407413941, 11.959690209258607]
      },
      {
        "species": [{ "element": "Al", "occu": 1 }],
        "abc": [0.06395484, 0.93604516, 0.43604516],
        "properties": { "magmom": -0.0 },
        "label": "Al",
        "xyz": [0.8171401407413941, 11.959690209258607, 5.571275034258607]
      },
      {
        "species": [{ "element": "Al", "occu": 1 }],
        "abc": [0.93604516, 0.43604516, 0.06395484],
        "properties": { "magmom": -0.0 },
        "label": "Al",
        "xyz": [11.959690209258607, 5.571275034258607, 0.8171401407413941]
      },
      {
        "species": [{ "element": "Al", "occu": 1 }],
        "abc": [0.56395484, 0.56395484, 0.56395484],
        "properties": { "magmom": -0.0 },
        "label": "Al",
        "xyz": [7.205555315741394, 7.205555315741394, 7.205555315741394]
      },
      {
        "species": [{ "element": "Al", "occu": 1 }],
        "abc": [0.25866594, 0.67755103, 0.92279448],
        "properties": { "magmom": -0.0 },
        "label": "Al",
        "xyz": [3.304930832703279, 8.656954563777761, 11.790388518876469]
      },
      {
        "species": [{ "element": "Al", "occu": 1 }],
        "abc": [0.75866594, 0.8224489700000001, 0.07720552],
        "properties": { "magmom": -0.0 },
        "label": "Al",
        "xyz": [9.69334600770328, 10.50829096122224, 0.9864418311235321]
      },
      {
        "species": [{ "element": "Al", "occu": 1 }],
        "abc": [0.74133406, 0.17755103, 0.57720552],
        "properties": { "magmom": -0.0 },
        "label": "Al",
        "xyz": [9.471899517296722, 2.2685393887777607, 7.374857006123533]
      },
      {
        "species": [{ "element": "Al", "occu": 1 }],
        "abc": [0.8224489700000001, 0.07720552, 0.75866594],
        "properties": { "magmom": -0.0 },
        "label": "Al",
        "xyz": [10.50829096122224, 0.9864418311235321, 9.69334600770328]
      },
      {
        "species": [{ "element": "Al", "occu": 1 }],
        "abc": [0.57720552, 0.74133406, 0.17755103],
        "properties": { "magmom": -0.0 },
        "label": "Al",
        "xyz": [7.374857006123533, 9.471899517296722, 2.2685393887777607]
      },
      {
        "species": [{ "element": "Al", "occu": 1 }],
        "abc": [0.07720552, 0.75866594, 0.8224489700000001],
        "properties": { "magmom": -0.0 },
        "label": "Al",
        "xyz": [0.9864418311235321, 9.69334600770328, 10.50829096122224]
      },
      {
        "species": [{ "element": "Al", "occu": 1 }],
        "abc": [0.67755103, 0.92279448, 0.25866594],
        "properties": { "magmom": -0.0 },
        "label": "Al",
        "xyz": [8.656954563777761, 11.790388518876469, 3.304930832703279]
      },
      {
        "species": [{ "element": "Al", "occu": 1 }],
        "abc": [0.23591502, 0.81392348, 0.43267775],
        "properties": { "magmom": -0.0 },
        "label": "Al",
        "xyz": [3.014246187556857, 10.399362221841619, 5.528250207969713]
      },
      {
        "species": [{ "element": "Al", "occu": 1 }],
        "abc": [0.17755103, 0.57720552, 0.74133406],
        "properties": { "magmom": -0.0 },
        "label": "Al",
        "xyz": [2.2685393887777607, 7.374857006123533, 9.471899517296722]
      },
      {
        "species": [{ "element": "Al", "occu": 1 }],
        "abc": [0.32244897, 0.42279448000000003, 0.24133406000000002],
        "properties": { "magmom": -0.0 },
        "label": "Al",
        "xyz": [4.11987578622224, 5.4019733438764685, 3.0834843422967215]
      },
      {
        "species": [{ "element": "Al", "occu": 1 }],
        "abc": [0.42279448000000003, 0.24133406000000002, 0.32244897],
        "properties": { "magmom": -0.0 },
        "label": "Al",
        "xyz": [5.4019733438764685, 3.0834843422967215, 4.11987578622224]
      },
      {
        "species": [{ "element": "Al", "occu": 1 }],
        "abc": [0.24133406000000002, 0.32244897, 0.42279448000000003],
        "properties": { "magmom": -0.0 },
        "label": "Al",
        "xyz": [3.0834843422967215, 4.11987578622224, 5.4019733438764685]
      },
      {
        "species": [{ "element": "Al", "occu": 1 }],
        "abc": [0.26408498, 0.18607652, 0.93267775],
        "properties": { "magmom": -0.0 },
        "label": "Al",
        "xyz": [3.3741689874431438, 2.377468128158382, 11.916665382969713]
      },
      {
        "species": [{ "element": "Al", "occu": 1 }],
        "abc": [0.76408498, 0.31392348000000003, 0.06732225],
        "properties": { "magmom": -0.0 },
        "label": "Al",
        "xyz": [9.762584162443144, 4.010947046841618, 0.8601649670302876]
      },
      {
        "species": [{ "element": "Al", "occu": 1 }],
        "abc": [0.73591502, 0.68607652, 0.56732225],
        "properties": { "magmom": -0.0 },
        "label": "Al",
        "xyz": [9.402661362556858, 8.765883303158382, 7.248580142030288]
      },
      {
        "species": [{ "element": "Al", "occu": 1 }],
        "abc": [0.31392348000000003, 0.06732225, 0.76408498],
        "properties": { "magmom": -0.0 },
        "label": "Al",
        "xyz": [4.010947046841618, 0.8601649670302876, 9.762584162443144]
      },
      {
        "species": [{ "element": "Al", "occu": 1 }],
        "abc": [0.56732225, 0.73591502, 0.68607652],
        "properties": { "magmom": -0.0 },
        "label": "Al",
        "xyz": [7.248580142030288, 9.402661362556858, 8.765883303158382]
      },
      {
        "species": [{ "element": "Al", "occu": 1 }],
        "abc": [0.06732225, 0.76408498, 0.31392348000000003],
        "properties": { "magmom": -0.0 },
        "label": "Al",
        "xyz": [0.8601649670302876, 9.762584162443144, 4.010947046841618]
      },
      {
        "species": [{ "element": "Al", "occu": 1 }],
        "abc": [0.18607652, 0.93267775, 0.26408498],
        "properties": { "magmom": -0.0 },
        "label": "Al",
        "xyz": [2.377468128158382, 11.916665382969713, 3.3741689874431438]
      },
      {
        "species": [{ "element": "Al", "occu": 1 }],
        "abc": [0.93267775, 0.26408498, 0.18607652],
        "properties": { "magmom": -0.0 },
        "label": "Al",
        "xyz": [11.916665382969713, 3.3741689874431438, 2.377468128158382]
      },
      {
        "species": [{ "element": "Al", "occu": 1 }],
        "abc": [0.68607652, 0.56732225, 0.73591502],
        "properties": { "magmom": -0.0 },
        "label": "Al",
        "xyz": [8.765883303158382, 7.248580142030288, 9.402661362556858]
      },
      {
        "species": [{ "element": "Al", "occu": 1 }],
        "abc": [0.81392348, 0.43267775, 0.23591502],
        "properties": { "magmom": -0.0 },
        "label": "Al",
        "xyz": [10.399362221841619, 5.528250207969713, 3.014246187556857]
      },
      {
        "species": [{ "element": "Al", "occu": 1 }],
        "abc": [0.43267775, 0.23591502, 0.81392348],
        "properties": { "magmom": -0.0 },
        "label": "Al",
        "xyz": [5.528250207969713, 3.014246187556857, 10.399362221841619]
      },
      {
        "species": [{ "element": "Al", "occu": 1 }],
        "abc": [0.92279448, 0.25866594, 0.67755103],
        "properties": { "magmom": -0.0 },
        "label": "Al",
        "xyz": [11.790388518876469, 3.304930832703279, 8.656954563777761]
      }
    ]
  },
  "task_ids": null,
  "uncorrected_energy_per_atom": null,
  "energy_per_atom": -11.130282264375,
  "formation_energy_per_atom": -0.19140256437500003,
  "energy_above_hull": 0.029386351736112003,
  "is_stable": false,
  "equilibrium_reaction_energy_per_atom": null,
  "decomposes_to": null,
  "xas": null,
  "grain_boundaries": null,
  "band_gap": 0.0,
  "cbm": null,
  "vbm": null,
  "efermi": 3.04517352,
  "is_gap_direct": null,
  "is_metal": null,
  "es_source_calc_id": null,
  "bandstructure": null,
  "dos": null,
  "dos_energy_up": null,
  "dos_energy_down": null,
  "is_magnetic": null,
  "ordering": null,
  "total_magnetization": 0.0002856,
  "total_magnetization_normalized_vol": null,
  "total_magnetization_normalized_formula_units": null,
  "num_magnetic_sites": null,
  "num_unique_magnetic_sites": null,
  "types_of_magnetic_species": null,
  "bulk_modulus": null,
  "shear_modulus": null,
  "universal_anisotropy": null,
  "homogeneous_poisson": null,
  "e_total": null,
  "e_ionic": null,
  "e_electronic": null,
  "n": null,
  "e_ij_max": null,
  "weighted_surface_energy_EV_PER_ANG2": null,
  "weighted_surface_energy": null,
  "weighted_work_function": null,
  "surface_anisotropy": null,
  "shape_factor": null,
  "has_reconstructed": null,
  "possible_species": null,
  "has_props": null,
  "theoretical": null,
  "database_IDs": null,
  "fields_not_requested": [
    "builder_meta",
    "nsites",
    "elements",
    "nelements",
    "composition",
    "composition_reduced",
    "chemsys",
    "symmetry",
    "property_name",
    "deprecated",
    "deprecation_reasons",
    "last_updated",
    "origins",
    "warnings",
    "task_ids",
    "uncorrected_energy_per_atom",
    "equilibrium_reaction_energy_per_atom",
    "decomposes_to",
    "xas",
    "grain_boundaries",
    "cbm",
    "vbm",
    "is_gap_direct",
    "is_metal",
    "es_source_calc_id",
    "bandstructure",
    "dos",
    "dos_energy_up",
    "dos_energy_down",
    "is_magnetic",
    "ordering",
    "total_magnetization_normalized_vol",
    "total_magnetization_normalized_formula_units",
    "num_magnetic_sites",
    "num_unique_magnetic_sites",
    "types_of_magnetic_species",
    "bulk_modulus",
    "shear_modulus",
    "universal_anisotropy",
    "homogeneous_poisson",
    "e_total",
    "e_ionic",
    "e_electronic",
    "n",
    "e_ij_max",
    "weighted_surface_energy_EV_PER_ANG2",
    "weighted_surface_energy",
    "weighted_work_function",
    "surface_anisotropy",
    "shape_factor",
    "has_reconstructed",
    "possible_species",
    "has_props",
    "theoretical",
    "database_IDs"
  ]
}
