{
  "builder_meta": null,
  "nsites": null,
  "elements": null,
  "nelements": null,
  "composition": null,
  "composition_reduced": null,
  "formula_pretty": "SrAl2",
  "formula_anonymous": "AB2",
  "chemsys": null,
  "volume": 150.55030735232717,
  "density": 3.123264707920365,
  "density_atomic": 25.09171789205453,
  "symmetry": null,
  "property_name": null,
  "material_id": "mp-22318",
  "deprecated": null,
  "deprecation_reasons": null,
  "last_updated": null,
  "origins": null,
  "warnings": null,
  "structure": {
    "@module": "pymatgen.core.structure",
    "@class": "Structure",
    "charge": 0,
    "lattice": {
      "matrix": [
        [4.41662817, 0.0, 1.90010174],
        [2.20089804, 5.59572147, 0.96729054],
        [-0.0030643800000000002, -0.03047135, 6.09021727]
      ],
      "pbc": [true, true, true],
      "a": 4.808013208632914,
      "b": 6.09029571868791,
      "c": 6.09029426952441,
      "alpha": 81.1386393865802,
      "beta": 66.7510145109649,
      "gamma": 66.75101926865558,
      "volume": 150.5503073523272
    },
    "properties": {},
    "sites": [
      {
        "species": [{ "element": "Sr", "occu": 1 }],
        "abc": [0.44967054, 0.30032946, 0.80032946],
        "properties": { "magmom": 0.0 },
        "label": "Sr",
        "xyz": [2.6445695804607356, 1.6561728883045352, 6.019105920003822]
      },
      {
        "species": [{ "element": "Sr", "occu": 1 }],
        "abc": [0.55032946, 0.6996705400000001, 0.19967054],
        "properties": { "magmom": 0.0 },
        "label": "Sr",
        "xyz": [3.969892249539265, 3.909077231695465, 2.938503629996178]
      },
      {
        "species": [{ "element": "Al", "occu": 1 }],
        "abc": [0.16063055, 0.27083181, 0.40790708000000003],
        "properties": { "magmom": 0.0 },
        "label": "Al",
        "xyz": [1.3042686295934356, 1.5030698945738028, 3.0514301784675064]
      },
      {
        "species": [{ "element": "Al", "occu": 1 }],
        "abc": [0.8393694500000001, 0.72916819, 0.59209292],
        "properties": { "magmom": 0.0 },
        "label": "Al",
        "xyz": [5.310193200406565, 4.062180225426197, 5.9061793715324935]
      },
      {
        "species": [{ "element": "Al", "occu": 1 }],
        "abc": [0.8393694500000001, 0.09209292000000001, 0.22916819],
        "properties": { "magmom": 0.0 },
        "label": "Al",
        "xyz": [3.9091676266152118, 0.508343265552636, 3.079652031237461]
      },
      {
        "species": [{ "element": "Al", "occu": 1 }],
        "abc": [0.16063055, 0.90790708, 0.77083181],
        "properties": { "magmom": 0.0 },
        "label": "Al",
        "xyz": [2.7052942033847893, 5.056906854447364, 5.877957518762539]
      }
    ]
  },
  "task_ids": null,
  "uncorrected_energy_per_atom": null,
  "energy_per_atom": -9.821694686666666,
  "formation_energy_per_atom": -0.285075443333332,
  "energy_above_hull": 0.0,
  "is_stable": true,
  "equilibrium_reaction_energy_per_atom": null,
  "decomposes_to": null,
  "xas": null,
  "grain_boundaries": null,
  "band_gap": 0.0,
  "cbm": null,
  "vbm": null,
  "efermi": 4.62923428,
  "is_gap_direct": null,
  "is_metal": null,
  "es_source_calc_id": null,
  "bandstructure": null,
  "dos": null,
  "dos_energy_up": null,
  "dos_energy_down": null,
  "is_magnetic": null,
  "ordering": null,
  "total_magnetization": 0.0,
  "total_magnetization_normalized_vol": null,
  "total_magnetization_normalized_formula_units": null,
  "num_magnetic_sites": null,
  "num_unique_magnetic_sites": null,
  "types_of_magnetic_species": null,
  "bulk_modulus": null,
  "shear_modulus": null,
  "universal_anisotropy": null,
  "homogeneous_poisson": null,
  "e_total": null,
  "e_ionic": null,
  "e_electronic": null,
  "n": null,
  "e_ij_max": null,
  "weighted_surface_energy_EV_PER_ANG2": null,
  "weighted_surface_energy": null,
  "weighted_work_function": null,
  "surface_anisotropy": null,
  "shape_factor": null,
  "has_reconstructed": null,
  "possible_species": null,
  "has_props": null,
  "theoretical": null,
  "database_IDs": null,
  "fields_not_requested": [
    "builder_meta",
    "nsites",
    "elements",
    "nelements",
    "composition",
    "composition_reduced",
    "chemsys",
    "symmetry",
    "property_name",
    "deprecated",
    "deprecation_reasons",
    "last_updated",
    "origins",
    "warnings",
    "task_ids",
    "uncorrected_energy_per_atom",
    "equilibrium_reaction_energy_per_atom",
    "decomposes_to",
    "xas",
    "grain_boundaries",
    "cbm",
    "vbm",
    "is_gap_direct",
    "is_metal",
    "es_source_calc_id",
    "bandstructure",
    "dos",
    "dos_energy_up",
    "dos_energy_down",
    "is_magnetic",
    "ordering",
    "total_magnetization_normalized_vol",
    "total_magnetization_normalized_formula_units",
    "num_magnetic_sites",
    "num_unique_magnetic_sites",
    "types_of_magnetic_species",
    "bulk_modulus",
    "shear_modulus",
    "universal_anisotropy",
    "homogeneous_poisson",
    "e_total",
    "e_ionic",
    "e_electronic",
    "n",
    "e_ij_max",
    "weighted_surface_energy_EV_PER_ANG2",
    "weighted_surface_energy",
    "weighted_work_function",
    "surface_anisotropy",
    "shape_factor",
    "has_reconstructed",
    "possible_species",
    "has_props",
    "theoretical",
    "database_IDs"
  ]
}
