{"builder_meta": null, "nsites": null, "elements": null, "nelements": null, "composition": null, "composition_reduced": null, "formula_pretty": "SrAs", "formula_anonymous": "AB", "chemsys": null, "volume": 373.04960044513166, "density": 4.3410850957987055, "density_atomic": 31.08746670376097, "symmetry": null, "property_name": null, "material_id": "mp-1049", "deprecated": null, "deprecation_reasons": null, "last_updated": null, "origins": null, "warnings": null, "structure": {"@module": "pymatgen.core.structure", "@class": "Structure", "charge": 0, "lattice": {"matrix": [[8.30432385, 1e-08, 0.0], [-4.15216091, 7.19175535, 0.0], [0.0, -0.0, 6.24636555]], "pbc": [true, true, true], "a": 8.30432385, "b": 8.30432328590269, "c": 6.24636555, "alpha": 90.0, "beta": 90.0, "gamma": 119.99999409167668, "volume": 373.04960044513166}, "properties": {}, "sites": [{"species": [{"element": "Sr", "occu": 1}], "abc": [-0.0, 0.6459978200000001, 0.5], "properties": {"magmom": 0.0}, "label": "Sr", "xyz": [-2.6822868961492166, 4.645858278073337, 3.123182775]}, {"species": [{"element": "Sr", "occu": 1}], "abc": [0.35400218, 0.35400218, 0.5], "properties": {"magmom": 0.0}, "label": "Sr", "xyz": [1.469874732475209, 2.5458970754666845, 3.123182775]}, {"species": [{"element": "Sr", "occu": 1}], "abc": [0.6459978200000001, -0.0, 0.5], "properties": {"magmom": 0.0}, "label": "Sr", "xyz": [5.3645751036740075, 6.459978200000001e-09, 3.123182775]}, {"species": [{"element": "Sr", "occu": 1}], "abc": [-0.0, 0.31112893, -0.0], "properties": {"magmom": -0.0}, "label": "Sr", "xyz": [-1.2918573811161265, 2.237563146867276, 0.0]}, {"species": [{"element": "Sr", "occu": 1}], "abc": [0.68887107, 0.68887107, -0.0], "properties": {"magmom": -0.0}, "label": "Sr", "xyz": [2.860304927292145, 4.954192210021436, 0.0]}, {"species": [{"element": "Sr", "occu": 1}], "abc": [0.31112893, -0.0, -0.0], "properties": {"magmom": -0.0}, "label": "Sr", "xyz": [2.5837153938239807, 3.1112893000000005e-09, 0.0]}, {"species": [{"element": "As", "occu": 1}], "abc": [0.666667, 0.333333, 0.20560509000000002], "properties": {"magmom": -0.0}, "label": "As", "xyz": [4.15216641549492, 2.3972493927482197, 1.2842845510806495]}, {"species": [{"element": "As", "occu": 1}], "abc": [0.666667, 0.333333, 0.7943949100000001], "properties": {"magmom": -0.0}, "label": "As", "xyz": [4.15216641549492, 2.3972493927482197, 4.962080998919351]}, {"species": [{"element": "As", "occu": 1}], "abc": [0.333333, 0.666667, 0.7943949100000001], "properties": {"magmom": -0.0}, "label": "As", "xyz": [-3.475494920301969e-06, 4.79450596725178, 4.962080998919351]}, {"species": [{"element": "As", "occu": 1}], "abc": [0.333333, 0.666667, 0.20560509000000002], "properties": {"magmom": -0.0}, "label": "As", "xyz": [-3.475494920301969e-06, 4.79450596725178, 1.2842845510806495]}, {"species": [{"element": "As", "occu": 1}], "abc": [0.0, -0.0, 0.700334], "properties": {"magmom": 0.0}, "label": "As", "xyz": [0.0, 0.0, 4.3745421710937]}, {"species": [{"element": "As", "occu": 1}], "abc": [0.0, -0.0, 0.299666], "properties": {"magmom": 0.0}, "label": "As", "xyz": [0.0, 0.0, 1.8718233789063]}]}, "task_ids": null, "uncorrected_energy_per_atom": null, "energy_per_atom": -16.194839610833334, "formation_energy_per_atom": -1.268243582083336, "energy_above_hull": 0.0, "is_stable": true, "equilibrium_reaction_energy_per_atom": null, "decomposes_to": null, "xas": null, "grain_boundaries": null, "band_gap": 0.0181, "cbm": null, "vbm": null, "efermi": 2.72584486, "is_gap_direct": null, "is_metal": null, "es_source_calc_id": null, "bandstructure": null, "dos": null, "dos_energy_up": null, "dos_energy_down": null, "is_magnetic": null, "ordering": null, "total_magnetization": 0.0, "total_magnetization_normalized_vol": null, "total_magnetization_normalized_formula_units": null, "num_magnetic_sites": null, "num_unique_magnetic_sites": null, "types_of_magnetic_species": null, "bulk_modulus": null, "shear_modulus": null, "universal_anisotropy": null, "homogeneous_poisson": null, "e_total": null, "e_ionic": null, "e_electronic": null, "n": null, "e_ij_max": null, "weighted_surface_energy_EV_PER_ANG2": null, "weighted_surface_energy": null, "weighted_work_function": null, "surface_anisotropy": null, "shape_factor": null, "has_reconstructed": null, "possible_species": null, "has_props": null, "theoretical": null, "database_IDs": null, "fields_not_requested": ["builder_meta", "nsites", "elements", "nelements", "composition", "composition_reduced", "chemsys", "symmetry", "property_name", "deprecated", "deprecation_reasons", "last_updated", "origins", "warnings", "task_ids", "uncorrected_energy_per_atom", "equilibrium_reaction_energy_per_atom", "decomposes_to", "xas", "grain_boundaries", "cbm", "vbm", "is_gap_direct", "is_metal", "es_source_calc_id", "bandstructure", "dos", "dos_energy_up", "dos_energy_down", "is_magnetic", "ordering", "total_magnetization_normalized_vol", "total_magnetization_normalized_formula_units", "num_magnetic_sites", "num_unique_magnetic_sites", "types_of_magnetic_species", "bulk_modulus", "shear_modulus", "universal_anisotropy", "homogeneous_poisson", "e_total", "e_ionic", "e_electronic", "n", "e_ij_max", "weighted_surface_energy_EV_PER_ANG2", "weighted_surface_energy", "weighted_work_function", "surface_anisotropy", "shape_factor", "has_reconstructed", "possible_species", "has_props", "theoretical", "database_IDs"]}