{"builder_meta": null, "nsites": null, "elements": null, "nelements": null, "composition": null, "composition_reduced": null, "formula_pretty": "SrAs3", "formula_anonymous": "AB3", "chemsys": null, "volume": 204.15830866383476, "density": 5.081616982497236, "density_atomic": 25.519788582979345, "symmetry": null, "property_name": null, "material_id": "mp-9907", "deprecated": null, "deprecation_reasons": null, "last_updated": null, "origins": null, "warnings": null, "structure": {"@module": "pymatgen.core.structure", "@class": "Structure", "charge": 0, "lattice": {"matrix": [[5.64969466, -0.00443977, 1.8023244200000001], [1.53018181, 5.83384692, 1.38943073], [-0.00558492, -0.0130762, 6.1891475]], "pbc": [true, true, true], "a": 5.930214395594691, "b": 6.189163433867027, "c": 6.189163833272964, "alpha": 77.15707775620626, "beta": 72.35830884244935, "gamma": 72.35829561674883, "volume": 204.15830866383476}, "properties": {}, "sites": [{"species": [{"element": "Sr", "occu": 1}], "abc": [0.33489545, 0.33606509, 0.33606509], "properties": {"magmom": -0.0}, "label": "Sr", "xyz": [2.4044208265748668, 1.9546709771141184, 3.1504858226188794]}, {"species": [{"element": "Sr", "occu": 1}], "abc": [0.66510455, 0.66393491, 0.66393491], "properties": {"magmom": -0.0}, "label": "Sr", "xyz": [4.769870723425133, 3.861659972885882, 6.23041682738112]}, {"species": [{"element": "As", "occu": 1}], "abc": [0.80703574, 0.12782943, 0.5944638800000001], "properties": {"magmom": 0.0}, "label": "As", "xyz": [4.751787746063127, 0.7343809448358197, 5.311374996997455]}, {"species": [{"element": "As", "occu": 1}], "abc": [0.19296426, 0.40553612, 0.87217057], "properties": {"magmom": 0.0}, "label": "As", "xyz": [1.7058621405550243, 2.3535742508706963, 6.309240848127272]}, {"species": [{"element": "As", "occu": 1}], "abc": [0.78886468, 0.0025655400000000003, 0.0025655400000000003], "properties": {"magmom": 0.0}, "label": "As", "xyz": [4.46075598436378, 0.011431042372665201, 1.44123322243168]}, {"species": [{"element": "As", "occu": 1}], "abc": [0.21113532000000002, 0.99743446, 0.99743446], "properties": {"magmom": 0.0}, "label": "As", "xyz": [2.7135355656362203, 5.804899907627335, 7.939669427568321]}, {"species": [{"element": "As", "occu": 1}], "abc": [0.80703574, 0.5944638800000001, 0.12782943], "properties": {"magmom": 0.0}, "label": "As", "xyz": [5.468429409444975, 3.462756699129304, 3.071661801872728]}, {"species": [{"element": "As", "occu": 1}], "abc": [0.19296426, 0.87217057, 0.40553612], "properties": {"magmom": 0.0}, "label": "As", "xyz": [2.4225038039368725, 5.081950005164179, 4.069527653002545]}]}, "task_ids": null, "uncorrected_energy_per_atom": null, "energy_per_atom": -15.5375326475, "formation_energy_per_atom": -0.720469139375001, "energy_above_hull": 0.0, "is_stable": true, "equilibrium_reaction_energy_per_atom": null, "decomposes_to": null, "xas": null, "grain_boundaries": null, "band_gap": 0.0, "cbm": null, "vbm": null, "efermi": 4.1625402, "is_gap_direct": null, "is_metal": null, "es_source_calc_id": null, "bandstructure": null, "dos": null, "dos_energy_up": null, "dos_energy_down": null, "is_magnetic": null, "ordering": null, "total_magnetization": 0.0, "total_magnetization_normalized_vol": null, "total_magnetization_normalized_formula_units": null, "num_magnetic_sites": null, "num_unique_magnetic_sites": null, "types_of_magnetic_species": null, "bulk_modulus": null, "shear_modulus": null, "universal_anisotropy": null, "homogeneous_poisson": null, "e_total": null, "e_ionic": null, "e_electronic": null, "n": null, "e_ij_max": null, "weighted_surface_energy_EV_PER_ANG2": null, "weighted_surface_energy": null, "weighted_work_function": null, "surface_anisotropy": null, "shape_factor": null, "has_reconstructed": null, "possible_species": null, "has_props": null, "theoretical": null, "database_IDs": null, "fields_not_requested": ["builder_meta", "nsites", "elements", "nelements", "composition", "composition_reduced", "chemsys", "symmetry", "property_name", "deprecated", "deprecation_reasons", "last_updated", "origins", "warnings", "task_ids", "uncorrected_energy_per_atom", "equilibrium_reaction_energy_per_atom", "decomposes_to", "xas", "grain_boundaries", "cbm", "vbm", "is_gap_direct", "is_metal", "es_source_calc_id", "bandstructure", "dos", "dos_energy_up", "dos_energy_down", "is_magnetic", "ordering", "total_magnetization_normalized_vol", "total_magnetization_normalized_formula_units", "num_magnetic_sites", "num_unique_magnetic_sites", "types_of_magnetic_species", "bulk_modulus", "shear_modulus", "universal_anisotropy", "homogeneous_poisson", "e_total", "e_ionic", "e_electronic", "n", "e_ij_max", "weighted_surface_energy_EV_PER_ANG2", "weighted_surface_energy", "weighted_work_function", "surface_anisotropy", "shape_factor", "has_reconstructed", "possible_species", "has_props", "theoretical", "database_IDs"]}