{"builder_meta": null, "nsites": null, "elements": null, "nelements": null, "composition": null, "composition_reduced": null, "formula_pretty": "SrAu2", "formula_anonymous": "AB2", "chemsys": null, "volume": 148.801359180082, "density": 10.747721696884305, "density_atomic": 24.800226530013664, "symmetry": null, "property_name": null, "material_id": "mp-434", "deprecated": null, "deprecation_reasons": null, "last_updated": null, "origins": null, "warnings": null, "structure": {"@module": "pymatgen.core.structure", "@class": "Structure", "charge": 0, "lattice": {"matrix": [[4.3245251, -0.0, 1.84757105], [1.95688518, 5.61457185, 1.40450239], [-0.053078299999999, 0.03303971, 6.10913521]], "pbc": [true, true, true], "a": 4.702662663356591, "b": 6.109455264590434, "c": 6.109455126476461, "alpha": 76.5813196682232, "beta": 67.36446856334176, "gamma": 67.3644818076737, "volume": 148.801359180082}, "properties": {}, "sites": [{"species": [{"element": "Sr", "occu": 1}], "abc": [0.53751062, 0.7124893800000001, 0.21248938], "properties": {"magmom": 0.0}, "label": "Sr", "xyz": [3.707459501277497, 4.0073434038652325, 3.291908450748239]}, {"species": [{"element": "Sr", "occu": 1}], "abc": [0.46248938, 0.28751062, 0.78751062], "properties": {"magmom": 0.0}, "label": "Sr", "xyz": [2.520872478722504, 1.640268156134767, 6.069300199251761]}, {"species": [{"element": "Au", "occu": 1}], "abc": [0.16185064, 0.29656223, 0.37973649], "properties": {"magmom": -0.0}, "label": "Au", "xyz": [1.2601096206286488, 1.6776163318372435, 3.035414479287515]}, {"species": [{"element": "Au", "occu": 1}], "abc": [0.8381493600000001, 0.70343777, 0.62026351], "properties": {"magmom": -0.0}, "label": "Au", "xyz": [4.968222359371352, 3.969995228162756, 6.325794170712485]}, {"species": [{"element": "Au", "occu": 1}], "abc": [0.16185064, 0.87973649, 0.79656223], "properties": {"magmom": -0.0}, "label": "Au", "xyz": [2.3791902857046736, 4.965661917247959, 6.400928925912301]}, {"species": [{"element": "Au", "occu": 1}], "abc": [0.8381493600000001, 0.12026351, 0.20343777000000002], "properties": {"magmom": -0.0}, "label": "Au", "xyz": [3.849141694295327, 0.6819496427520402, 2.960279724087699]}]}, "task_ids": null, "uncorrected_energy_per_atom": null, "energy_per_atom": -39.56341806166667, "formation_energy_per_atom": -0.791557604999998, "energy_above_hull": 0.0, "is_stable": true, "equilibrium_reaction_energy_per_atom": null, "decomposes_to": null, "xas": null, "grain_boundaries": null, "band_gap": 0.0, "cbm": null, "vbm": null, "efermi": 3.41069649, "is_gap_direct": null, "is_metal": null, "es_source_calc_id": null, "bandstructure": null, "dos": null, "dos_energy_up": null, "dos_energy_down": null, "is_magnetic": null, "ordering": null, "total_magnetization": 0.0, "total_magnetization_normalized_vol": null, "total_magnetization_normalized_formula_units": null, "num_magnetic_sites": null, "num_unique_magnetic_sites": null, "types_of_magnetic_species": null, "bulk_modulus": null, "shear_modulus": null, "universal_anisotropy": null, "homogeneous_poisson": null, "e_total": null, "e_ionic": null, "e_electronic": null, "n": null, "e_ij_max": null, "weighted_surface_energy_EV_PER_ANG2": null, "weighted_surface_energy": null, "weighted_work_function": null, "surface_anisotropy": null, "shape_factor": null, "has_reconstructed": null, "possible_species": null, "has_props": null, "theoretical": null, "database_IDs": null, "fields_not_requested": ["builder_meta", "nsites", "elements", "nelements", "composition", "composition_reduced", "chemsys", "symmetry", "property_name", "deprecated", "deprecation_reasons", "last_updated", "origins", "warnings", "task_ids", "uncorrected_energy_per_atom", "equilibrium_reaction_energy_per_atom", "decomposes_to", "xas", "grain_boundaries", "cbm", "vbm", "is_gap_direct", "is_metal", "es_source_calc_id", "bandstructure", "dos", "dos_energy_up", "dos_energy_down", "is_magnetic", "ordering", "total_magnetization_normalized_vol", "total_magnetization_normalized_formula_units", "num_magnetic_sites", "num_unique_magnetic_sites", "types_of_magnetic_species", "bulk_modulus", "shear_modulus", "universal_anisotropy", "homogeneous_poisson", "e_total", "e_ionic", "e_electronic", "n", "e_ij_max", "weighted_surface_energy_EV_PER_ANG2", "weighted_surface_energy", "weighted_work_function", "surface_anisotropy", "shape_factor", "has_reconstructed", "possible_species", "has_props", "theoretical", "database_IDs"]}