{"builder_meta": null, "nsites": null, "elements": null, "nelements": null, "composition": null, "composition_reduced": null, "formula_pretty": "SrAu", "formula_anonymous": "AB", "chemsys": null, "volume": 1181.8999544689004, "density": 7.996736337408686, "density_atomic": 29.54749886172251, "symmetry": null, "property_name": null, "material_id": "mp-30420", "deprecated": null, "deprecation_reasons": null, "last_updated": null, "origins": null, "warnings": null, "structure": {"@module": "pymatgen.core.structure", "@class": "Structure", "charge": 0, "lattice": {"matrix": [[4.68916238, 0.0, 0.0], [0.0, 6.20433244, 0.00416911], [0.0, 2.9839608, 40.62672541]], "pbc": [true, true, true], "a": 4.68916238, "b": 6.204333840753135, "c": 40.73616132621576, "alpha": 85.76076886895771, "beta": 90.0, "gamma": 90.0, "volume": 1181.8999544689004}, "properties": {}, "sites": [{"species": [{"element": "Sr", "occu": 1}], "abc": [0.75, 0.94276931, 0.08639859], "properties": {"magmom": 0.0}, "label": "Sr", "xyz": [3.516871785, 6.1070642192046884, 3.5140223006991858]}, {"species": [{"element": "Sr", "occu": 1}], "abc": [0.25, 0.05723069, 0.9136014100000001], "properties": {"magmom": 0.0}, "label": "Sr", "xyz": [1.172290595, 3.0812290207953117, 37.11687221930082]}, {"species": [{"element": "Sr", "occu": 1}], "abc": [0.75, 0.65980993, 0.18610185], "properties": {"magmom": 0.0}, "label": "Sr", "xyz": [3.516871785, 4.649000778140609, 7.563459578420271]}, {"species": [{"element": "Sr", "occu": 1}], "abc": [0.25, 0.34019007, 0.81389815], "properties": {"magmom": 0.0}, "label": "Sr", "xyz": [1.172290595, 4.539292461859391, 33.06743494157973]}, {"species": [{"element": "Sr", "occu": 1}], "abc": [0.75, 0.84260323, 0.28629182000000003], "properties": {"magmom": -0.0}, "label": "Sr", "xyz": [3.516871785, 6.082074122178438, 11.634612063821374]}, {"species": [{"element": "Sr", "occu": 1}], "abc": [0.25, 0.15739677, 0.71370818], "properties": {"magmom": -0.0}, "label": "Sr", "xyz": [1.172290595, 3.106219117821563, 28.99628245617863]}, {"species": [{"element": "Sr", "occu": 1}], "abc": [0.75, 0.038125650000000004, 0.38600393], "properties": {"magmom": -0.0}, "label": "Sr", "xyz": [3.516871785, 1.38836480285703, 15.682234621319532]}, {"species": [{"element": "Sr", "occu": 1}], "abc": [0.25, 0.96187435, 0.61399607], "properties": {"magmom": -0.0}, "label": "Sr", "xyz": [1.172290595, 7.79992843714297, 24.948659898680468]}, {"species": [{"element": "Sr", "occu": 1}], "abc": [0.75, 0.76242774, 0.48636177], "properties": {"magmom": -0.0}, "label": "Sr", "xyz": [3.516871785, 6.1816396167365015, 19.762464724826685]}, {"species": [{"element": "Sr", "occu": 1}], "abc": [0.25, 0.23757226, 0.51363823], "properties": {"magmom": -0.0}, "label": "Sr", "xyz": [1.172290595, 3.0066536232634986, 20.868429795173313]}, {"species": [{"element": "Sr", "occu": 1}], "abc": [0.75, 0.4749754, 0.58622527], "properties": {"magmom": 0.0}, "label": "Sr", "xyz": [3.516871785, 4.696178508071393, 23.818393297383004]}, {"species": [{"element": "Sr", "occu": 1}], "abc": [0.25, 0.5250246, 0.41377473000000004], "properties": {"magmom": 0.0}, "label": "Sr", "xyz": [1.172290595, 4.492114731928608, 16.812501222616994]}, {"species": [{"element": "Sr", "occu": 1}], "abc": [0.75, 0.65680989, 0.68637441], "properties": {"magmom": 0.0}, "label": "Sr", "xyz": [3.516871785, 6.12318124100296, 27.887882996201256]}, {"species": [{"element": "Sr", "occu": 1}], "abc": [0.25, 0.34319011, 0.31362559], "properties": {"magmom": 0.0}, "label": "Sr", "xyz": [1.172290595, 3.06511199899704, 12.743011523798744]}, {"species": [{"element": "Sr", "occu": 1}], "abc": [0.75, 0.8532657300000001, 0.78625372], "properties": {"magmom": 0.0}, "label": "Sr", "xyz": [3.516871785, 7.640094527913458, 31.946471343718628]}, {"species": [{"element": "Sr", "occu": 1}], "abc": [0.25, 0.14673427, 0.21374628], "properties": {"magmom": 0.0}, "label": "Sr", "xyz": [1.172290595, 1.5481987120865428, 8.684423176281374]}, {"species": [{"element": "Sr", "occu": 1}], "abc": [0.75, 0.57173218, 0.8859428500000001], "properties": {"magmom": 0.0}, "label": "Sr", "xyz": [3.516871785, 6.1908352468062, 35.99534051025178]}, {"species": [{"element": "Sr", "occu": 1}], "abc": [0.25, 0.42826782, 0.11405715], "properties": {"magmom": 0.0}, "label": "Sr", "xyz": [1.172290595, 2.997457993193801, 4.635554009748222]}, {"species": [{"element": "Sr", "occu": 1}], "abc": [0.75, 0.75029818, 0.98634351], "properties": {"magmom": 0.0}, "label": "Sr", "xyz": [3.516871785, 7.598309707021367, 40.07503501635081]}, {"species": [{"element": "Sr", "occu": 1}], "abc": [0.25, 0.24970182000000002, 0.01365649], "properties": {"magmom": 0.0}, "label": "Sr", "xyz": [1.172290595, 1.589983532978633, 0.5558595036491911]}, {"species": [{"element": "Au", "occu": 1}], "abc": [0.75, 0.45597867000000003, 0.057676780000000004], "properties": {"magmom": -0.0}, "label": "Au", "xyz": [3.516871785, 3.001148504819279, 2.345119728825863]}, {"species": [{"element": "Au", "occu": 1}], "abc": [0.25, 0.54402133, 0.94232322], "properties": {"magmom": -0.0}, "label": "Au", "xyz": [1.172290595, 6.187144735180722, 38.285774791174134]}, {"species": [{"element": "Au", "occu": 1}], "abc": [0.75, 0.17411343, 0.1580189], "properties": {"magmom": -0.0}, "label": "Au", "xyz": [3.516871785, 1.5517798052477894, 6.420516357932396]}, {"species": [{"element": "Au", "occu": 1}], "abc": [0.25, 0.82588657, 0.841981099999999], "properties": {"magmom": -0.0}, "label": "Au", "xyz": [1.172290595, 7.636513434752208, 34.21037816206756]}, {"species": [{"element": "Au", "occu": 1}], "abc": [0.75, 0.35510552, 0.25799758], "properties": {"magmom": 0.0}, "label": "Au", "xyz": [3.516871785, 2.973047362573933, 10.483077313078995]}, {"species": [{"element": "Au", "occu": 1}], "abc": [0.25, 0.64489448, 0.74200242], "properties": {"magmom": 0.0}, "label": "Au", "xyz": [1.172290595, 6.215245877426067, 30.147817206921008]}, {"species": [{"element": "Au", "occu": 1}], "abc": [0.75, 0.54964798, 0.35772977], "properties": {"magmom": 0.0}, "label": "Au", "xyz": [3.516871785, 4.477650403567488, 14.535680679662354]}, {"species": [{"element": "Au", "occu": 1}], "abc": [0.25, 0.45035202, 0.64227023], "properties": {"magmom": 0.0}, "label": "Au", "xyz": [1.172290595, 4.710642836432513, 26.09521384033765]}, {"species": [{"element": "Au", "occu": 1}], "abc": [0.75, 0.27443503, 0.45774734], "properties": {"magmom": 0.0}, "label": "Au", "xyz": [3.516871785, 3.0685862781656454, 18.59791963916583]}, {"species": [{"element": "Au", "occu": 1}], "abc": [0.25, 0.72556497, 0.54225266], "properties": {"magmom": 0.0}, "label": "Au", "xyz": [1.172290595, 6.119706961834355, 22.032974880834168]}, {"species": [{"element": "Au", "occu": 1}], "abc": [0.75, 0.98963492, 0.5579759], "properties": {"magmom": -0.0}, "label": "Au", "xyz": [3.516871785, 7.805002250857525, 22.672859571538936]}, {"species": [{"element": "Au", "occu": 1}], "abc": [0.25, 0.01036508, 0.4420241], "properties": {"magmom": -0.0}, "label": "Au", "xyz": [1.172290595, 1.3832909891424752, 17.95803494846106]}, {"species": [{"element": "Au", "occu": 1}], "abc": [0.75, 0.17063183, 0.65784347], "properties": {"magmom": 0.0}, "label": "Au", "xyz": [3.516871785, 3.0216357251815413, 26.726737401320342]}, {"species": [{"element": "Au", "occu": 1}], "abc": [0.25, 0.8293681700000001, 0.34215653], "properties": {"magmom": 0.0}, "label": "Au", "xyz": [1.172290595, 6.166657514818459, 13.904157118679656]}, {"species": [{"element": "Au", "occu": 1}], "abc": [0.75, 0.36441484, 0.7577302], "properties": {"magmom": -0.0}, "label": "Au", "xyz": [3.516871785, 4.52198802720557, 30.78561605581797]}, {"species": [{"element": "Au", "occu": 1}], "abc": [0.25, 0.63558516, 0.242269799999999], "properties": {"magmom": -0.0}, "label": "Au", "xyz": [1.172290595, 4.666305212794427, 9.845278464181986]}, {"species": [{"element": "Au", "occu": 1}], "abc": [0.75, 0.08668804000000001, 0.85787707], "properties": {"magmom": -0.0}, "label": "Au", "xyz": [3.516871785, 3.097712966830874, 34.8530975703998]}, {"species": [{"element": "Au", "occu": 1}], "abc": [0.25, 0.91331196, 0.14212293], "properties": {"magmom": -0.0}, "label": "Au", "xyz": [1.172290595, 6.0905802731691265, 5.777796949600207]}, {"species": [{"element": "Au", "occu": 1}], "abc": [0.75, 0.26410067, 0.95789101], "properties": {"magmom": 0.0}, "label": "Au", "xyz": [3.516871785, 4.496877578819142, 38.917076100721864]}, {"species": [{"element": "Au", "occu": 1}], "abc": [0.25, 0.73589933, 0.04210899], "properties": {"magmom": 0.0}, "label": "Au", "xyz": [1.172290595, 4.691415661180857, 1.7138184192781323]}]}, "task_ids": null, "uncorrected_energy_per_atom": null, "energy_per_atom": -33.6755544195, "formation_energy_per_atom": -0.8102438095000021, "energy_above_hull": 0.0, "is_stable": true, "equilibrium_reaction_energy_per_atom": null, "decomposes_to": null, "xas": null, "grain_boundaries": null, "band_gap": 0.0, "cbm": null, "vbm": null, "efermi": 3.20389037, "is_gap_direct": null, "is_metal": null, "es_source_calc_id": null, "bandstructure": null, "dos": null, "dos_energy_up": null, "dos_energy_down": null, "is_magnetic": null, "ordering": null, "total_magnetization": 1.7e-06, "total_magnetization_normalized_vol": null, "total_magnetization_normalized_formula_units": null, "num_magnetic_sites": null, "num_unique_magnetic_sites": null, "types_of_magnetic_species": null, "bulk_modulus": null, "shear_modulus": null, "universal_anisotropy": null, "homogeneous_poisson": null, "e_total": null, "e_ionic": null, "e_electronic": null, "n": null, "e_ij_max": null, "weighted_surface_energy_EV_PER_ANG2": null, "weighted_surface_energy": null, "weighted_work_function": null, "surface_anisotropy": null, "shape_factor": null, "has_reconstructed": null, "possible_species": null, "has_props": null, "theoretical": null, "database_IDs": null, "fields_not_requested": ["builder_meta", "nsites", "elements", "nelements", "composition", "composition_reduced", "chemsys", "symmetry", "property_name", "deprecated", "deprecation_reasons", "last_updated", "origins", "warnings", "task_ids", "uncorrected_energy_per_atom", "equilibrium_reaction_energy_per_atom", "decomposes_to", "xas", "grain_boundaries", "cbm", "vbm", "is_gap_direct", "is_metal", "es_source_calc_id", "bandstructure", "dos", "dos_energy_up", "dos_energy_down", "is_magnetic", "ordering", "total_magnetization_normalized_vol", "total_magnetization_normalized_formula_units", "num_magnetic_sites", "num_unique_magnetic_sites", "types_of_magnetic_species", "bulk_modulus", "shear_modulus", "universal_anisotropy", "homogeneous_poisson", "e_total", "e_ionic", "e_electronic", "n", "e_ij_max", "weighted_surface_energy_EV_PER_ANG2", "weighted_surface_energy", "weighted_work_function", "surface_anisotropy", "shape_factor", "has_reconstructed", "possible_species", "has_props", "theoretical", "database_IDs"]}