{
  "builder_meta": null,
  "nsites": null,
  "elements": null,
  "nelements": null,
  "composition": null,
  "composition_reduced": null,
  "formula_pretty": "SrBr3",
  "formula_anonymous": "AB3",
  "chemsys": null,
  "volume": 238.69833487231216,
  "density": 4.554263640247623,
  "density_atomic": 29.83729185903902,
  "symmetry": null,
  "property_name": null,
  "material_id": "mp-980667",
  "deprecated": null,
  "deprecation_reasons": null,
  "last_updated": null,
  "origins": null,
  "warnings": null,
  "structure": {
    "@module": "pymatgen.core.structure",
    "@class": "Structure",
    "charge": 0,
    "lattice": {
      "matrix": [
        [3.382031, -5.85785, 0.0],
        [3.382031, 5.85785, 0.0],
        [0.0, 0.0, 6.024258]
      ],
      "pbc": [true, true, true],
      "a": 6.764062411558679,
      "b": 6.764062411558679,
      "c": 6.024258,
      "alpha": 90.0,
      "beta": 90.0,
      "gamma": 120.00000402546593,
      "volume": 238.69833487231216
    },
    "properties": {},
    "sites": [
      {
        "species": [{ "element": "Sr", "occu": 1 }],
        "abc": [0.333333, 0.666667, 0.75],
        "properties": { "magmom": 0.0 },
        "label": "Sr",
        "xyz": [3.3820309999999996, 1.9526205719, 4.5181935]
      },
      {
        "species": [{ "element": "Sr", "occu": 1 }],
        "abc": [0.666667, 0.333333, 0.25],
        "properties": { "magmom": 0.0 },
        "label": "Sr",
        "xyz": [3.3820309999999996, -1.9526205719, 1.5060645]
      },
      {
        "species": [{ "element": "Br", "occu": 1 }],
        "abc": [0.172697, 0.345395, 0.25],
        "properties": { "magmom": -0.09 },
        "label": "Br",
        "xyz": [1.752203204852, 1.0116389793, 1.5060645]
      },
      {
        "species": [{ "element": "Br", "occu": 1 }],
        "abc": [0.654605, 0.827303, 0.25],
        "properties": { "magmom": -0.026000000000000002 },
        "label": "Br",
        "xyz": [5.011858795148, 1.0116389792999998, 1.5060645]
      },
      {
        "species": [{ "element": "Br", "occu": 1 }],
        "abc": [0.172697, 0.827303, 0.25],
        "properties": { "magmom": -0.1 },
        "label": "Br",
        "xyz": [3.3820310000000005, 3.8345837571, 1.5060645]
      },
      {
        "species": [{ "element": "Br", "occu": 1 }],
        "abc": [0.827303, 0.654605, 0.75],
        "properties": { "magmom": -0.09 },
        "label": "Br",
        "xyz": [5.011858795148, -1.0116389792999998, 4.5181935]
      },
      {
        "species": [{ "element": "Br", "occu": 1 }],
        "abc": [0.345395, 0.172697, 0.75],
        "properties": { "magmom": -0.026000000000000002 },
        "label": "Br",
        "xyz": [1.752203204852, -1.0116389793, 4.5181935]
      },
      {
        "species": [{ "element": "Br", "occu": 1 }],
        "abc": [0.827303, 0.172697, 0.75],
        "properties": { "magmom": -0.1 },
        "label": "Br",
        "xyz": [3.3820310000000005, -3.8345837571, 4.5181935]
      }
    ]
  },
  "task_ids": null,
  "uncorrected_energy_per_atom": null,
  "energy_per_atom": -3.34097216875,
  "formation_energy_per_atom": -1.6901552450000001,
  "energy_above_hull": 0.18886220962500003,
  "is_stable": false,
  "equilibrium_reaction_energy_per_atom": null,
  "decomposes_to": null,
  "xas": null,
  "grain_boundaries": null,
  "band_gap": 0.0,
  "cbm": null,
  "vbm": null,
  "efermi": 1.55869342,
  "is_gap_direct": null,
  "is_metal": null,
  "es_source_calc_id": null,
  "bandstructure": null,
  "dos": null,
  "dos_energy_up": null,
  "dos_energy_down": null,
  "is_magnetic": null,
  "ordering": null,
  "total_magnetization": 0.429804099999999,
  "total_magnetization_normalized_vol": null,
  "total_magnetization_normalized_formula_units": null,
  "num_magnetic_sites": null,
  "num_unique_magnetic_sites": null,
  "types_of_magnetic_species": null,
  "bulk_modulus": null,
  "shear_modulus": null,
  "universal_anisotropy": null,
  "homogeneous_poisson": null,
  "e_total": null,
  "e_ionic": null,
  "e_electronic": null,
  "n": null,
  "e_ij_max": null,
  "weighted_surface_energy_EV_PER_ANG2": null,
  "weighted_surface_energy": null,
  "weighted_work_function": null,
  "surface_anisotropy": null,
  "shape_factor": null,
  "has_reconstructed": null,
  "possible_species": null,
  "has_props": null,
  "theoretical": null,
  "database_IDs": null,
  "fields_not_requested": [
    "builder_meta",
    "nsites",
    "elements",
    "nelements",
    "composition",
    "composition_reduced",
    "chemsys",
    "symmetry",
    "property_name",
    "deprecated",
    "deprecation_reasons",
    "last_updated",
    "origins",
    "warnings",
    "task_ids",
    "uncorrected_energy_per_atom",
    "equilibrium_reaction_energy_per_atom",
    "decomposes_to",
    "xas",
    "grain_boundaries",
    "cbm",
    "vbm",
    "is_gap_direct",
    "is_metal",
    "es_source_calc_id",
    "bandstructure",
    "dos",
    "dos_energy_up",
    "dos_energy_down",
    "is_magnetic",
    "ordering",
    "total_magnetization_normalized_vol",
    "total_magnetization_normalized_formula_units",
    "num_magnetic_sites",
    "num_unique_magnetic_sites",
    "types_of_magnetic_species",
    "bulk_modulus",
    "shear_modulus",
    "universal_anisotropy",
    "homogeneous_poisson",
    "e_total",
    "e_ionic",
    "e_electronic",
    "n",
    "e_ij_max",
    "weighted_surface_energy_EV_PER_ANG2",
    "weighted_surface_energy",
    "weighted_work_function",
    "surface_anisotropy",
    "shape_factor",
    "has_reconstructed",
    "possible_species",
    "has_props",
    "theoretical",
    "database_IDs"
  ]
}
