{"builder_meta": null, "nsites": null, "elements": null, "nelements": null, "composition": null, "composition_reduced": null, "formula_pretty": "SrC2", "formula_anonymous": "AB2", "chemsys": null, "volume": 115.96070070393138, "density": 3.197374714442928, "density_atomic": 19.32678345065523, "symmetry": null, "property_name": null, "material_id": "mp-10497", "deprecated": null, "deprecation_reasons": null, "last_updated": null, "origins": null, "warnings": null, "structure": {"@module": "pymatgen.core.structure", "@class": "Structure", "charge": 0, "lattice": {"matrix": [[4.02767313, 0.01437459, 1.06880117], [1.5764020300000001, 3.70638812, 1.06880117], [0.02331287, 0.01547942, 7.78863927]], "pbc": [true, true, true], "a": 4.16709652059501, "b": 4.167096374846474, "c": 7.7886895419279165, "alpha": 74.96647536228191, "beta": 74.96648332827748, "gamma": 64.2469322365849, "volume": 115.96070070393138}, "properties": {}, "sites": [{"species": [{"element": "Sr", "occu": 1}], "abc": [0.82116904, 0.17883096, 0.25], "properties": {"magmom": -0.0}, "label": "Sr", "xyz": [3.5951381834667444, 0.678490768902889, 3.0159609874999997]}, {"species": [{"element": "Sr", "occu": 1}], "abc": [0.17883096, 0.82116904, 0.75], "properties": {"magmom": -0.0}, "label": "Sr", "xyz": [2.032249846533256, 3.0577513610971114, 6.9102806225]}, {"species": [{"element": "C", "occu": 1}], "abc": [0.1283946, 0.42226771, 0.44239133], "properties": {"magmom": 0.0}, "label": "C", "xyz": [1.1931085672699664, 1.5737816047382478, 4.034175006748432]}, {"species": [{"element": "C", "occu": 1}], "abc": [0.57773229, 0.8716054, 0.05760867], "properties": {"magmom": 0.0}, "label": "C", "xyz": [3.7022603661199134, 3.2397043134849306, 1.997746968251568]}, {"species": [{"element": "C", "occu": 1}], "abc": [0.42226771, 0.1283946, 0.94239133], "properties": {"magmom": 0.0}, "label": "C", "xyz": [1.9251276638800874, 0.49653781651506956, 7.928494641748431]}, {"species": [{"element": "C", "occu": 1}], "abc": [0.8716054, 0.57773229, 0.55760867], "properties": {"magmom": 0.0}, "label": "C", "xyz": [4.434279462730033, 2.1624605252617526, 5.8920666032515685]}]}, "task_ids": null, "uncorrected_energy_per_atom": null, "energy_per_atom": -6.695342109999999, "formation_energy_per_atom": 0.021244248333334003, "energy_above_hull": 0.053530037777778004, "is_stable": false, "equilibrium_reaction_energy_per_atom": null, "decomposes_to": null, "xas": null, "grain_boundaries": null, "band_gap": 2.2919, "cbm": null, "vbm": null, "efermi": 0.30261601, "is_gap_direct": null, "is_metal": null, "es_source_calc_id": null, "bandstructure": null, "dos": null, "dos_energy_up": null, "dos_energy_down": null, "is_magnetic": null, "ordering": null, "total_magnetization": 0.0, "total_magnetization_normalized_vol": null, "total_magnetization_normalized_formula_units": null, "num_magnetic_sites": null, "num_unique_magnetic_sites": null, "types_of_magnetic_species": null, "bulk_modulus": null, "shear_modulus": null, "universal_anisotropy": null, "homogeneous_poisson": null, "e_total": null, "e_ionic": null, "e_electronic": null, "n": null, "e_ij_max": null, "weighted_surface_energy_EV_PER_ANG2": null, "weighted_surface_energy": null, "weighted_work_function": null, "surface_anisotropy": null, "shape_factor": null, "has_reconstructed": null, "possible_species": null, "has_props": null, "theoretical": null, "database_IDs": null, "fields_not_requested": ["builder_meta", "nsites", "elements", "nelements", "composition", "composition_reduced", "chemsys", "symmetry", "property_name", "deprecated", "deprecation_reasons", "last_updated", "origins", "warnings", "task_ids", "uncorrected_energy_per_atom", "equilibrium_reaction_energy_per_atom", "decomposes_to", "xas", "grain_boundaries", "cbm", "vbm", "is_gap_direct", "is_metal", "es_source_calc_id", "bandstructure", "dos", "dos_energy_up", "dos_energy_down", "is_magnetic", "ordering", "total_magnetization_normalized_vol", "total_magnetization_normalized_formula_units", "num_magnetic_sites", "num_unique_magnetic_sites", "types_of_magnetic_species", "bulk_modulus", "shear_modulus", "universal_anisotropy", "homogeneous_poisson", "e_total", "e_ionic", "e_electronic", "n", "e_ij_max", "weighted_surface_energy_EV_PER_ANG2", "weighted_surface_energy", "weighted_work_function", "surface_anisotropy", "shape_factor", "has_reconstructed", "possible_species", "has_props", "theoretical", "database_IDs"]}