{
  "builder_meta": null,
  "nsites": null,
  "elements": null,
  "nelements": null,
  "composition": null,
  "composition_reduced": null,
  "formula_pretty": "SrCd2",
  "formula_anonymous": "AB2",
  "chemsys": null,
  "volume": 174.14698493999006,
  "density": 5.958439616114169,
  "density_atomic": 29.024497489998343,
  "symmetry": null,
  "property_name": null,
  "material_id": "mp-677",
  "deprecated": null,
  "deprecation_reasons": null,
  "last_updated": null,
  "origins": null,
  "warnings": null,
  "structure": {
    "@module": "pymatgen.core.structure",
    "@class": "Structure",
    "charge": 0,
    "lattice": {
      "matrix": [
        [4.66469862, 0.0, 2.00928511],
        [2.20545953, 5.8508134, 1.2992257600000001],
        [0.014276599999999001, -0.0126219, 6.38621068]
      ],
      "pbc": [true, true, true],
      "a": 5.0790392663079125,
      "b": 6.386239641254857,
      "c": 6.3862391110115215,
      "alpha": 78.32255255795789,
      "beta": 66.56835121962078,
      "gamma": 66.56834378020625,
      "volume": 174.14698493999006
    },
    "properties": {},
    "sites": [
      {
        "species": [{ "element": "Sr", "occu": 1 }],
        "abc": [0.45310323, 0.29689677000000003, 0.79689677],
        "properties": { "magmom": 0.0 },
        "label": "Sr",
        "xyz": [2.779760798947842, 1.727029248991455, 6.385300168408204]
      },
      {
        "species": [{ "element": "Sr", "occu": 1 }],
        "abc": [0.54689677, 0.70310323, 0.20310323],
        "properties": { "magmom": 0.0 },
        "label": "Sr",
        "xyz": [4.104673951052158, 4.111162251008544, 3.309421381591796]
      },
      {
        "species": [{ "element": "Cd", "occu": 1 }],
        "abc": [0.8356419700000001, 0.10804138, 0.22067169],
        "properties": { "magmom": -0.0 },
        "label": "Cd",
        "xyz": [4.139449276877887, 0.629344657854481, 3.228669015105665]
      },
      {
        "species": [{ "element": "Cd", "occu": 1 }],
        "abc": [0.16435803000000002, 0.89195862, 0.77932731],
        "properties": { "magmom": -0.0 },
        "label": "Cd",
        "xyz": [2.744985458845513, 5.208846854767419, 6.466046148683656]
      },
      {
        "species": [{ "element": "Cd", "occu": 1 }],
        "abc": [0.16435803000000002, 0.27932731, 0.39195862000000004],
        "properties": { "magmom": -0.0 },
        "label": "Cd",
        "xyz": [1.3883215899899746, 1.6293447058281758, 3.1962817041735008]
      },
      {
        "species": [{ "element": "Cd", "occu": 1 }],
        "abc": [0.8356419700000001, 0.72067269, 0.60804138],
        "properties": { "magmom": -0.0 },
        "label": "Cd",
        "xyz": [5.496113160010025, 4.208846794171825, 6.4984398458265]
      }
    ]
  },
  "task_ids": null,
  "uncorrected_energy_per_atom": null,
  "energy_per_atom": -1.524479495000001,
  "formation_energy_per_atom": -0.32033000500000003,
  "energy_above_hull": 0.0,
  "is_stable": true,
  "equilibrium_reaction_energy_per_atom": null,
  "decomposes_to": null,
  "xas": null,
  "grain_boundaries": null,
  "band_gap": 0.0,
  "cbm": null,
  "vbm": null,
  "efermi": 2.23229174,
  "is_gap_direct": null,
  "is_metal": null,
  "es_source_calc_id": null,
  "bandstructure": null,
  "dos": null,
  "dos_energy_up": null,
  "dos_energy_down": null,
  "is_magnetic": null,
  "ordering": null,
  "total_magnetization": 0.0,
  "total_magnetization_normalized_vol": null,
  "total_magnetization_normalized_formula_units": null,
  "num_magnetic_sites": null,
  "num_unique_magnetic_sites": null,
  "types_of_magnetic_species": null,
  "bulk_modulus": null,
  "shear_modulus": null,
  "universal_anisotropy": null,
  "homogeneous_poisson": null,
  "e_total": null,
  "e_ionic": null,
  "e_electronic": null,
  "n": null,
  "e_ij_max": null,
  "weighted_surface_energy_EV_PER_ANG2": null,
  "weighted_surface_energy": null,
  "weighted_work_function": null,
  "surface_anisotropy": null,
  "shape_factor": null,
  "has_reconstructed": null,
  "possible_species": null,
  "has_props": null,
  "theoretical": null,
  "database_IDs": null,
  "fields_not_requested": [
    "builder_meta",
    "nsites",
    "elements",
    "nelements",
    "composition",
    "composition_reduced",
    "chemsys",
    "symmetry",
    "property_name",
    "deprecated",
    "deprecation_reasons",
    "last_updated",
    "origins",
    "warnings",
    "task_ids",
    "uncorrected_energy_per_atom",
    "equilibrium_reaction_energy_per_atom",
    "decomposes_to",
    "xas",
    "grain_boundaries",
    "cbm",
    "vbm",
    "is_gap_direct",
    "is_metal",
    "es_source_calc_id",
    "bandstructure",
    "dos",
    "dos_energy_up",
    "dos_energy_down",
    "is_magnetic",
    "ordering",
    "total_magnetization_normalized_vol",
    "total_magnetization_normalized_formula_units",
    "num_magnetic_sites",
    "num_unique_magnetic_sites",
    "types_of_magnetic_species",
    "bulk_modulus",
    "shear_modulus",
    "universal_anisotropy",
    "homogeneous_poisson",
    "e_total",
    "e_ionic",
    "e_electronic",
    "n",
    "e_ij_max",
    "weighted_surface_energy_EV_PER_ANG2",
    "weighted_surface_energy",
    "weighted_work_function",
    "surface_anisotropy",
    "shape_factor",
    "has_reconstructed",
    "possible_species",
    "has_props",
    "theoretical",
    "database_IDs"
  ]
}
