{"builder_meta": null, "nsites": null, "elements": null, "nelements": null, "composition": null, "composition_reduced": null, "formula_pretty": "SrCd6", "formula_anonymous": "AB6", "chemsys": null, "volume": 2125.874137350457, "density": 7.143265273565781, "density_atomic": 25.3080254446483, "symmetry": null, "property_name": null, "material_id": "mp-1219283", "deprecated": null, "deprecation_reasons": null, "last_updated": null, "origins": null, "warnings": null, "structure": {"@module": "pymatgen.core.structure", "@class": "Structure", "charge": 0, "lattice": {"matrix": [[-8.059331, 8.093859, 8.147473], [8.059331, -8.093859, 8.147473], [8.059331, 8.093859, -8.147473]], "pbc": [true, true, true], "a": 14.030134923270374, "b": 14.030134923270374, "c": 14.030134923270374, "alpha": 109.8805450246166, "beta": 109.53565981440676, "gamma": 108.99867390180651, "volume": 2125.874137350457}, "properties": {}, "sites": [{"species": [{"element": "Sr", "occu": 1}], "abc": [0.812727, 0.517299, 0.704572], "properties": {"magmom": -0.0}, "label": "Sr", "xyz": [3.297426922663999, 8.093859000000002, 5.095869577742]}, {"species": [{"element": "Sr", "occu": 1}], "abc": [0.187273, 0.482701, 0.295427999999999], "properties": {"magmom": -0.0}, "label": "Sr", "xyz": [4.761904077335992, -7.549516567451064e-15, 3.051603422258008]}, {"species": [{"element": "Sr", "occu": 1}], "abc": [0.187273, 0.891845, 0.704572], "properties": {"magmom": 0.0}, "label": "Sr", "xyz": [11.356757922664, 0.0, 3.051603422258]}, {"species": [{"element": "Sr", "occu": 1}], "abc": [0.812727, 0.108155, 0.295427999999999], "properties": {"magmom": 0.0}, "label": "Sr", "xyz": [-3.297426922664008, 8.093858999999993, 5.0958695777420076]}, {"species": [{"element": "Sr", "occu": 1}], "abc": [0.112897, 0.301516, 0.811381999999999], "properties": {"magmom": -0.0}, "label": "Sr", "xyz": [8.059339059330993, 5.040555912416992, -3.2342942093369924]}, {"species": [{"element": "Sr", "occu": 1}], "abc": [0.887103, 0.698484, 0.188617999999999], "properties": {"magmom": -0.0}, "label": "Sr", "xyz": [-8.059331007670423e-06, 3.053303087582992, 11.381767209337006]}, {"species": [{"element": "Sr", "occu": 1}], "abc": [0.490133999999999, 0.301516, 0.188617999999999], "properties": {"magmom": -0.0}, "label": "Sr", "xyz": [2.220446049250313e-16, 3.0532949937239837, 4.9131869381360005]}, {"species": [{"element": "Sr", "occu": 1}], "abc": [0.509865999999999, 0.698484, 0.811381999999999], "properties": {"magmom": -0.0}, "label": "Sr", "xyz": [8.059331, 5.040564006275985, 3.2342860618639993]}, {"species": [{"element": "Sr", "occu": 1}], "abc": [0.299551, 0.186498, 0.48604899999999907], "properties": {"magmom": -0.0}, "label": "Sr", "xyz": [3.0060982256759923, 4.849047114617992, 8.43769498715119e-15]}, {"species": [{"element": "Sr", "occu": 1}], "abc": [0.700449, 0.813502, 0.513950999999999], "properties": {"magmom": -0.0}, "label": "Sr", "xyz": [5.053232774323993, 3.244811885381992, 8.147473000000007]}, {"species": [{"element": "Sr", "occu": 1}], "abc": [0.299551, 0.813502, 0.113053], "properties": {"magmom": -0.0}, "label": "Sr", "xyz": [5.053232774324, -3.244811885381999, 8.147473]}, {"species": [{"element": "Sr", "occu": 1}], "abc": [0.700449, 0.186498, 0.886946999999999], "properties": {"magmom": -0.0}, "label": "Sr", "xyz": [3.006098225675993, 11.33867088538199, 7.993605777301127e-15]}, {"species": [{"element": "Cd", "occu": 1}], "abc": [4.2000000000000004e-05, 0.677554, 0.002345], "properties": {"magmom": 0.0}, "label": "Cd", "xyz": [5.479192595667, -5.464706499453, 5.501589290723]}, {"species": [{"element": "Cd", "occu": 1}], "abc": [0.324791, 0.322446, 0.322488], "properties": {"magmom": 0.0}, "label": "Cd", "xyz": [2.5801384043330002, 2.629152500547, 2.645883709277]}, {"species": [{"element": "Cd", "occu": 1}], "abc": [0.9999579999999991, 0.002303, 0.677512], "properties": {"magmom": 0.0}, "label": "Cd", "xyz": [-2.5801384043329936, 13.558565499452992, 2.645883709276993]}, {"species": [{"element": "Cd", "occu": 1}], "abc": [0.675209, 0.997697, 0.997655], "properties": {"magmom": 0.0}, "label": "Cd", "xyz": [10.639469404333, 5.4647064994529995, 5.501589290722999]}, {"species": [{"element": "Cd", "occu": 1}], "abc": [0.9999579999999991, 0.322446, 0.997655], "properties": {"magmom": 0.0}, "label": "Cd", "xyz": [2.580138404333006, 13.558565499452992, 2.6458837092769922]}, {"species": [{"element": "Cd", "occu": 1}], "abc": [0.675209, 0.677554, 0.677512], "properties": {"magmom": 0.0}, "label": "Cd", "xyz": [5.4791925956670005, 5.4647064994529995, 5.5015892907229995]}, {"species": [{"element": "Cd", "occu": 1}], "abc": [4.2000000000000004e-05, 0.997697, 0.322488], "properties": {"magmom": 0.0}, "label": "Cd", "xyz": [10.639469404333001, -5.464706499453, 5.501589290723]}, {"species": [{"element": "Cd", "occu": 1}], "abc": [0.324791, 0.002303, 0.002345], "properties": {"magmom": 0.0}, "label": "Cd", "xyz": [-2.5801384043330002, 2.629152500547, 2.645883709277]}, {"species": [{"element": "Cd", "occu": 1}], "abc": [0.738085, 0.641794, 0.903709], "properties": {"magmom": 0.0}, "label": "Cd", "xyz": [6.507248917358, 8.093859, 3.8795822184100004]}, {"species": [{"element": "Cd", "occu": 1}], "abc": [0.261915, 0.358205999999999, 0.096291], "properties": {"magmom": 0.0}, "label": "Cd", "xyz": [1.5520820826419923, 8.326672684688674e-15, 4.267890781589992]}, {"species": [{"element": "Cd", "occu": 1}], "abc": [0.261915, 0.165624, 0.903709], "properties": {"magmom": 0.0}, "label": "Cd", "xyz": [6.507248917358, 8.093859, -3.8795822184099995]}, {"species": [{"element": "Cd", "occu": 1}], "abc": [0.738085, 0.834376, 0.096291], "properties": {"magmom": 0.0}, "label": "Cd", "xyz": [1.5520820826420003, 3.3306690738754696e-16, 12.02705521841]}, {"species": [{"element": "Cd", "occu": 1}], "abc": [0.854649, 0.093764, 0.760884999999999], "properties": {"magmom": -0.0}, "label": "Cd", "xyz": [-7.993605777301127e-15, 12.316991810429993, 1.5278793167440075]}, {"species": [{"element": "Cd", "occu": 1}], "abc": [0.145350999999999, 0.906235999999999, 0.239115], "properties": {"magmom": -0.0}, "label": "Cd", "xyz": [8.059331, -4.22313281043, 6.619593683255983]}, {"species": [{"element": "Cd", "occu": 1}], "abc": [0.332879, 0.093764, 0.239115], "properties": {"magmom": -0.0}, "label": "Cd", "xyz": [0.0, 3.87072618957, 1.527879316744]}, {"species": [{"element": "Cd", "occu": 1}], "abc": [0.667121, 0.906235999999999, 0.760884999999999], "properties": {"magmom": -0.0}, "label": "Cd", "xyz": [8.059330999999986, 4.223132810429999, 6.619593683255999]}, {"species": [{"element": "Cd", "occu": 1}], "abc": [0.09614, 0.24446299999999901, 0.340603], "properties": {"magmom": -0.0}, "label": "Cd", "xyz": [3.940416468505992, 1.556287208520008, -7.993605777301127e-15]}, {"species": [{"element": "Cd", "occu": 1}], "abc": [0.9038600000000001, 0.755537, 0.659397], "properties": {"magmom": -0.0}, "label": "Cd", "xyz": [4.118914531494, 6.5375717914800004, 8.147473000000002]}, {"species": [{"element": "Cd", "occu": 1}], "abc": [0.09614, 0.755537, 0.851676999999999], "properties": {"magmom": -0.0}, "label": "Cd", "xyz": [12.178245531493992, 1.5562872085199917, 8.881784197001252e-15]}, {"species": [{"element": "Cd", "occu": 1}], "abc": [0.9038600000000001, 0.24446299999999901, 0.148322999999999], "properties": {"magmom": -0.0}, "label": "Cd", "xyz": [-4.118914531494016, 6.537571791480001, 8.147473000000002]}, {"species": [{"element": "Cd", "occu": 1}], "abc": [0.595972, 0.251254, 0.655281999999999], "properties": {"magmom": 0.0}, "label": "Cd", "xyz": [2.502938072683992, 8.093858999999991, 1.563858557512007]}, {"species": [{"element": "Cd", "occu": 1}], "abc": [0.404028, 0.748745999999999, 0.344717999999999], "properties": {"magmom": 0.0}, "label": "Cd", "xyz": [5.556392927315985, -4.440892098500626e-16, 6.583614442488]}, {"species": [{"element": "Cd", "occu": 1}], "abc": [0.404028, 0.05931, 0.655281999999999], "properties": {"magmom": 0.0}, "label": "Cd", "xyz": [2.5029380726839916, 8.093858999999991, -1.5638585575119919]}, {"species": [{"element": "Cd", "occu": 1}], "abc": [0.595972, 0.94069, 0.344717999999999], "properties": {"magmom": 0.0}, "label": "Cd", "xyz": [5.556392927315993, -7.993605777301127e-15, 9.711331557512008]}, {"species": [{"element": "Cd", "occu": 1}], "abc": [0.942484999999999, 0.346449, 0.596036], "properties": {"magmom": -0.0}, "label": "Cd", "xyz": [7.993605777301127e-15, 9.648462685847992, 5.645367746753991]}, {"species": [{"element": "Cd", "occu": 1}], "abc": [0.057515, 0.653551, 0.403964], "properties": {"magmom": -0.0}, "label": "Cd", "xyz": [8.059331, -1.5546036858480003, 2.502105253246]}, {"species": [{"element": "Cd", "occu": 1}], "abc": [0.750413, 0.346449, 0.403964], "properties": {"magmom": -0.0}, "label": "Cd", "xyz": [0.0, 6.539255314152, 5.645367746753999]}, {"species": [{"element": "Cd", "occu": 1}], "abc": [0.24958699999999903, 0.653551, 0.596036], "properties": {"magmom": -0.0}, "label": "Cd", "xyz": [8.059331000000007, 1.5546036858479924, 2.5021052532459924]}, {"species": [{"element": "Cd", "occu": 1}], "abc": [0.344016999999999, 0.403053999999999, 0.747070999999999], "properties": {"magmom": 0.0}, "label": "Cd", "xyz": [6.496691193747992, 5.568850183205992, -7.993605777301127e-15]}, {"species": [{"element": "Cd", "occu": 1}], "abc": [0.655983, 0.596946, 0.252929], "properties": {"magmom": 0.0}, "label": "Cd", "xyz": [1.5626398062519997, 2.5250088167939997, 8.147473]}, {"species": [{"element": "Cd", "occu": 1}], "abc": [0.344016999999999, 0.596946, 0.940962], "properties": {"magmom": 0.0}, "label": "Cd", "xyz": [9.621962746921007, 5.568842089346992, 8.147472992270366e-06]}, {"species": [{"element": "Cd", "occu": 1}], "abc": [0.655983, 0.403053999999999, 0.059038], "properties": {"magmom": 0.0}, "label": "Cd", "xyz": [-1.562631746921008, 2.5250169106530076, 8.147464852526992]}, {"species": [{"element": "Cd", "occu": 1}], "abc": [0.587645, 0.587645, 0.0], "properties": {"magmom": 0.0}, "label": "Cd", "xyz": [0.0, 0.0, 9.575643542169999]}, {"species": [{"element": "Cd", "occu": 1}], "abc": [0.41235499999999903, 0.41235499999999903, 0.0], "properties": {"magmom": 0.0}, "label": "Cd", "xyz": [0.0, 0.0, 6.719302457829984]}, {"species": [{"element": "Cd", "occu": 1}], "abc": [0.592989, 0.0, 0.592989], "properties": {"magmom": -0.0}, "label": "Cd", "xyz": [0.0, 9.599138709102, 0.0]}, {"species": [{"element": "Cd", "occu": 1}], "abc": [0.407010999999999, 0.0, 0.407010999999999], "properties": {"magmom": -0.0}, "label": "Cd", "xyz": [0.0, 6.588579290897984, 0.0]}, {"species": [{"element": "Cd", "occu": 1}], "abc": [0.0, 0.406414999999999, 0.406414999999999], "properties": {"magmom": -0.0}, "label": "Cd", "xyz": [6.550866016729985, 0.0, 0.0]}, {"species": [{"element": "Cd", "occu": 1}], "abc": [0.0, 0.593584999999999, 0.593584999999999], "properties": {"magmom": 0.0}, "label": "Cd", "xyz": [9.567795983269985, 0.0, 0.0]}, {"species": [{"element": "Cd", "occu": 1}], "abc": [0.777264, 0.455016, 0.919443999999999], "properties": {"magmom": -0.0}, "label": "Cd", "xyz": [4.813000235875993, 10.050079969427992, 2.548822863428007]}, {"species": [{"element": "Cd", "occu": 1}], "abc": [0.46442799999999906, 0.544984, 0.322248], "properties": {"magmom": -0.0}, "label": "Cd", "xyz": [3.246330764124008, 1.9562209694279917, 5.598650136571992]}, {"species": [{"element": "Cd", "occu": 1}], "abc": [0.222736, 0.14218, 0.677752], "properties": {"magmom": -0.0}, "label": "Cd", "xyz": [4.813000235876, 6.137638030572001, -2.5488228634279997]}, {"species": [{"element": "Cd", "occu": 1}], "abc": [0.535571999999999, 0.85782, 0.080556], "properties": {"magmom": -0.0}, "label": "Cd", "xyz": [3.246330764124008, -1.9562209694280073, 10.696295863427993]}, {"species": [{"element": "Cd", "occu": 1}], "abc": [0.8588100000000001, 0.08135099999999901, 0.540407], "properties": {"magmom": -0.0}, "label": "Cd", "xyz": [-1.9104805322120084, 10.66662158489401, 3.256984921641992]}, {"species": [{"element": "Cd", "occu": 1}], "abc": [0.14119, 0.681597, 0.222541], "properties": {"magmom": -0.0}, "label": "Cd", "xyz": [6.148850467788, -2.572762584894, 4.890488078357999]}, {"species": [{"element": "Cd", "occu": 1}], "abc": [0.540944, 0.318403, 0.459593], "properties": {"magmom": -0.0}, "label": "Cd", "xyz": [1.910480532212, 5.521096415105999, 3.2569849216419993]}, {"species": [{"element": "Cd", "occu": 1}], "abc": [0.459055999999999, 0.918648999999999, 0.777459], "properties": {"magmom": -0.0}, "label": "Cd", "xyz": [9.969811532212, 2.572762584894, 4.890488078357984]}, {"species": [{"element": "Cd", "occu": 1}], "abc": [0.316735, 0.458831999999999, 0.542038], "properties": {"magmom": -0.0}, "label": "Cd", "xyz": [5.513670413684992, 3.237066062319008, 1.9026712222169921]}, {"species": [{"element": "Cd", "occu": 1}], "abc": [0.916794, 0.774697, 0.457962], "properties": {"magmom": -0.0}, "label": "Cd", "xyz": [2.545660586315, 4.856792937681, 10.050144222217]}, {"species": [{"element": "Cd", "occu": 1}], "abc": [0.083206, 0.541168, 0.857903], "properties": {"magmom": -0.0}, "label": "Cd", "xyz": [10.604991586315, 3.237066062319, -1.9026712222170001]}, {"species": [{"element": "Cd", "occu": 1}], "abc": [0.683265, 0.225303, 0.142097], "properties": {"magmom": -0.0}, "label": "Cd", "xyz": [-2.545660586315, 4.856792937681, 6.2448017777830005]}, {"species": [{"element": "Cd", "occu": 1}], "abc": [0.222736, 0.544984, 0.080556], "properties": {"magmom": -0.0}, "label": "Cd", "xyz": [3.246330764124001, -1.9562209694280002, 5.598650136572001]}, {"species": [{"element": "Cd", "occu": 1}], "abc": [0.535571999999999, 0.455016, 0.677752], "properties": {"magmom": -0.0}, "label": "Cd", "xyz": [4.813000235876007, 6.137638030571994, 2.5488228634279917]}, {"species": [{"element": "Cd", "occu": 1}], "abc": [0.777264, 0.85782, 0.322248], "properties": {"magmom": -0.0}, "label": "Cd", "xyz": [3.246330764124001, 1.9562209694279997, 10.696295863428]}, {"species": [{"element": "Cd", "occu": 1}], "abc": [0.46442799999999906, 0.14218, 0.919443999999999], "properties": {"magmom": -0.0}, "label": "Cd", "xyz": [4.813000235875999, 10.050079969427983, -2.5488228634279997]}, {"species": [{"element": "Cd", "occu": 1}], "abc": [0.14119, 0.918648999999999, 0.459593], "properties": {"magmom": -0.0}, "label": "Cd", "xyz": [9.969811532211992, -2.572762584893992, 4.890488078357992]}, {"species": [{"element": "Cd", "occu": 1}], "abc": [0.8588100000000001, 0.318403, 0.777459], "properties": {"magmom": -0.0}, "label": "Cd", "xyz": [1.9104805322119995, 10.666621584894, 3.256984921642]}, {"species": [{"element": "Cd", "occu": 1}], "abc": [0.459055999999999, 0.681597, 0.540407], "properties": {"magmom": -0.0}, "label": "Cd", "xyz": [6.148850467788009, 2.572762584893992, 4.890488078357992]}, {"species": [{"element": "Cd", "occu": 1}], "abc": [0.540944, 0.08135099999999901, 0.222541], "properties": {"magmom": -0.0}, "label": "Cd", "xyz": [-1.910480532212008, 5.521096415106008, 3.2569849216419917]}, {"species": [{"element": "Cd", "occu": 1}], "abc": [0.683265, 0.541168, 0.457962], "properties": {"magmom": -0.0}, "label": "Cd", "xyz": [2.545660586315, 4.856792937681, 6.2448017777830005]}, {"species": [{"element": "Cd", "occu": 1}], "abc": [0.083206, 0.225303, 0.542038], "properties": {"magmom": -0.0}, "label": "Cd", "xyz": [5.513670413685, 3.237066062319, -1.9026712222169997]}, {"species": [{"element": "Cd", "occu": 1}], "abc": [0.916794, 0.458831999999999, 0.142097], "properties": {"magmom": -0.0}, "label": "Cd", "xyz": [-2.545660586315008, 4.856792937681008, 10.050144222216991]}, {"species": [{"element": "Cd", "occu": 1}], "abc": [0.316735, 0.774697, 0.857903], "properties": {"magmom": -0.0}, "label": "Cd", "xyz": [10.604991586315, 3.237066062319, 1.9026712222170001]}, {"species": [{"element": "Cd", "occu": 1}], "abc": [0.5, 0.313139, 0.813139], "properties": {"magmom": 0.0}, "label": "Cd", "xyz": [5.047381700018, 8.093859, 0.0]}, {"species": [{"element": "Cd", "occu": 1}], "abc": [0.5, 0.6868609999999991, 0.186861], "properties": {"magmom": 0.0}, "label": "Cd", "xyz": [3.0119492999819926, 7.993605777301127e-15, 8.14747299999999]}, {"species": [{"element": "Cd", "occu": 1}], "abc": [0.691713, 0.191713, 0.5], "properties": {"magmom": -0.0}, "label": "Cd", "xyz": [0.0, 8.093859, 3.1239529824980004]}, {"species": [{"element": "Cd", "occu": 1}], "abc": [0.308287, 0.808287, 0.5], "properties": {"magmom": -0.0}, "label": "Cd", "xyz": [8.059331, -8.881784197001252e-16, 5.023520017502]}, {"species": [{"element": "Cd", "occu": 1}], "abc": [0.187311999999999, 0.5, 0.687311999999999], "properties": {"magmom": 0.0}, "label": "Cd", "xyz": [8.059331, 3.0321538340159844, 0.0]}, {"species": [{"element": "Cd", "occu": 1}], "abc": [0.812688, 0.5, 0.312687999999999], "properties": {"magmom": 0.0}, "label": "Cd", "xyz": [-7.549516567451064e-15, 5.061705165983993, 8.147473000000007]}, {"species": [{"element": "Cd", "occu": 1}], "abc": [0.913013, 0.821888, 0.908875], "properties": {"magmom": 0.0}, "label": "Cd", "xyz": [6.59051792525, 8.093859, 6.730024532297999]}, {"species": [{"element": "Cd", "occu": 1}], "abc": [0.086987, 0.178112, 0.091125], "properties": {"magmom": 0.0}, "label": "Cd", "xyz": [1.4688130747500001, 0.0, 1.417448467702]}, {"species": [{"element": "Cd", "occu": 1}], "abc": [0.086987, 0.995861999999999, 0.908875], "properties": {"magmom": 0.0}, "label": "Cd", "xyz": [14.649848925249993, 7.993605777301127e-15, 1.4174484677019903]}, {"species": [{"element": "Cd", "occu": 1}], "abc": [0.913013, 0.004138, 0.091125], "properties": {"magmom": 0.0}, "label": "Cd", "xyz": [-6.5905179252499995, 8.093859, 6.730024532298]}]}, "task_ids": null, "uncorrected_energy_per_atom": null, "energy_per_atom": -1.226116708452381, "formation_energy_per_atom": -0.16147538988095, "energy_above_hull": 0.0, "is_stable": true, "equilibrium_reaction_energy_per_atom": null, "decomposes_to": null, "xas": null, "grain_boundaries": null, "band_gap": 0.0, "cbm": null, "vbm": null, "efermi": 2.34605064, "is_gap_direct": null, "is_metal": null, "es_source_calc_id": null, "bandstructure": null, "dos": null, "dos_energy_up": null, "dos_energy_down": null, "is_magnetic": null, "ordering": null, "total_magnetization": 0.002943399999999, "total_magnetization_normalized_vol": null, "total_magnetization_normalized_formula_units": null, "num_magnetic_sites": null, "num_unique_magnetic_sites": null, "types_of_magnetic_species": null, "bulk_modulus": null, "shear_modulus": null, "universal_anisotropy": null, "homogeneous_poisson": null, "e_total": null, "e_ionic": null, "e_electronic": null, "n": null, "e_ij_max": null, "weighted_surface_energy_EV_PER_ANG2": null, "weighted_surface_energy": null, "weighted_work_function": null, "surface_anisotropy": null, "shape_factor": null, "has_reconstructed": null, "possible_species": null, "has_props": null, "theoretical": null, "database_IDs": null, "fields_not_requested": ["builder_meta", "nsites", "elements", "nelements", "composition", "composition_reduced", "chemsys", "symmetry", "property_name", "deprecated", "deprecation_reasons", "last_updated", "origins", "warnings", "task_ids", "uncorrected_energy_per_atom", "equilibrium_reaction_energy_per_atom", "decomposes_to", "xas", "grain_boundaries", "cbm", "vbm", "is_gap_direct", "is_metal", "es_source_calc_id", "bandstructure", "dos", "dos_energy_up", "dos_energy_down", "is_magnetic", "ordering", "total_magnetization_normalized_vol", "total_magnetization_normalized_formula_units", "num_magnetic_sites", "num_unique_magnetic_sites", "types_of_magnetic_species", "bulk_modulus", "shear_modulus", "universal_anisotropy", "homogeneous_poisson", "e_total", "e_ionic", "e_electronic", "n", "e_ij_max", "weighted_surface_energy_EV_PER_ANG2", "weighted_surface_energy", "weighted_work_function", "surface_anisotropy", "shape_factor", "has_reconstructed", "possible_species", "has_props", "theoretical", "database_IDs"]}