{
  "builder_meta": null,
  "nsites": null,
  "elements": null,
  "nelements": null,
  "composition": null,
  "composition_reduced": null,
  "formula_pretty": "SrCl3",
  "formula_anonymous": "AB3",
  "chemsys": null,
  "volume": 199.1414968051326,
  "density": 3.234983293463921,
  "density_atomic": 24.892687100641574,
  "symmetry": null,
  "property_name": null,
  "material_id": "mp-1187157",
  "deprecated": null,
  "deprecation_reasons": null,
  "last_updated": null,
  "origins": null,
  "warnings": null,
  "structure": {
    "@module": "pymatgen.core.structure",
    "@class": "Structure",
    "charge": 0,
    "lattice": {
      "matrix": [
        [3.169923, -5.490468, 0.0],
        [3.169923, 5.490468, 0.0],
        [0.0, 0.0, 5.721023]
      ],
      "pbc": [true, true, true],
      "a": 6.339846266665541,
      "b": 6.339846266665541,
      "c": 5.721023,
      "alpha": 90.0,
      "beta": 90.0,
      "gamma": 120.00000278278831,
      "volume": 199.1414968051326
    },
    "properties": {},
    "sites": [
      {
        "species": [{ "element": "Sr", "occu": 1 }],
        "abc": [0.333333, 0.666667, 0.75],
        "properties": { "magmom": -0.003 },
        "label": "Sr",
        "xyz": [3.169923, 1.830159660312, 4.29076725]
      },
      {
        "species": [{ "element": "Sr", "occu": 1 }],
        "abc": [0.666667, 0.333333, 0.25],
        "properties": { "magmom": -0.003 },
        "label": "Sr",
        "xyz": [3.169923, -1.830159660312, 1.43025575]
      },
      {
        "species": [{ "element": "Cl", "occu": 1 }],
        "abc": [0.173038, 0.346076999999999, 0.25],
        "properties": { "magmom": 0.316 },
        "label": "Cl",
        "xyz": [1.6455545781449967, 0.9500650922519946, 1.43025575]
      },
      {
        "species": [{ "element": "Cl", "occu": 1 }],
        "abc": [0.653922999999999, 0.826962, 0.25],
        "properties": { "magmom": 0.125 },
        "label": "Cl",
        "xyz": [4.694291421854997, 0.9500650922520055, 1.43025575]
      },
      {
        "species": [{ "element": "Cl", "occu": 1 }],
        "abc": [0.173038, 0.826962, 0.25],
        "properties": { "magmom": 0.378 },
        "label": "Cl",
        "xyz": [3.169923, 3.590348796432, 1.43025575]
      },
      {
        "species": [{ "element": "Cl", "occu": 1 }],
        "abc": [0.826962, 0.653922999999999, 0.75],
        "properties": { "magmom": 0.316 },
        "label": "Cl",
        "xyz": [4.694291421854997, -0.9500650922520055, 4.29076725]
      },
      {
        "species": [{ "element": "Cl", "occu": 1 }],
        "abc": [0.346076999999999, 0.173038, 0.75],
        "properties": { "magmom": 0.125 },
        "label": "Cl",
        "xyz": [1.6455545781449967, -0.9500650922519946, 4.29076725]
      },
      {
        "species": [{ "element": "Cl", "occu": 1 }],
        "abc": [0.826962, 0.173038, 0.75],
        "properties": { "magmom": 0.378 },
        "label": "Cl",
        "xyz": [3.169923, -3.590348796432, 4.29076725]
      }
    ]
  },
  "task_ids": null,
  "uncorrected_energy_per_atom": null,
  "energy_per_atom": -10.272319783125,
  "formation_energy_per_atom": -1.8715753425,
  "energy_above_hull": 0.190994541249999,
  "is_stable": false,
  "equilibrium_reaction_energy_per_atom": null,
  "decomposes_to": null,
  "xas": null,
  "grain_boundaries": null,
  "band_gap": 0.0,
  "cbm": null,
  "vbm": null,
  "efermi": 1.63537424,
  "is_gap_direct": null,
  "is_metal": null,
  "es_source_calc_id": null,
  "bandstructure": null,
  "dos": null,
  "dos_energy_up": null,
  "dos_energy_down": null,
  "is_magnetic": null,
  "ordering": null,
  "total_magnetization": 2.0100694,
  "total_magnetization_normalized_vol": null,
  "total_magnetization_normalized_formula_units": null,
  "num_magnetic_sites": null,
  "num_unique_magnetic_sites": null,
  "types_of_magnetic_species": null,
  "bulk_modulus": null,
  "shear_modulus": null,
  "universal_anisotropy": null,
  "homogeneous_poisson": null,
  "e_total": null,
  "e_ionic": null,
  "e_electronic": null,
  "n": null,
  "e_ij_max": null,
  "weighted_surface_energy_EV_PER_ANG2": null,
  "weighted_surface_energy": null,
  "weighted_work_function": null,
  "surface_anisotropy": null,
  "shape_factor": null,
  "has_reconstructed": null,
  "possible_species": null,
  "has_props": null,
  "theoretical": null,
  "database_IDs": null,
  "fields_not_requested": [
    "builder_meta",
    "nsites",
    "elements",
    "nelements",
    "composition",
    "composition_reduced",
    "chemsys",
    "symmetry",
    "property_name",
    "deprecated",
    "deprecation_reasons",
    "last_updated",
    "origins",
    "warnings",
    "task_ids",
    "uncorrected_energy_per_atom",
    "equilibrium_reaction_energy_per_atom",
    "decomposes_to",
    "xas",
    "grain_boundaries",
    "cbm",
    "vbm",
    "is_gap_direct",
    "is_metal",
    "es_source_calc_id",
    "bandstructure",
    "dos",
    "dos_energy_up",
    "dos_energy_down",
    "is_magnetic",
    "ordering",
    "total_magnetization_normalized_vol",
    "total_magnetization_normalized_formula_units",
    "num_magnetic_sites",
    "num_unique_magnetic_sites",
    "types_of_magnetic_species",
    "bulk_modulus",
    "shear_modulus",
    "universal_anisotropy",
    "homogeneous_poisson",
    "e_total",
    "e_ionic",
    "e_electronic",
    "n",
    "e_ij_max",
    "weighted_surface_energy_EV_PER_ANG2",
    "weighted_surface_energy",
    "weighted_work_function",
    "surface_anisotropy",
    "shape_factor",
    "has_reconstructed",
    "possible_species",
    "has_props",
    "theoretical",
    "database_IDs"
  ]
}
