{
  "builder_meta": null,
  "nsites": null,
  "elements": null,
  "nelements": null,
  "composition": null,
  "composition_reduced": null,
  "formula_pretty": "SrEu3",
  "formula_anonymous": "AB3",
  "chemsys": null,
  "volume": 384.8331242344282,
  "density": 4.690463748209525,
  "density_atomic": 48.10414052930353,
  "symmetry": null,
  "property_name": null,
  "material_id": "mp-1187290",
  "deprecated": null,
  "deprecation_reasons": null,
  "last_updated": null,
  "origins": null,
  "warnings": null,
  "structure": {
    "@module": "pymatgen.core.structure",
    "@class": "Structure",
    "charge": 0,
    "lattice": {
      "matrix": [
        [4.12508654, -7.17319716, 0.0],
        [4.1496276, 7.18736577, 0.0],
        [-0.0, -0.0, 6.47707982]
      ],
      "pbc": [true, true, true],
      "a": 8.274726367604021,
      "b": 8.299255143110702,
      "c": 6.47707982,
      "alpha": 90.0,
      "beta": 90.0,
      "gamma": 120.098107589346,
      "volume": 384.8331242344282
    },
    "properties": {},
    "sites": [
      {
        "species": [{ "element": "Sr", "occu": 1 }],
        "abc": [0.33050256, 0.66525228, 0.75],
        "properties": { "magmom": 0.042 },
        "label": "Sr",
        "xyz": [4.12390088374247, 2.4106514409217263, 4.857809865]
      },
      {
        "species": [{ "element": "Sr", "occu": 1 }],
        "abc": [0.66949744, 0.33474772, 0.25],
        "properties": { "magmom": 0.042 },
        "label": "Sr",
        "xyz": [4.15081325625753, -2.3964828309217254, 1.619269955]
      },
      {
        "species": [{ "element": "Eu", "occu": 1 }],
        "abc": [0.1595101, 0.316216999999999, 0.25],
        "properties": { "magmom": 7.025 },
        "label": "Eu",
        "xyz": [1.9701757572932497, 1.1285698453807673, 1.619269955]
      },
      {
        "species": [{ "element": "Eu", "occu": 1 }],
        "abc": [0.67965257, 0.83982629, 0.25],
        "properties": { "magmom": 7.024 },
        "label": "Eu",
        "xyz": [6.288592020573011, 1.1608568445813923, 1.619269955]
      },
      {
        "species": [{ "element": "Eu", "occu": 1 }],
        "abc": [0.1595101, 0.84329409, 0.25],
        "properties": { "magmom": 7.025 },
        "label": "Eu",
        "xyz": [4.157349397284937, 4.916865680197983, 1.619269955]
      },
      {
        "species": [{ "element": "Eu", "occu": 1 }],
        "abc": [0.8404899, 0.683782999999999, 0.75],
        "properties": { "magmom": 7.025 },
        "label": "Eu",
        "xyz": [6.304538382706742, -1.1144012353807806, 4.857809865]
      },
      {
        "species": [{ "element": "Eu", "occu": 1 }],
        "abc": [0.32034743, 0.16017371, 0.75],
        "properties": { "magmom": 7.024 },
        "label": "Eu",
        "xyz": [1.986122119426988, -1.1466882345813918, 4.857809865]
      },
      {
        "species": [{ "element": "Eu", "occu": 1 }],
        "abc": [0.8404899, 0.15670591, 0.75],
        "properties": { "magmom": 7.025 },
        "label": "Eu",
        "xyz": [4.117364742715062, -4.902697070197982, 4.857809865]
      }
    ]
  },
  "task_ids": null,
  "uncorrected_energy_per_atom": null,
  "energy_per_atom": -32.6295192925,
  "formation_energy_per_atom": 0.047558011249996,
  "energy_above_hull": 0.047558011249996,
  "is_stable": false,
  "equilibrium_reaction_energy_per_atom": null,
  "decomposes_to": null,
  "xas": null,
  "grain_boundaries": null,
  "band_gap": 0.0,
  "cbm": null,
  "vbm": null,
  "efermi": 1.89718037,
  "is_gap_direct": null,
  "is_metal": null,
  "es_source_calc_id": null,
  "bandstructure": null,
  "dos": null,
  "dos_energy_up": null,
  "dos_energy_down": null,
  "is_magnetic": null,
  "ordering": null,
  "total_magnetization": 46.9908079,
  "total_magnetization_normalized_vol": null,
  "total_magnetization_normalized_formula_units": null,
  "num_magnetic_sites": null,
  "num_unique_magnetic_sites": null,
  "types_of_magnetic_species": null,
  "bulk_modulus": null,
  "shear_modulus": null,
  "universal_anisotropy": null,
  "homogeneous_poisson": null,
  "e_total": null,
  "e_ionic": null,
  "e_electronic": null,
  "n": null,
  "e_ij_max": null,
  "weighted_surface_energy_EV_PER_ANG2": null,
  "weighted_surface_energy": null,
  "weighted_work_function": null,
  "surface_anisotropy": null,
  "shape_factor": null,
  "has_reconstructed": null,
  "possible_species": null,
  "has_props": null,
  "theoretical": null,
  "database_IDs": null,
  "fields_not_requested": [
    "builder_meta",
    "nsites",
    "elements",
    "nelements",
    "composition",
    "composition_reduced",
    "chemsys",
    "symmetry",
    "property_name",
    "deprecated",
    "deprecation_reasons",
    "last_updated",
    "origins",
    "warnings",
    "task_ids",
    "uncorrected_energy_per_atom",
    "equilibrium_reaction_energy_per_atom",
    "decomposes_to",
    "xas",
    "grain_boundaries",
    "cbm",
    "vbm",
    "is_gap_direct",
    "is_metal",
    "es_source_calc_id",
    "bandstructure",
    "dos",
    "dos_energy_up",
    "dos_energy_down",
    "is_magnetic",
    "ordering",
    "total_magnetization_normalized_vol",
    "total_magnetization_normalized_formula_units",
    "num_magnetic_sites",
    "num_unique_magnetic_sites",
    "types_of_magnetic_species",
    "bulk_modulus",
    "shear_modulus",
    "universal_anisotropy",
    "homogeneous_poisson",
    "e_total",
    "e_ionic",
    "e_electronic",
    "n",
    "e_ij_max",
    "weighted_surface_energy_EV_PER_ANG2",
    "weighted_surface_energy",
    "weighted_work_function",
    "surface_anisotropy",
    "shape_factor",
    "has_reconstructed",
    "possible_species",
    "has_props",
    "theoretical",
    "database_IDs"
  ]
}
