{
  "builder_meta": null,
  "nsites": null,
  "elements": null,
  "nelements": null,
  "composition": null,
  "composition_reduced": null,
  "formula_pretty": "SrF",
  "formula_anonymous": "AB",
  "chemsys": null,
  "volume": 106.27299793879011,
  "density": 3.33187220020051,
  "density_atomic": 26.568249484697528,
  "symmetry": null,
  "property_name": null,
  "material_id": "mp-1187162",
  "deprecated": null,
  "deprecation_reasons": null,
  "last_updated": null,
  "origins": null,
  "warnings": null,
  "structure": {
    "@module": "pymatgen.core.structure",
    "@class": "Structure",
    "charge": 0,
    "lattice": {
      "matrix": [
        [2.119649, -3.671341, 0.0],
        [2.119649, 3.671341, 0.0],
        [0.0, 0.0, 6.828169]
      ],
      "pbc": [true, true, true],
      "a": 4.23929907195541,
      "b": 4.23929907195541,
      "c": 6.828169,
      "alpha": 90.0,
      "beta": 90.0,
      "gamma": 120.00001672917972,
      "volume": 106.27299793879011
    },
    "properties": {},
    "sites": [
      {
        "species": [{ "element": "Sr", "occu": 1 }],
        "abc": [0.666667, 0.333333, 0.876439],
        "properties": { "magmom": 0.082 },
        "label": "Sr",
        "xyz": [2.119649, -1.223782780894, 5.984473610190999]
      },
      {
        "species": [{ "element": "Sr", "occu": 1 }],
        "abc": [0.333333, 0.666667, 0.376438999999999],
        "properties": { "magmom": 0.088 },
        "label": "Sr",
        "xyz": [2.119649, 1.223782780894, 2.5703891101909933]
      },
      {
        "species": [{ "element": "F", "occu": 1 }],
        "abc": [0.666667, 0.333333, 0.498562],
        "properties": { "magmom": 0.042 },
        "label": "F",
        "xyz": [2.119649, -1.223782780894, 3.404265592978]
      },
      {
        "species": [{ "element": "F", "occu": 1 }],
        "abc": [0.333333, 0.666667, 0.998562],
        "properties": { "magmom": 0.043000000000000003 },
        "label": "F",
        "xyz": [2.119649, 1.223782780894, 6.818350092977999]
      }
    ]
  },
  "task_ids": null,
  "uncorrected_energy_per_atom": null,
  "energy_per_atom": -11.972695921666666,
  "formation_energy_per_atom": -2.8368514116666663,
  "energy_above_hull": 0.319758173333333,
  "is_stable": false,
  "equilibrium_reaction_energy_per_atom": null,
  "decomposes_to": null,
  "xas": null,
  "grain_boundaries": null,
  "band_gap": 0.0,
  "cbm": null,
  "vbm": null,
  "efermi": 2.95272283,
  "is_gap_direct": null,
  "is_metal": null,
  "es_source_calc_id": null,
  "bandstructure": null,
  "dos": null,
  "dos_energy_up": null,
  "dos_energy_down": null,
  "is_magnetic": null,
  "ordering": null,
  "total_magnetization": 1.1533291,
  "total_magnetization_normalized_vol": null,
  "total_magnetization_normalized_formula_units": null,
  "num_magnetic_sites": null,
  "num_unique_magnetic_sites": null,
  "types_of_magnetic_species": null,
  "bulk_modulus": null,
  "shear_modulus": null,
  "universal_anisotropy": null,
  "homogeneous_poisson": null,
  "e_total": null,
  "e_ionic": null,
  "e_electronic": null,
  "n": null,
  "e_ij_max": null,
  "weighted_surface_energy_EV_PER_ANG2": null,
  "weighted_surface_energy": null,
  "weighted_work_function": null,
  "surface_anisotropy": null,
  "shape_factor": null,
  "has_reconstructed": null,
  "possible_species": null,
  "has_props": null,
  "theoretical": null,
  "database_IDs": null,
  "fields_not_requested": [
    "builder_meta",
    "nsites",
    "elements",
    "nelements",
    "composition",
    "composition_reduced",
    "chemsys",
    "symmetry",
    "property_name",
    "deprecated",
    "deprecation_reasons",
    "last_updated",
    "origins",
    "warnings",
    "task_ids",
    "uncorrected_energy_per_atom",
    "equilibrium_reaction_energy_per_atom",
    "decomposes_to",
    "xas",
    "grain_boundaries",
    "cbm",
    "vbm",
    "is_gap_direct",
    "is_metal",
    "es_source_calc_id",
    "bandstructure",
    "dos",
    "dos_energy_up",
    "dos_energy_down",
    "is_magnetic",
    "ordering",
    "total_magnetization_normalized_vol",
    "total_magnetization_normalized_formula_units",
    "num_magnetic_sites",
    "num_unique_magnetic_sites",
    "types_of_magnetic_species",
    "bulk_modulus",
    "shear_modulus",
    "universal_anisotropy",
    "homogeneous_poisson",
    "e_total",
    "e_ionic",
    "e_electronic",
    "n",
    "e_ij_max",
    "weighted_surface_energy_EV_PER_ANG2",
    "weighted_surface_energy",
    "weighted_work_function",
    "surface_anisotropy",
    "shape_factor",
    "has_reconstructed",
    "possible_species",
    "has_props",
    "theoretical",
    "database_IDs"
  ]
}
