{"builder_meta": null, "nsites": null, "elements": null, "nelements": null, "composition": null, "composition_reduced": null, "formula_pretty": "SrF3", "formula_anonymous": "AB3", "chemsys": null, "volume": 112.7168821457501, "density": 4.260927034068102, "density_atomic": 14.089610268218763, "symmetry": null, "property_name": null, "material_id": "mp-727311", "deprecated": null, "deprecation_reasons": null, "last_updated": null, "origins": null, "warnings": null, "structure": {"@module": "pymatgen.core.structure", "@class": "Structure", "charge": 0, "lattice": {"matrix": [[4.11676904, 0.0, 0.0], [0.0, 4.4261747, -0.16834236], [0.0, 0.824804299999999, 6.15454441]], "pbc": [true, true, true], "a": 4.11676904, "b": 4.429374857142987, "c": 6.209566734318968, "alpha": 84.54505994339692, "beta": 90.0, "gamma": 90.0, "volume": 112.7168821457501}, "properties": {}, "sites": [{"species": [{"element": "Sr", "occu": 1}], "abc": [0.75, 0.77433199, 0.28724064], "properties": {"magmom": -0.002}, "label": "Sr", "xyz": [3.08757678, 3.6642459785454045, 1.637482400616726]}, {"species": [{"element": "Sr", "occu": 1}], "abc": [0.25, 0.22566801, 0.7127593600000001], "properties": {"magmom": -0.002}, "label": "Sr", "xyz": [1.02919226, 1.5867330214545943, 4.348719649383274]}, {"species": [{"element": "F", "occu": 1}], "abc": [0.75, 0.25085892, 0.46590268], "properties": {"magmom": 0.006}, "label": "F", "xyz": [3.08757678, 1.4946239388188474, 2.8251885521781674]}, {"species": [{"element": "F", "occu": 1}], "abc": [0.25, 0.74914108, 0.53409732], "properties": {"magmom": 0.006}, "label": "F", "xyz": [1.02919226, 3.7563550611811514, 3.1610134978218323]}, {"species": [{"element": "F", "occu": 1}], "abc": [0.75, 0.91210405, 0.87476257], "properties": {"magmom": 0.444}, "label": "F", "xyz": [3.08757678, 4.758639799092585, 5.230219336928176]}, {"species": [{"element": "F", "occu": 1}], "abc": [0.25, 0.08789595, 0.12523743], "properties": {"magmom": 0.444}, "label": "F", "xyz": [1.02919226, 0.4923392009074139, 0.7559827130718244]}, {"species": [{"element": "F", "occu": 1}], "abc": [0.75, 0.47931301, 0.86208677], "properties": {"magmom": 0.491}, "label": "F", "xyz": [3.08757678, 2.832575993111957, 5.225062627956352]}, {"species": [{"element": "F", "occu": 1}], "abc": [0.25, 0.52068699, 0.13791323], "properties": {"magmom": 0.491}, "label": "F", "xyz": [1.02919226, 2.4184030068880418, 0.7611394220436479]}]}, "task_ids": null, "uncorrected_energy_per_atom": null, "energy_per_atom": -9.23832332125, "formation_energy_per_atom": -3.10738709125, "energy_above_hull": 0.049222493749999006, "is_stable": false, "equilibrium_reaction_energy_per_atom": null, "decomposes_to": null, "xas": null, "grain_boundaries": null, "band_gap": 0.0, "cbm": null, "vbm": null, "efermi": -2.04594803, "is_gap_direct": null, "is_metal": null, "es_source_calc_id": null, "bandstructure": null, "dos": null, "dos_energy_up": null, "dos_energy_down": null, "is_magnetic": null, "ordering": null, "total_magnetization": 2.0000001, "total_magnetization_normalized_vol": null, "total_magnetization_normalized_formula_units": null, "num_magnetic_sites": null, "num_unique_magnetic_sites": null, "types_of_magnetic_species": null, "bulk_modulus": null, "shear_modulus": null, "universal_anisotropy": null, "homogeneous_poisson": null, "e_total": null, "e_ionic": null, "e_electronic": null, "n": null, "e_ij_max": null, "weighted_surface_energy_EV_PER_ANG2": null, "weighted_surface_energy": null, "weighted_work_function": null, "surface_anisotropy": null, "shape_factor": null, "has_reconstructed": null, "possible_species": null, "has_props": null, "theoretical": null, "database_IDs": null, "fields_not_requested": ["builder_meta", "nsites", "elements", "nelements", "composition", "composition_reduced", "chemsys", "symmetry", "property_name", "deprecated", "deprecation_reasons", "last_updated", "origins", "warnings", "task_ids", "uncorrected_energy_per_atom", "equilibrium_reaction_energy_per_atom", "decomposes_to", "xas", "grain_boundaries", "cbm", "vbm", "is_gap_direct", "is_metal", "es_source_calc_id", "bandstructure", "dos", "dos_energy_up", "dos_energy_down", "is_magnetic", "ordering", "total_magnetization_normalized_vol", "total_magnetization_normalized_formula_units", "num_magnetic_sites", "num_unique_magnetic_sites", "types_of_magnetic_species", "bulk_modulus", "shear_modulus", "universal_anisotropy", "homogeneous_poisson", "e_total", "e_ionic", "e_electronic", "n", "e_ij_max", "weighted_surface_energy_EV_PER_ANG2", "weighted_surface_energy", "weighted_work_function", "surface_anisotropy", "shape_factor", "has_reconstructed", "possible_species", "has_props", "theoretical", "database_IDs"]}