{
  "builder_meta": null,
  "nsites": null,
  "elements": null,
  "nelements": null,
  "composition": null,
  "composition_reduced": null,
  "formula_pretty": "SrGa",
  "formula_anonymous": "AB",
  "chemsys": null,
  "volume": 1996.260908149028,
  "density": 4.188217238169371,
  "density_atomic": 31.191576689828562,
  "symmetry": null,
  "property_name": null,
  "material_id": "mp-1199262",
  "deprecated": null,
  "deprecation_reasons": null,
  "last_updated": null,
  "origins": null,
  "warnings": null,
  "structure": {
    "@module": "pymatgen.core.structure",
    "@class": "Structure",
    "charge": 0,
    "lattice": {
      "matrix": [
        [12.591353999999999, 0.0, 0.0],
        [0.0, 12.591353999999999, 0.0],
        [0.0, 0.0, 12.591353999999999]
      ],
      "pbc": [true, true, true],
      "a": 12.591353999999999,
      "b": 12.591353999999999,
      "c": 12.591353999999999,
      "alpha": 90.0,
      "beta": 90.0,
      "gamma": 90.0,
      "volume": 1996.260908149027
    },
    "properties": {},
    "sites": [
      {
        "species": [{ "element": "Sr", "occu": 1 }],
        "abc": [0.507855, 0.798345, 0.939898999999999],
        "properties": { "magmom": 0.001 },
        "label": "Sr",
        "xyz": [6.394582085669999, 10.052244509129999, 11.834601033245987]
      },
      {
        "species": [{ "element": "Sr", "occu": 1 }],
        "abc": [0.060100999999999, 0.007855, 0.701654999999999],
        "properties": { "magmom": 0.001 },
        "label": "Sr",
        "xyz": [0.7567529667539874, 0.09890508566999998, 8.834786490869988]
      },
      {
        "species": [{ "element": "Sr", "occu": 1 }],
        "abc": [0.298344999999999, 0.560101, 0.492145],
        "properties": { "magmom": 0.001 },
        "label": "Sr",
        "xyz": [3.7565675091299875, 7.052429966753999, 6.196771914329999]
      },
      {
        "species": [{ "element": "Sr", "occu": 1 }],
        "abc": [0.007855, 0.701654999999999, 0.060100999999999],
        "properties": { "magmom": 0.001 },
        "label": "Sr",
        "xyz": [0.09890508566999998, 8.834786490869988, 0.7567529667539874]
      },
      {
        "species": [{ "element": "Sr", "occu": 1 }],
        "abc": [0.560101, 0.492145, 0.298344999999999],
        "properties": { "magmom": 0.001 },
        "label": "Sr",
        "xyz": [7.052429966753999, 6.196771914329999, 3.7565675091299875]
      },
      {
        "species": [{ "element": "Sr", "occu": 1 }],
        "abc": [0.798345, 0.939898999999999, 0.507855],
        "properties": { "magmom": 0.001 },
        "label": "Sr",
        "xyz": [10.052244509129999, 11.834601033245987, 6.394582085669999]
      },
      {
        "species": [{ "element": "Sr", "occu": 1 }],
        "abc": [0.492145, 0.298344999999999, 0.560101],
        "properties": { "magmom": 0.001 },
        "label": "Sr",
        "xyz": [6.196771914329999, 3.7565675091299875, 7.052429966753999]
      },
      {
        "species": [{ "element": "Sr", "occu": 1 }],
        "abc": [0.939898999999999, 0.507855, 0.798345],
        "properties": { "magmom": 0.001 },
        "label": "Sr",
        "xyz": [11.834601033245987, 6.394582085669999, 10.052244509129999]
      },
      {
        "species": [{ "element": "Sr", "occu": 1 }],
        "abc": [0.701654999999999, 0.060100999999999, 0.007855],
        "properties": { "magmom": 0.001 },
        "label": "Sr",
        "xyz": [8.834786490869988, 0.7567529667539874, 0.09890508566999998]
      },
      {
        "species": [{ "element": "Sr", "occu": 1 }],
        "abc": [0.992144999999999, 0.201655, 0.439899],
        "properties": { "magmom": 0.001 },
        "label": "Sr",
        "xyz": [12.492448914329987, 2.53910949087, 5.5389240332459995]
      },
      {
        "species": [{ "element": "Sr", "occu": 1 }],
        "abc": [0.439899, 0.992144999999999, 0.201655],
        "properties": { "magmom": 0.001 },
        "label": "Sr",
        "xyz": [5.5389240332459995, 12.492448914329987, 2.53910949087]
      },
      {
        "species": [{ "element": "Sr", "occu": 1 }],
        "abc": [0.201655, 0.439899, 0.992144999999999],
        "properties": { "magmom": 0.001 },
        "label": "Sr",
        "xyz": [2.53910949087, 5.5389240332459995, 12.492448914329987]
      },
      {
        "species": [{ "element": "Sr", "occu": 1 }],
        "abc": [0.436515999999999, 0.519575999999999, 0.791231999999999],
        "properties": { "magmom": 0.0 },
        "label": "Sr",
        "xyz": [5.496327482663987, 6.542165345903987, 9.962682208127987]
      },
      {
        "species": [{ "element": "Sr", "occu": 1 }],
        "abc": [0.208767999999999, 0.9365159999999991, 0.980424],
        "properties": { "magmom": 0.0 },
        "label": "Sr",
        "xyz": [2.6286717918719873, 11.792004482663987, 12.344865654096]
      },
      {
        "species": [{ "element": "Sr", "occu": 1 }],
        "abc": [0.019576, 0.708768, 0.563484],
        "properties": { "magmom": 0.0 },
        "label": "Sr",
        "xyz": [0.24648834590399998, 8.924348791872, 7.095026517336]
      },
      {
        "species": [{ "element": "Sr", "occu": 1 }],
        "abc": [0.9365159999999991, 0.980424, 0.208767999999999],
        "properties": { "magmom": 0.0 },
        "label": "Sr",
        "xyz": [11.792004482663987, 12.344865654096, 2.6286717918719873]
      },
      {
        "species": [{ "element": "Sr", "occu": 1 }],
        "abc": [0.708768, 0.563484, 0.019576],
        "properties": { "magmom": 0.0 },
        "label": "Sr",
        "xyz": [8.924348791872, 7.095026517336, 0.24648834590399998]
      },
      {
        "species": [{ "element": "Sr", "occu": 1 }],
        "abc": [0.519575999999999, 0.791231999999999, 0.436515999999999],
        "properties": { "magmom": 0.0 },
        "label": "Sr",
        "xyz": [6.542165345903987, 9.962682208127987, 5.496327482663987]
      },
      {
        "species": [{ "element": "Sr", "occu": 1 }],
        "abc": [0.563484, 0.019576, 0.708768],
        "properties": { "magmom": 0.0 },
        "label": "Sr",
        "xyz": [7.095026517336, 0.24648834590399998, 8.924348791872]
      },
      {
        "species": [{ "element": "Sr", "occu": 1 }],
        "abc": [0.791231999999999, 0.436515999999999, 0.519575999999999],
        "properties": { "magmom": 0.0 },
        "label": "Sr",
        "xyz": [9.962682208127987, 5.496327482663987, 6.542165345903987]
      },
      {
        "species": [{ "element": "Sr", "occu": 1 }],
        "abc": [0.980424, 0.208767999999999, 0.9365159999999991],
        "properties": { "magmom": 0.0 },
        "label": "Sr",
        "xyz": [12.344865654096, 2.6286717918719873, 11.792004482663987]
      },
      {
        "species": [{ "element": "Sr", "occu": 1 }],
        "abc": [0.063484, 0.480423999999999, 0.291232],
        "properties": { "magmom": 0.0 },
        "label": "Sr",
        "xyz": [0.7993495173359999, 6.049188654095987, 3.667005208128]
      },
      {
        "species": [{ "element": "Sr", "occu": 1 }],
        "abc": [0.291232, 0.063484, 0.480423999999999],
        "properties": { "magmom": 0.0 },
        "label": "Sr",
        "xyz": [3.667005208128, 0.7993495173359999, 6.049188654095987]
      },
      {
        "species": [{ "element": "Sr", "occu": 1 }],
        "abc": [0.480423999999999, 0.291232, 0.063484],
        "properties": { "magmom": 0.0 },
        "label": "Sr",
        "xyz": [6.049188654095987, 3.667005208128, 0.7993495173359999]
      },
      {
        "species": [{ "element": "Sr", "occu": 1 }],
        "abc": [0.313472, 0.813472, 0.686527999999999],
        "properties": { "magmom": -0.001 },
        "label": "Sr",
        "xyz": [3.9470369210879994, 10.242713921087999, 8.644317078911987]
      },
      {
        "species": [{ "element": "Sr", "occu": 1 }],
        "abc": [0.813472, 0.686527999999999, 0.313472],
        "properties": { "magmom": -0.001 },
        "label": "Sr",
        "xyz": [10.242713921087999, 8.644317078911987, 3.9470369210879994]
      },
      {
        "species": [{ "element": "Sr", "occu": 1 }],
        "abc": [0.686527999999999, 0.313472, 0.813472],
        "properties": { "magmom": -0.001 },
        "label": "Sr",
        "xyz": [8.644317078911987, 3.9470369210879994, 10.242713921087999]
      },
      {
        "species": [{ "element": "Sr", "occu": 1 }],
        "abc": [0.186528, 0.186528, 0.186528],
        "properties": { "magmom": -0.001 },
        "label": "Sr",
        "xyz": [2.3486400789119997, 2.3486400789119997, 2.3486400789119997]
      },
      {
        "species": [{ "element": "Sr", "occu": 1 }],
        "abc": [0.694214999999999, 0.194215, 0.305785],
        "properties": { "magmom": 0.001 },
        "label": "Sr",
        "xyz": [8.741106817109987, 2.44542981711, 3.8502471828899996]
      },
      {
        "species": [{ "element": "Sr", "occu": 1 }],
        "abc": [0.194215, 0.305785, 0.694214999999999],
        "properties": { "magmom": 0.001 },
        "label": "Sr",
        "xyz": [2.44542981711, 3.8502471828899996, 8.741106817109987]
      },
      {
        "species": [{ "element": "Sr", "occu": 1 }],
        "abc": [0.305785, 0.694214999999999, 0.194215],
        "properties": { "magmom": 0.001 },
        "label": "Sr",
        "xyz": [3.8502471828899996, 8.741106817109987, 2.44542981711]
      },
      {
        "species": [{ "element": "Sr", "occu": 1 }],
        "abc": [0.805785, 0.805785, 0.805785],
        "properties": { "magmom": 0.001 },
        "label": "Sr",
        "xyz": [10.145924182889999, 10.145924182889999, 10.145924182889999]
      },
      {
        "species": [{ "element": "Ga", "occu": 1 }],
        "abc": [0.073643, 0.753243999999999, 0.30989],
        "properties": { "magmom": -0.0 },
        "label": "Ga",
        "xyz": [0.9272650826219999, 9.484361852375987, 3.9019346910599997]
      },
      {
        "species": [{ "element": "Ga", "occu": 1 }],
        "abc": [0.69011, 0.573643, 0.746756],
        "properties": { "magmom": -0.0 },
        "label": "Ga",
        "xyz": [8.68941930894, 7.222942082622, 9.402669147624]
      },
      {
        "species": [{ "element": "Ga", "occu": 1 }],
        "abc": [0.253243999999999, 0.19011000000000003, 0.926357],
        "properties": { "magmom": -0.0 },
        "label": "Ga",
        "xyz": [3.1886848523759874, 2.3937423089400003, 11.664088917377999]
      },
      {
        "species": [{ "element": "Ga", "occu": 1 }],
        "abc": [0.573643, 0.746756, 0.69011],
        "properties": { "magmom": -0.0 },
        "label": "Ga",
        "xyz": [7.222942082622, 9.402669147624, 8.68941930894]
      },
      {
        "species": [{ "element": "Ga", "occu": 1 }],
        "abc": [0.19011000000000003, 0.926357, 0.253243999999999],
        "properties": { "magmom": -0.0 },
        "label": "Ga",
        "xyz": [2.3937423089400003, 11.664088917377999, 3.1886848523759874]
      },
      {
        "species": [{ "element": "Ga", "occu": 1 }],
        "abc": [0.753243999999999, 0.30989, 0.073643],
        "properties": { "magmom": -0.0 },
        "label": "Ga",
        "xyz": [9.484361852375987, 3.9019346910599997, 0.9272650826219999]
      },
      {
        "species": [{ "element": "Ga", "occu": 1 }],
        "abc": [0.926357, 0.253243999999999, 0.19011000000000003],
        "properties": { "magmom": -0.0 },
        "label": "Ga",
        "xyz": [11.664088917377999, 3.1886848523759874, 2.3937423089400003]
      },
      {
        "species": [{ "element": "Ga", "occu": 1 }],
        "abc": [0.30989, 0.073643, 0.753243999999999],
        "properties": { "magmom": -0.0 },
        "label": "Ga",
        "xyz": [3.9019346910599997, 0.9272650826219999, 9.484361852375987]
      },
      {
        "species": [{ "element": "Ga", "occu": 1 }],
        "abc": [0.746756, 0.69011, 0.573643],
        "properties": { "magmom": -0.0 },
        "label": "Ga",
        "xyz": [9.402669147624, 8.68941930894, 7.222942082622]
      },
      {
        "species": [{ "element": "Ga", "occu": 1 }],
        "abc": [0.426357, 0.24675599999999903, 0.8098900000000001],
        "properties": { "magmom": -0.0 },
        "label": "Ga",
        "xyz": [5.368411917377999, 3.1069921476239877, 10.19761169106]
      },
      {
        "species": [{ "element": "Ga", "occu": 1 }],
        "abc": [0.8098900000000001, 0.426357, 0.24675599999999903],
        "properties": { "magmom": -0.0 },
        "label": "Ga",
        "xyz": [10.19761169106, 5.368411917377999, 3.1069921476239877]
      },
      {
        "species": [{ "element": "Ga", "occu": 1 }],
        "abc": [0.24675599999999903, 0.8098900000000001, 0.426357],
        "properties": { "magmom": -0.0 },
        "label": "Ga",
        "xyz": [3.1069921476239877, 10.19761169106, 5.368411917377999]
      },
      {
        "species": [{ "element": "Ga", "occu": 1 }],
        "abc": [0.081121, 0.763359, 0.818172],
        "properties": { "magmom": -0.001 },
        "label": "Ga",
        "xyz": [1.0214232278339999, 9.611723398086, 10.301893284888]
      },
      {
        "species": [{ "element": "Ga", "occu": 1 }],
        "abc": [0.181828, 0.581121, 0.736641],
        "properties": { "magmom": -0.001 },
        "label": "Ga",
        "xyz": [2.289460715112, 7.317100227834, 9.275307601914]
      },
      {
        "species": [{ "element": "Ga", "occu": 1 }],
        "abc": [0.263359, 0.681828, 0.918879],
        "properties": { "magmom": -0.001 },
        "label": "Ga",
        "xyz": [3.3160463980859998, 8.585137715112, 11.569930772166]
      },
      {
        "species": [{ "element": "Ga", "occu": 1 }],
        "abc": [0.581121, 0.736641, 0.181828],
        "properties": { "magmom": -0.001 },
        "label": "Ga",
        "xyz": [7.317100227834, 9.275307601914, 2.289460715112]
      },
      {
        "species": [{ "element": "Ga", "occu": 1 }],
        "abc": [0.681828, 0.918879, 0.263359],
        "properties": { "magmom": -0.001 },
        "label": "Ga",
        "xyz": [8.585137715112, 11.569930772166, 3.3160463980859998]
      },
      {
        "species": [{ "element": "Ga", "occu": 1 }],
        "abc": [0.763359, 0.818172, 0.081121],
        "properties": { "magmom": -0.001 },
        "label": "Ga",
        "xyz": [9.611723398086, 10.301893284888, 1.0214232278339999]
      },
      {
        "species": [{ "element": "Ga", "occu": 1 }],
        "abc": [0.918879, 0.263359, 0.681828],
        "properties": { "magmom": -0.001 },
        "label": "Ga",
        "xyz": [11.569930772166, 3.3160463980859998, 8.585137715112]
      },
      {
        "species": [{ "element": "Ga", "occu": 1 }],
        "abc": [0.818172, 0.081121, 0.763359],
        "properties": { "magmom": -0.001 },
        "label": "Ga",
        "xyz": [10.301893284888, 1.0214232278339999, 9.611723398086]
      },
      {
        "species": [{ "element": "Ga", "occu": 1 }],
        "abc": [0.736641, 0.181828, 0.581121],
        "properties": { "magmom": -0.001 },
        "label": "Ga",
        "xyz": [9.275307601914, 2.289460715112, 7.317100227834]
      },
      {
        "species": [{ "element": "Ga", "occu": 1 }],
        "abc": [0.418879, 0.236641, 0.318172],
        "properties": { "magmom": -0.001 },
        "label": "Ga",
        "xyz": [5.274253772165999, 2.9796306019139998, 4.006216284888]
      },
      {
        "species": [{ "element": "Ga", "occu": 1 }],
        "abc": [0.318172, 0.418879, 0.236641],
        "properties": { "magmom": -0.001 },
        "label": "Ga",
        "xyz": [4.006216284888, 5.274253772165999, 2.9796306019139998]
      },
      {
        "species": [{ "element": "Ga", "occu": 1 }],
        "abc": [0.236641, 0.318172, 0.418879],
        "properties": { "magmom": -0.001 },
        "label": "Ga",
        "xyz": [2.9796306019139998, 4.006216284888, 5.274253772165999]
      },
      {
        "species": [{ "element": "Ga", "occu": 1 }],
        "abc": [0.934063, 0.434063, 0.065937],
        "properties": { "magmom": -0.001 },
        "label": "Ga",
        "xyz": [11.761117891301998, 5.465440891301999, 0.8302361086979999]
      },
      {
        "species": [{ "element": "Ga", "occu": 1 }],
        "abc": [0.434063, 0.065937, 0.934063],
        "properties": { "magmom": -0.001 },
        "label": "Ga",
        "xyz": [5.465440891301999, 0.8302361086979999, 11.761117891301998]
      },
      {
        "species": [{ "element": "Ga", "occu": 1 }],
        "abc": [0.065937, 0.934063, 0.434063],
        "properties": { "magmom": -0.001 },
        "label": "Ga",
        "xyz": [0.8302361086979999, 11.761117891301998, 5.465440891301999]
      },
      {
        "species": [{ "element": "Ga", "occu": 1 }],
        "abc": [0.565937, 0.565937, 0.565937],
        "properties": { "magmom": -0.001 },
        "label": "Ga",
        "xyz": [7.125913108698, 7.125913108698, 7.125913108698]
      },
      {
        "species": [{ "element": "Ga", "occu": 1 }],
        "abc": [0.552589, 0.052589, 0.447411],
        "properties": { "magmom": 0.0 },
        "label": "Ga",
        "xyz": [6.957843715506, 0.6621667155059999, 5.633510284493999]
      },
      {
        "species": [{ "element": "Ga", "occu": 1 }],
        "abc": [0.052589, 0.447411, 0.552589],
        "properties": { "magmom": 0.0 },
        "label": "Ga",
        "xyz": [0.6621667155059999, 5.633510284493999, 6.957843715506]
      },
      {
        "species": [{ "element": "Ga", "occu": 1 }],
        "abc": [0.447411, 0.552589, 0.052589],
        "properties": { "magmom": 0.0 },
        "label": "Ga",
        "xyz": [5.633510284493999, 6.957843715506, 0.6621667155059999]
      },
      {
        "species": [{ "element": "Ga", "occu": 1 }],
        "abc": [0.947411, 0.947411, 0.947411],
        "properties": { "magmom": 0.0 },
        "label": "Ga",
        "xyz": [11.929187284493999, 11.929187284493999, 11.929187284493999]
      }
    ]
  },
  "task_ids": null,
  "uncorrected_energy_per_atom": null,
  "energy_per_atom": -13.751281073315972,
  "formation_energy_per_atom": -0.45706256331597206,
  "energy_above_hull": 0.025159351267360002,
  "is_stable": false,
  "equilibrium_reaction_energy_per_atom": null,
  "decomposes_to": null,
  "xas": null,
  "grain_boundaries": null,
  "band_gap": 0.0,
  "cbm": null,
  "vbm": null,
  "efermi": 2.36670874,
  "is_gap_direct": null,
  "is_metal": null,
  "es_source_calc_id": null,
  "bandstructure": null,
  "dos": null,
  "dos_energy_up": null,
  "dos_energy_down": null,
  "is_magnetic": null,
  "ordering": null,
  "total_magnetization": 0.0719921,
  "total_magnetization_normalized_vol": null,
  "total_magnetization_normalized_formula_units": null,
  "num_magnetic_sites": null,
  "num_unique_magnetic_sites": null,
  "types_of_magnetic_species": null,
  "bulk_modulus": null,
  "shear_modulus": null,
  "universal_anisotropy": null,
  "homogeneous_poisson": null,
  "e_total": null,
  "e_ionic": null,
  "e_electronic": null,
  "n": null,
  "e_ij_max": null,
  "weighted_surface_energy_EV_PER_ANG2": null,
  "weighted_surface_energy": null,
  "weighted_work_function": null,
  "surface_anisotropy": null,
  "shape_factor": null,
  "has_reconstructed": null,
  "possible_species": null,
  "has_props": null,
  "theoretical": null,
  "database_IDs": null,
  "fields_not_requested": [
    "builder_meta",
    "nsites",
    "elements",
    "nelements",
    "composition",
    "composition_reduced",
    "chemsys",
    "symmetry",
    "property_name",
    "deprecated",
    "deprecation_reasons",
    "last_updated",
    "origins",
    "warnings",
    "task_ids",
    "uncorrected_energy_per_atom",
    "equilibrium_reaction_energy_per_atom",
    "decomposes_to",
    "xas",
    "grain_boundaries",
    "cbm",
    "vbm",
    "is_gap_direct",
    "is_metal",
    "es_source_calc_id",
    "bandstructure",
    "dos",
    "dos_energy_up",
    "dos_energy_down",
    "is_magnetic",
    "ordering",
    "total_magnetization_normalized_vol",
    "total_magnetization_normalized_formula_units",
    "num_magnetic_sites",
    "num_unique_magnetic_sites",
    "types_of_magnetic_species",
    "bulk_modulus",
    "shear_modulus",
    "universal_anisotropy",
    "homogeneous_poisson",
    "e_total",
    "e_ionic",
    "e_electronic",
    "n",
    "e_ij_max",
    "weighted_surface_energy_EV_PER_ANG2",
    "weighted_surface_energy",
    "weighted_work_function",
    "surface_anisotropy",
    "shape_factor",
    "has_reconstructed",
    "possible_species",
    "has_props",
    "theoretical",
    "database_IDs"
  ]
}
