{"builder_meta": null, "nsites": null, "elements": null, "nelements": null, "composition": null, "composition_reduced": null, "formula_pretty": "SrGe", "formula_anonymous": "AB", "chemsys": null, "volume": 115.34006487410554, "density": 4.614493517127558, "density_atomic": 28.835016218526384, "symmetry": null, "property_name": null, "material_id": "mp-2147", "deprecated": null, "deprecation_reasons": null, "last_updated": null, "origins": null, "warnings": null, "structure": {"@module": "pymatgen.core.structure", "@class": "Structure", "charge": 0, "lattice": {"matrix": [[4.20167515, -0.0, 0.0], [0.0, 4.44175979, -1.87992709], [0.0, -0.00254812, 6.18128019]], "pbc": [true, true, true], "a": 4.20167515, "b": 4.823210123535643, "c": 6.181280715207971, "alpha": 112.96360783154361, "beta": 90.0, "gamma": 90.0, "volume": 115.34006487410554}, "properties": {}, "sites": [{"species": [{"element": "Sr", "occu": 1}], "abc": [0.75, 0.13655297, 0.27310695], "properties": {"magmom": 0.0}, "label": "Sr", "xyz": [3.1512563625, 0.6058395820696423, 1.4314409522633633]}, {"species": [{"element": "Sr", "occu": 1}], "abc": [0.25, 0.86344703, 0.72689305], "properties": {"magmom": 0.0}, "label": "Sr", "xyz": [1.0504187875, 3.8333720879303574, 2.8699121477366365]}, {"species": [{"element": "Ge", "occu": 1}], "abc": [0.75, 0.43011494, 0.86022888], "properties": {"magmom": -0.0}, "label": "Ge", "xyz": [3.1512563625, 1.908275279156557, 4.508731007290162]}, {"species": [{"element": "Ge", "occu": 1}], "abc": [0.25, 0.56988506, 0.13977112], "properties": {"magmom": -0.0}, "label": "Ge", "xyz": [1.0504187875, 2.530936390843443, -0.2073779072901628]}]}, "task_ids": null, "uncorrected_energy_per_atom": null, "energy_per_atom": -15.212359725, "formation_energy_per_atom": -0.7035404000000011, "energy_above_hull": 0.0, "is_stable": true, "equilibrium_reaction_energy_per_atom": null, "decomposes_to": null, "xas": null, "grain_boundaries": null, "band_gap": 0.0, "cbm": null, "vbm": null, "efermi": 3.72662909, "is_gap_direct": null, "is_metal": null, "es_source_calc_id": null, "bandstructure": null, "dos": null, "dos_energy_up": null, "dos_energy_down": null, "is_magnetic": null, "ordering": null, "total_magnetization": 4e-07, "total_magnetization_normalized_vol": null, "total_magnetization_normalized_formula_units": null, "num_magnetic_sites": null, "num_unique_magnetic_sites": null, "types_of_magnetic_species": null, "bulk_modulus": null, "shear_modulus": null, "universal_anisotropy": null, "homogeneous_poisson": null, "e_total": null, "e_ionic": null, "e_electronic": null, "n": null, "e_ij_max": null, "weighted_surface_energy_EV_PER_ANG2": null, "weighted_surface_energy": null, "weighted_work_function": null, "surface_anisotropy": null, "shape_factor": null, "has_reconstructed": null, "possible_species": null, "has_props": null, "theoretical": null, "database_IDs": null, "fields_not_requested": ["builder_meta", "nsites", "elements", "nelements", "composition", "composition_reduced", "chemsys", "symmetry", "property_name", "deprecated", "deprecation_reasons", "last_updated", "origins", "warnings", "task_ids", "uncorrected_energy_per_atom", "equilibrium_reaction_energy_per_atom", "decomposes_to", "xas", "grain_boundaries", "cbm", "vbm", "is_gap_direct", "is_metal", "es_source_calc_id", "bandstructure", "dos", "dos_energy_up", "dos_energy_down", "is_magnetic", "ordering", "total_magnetization_normalized_vol", "total_magnetization_normalized_formula_units", "num_magnetic_sites", "num_unique_magnetic_sites", "types_of_magnetic_species", "bulk_modulus", "shear_modulus", "universal_anisotropy", "homogeneous_poisson", "e_total", "e_ionic", "e_electronic", "n", "e_ij_max", "weighted_surface_energy_EV_PER_ANG2", "weighted_surface_energy", "weighted_work_function", "surface_anisotropy", "shape_factor", "has_reconstructed", "possible_species", "has_props", "theoretical", "database_IDs"]}