{"builder_meta": null, "nsites": null, "elements": null, "nelements": null, "composition": null, "composition_reduced": null, "formula_pretty": "SrGe3", "formula_anonymous": "AB3", "chemsys": null, "volume": 371.9833040186771, "density": 5.455740630590126, "density_atomic": 23.248956501167317, "symmetry": null, "property_name": null, "material_id": "mp-1105296", "deprecated": null, "deprecation_reasons": null, "last_updated": null, "origins": null, "warnings": null, "structure": {"@module": "pymatgen.core.structure", "@class": "Structure", "charge": 0, "lattice": {"matrix": [[-3.906721, 3.906721, 6.093104999999999], [3.906721, -3.906721, 6.093104999999999], [3.906721, 3.906721, -6.093104999999999]], "pbc": [true, true, true], "a": 8.225014679908297, "b": 8.225014679908297, "c": 8.225014679908297, "alpha": 123.28384847866045, "beta": 123.28384847866045, "gamma": 84.40049113059709, "volume": 371.98330401867696}, "properties": {}, "sites": [{"species": [{"element": "Sr", "occu": 1}], "abc": [0.170508, 0.170508, 0.0], "properties": {"magmom": 0.0}, "label": "Sr", "xyz": [0.0, 0.0, 2.0778462946799996]}, {"species": [{"element": "Sr", "occu": 1}], "abc": [0.829492, 0.829492, 0.0], "properties": {"magmom": 0.0}, "label": "Sr", "xyz": [0.0, 0.0, 10.108363705319999]}, {"species": [{"element": "Sr", "occu": 1}], "abc": [0.75, 0.25, 0.5], "properties": {"magmom": 0.0}, "label": "Sr", "xyz": [2.220446049250313e-16, 3.906721, 3.0465524999999993]}, {"species": [{"element": "Sr", "occu": 1}], "abc": [0.25, 0.75, 0.5], "properties": {"magmom": 0.0}, "label": "Sr", "xyz": [3.906721, 2.220446049250313e-16, 3.0465524999999993]}, {"species": [{"element": "Ge", "occu": 1}], "abc": [0.0, 0.336947, 0.336947], "properties": {"magmom": -0.0}, "label": "Ge", "xyz": [2.632715841574, 0.0, 0.0]}, {"species": [{"element": "Ge", "occu": 1}], "abc": [0.0, 0.663053, 0.663053], "properties": {"magmom": -0.0}, "label": "Ge", "xyz": [5.180726158426, 0.0, 0.0]}, {"species": [{"element": "Ge", "occu": 1}], "abc": [0.336947, 0.0, 0.336947], "properties": {"magmom": 0.0}, "label": "Ge", "xyz": [0.0, 2.632715841574, 0.0]}, {"species": [{"element": "Ge", "occu": 1}], "abc": [0.663053, 0.0, 0.663053], "properties": {"magmom": 0.0}, "label": "Ge", "xyz": [0.0, 5.180726158426, 0.0]}, {"species": [{"element": "Ge", "occu": 1}], "abc": [0.7874700000000001, 0.425709, 0.0], "properties": {"magmom": -0.0}, "label": "Ge", "xyz": [-1.4132992956810004, 1.4132992956810004, 7.392027030794999]}, {"species": [{"element": "Ge", "occu": 1}], "abc": [0.425709, 0.7874700000000001, 0.0], "properties": {"magmom": -0.0}, "label": "Ge", "xyz": [1.4132992956810004, -1.4132992956810004, 7.392027030794999]}, {"species": [{"element": "Ge", "occu": 1}], "abc": [0.7874700000000001, 0.7874700000000001, 0.361762], "properties": {"magmom": 0.0}, "label": "Ge", "xyz": [1.413303202402, 1.413303202402, 7.392020937689999]}, {"species": [{"element": "Ge", "occu": 1}], "abc": [0.425709, 0.425709, 0.638238], "properties": {"magmom": 0.0}, "label": "Ge", "xyz": [2.493417797598, 2.493417797598, 1.2989281238999997]}, {"species": [{"element": "Ge", "occu": 1}], "abc": [0.21253000000000002, 0.574291, 0.0], "properties": {"magmom": -0.0}, "label": "Ge", "xyz": [1.413299295681, -1.413299295681, 4.794182969204999]}, {"species": [{"element": "Ge", "occu": 1}], "abc": [0.574291, 0.21253000000000002, 0.0], "properties": {"magmom": -0.0}, "label": "Ge", "xyz": [-1.413299295681, 1.413299295681, 4.794182969204999]}, {"species": [{"element": "Ge", "occu": 1}], "abc": [0.21253000000000002, 0.21253000000000002, 0.638238], "properties": {"magmom": 0.0}, "label": "Ge", "xyz": [2.493417797598, 2.493417797598, -1.298915937689999]}, {"species": [{"element": "Ge", "occu": 1}], "abc": [0.574291, 0.574291, 0.361762], "properties": {"magmom": 0.0}, "label": "Ge", "xyz": [1.413303202402, 1.413303202402, 4.7941768761]}]}, "task_ids": null, "uncorrected_energy_per_atom": null, "energy_per_atom": -14.519620718125, "formation_energy_per_atom": -0.329222265625, "energy_above_hull": 0.08935251937499901, "is_stable": false, "equilibrium_reaction_energy_per_atom": null, "decomposes_to": null, "xas": null, "grain_boundaries": null, "band_gap": 0.0, "cbm": null, "vbm": null, "efermi": 4.93628384, "is_gap_direct": null, "is_metal": null, "es_source_calc_id": null, "bandstructure": null, "dos": null, "dos_energy_up": null, "dos_energy_down": null, "is_magnetic": null, "ordering": null, "total_magnetization": 0.005629899999999, "total_magnetization_normalized_vol": null, "total_magnetization_normalized_formula_units": null, "num_magnetic_sites": null, "num_unique_magnetic_sites": null, "types_of_magnetic_species": null, "bulk_modulus": null, "shear_modulus": null, "universal_anisotropy": null, "homogeneous_poisson": null, "e_total": null, "e_ionic": null, "e_electronic": null, "n": null, "e_ij_max": null, "weighted_surface_energy_EV_PER_ANG2": null, "weighted_surface_energy": null, "weighted_work_function": null, "surface_anisotropy": null, "shape_factor": null, "has_reconstructed": null, "possible_species": null, "has_props": null, "theoretical": null, "database_IDs": null, "fields_not_requested": ["builder_meta", "nsites", "elements", "nelements", "composition", "composition_reduced", "chemsys", "symmetry", "property_name", "deprecated", "deprecation_reasons", "last_updated", "origins", "warnings", "task_ids", "uncorrected_energy_per_atom", "equilibrium_reaction_energy_per_atom", "decomposes_to", "xas", "grain_boundaries", "cbm", "vbm", "is_gap_direct", "is_metal", "es_source_calc_id", "bandstructure", "dos", "dos_energy_up", "dos_energy_down", "is_magnetic", "ordering", "total_magnetization_normalized_vol", "total_magnetization_normalized_formula_units", "num_magnetic_sites", "num_unique_magnetic_sites", "types_of_magnetic_species", "bulk_modulus", "shear_modulus", "universal_anisotropy", "homogeneous_poisson", "e_total", "e_ionic", "e_electronic", "n", "e_ij_max", "weighted_surface_energy_EV_PER_ANG2", "weighted_surface_energy", "weighted_work_function", "surface_anisotropy", "shape_factor", "has_reconstructed", "possible_species", "has_props", "theoretical", "database_IDs"]}