{
  "builder_meta": null,
  "nsites": null,
  "elements": null,
  "nelements": null,
  "composition": null,
  "composition_reduced": null,
  "formula_pretty": "SrH2",
  "formula_anonymous": "AB2",
  "chemsys": null,
  "volume": 178.64195163180634,
  "density": 3.332786708820721,
  "density_atomic": 14.886829302650527,
  "symmetry": null,
  "property_name": null,
  "material_id": "mp-23714",
  "deprecated": null,
  "deprecation_reasons": null,
  "last_updated": null,
  "origins": null,
  "warnings": null,
  "structure": {
    "@module": "pymatgen.core.structure",
    "@class": "Structure",
    "charge": 0,
    "lattice": {
      "matrix": [
        [3.85318502, -0.0, 0.0],
        [-0.0, 6.34859877, 0.0],
        [0.0, 0.0, 7.30273785]
      ],
      "pbc": [true, true, true],
      "a": 3.85318502,
      "b": 6.34859877,
      "c": 7.30273785,
      "alpha": 90.0,
      "beta": 90.0,
      "gamma": 90.0,
      "volume": 178.64195163180634
    },
    "properties": {},
    "sites": [
      {
        "species": [{ "element": "Sr", "occu": 1 }],
        "abc": [0.25, 0.76059628, 0.61146613],
        "properties": { "magmom": -0.0 },
        "label": "Sr",
        "xyz": [0.963296255, 4.828720607674575, 4.465376851544021]
      },
      {
        "species": [{ "element": "Sr", "occu": 1 }],
        "abc": [0.75, 0.23940372000000001, 0.38853387],
        "properties": { "magmom": -0.0 },
        "label": "Sr",
        "xyz": [2.8898887650000002, 1.5198781623254245, 2.8373609984559796]
      },
      {
        "species": [{ "element": "Sr", "occu": 1 }],
        "abc": [0.25, 0.26059628, 0.8885338700000001],
        "properties": { "magmom": -0.0 },
        "label": "Sr",
        "xyz": [0.963296255, 1.6544212226745756, 6.488729923455979]
      },
      {
        "species": [{ "element": "Sr", "occu": 1 }],
        "abc": [0.75, 0.73940372, 0.11146613],
        "properties": { "magmom": -0.0 },
        "label": "Sr",
        "xyz": [2.8898887650000002, 4.694177547325424, 0.8140079265440204]
      },
      {
        "species": [{ "element": "H", "occu": 1 }],
        "abc": [0.25, 0.52640633, 0.32140788],
        "properties": { "magmom": 0.0 },
        "label": "H",
        "xyz": [0.963296255, 3.3419425791582142, 2.347157490564258]
      },
      {
        "species": [{ "element": "H", "occu": 1 }],
        "abc": [0.75, 0.47359367, 0.67859212],
        "properties": { "magmom": 0.0 },
        "label": "H",
        "xyz": [2.8898887650000002, 3.006656190841786, 4.955580359435742]
      },
      {
        "species": [{ "element": "H", "occu": 1 }],
        "abc": [0.25, 0.026406330000000002, 0.17859212],
        "properties": { "magmom": 0.0 },
        "label": "H",
        "xyz": [0.963296255, 0.1676431941582141, 1.3042114344357418]
      },
      {
        "species": [{ "element": "H", "occu": 1 }],
        "abc": [0.75, 0.97359367, 0.82140788],
        "properties": { "magmom": 0.0 },
        "label": "H",
        "xyz": [2.8898887650000002, 6.180955575841786, 5.998526415564258]
      },
      {
        "species": [{ "element": "H", "occu": 1 }],
        "abc": [0.75, 0.35496629, 0.07235457],
        "properties": { "magmom": 0.0 },
        "label": "H",
        "xyz": [2.8898887650000002, 2.2535385520854634, 0.5283864569594745]
      },
      {
        "species": [{ "element": "H", "occu": 1 }],
        "abc": [0.25, 0.64503371, 0.92764543],
        "properties": { "magmom": 0.0 },
        "label": "H",
        "xyz": [0.963296255, 4.095060217914536, 6.774351393040525]
      },
      {
        "species": [{ "element": "H", "occu": 1 }],
        "abc": [0.75, 0.85496629, 0.42764543],
        "properties": { "magmom": 0.0 },
        "label": "H",
        "xyz": [2.8898887650000002, 5.427837937085463, 3.1229824680405254]
      },
      {
        "species": [{ "element": "H", "occu": 1 }],
        "abc": [0.25, 0.14503371, 0.57235457],
        "properties": { "magmom": 0.0 },
        "label": "H",
        "xyz": [0.963296255, 0.9207608329145367, 4.179755381959475]
      }
    ]
  },
  "task_ids": null,
  "uncorrected_energy_per_atom": null,
  "energy_per_atom": -7.9995415375,
  "formation_energy_per_atom": -0.647579579999999,
  "energy_above_hull": 0.0,
  "is_stable": true,
  "equilibrium_reaction_energy_per_atom": null,
  "decomposes_to": null,
  "xas": null,
  "grain_boundaries": null,
  "band_gap": 3.1544,
  "cbm": null,
  "vbm": null,
  "efermi": 0.06396751,
  "is_gap_direct": null,
  "is_metal": null,
  "es_source_calc_id": null,
  "bandstructure": null,
  "dos": null,
  "dos_energy_up": null,
  "dos_energy_down": null,
  "is_magnetic": null,
  "ordering": null,
  "total_magnetization": 0.0,
  "total_magnetization_normalized_vol": null,
  "total_magnetization_normalized_formula_units": null,
  "num_magnetic_sites": null,
  "num_unique_magnetic_sites": null,
  "types_of_magnetic_species": null,
  "bulk_modulus": null,
  "shear_modulus": null,
  "universal_anisotropy": null,
  "homogeneous_poisson": null,
  "e_total": null,
  "e_ionic": null,
  "e_electronic": null,
  "n": null,
  "e_ij_max": null,
  "weighted_surface_energy_EV_PER_ANG2": null,
  "weighted_surface_energy": null,
  "weighted_work_function": null,
  "surface_anisotropy": null,
  "shape_factor": null,
  "has_reconstructed": null,
  "possible_species": null,
  "has_props": null,
  "theoretical": null,
  "database_IDs": null,
  "fields_not_requested": [
    "builder_meta",
    "nsites",
    "elements",
    "nelements",
    "composition",
    "composition_reduced",
    "chemsys",
    "symmetry",
    "property_name",
    "deprecated",
    "deprecation_reasons",
    "last_updated",
    "origins",
    "warnings",
    "task_ids",
    "uncorrected_energy_per_atom",
    "equilibrium_reaction_energy_per_atom",
    "decomposes_to",
    "xas",
    "grain_boundaries",
    "cbm",
    "vbm",
    "is_gap_direct",
    "is_metal",
    "es_source_calc_id",
    "bandstructure",
    "dos",
    "dos_energy_up",
    "dos_energy_down",
    "is_magnetic",
    "ordering",
    "total_magnetization_normalized_vol",
    "total_magnetization_normalized_formula_units",
    "num_magnetic_sites",
    "num_unique_magnetic_sites",
    "types_of_magnetic_species",
    "bulk_modulus",
    "shear_modulus",
    "universal_anisotropy",
    "homogeneous_poisson",
    "e_total",
    "e_ionic",
    "e_electronic",
    "n",
    "e_ij_max",
    "weighted_surface_energy_EV_PER_ANG2",
    "weighted_surface_energy",
    "weighted_work_function",
    "surface_anisotropy",
    "shape_factor",
    "has_reconstructed",
    "possible_species",
    "has_props",
    "theoretical",
    "database_IDs"
  ]
}
