{
  "builder_meta": null,
  "nsites": null,
  "elements": null,
  "nelements": null,
  "composition": null,
  "composition_reduced": null,
  "formula_pretty": "SrHg8",
  "formula_anonymous": "AB8",
  "chemsys": null,
  "volume": 2019.4150387615766,
  "density": 11.132715682629444,
  "density_atomic": 28.047431093910788,
  "symmetry": null,
  "property_name": null,
  "material_id": "mp-1203966",
  "deprecated": null,
  "deprecation_reasons": null,
  "last_updated": null,
  "origins": null,
  "warnings": null,
  "structure": {
    "@module": "pymatgen.core.structure",
    "@class": "Structure",
    "charge": 0,
    "lattice": {
      "matrix": [
        [5.470973, 0.0, 0.0],
        [0.0, 13.495802, 0.0],
        [0.0, 0.0, 27.350314]
      ],
      "pbc": [true, true, true],
      "a": 5.470973,
      "b": 13.495802,
      "c": 27.350314,
      "alpha": 90.0,
      "beta": 90.0,
      "gamma": 90.0,
      "volume": 2019.4150387615766
    },
    "properties": {},
    "sites": [
      {
        "species": [{ "element": "Sr", "occu": 1 }],
        "abc": [0.25, 0.044385999999999, 0.298767],
        "properties": { "magmom": 0.0 },
        "label": "Sr",
        "xyz": [1.36774325, 0.5990246675719865, 8.171371262838]
      },
      {
        "species": [{ "element": "Sr", "occu": 1 }],
        "abc": [0.25, 0.544385999999999, 0.201233],
        "properties": { "magmom": -0.0 },
        "label": "Sr",
        "xyz": [1.36774325, 7.346925667571987, 5.5037857371620005]
      },
      {
        "species": [{ "element": "Sr", "occu": 1 }],
        "abc": [0.75, 0.955614, 0.701233],
        "properties": { "magmom": -0.0 },
        "label": "Sr",
        "xyz": [4.10322975, 12.896777332427998, 19.178942737162]
      },
      {
        "species": [{ "element": "Sr", "occu": 1 }],
        "abc": [0.75, 0.455613999999999, 0.798767],
        "properties": { "magmom": 0.0 },
        "label": "Sr",
        "xyz": [4.10322975, 6.148876332427987, 21.846528262838]
      },
      {
        "species": [{ "element": "Sr", "occu": 1 }],
        "abc": [0.25, 0.078135, 0.905011],
        "properties": { "magmom": -0.0 },
        "label": "Sr",
        "xyz": [1.36774325, 1.05449448927, 24.752335023454002]
      },
      {
        "species": [{ "element": "Sr", "occu": 1 }],
        "abc": [0.25, 0.578135, 0.594989],
        "properties": { "magmom": 0.0 },
        "label": "Sr",
        "xyz": [1.36774325, 7.802395489269999, 16.273135976546]
      },
      {
        "species": [{ "element": "Sr", "occu": 1 }],
        "abc": [0.75, 0.921864999999999, 0.094988999999999],
        "properties": { "magmom": -0.0 },
        "label": "Sr",
        "xyz": [4.10322975, 12.441307510729986, 2.597978976545973]
      },
      {
        "species": [{ "element": "Sr", "occu": 1 }],
        "abc": [0.75, 0.421865, 0.405010999999999],
        "properties": { "magmom": 0.0 },
        "label": "Sr",
        "xyz": [4.10322975, 5.69340651073, 11.077178023453973]
      },
      {
        "species": [{ "element": "Hg", "occu": 1 }],
        "abc": [0.25, 0.008013, 0.44872000000000006],
        "properties": { "magmom": -0.0 },
        "label": "Hg",
        "xyz": [1.36774325, 0.10814186142599999, 12.272632898080003]
      },
      {
        "species": [{ "element": "Hg", "occu": 1 }],
        "abc": [0.25, 0.508012999999999, 0.051280000000000006],
        "properties": { "magmom": 0.0 },
        "label": "Hg",
        "xyz": [1.36774325, 6.856042861425987, 1.4025241019200003]
      },
      {
        "species": [{ "element": "Hg", "occu": 1 }],
        "abc": [0.75, 0.991987, 0.55128],
        "properties": { "magmom": -0.0 },
        "label": "Hg",
        "xyz": [4.10322975, 13.387660138573999, 15.07768110192]
      },
      {
        "species": [{ "element": "Hg", "occu": 1 }],
        "abc": [0.75, 0.49198699999999906, 0.9487200000000001],
        "properties": { "magmom": 0.0 },
        "label": "Hg",
        "xyz": [4.10322975, 6.639759138573987, 25.947789898080003]
      },
      {
        "species": [{ "element": "Hg", "occu": 1 }],
        "abc": [0.25, 0.072601, 0.157627],
        "properties": { "magmom": -0.0 },
        "label": "Hg",
        "xyz": [1.36774325, 0.9798087210019999, 4.311147944878]
      },
      {
        "species": [{ "element": "Hg", "occu": 1 }],
        "abc": [0.25, 0.572601, 0.342373],
        "properties": { "magmom": 0.0 },
        "label": "Hg",
        "xyz": [1.36774325, 7.727709721002, 9.364009055122]
      },
      {
        "species": [{ "element": "Hg", "occu": 1 }],
        "abc": [0.75, 0.927399, 0.842372999999999],
        "properties": { "magmom": -0.0 },
        "label": "Hg",
        "xyz": [4.10322975, 12.515993278998, 23.039166055121974]
      },
      {
        "species": [{ "element": "Hg", "occu": 1 }],
        "abc": [0.75, 0.427399, 0.657627],
        "properties": { "magmom": 0.0 },
        "label": "Hg",
        "xyz": [4.10322975, 5.768092278997999, 17.986304944878]
      },
      {
        "species": [{ "element": "Hg", "occu": 1 }],
        "abc": [0.25, 0.071247999999999, 0.773301],
        "properties": { "magmom": -0.0 },
        "label": "Hg",
        "xyz": [1.36774325, 0.9615489008959865, 21.150025166514002]
      },
      {
        "species": [{ "element": "Hg", "occu": 1 }],
        "abc": [0.25, 0.571248, 0.726699],
        "properties": { "magmom": 0.0 },
        "label": "Hg",
        "xyz": [1.36774325, 7.709449900896, 19.875445833486]
      },
      {
        "species": [{ "element": "Hg", "occu": 1 }],
        "abc": [0.75, 0.928751999999999, 0.226698999999999],
        "properties": { "magmom": 0.0 },
        "label": "Hg",
        "xyz": [4.10322975, 12.534253099103987, 6.200288833485973]
      },
      {
        "species": [{ "element": "Hg", "occu": 1 }],
        "abc": [0.75, 0.428751999999999, 0.273300999999999],
        "properties": { "magmom": -0.0 },
        "label": "Hg",
        "xyz": [4.10322975, 5.786352099103986, 7.474868166513973]
      },
      {
        "species": [{ "element": "Hg", "occu": 1 }],
        "abc": [0.25, 0.126368, 0.667562],
        "properties": { "magmom": 0.0 },
        "label": "Hg",
        "xyz": [1.36774325, 1.705437507136, 18.258030314468]
      },
      {
        "species": [{ "element": "Hg", "occu": 1 }],
        "abc": [0.25, 0.626367999999999, 0.832438],
        "properties": { "magmom": -0.0 },
        "label": "Hg",
        "xyz": [1.36774325, 8.453338507135987, 22.767440685532]
      },
      {
        "species": [{ "element": "Hg", "occu": 1 }],
        "abc": [0.75, 0.873632, 0.332438],
        "properties": { "magmom": 0.0 },
        "label": "Hg",
        "xyz": [4.10322975, 11.790364492863999, 9.092283685532001]
      },
      {
        "species": [{ "element": "Hg", "occu": 1 }],
        "abc": [0.75, 0.373631999999999, 0.167562],
        "properties": { "magmom": -0.0 },
        "label": "Hg",
        "xyz": [4.10322975, 5.042463492863987, 4.582873314468]
      },
      {
        "species": [{ "element": "Hg", "occu": 1 }],
        "abc": [0.25, 0.135598, 0.539794],
        "properties": { "magmom": -0.0 },
        "label": "Hg",
        "xyz": [1.36774325, 1.830003759596, 14.763535395316]
      },
      {
        "species": [{ "element": "Hg", "occu": 1 }],
        "abc": [0.25, 0.635598, 0.960206],
        "properties": { "magmom": 0.0 },
        "label": "Hg",
        "xyz": [1.36774325, 8.577904759595999, 26.261935604684002]
      },
      {
        "species": [{ "element": "Hg", "occu": 1 }],
        "abc": [0.75, 0.864402, 0.460206],
        "properties": { "magmom": 0.0 },
        "label": "Hg",
        "xyz": [4.10322975, 11.665798240404, 12.586778604684001]
      },
      {
        "species": [{ "element": "Hg", "occu": 1 }],
        "abc": [0.75, 0.364402, 0.039793999999999004],
        "properties": { "magmom": -0.0 },
        "label": "Hg",
        "xyz": [4.10322975, 4.917897240404, 1.0883783953159727]
      },
      {
        "species": [{ "element": "Hg", "occu": 1 }],
        "abc": [0.25, 0.220543, 0.40784000000000004],
        "properties": { "magmom": 0.0 },
        "label": "Hg",
        "xyz": [1.36774325, 2.9764046604859997, 11.15455206176]
      },
      {
        "species": [{ "element": "Hg", "occu": 1 }],
        "abc": [0.25, 0.720542999999999, 0.09216],
        "properties": { "magmom": -0.0 },
        "label": "Hg",
        "xyz": [1.36774325, 9.724305660485987, 2.5206049382400004]
      },
      {
        "species": [{ "element": "Hg", "occu": 1 }],
        "abc": [0.75, 0.779457, 0.59216],
        "properties": { "magmom": 0.0 },
        "label": "Hg",
        "xyz": [4.10322975, 10.519397339513999, 16.19576193824]
      },
      {
        "species": [{ "element": "Hg", "occu": 1 }],
        "abc": [0.75, 0.279457, 0.9078400000000001],
        "properties": { "magmom": -0.0 },
        "label": "Hg",
        "xyz": [4.10322975, 3.771496339514, 24.829709061760003]
      },
      {
        "species": [{ "element": "Hg", "occu": 1 }],
        "abc": [0.25, 0.271968999999999, 0.218499],
        "properties": { "magmom": -0.0 },
        "label": "Hg",
        "xyz": [1.36774325, 3.6704397741379866, 5.976016258686]
      },
      {
        "species": [{ "element": "Hg", "occu": 1 }],
        "abc": [0.25, 0.771969, 0.281501],
        "properties": { "magmom": 0.0 },
        "label": "Hg",
        "xyz": [1.36774325, 10.418340774138, 7.699140741314]
      },
      {
        "species": [{ "element": "Hg", "occu": 1 }],
        "abc": [0.75, 0.728031, 0.781501],
        "properties": { "magmom": 0.0 },
        "label": "Hg",
        "xyz": [4.10322975, 9.825362225862, 21.374297741314003]
      },
      {
        "species": [{ "element": "Hg", "occu": 1 }],
        "abc": [0.75, 0.228030999999999, 0.718499],
        "properties": { "magmom": -0.0 },
        "label": "Hg",
        "xyz": [4.10322975, 3.0774612258619864, 19.651173258686]
      },
      {
        "species": [{ "element": "Hg", "occu": 1 }],
        "abc": [0.25, 0.277798999999999, 0.815628999999999],
        "properties": { "magmom": -0.0 },
        "label": "Hg",
        "xyz": [1.36774325, 3.7491202997979864, 22.307709257505973]
      },
      {
        "species": [{ "element": "Hg", "occu": 1 }],
        "abc": [0.25, 0.777799, 0.684371],
        "properties": { "magmom": 0.0 },
        "label": "Hg",
        "xyz": [1.36774325, 10.497021299798, 18.717761742493998]
      },
      {
        "species": [{ "element": "Hg", "occu": 1 }],
        "abc": [0.75, 0.722201, 0.184370999999999],
        "properties": { "magmom": 0.0 },
        "label": "Hg",
        "xyz": [4.10322975, 9.746681700202, 5.042604742493973]
      },
      {
        "species": [{ "element": "Hg", "occu": 1 }],
        "abc": [0.75, 0.222200999999999, 0.315629],
        "properties": { "magmom": -0.0 },
        "label": "Hg",
        "xyz": [4.10322975, 2.9987807002019866, 8.632552257506001]
      },
      {
        "species": [{ "element": "Hg", "occu": 1 }],
        "abc": [0.25, 0.285675, 0.986432],
        "properties": { "magmom": -0.0 },
        "label": "Hg",
        "xyz": [1.36774325, 3.85541323635, 26.979224939648]
      },
      {
        "species": [{ "element": "Hg", "occu": 1 }],
        "abc": [0.25, 0.785675, 0.513568],
        "properties": { "magmom": 0.0 },
        "label": "Hg",
        "xyz": [1.36774325, 10.60331423635, 14.046246060352]
      },
      {
        "species": [{ "element": "Hg", "occu": 1 }],
        "abc": [0.75, 0.714325, 0.013568],
        "properties": { "magmom": -0.0 },
        "label": "Hg",
        "xyz": [4.10322975, 9.64038876365, 0.371089060352]
      },
      {
        "species": [{ "element": "Hg", "occu": 1 }],
        "abc": [0.75, 0.214325, 0.486432],
        "properties": { "magmom": 0.0 },
        "label": "Hg",
        "xyz": [4.10322975, 2.8924877636499997, 13.304067939648]
      },
      {
        "species": [{ "element": "Hg", "occu": 1 }],
        "abc": [0.25, 0.310394, 0.106669],
        "properties": { "magmom": -0.0 },
        "label": "Hg",
        "xyz": [1.36774325, 4.189015965988, 2.917430644066]
      },
      {
        "species": [{ "element": "Hg", "occu": 1 }],
        "abc": [0.25, 0.810394, 0.393331],
        "properties": { "magmom": 0.0 },
        "label": "Hg",
        "xyz": [1.36774325, 10.936916965987999, 10.757726355934]
      },
      {
        "species": [{ "element": "Hg", "occu": 1 }],
        "abc": [0.75, 0.689605999999999, 0.893331],
        "properties": { "magmom": 0.0 },
        "label": "Hg",
        "xyz": [4.10322975, 9.306786034011987, 24.432883355934]
      },
      {
        "species": [{ "element": "Hg", "occu": 1 }],
        "abc": [0.75, 0.189606, 0.606669],
        "properties": { "magmom": -0.0 },
        "label": "Hg",
        "xyz": [4.10322975, 2.558885034012, 16.592587644066]
      },
      {
        "species": [{ "element": "Hg", "occu": 1 }],
        "abc": [0.25, 0.325561, 0.604139],
        "properties": { "magmom": -0.0 },
        "label": "Hg",
        "xyz": [1.36774325, 4.393706794921999, 16.523391349646]
      },
      {
        "species": [{ "element": "Hg", "occu": 1 }],
        "abc": [0.25, 0.825561, 0.895860999999999],
        "properties": { "magmom": 0.0 },
        "label": "Hg",
        "xyz": [1.36774325, 11.141607794921999, 24.502079650353974]
      },
      {
        "species": [{ "element": "Hg", "occu": 1 }],
        "abc": [0.75, 0.674439, 0.395860999999999],
        "properties": { "magmom": 0.0 },
        "label": "Hg",
        "xyz": [4.10322975, 9.102095205078, 10.826922650353973]
      },
      {
        "species": [{ "element": "Hg", "occu": 1 }],
        "abc": [0.75, 0.174438999999999, 0.104139],
        "properties": { "magmom": -0.0 },
        "label": "Hg",
        "xyz": [4.10322975, 2.3541942050779867, 2.848234349646]
      },
      {
        "species": [{ "element": "Hg", "occu": 1 }],
        "abc": [0.25, 0.355039, 0.320717],
        "properties": { "magmom": 0.0 },
        "label": "Hg",
        "xyz": [1.36774325, 4.791536046278, 8.771710655138]
      },
      {
        "species": [{ "element": "Hg", "occu": 1 }],
        "abc": [0.25, 0.855039, 0.179283],
        "properties": { "magmom": -0.0 },
        "label": "Hg",
        "xyz": [1.36774325, 11.539437046278, 4.903446344862]
      },
      {
        "species": [{ "element": "Hg", "occu": 1 }],
        "abc": [0.75, 0.644961, 0.679283],
        "properties": { "magmom": 0.0 },
        "label": "Hg",
        "xyz": [4.10322975, 8.704265953722, 18.578603344862]
      },
      {
        "species": [{ "element": "Hg", "occu": 1 }],
        "abc": [0.75, 0.144961, 0.820716999999999],
        "properties": { "magmom": -0.0 },
        "label": "Hg",
        "xyz": [4.10322975, 1.956364953722, 22.446867655137975]
      },
      {
        "species": [{ "element": "Hg", "occu": 1 }],
        "abc": [0.25, 0.354077, 0.714110999999999],
        "properties": { "magmom": -0.0 },
        "label": "Hg",
        "xyz": [1.36774325, 4.778553084754, 19.531160080853976]
      },
      {
        "species": [{ "element": "Hg", "occu": 1 }],
        "abc": [0.25, 0.854077, 0.785889],
        "properties": { "magmom": 0.0 },
        "label": "Hg",
        "xyz": [1.36774325, 11.526454084753999, 21.494310919146]
      },
      {
        "species": [{ "element": "Hg", "occu": 1 }],
        "abc": [0.75, 0.645923, 0.285889],
        "properties": { "magmom": 0.0 },
        "label": "Hg",
        "xyz": [4.10322975, 8.717248915246, 7.819153919146]
      },
      {
        "species": [{ "element": "Hg", "occu": 1 }],
        "abc": [0.75, 0.145923, 0.214111],
        "properties": { "magmom": -0.0 },
        "label": "Hg",
        "xyz": [4.10322975, 1.9693479152459998, 5.856003080854]
      },
      {
        "species": [{ "element": "Hg", "occu": 1 }],
        "abc": [0.25, 0.372537, 0.490313],
        "properties": { "magmom": 0.0 },
        "label": "Hg",
        "xyz": [1.36774325, 5.027685589674, 13.410214508282001]
      },
      {
        "species": [{ "element": "Hg", "occu": 1 }],
        "abc": [0.25, 0.872537, 0.009687],
        "properties": { "magmom": -0.0 },
        "label": "Hg",
        "xyz": [1.36774325, 11.775586589673999, 0.264942491718]
      },
      {
        "species": [{ "element": "Hg", "occu": 1 }],
        "abc": [0.75, 0.627463, 0.509687],
        "properties": { "magmom": 0.0 },
        "label": "Hg",
        "xyz": [4.10322975, 8.468116410326, 13.940099491718]
      },
      {
        "species": [{ "element": "Hg", "occu": 1 }],
        "abc": [0.75, 0.127463, 0.990313],
        "properties": { "magmom": -0.0 },
        "label": "Hg",
        "xyz": [4.10322975, 1.720215410326, 27.085371508282]
      },
      {
        "species": [{ "element": "Hg", "occu": 1 }],
        "abc": [0.25, 0.430036, 0.894372],
        "properties": { "magmom": 0.0 },
        "label": "Hg",
        "xyz": [1.36774325, 5.803680708871999, 24.461355032808]
      },
      {
        "species": [{ "element": "Hg", "occu": 1 }],
        "abc": [0.25, 0.930036, 0.6056279999999991],
        "properties": { "magmom": -0.0 },
        "label": "Hg",
        "xyz": [1.36774325, 12.551581708872, 16.564115967191974]
      },
      {
        "species": [{ "element": "Hg", "occu": 1 }],
        "abc": [0.75, 0.569964, 0.105628],
        "properties": { "magmom": 0.0 },
        "label": "Hg",
        "xyz": [4.10322975, 7.692121291128, 2.888958967192]
      },
      {
        "species": [{ "element": "Hg", "occu": 1 }],
        "abc": [0.75, 0.069964, 0.394372],
        "properties": { "magmom": -0.0 },
        "label": "Hg",
        "xyz": [4.10322975, 0.944220291128, 10.786198032808]
      },
      {
        "species": [{ "element": "Hg", "occu": 1 }],
        "abc": [0.25, 0.5844900000000001, 0.453026],
        "properties": { "magmom": 0.0 },
        "label": "Hg",
        "xyz": [1.36774325, 7.88816131098, 12.390403350164]
      },
      {
        "species": [{ "element": "Hg", "occu": 1 }],
        "abc": [0.25, 0.08449000000000001, 0.046973999999999],
        "properties": { "magmom": -0.0 },
        "label": "Hg",
        "xyz": [1.36774325, 1.14026031098, 1.2847536498359728]
      },
      {
        "species": [{ "element": "Hg", "occu": 1 }],
        "abc": [0.75, 0.41551000000000005, 0.546974],
        "properties": { "magmom": 0.0 },
        "label": "Hg",
        "xyz": [4.10322975, 5.60764068902, 14.959910649835999]
      },
      {
        "species": [{ "element": "Hg", "occu": 1 }],
        "abc": [0.75, 0.91551, 0.953025999999999],
        "properties": { "magmom": -0.0 },
        "label": "Hg",
        "xyz": [4.10322975, 12.35554168902, 26.065560350163974]
      }
    ]
  },
  "task_ids": null,
  "uncorrected_energy_per_atom": null,
  "energy_per_atom": -0.627969476944444,
  "formation_energy_per_atom": -0.164657878055561,
  "energy_above_hull": 0.028153434920633002,
  "is_stable": false,
  "equilibrium_reaction_energy_per_atom": null,
  "decomposes_to": null,
  "xas": null,
  "grain_boundaries": null,
  "band_gap": 0.0,
  "cbm": null,
  "vbm": null,
  "efermi": 2.32698817,
  "is_gap_direct": null,
  "is_metal": null,
  "es_source_calc_id": null,
  "bandstructure": null,
  "dos": null,
  "dos_energy_up": null,
  "dos_energy_down": null,
  "is_magnetic": null,
  "ordering": null,
  "total_magnetization": 0.0166875,
  "total_magnetization_normalized_vol": null,
  "total_magnetization_normalized_formula_units": null,
  "num_magnetic_sites": null,
  "num_unique_magnetic_sites": null,
  "types_of_magnetic_species": null,
  "bulk_modulus": null,
  "shear_modulus": null,
  "universal_anisotropy": null,
  "homogeneous_poisson": null,
  "e_total": null,
  "e_ionic": null,
  "e_electronic": null,
  "n": null,
  "e_ij_max": null,
  "weighted_surface_energy_EV_PER_ANG2": null,
  "weighted_surface_energy": null,
  "weighted_work_function": null,
  "surface_anisotropy": null,
  "shape_factor": null,
  "has_reconstructed": null,
  "possible_species": null,
  "has_props": null,
  "theoretical": null,
  "database_IDs": null,
  "fields_not_requested": [
    "builder_meta",
    "nsites",
    "elements",
    "nelements",
    "composition",
    "composition_reduced",
    "chemsys",
    "symmetry",
    "property_name",
    "deprecated",
    "deprecation_reasons",
    "last_updated",
    "origins",
    "warnings",
    "task_ids",
    "uncorrected_energy_per_atom",
    "equilibrium_reaction_energy_per_atom",
    "decomposes_to",
    "xas",
    "grain_boundaries",
    "cbm",
    "vbm",
    "is_gap_direct",
    "is_metal",
    "es_source_calc_id",
    "bandstructure",
    "dos",
    "dos_energy_up",
    "dos_energy_down",
    "is_magnetic",
    "ordering",
    "total_magnetization_normalized_vol",
    "total_magnetization_normalized_formula_units",
    "num_magnetic_sites",
    "num_unique_magnetic_sites",
    "types_of_magnetic_species",
    "bulk_modulus",
    "shear_modulus",
    "universal_anisotropy",
    "homogeneous_poisson",
    "e_total",
    "e_ionic",
    "e_electronic",
    "n",
    "e_ij_max",
    "weighted_surface_energy_EV_PER_ANG2",
    "weighted_surface_energy",
    "weighted_work_function",
    "surface_anisotropy",
    "shape_factor",
    "has_reconstructed",
    "possible_species",
    "has_props",
    "theoretical",
    "database_IDs"
  ]
}
