{"builder_meta": null, "nsites": null, "elements": null, "nelements": null, "composition": null, "composition_reduced": null, "formula_pretty": "SrHg2", "formula_anonymous": "AB2", "chemsys": null, "volume": 172.91899815161662, "density": 9.387881082244075, "density_atomic": 28.819833025269435, "symmetry": null, "property_name": null, "material_id": "mp-568526", "deprecated": null, "deprecation_reasons": null, "last_updated": null, "origins": null, "warnings": null, "structure": {"@module": "pymatgen.core.structure", "@class": "Structure", "charge": 0, "lattice": {"matrix": [[4.61202943, -0.0, 1.98803895], [2.07331863, 5.85434006, 1.5338474400000002], [-0.02303021, 0.02522503, 6.39714605]], "pbc": [true, true, true], "a": 5.022261873887425, "b": 6.397236563456165, "c": 6.397237237881814, "alpha": 75.98325239010163, "beta": 66.8877522826377, "gamma": 66.88775846201149, "volume": 172.91899815161662}, "properties": {}, "sites": [{"species": [{"element": "Sr", "occu": 1}], "abc": [0.48897069, 0.26102931, 0.7610293100000001], "properties": {"magmom": -0.0}, "label": "Sr", "xyz": [2.7788174792609963, 1.547351333542788, 6.240887560437568]}, {"species": [{"element": "Sr", "occu": 1}], "abc": [0.51102931, 0.73897069, 0.23897069], "properties": {"magmom": -0.0}, "label": "Sr", "xyz": [3.883500370739003, 4.332213756457212, 3.6781448795624327]}, {"species": [{"element": "Hg", "occu": 1}], "abc": [0.83388795, 0.68130754, 0.65091256], "properties": {"magmom": 0.0}, "label": "Hg", "xyz": [5.243492729215401, 4.0050253134554294, 6.8668062627167386]}, {"species": [{"element": "Hg", "occu": 1}], "abc": [0.16611205, 0.84908744, 0.8186924600000001], "properties": {"magmom": 0.0}, "label": "Hg", "xyz": [2.507687811849422, 4.99149815629912, 6.869903058298284]}, {"species": [{"element": "Hg", "occu": 1}], "abc": [0.83388795, 0.15091256, 0.18130854], "properties": {"magmom": 0.0}, "label": "Hg", "xyz": [4.154630015120368, 0.8880669589259098, 3.049135778847766]}, {"species": [{"element": "Hg", "occu": 1}], "abc": [0.16611205, 0.31869246, 0.34908744], "properties": {"magmom": 0.0}, "label": "Hg", "xyz": [1.4188251207845992, 1.8745397765445708, 3.052226177283262]}]}, "task_ids": null, "uncorrected_energy_per_atom": null, "energy_per_atom": -1.256953209999996, "formation_energy_per_atom": -0.48636248833333406, "energy_above_hull": 0.0, "is_stable": true, "equilibrium_reaction_energy_per_atom": null, "decomposes_to": null, "xas": null, "grain_boundaries": null, "band_gap": 0.0, "cbm": null, "vbm": null, "efermi": 2.76528161, "is_gap_direct": null, "is_metal": null, "es_source_calc_id": null, "bandstructure": null, "dos": null, "dos_energy_up": null, "dos_energy_down": null, "is_magnetic": null, "ordering": null, "total_magnetization": 0.0, "total_magnetization_normalized_vol": null, "total_magnetization_normalized_formula_units": null, "num_magnetic_sites": null, "num_unique_magnetic_sites": null, "types_of_magnetic_species": null, "bulk_modulus": null, "shear_modulus": null, "universal_anisotropy": null, "homogeneous_poisson": null, "e_total": null, "e_ionic": null, "e_electronic": null, "n": null, "e_ij_max": null, "weighted_surface_energy_EV_PER_ANG2": null, "weighted_surface_energy": null, "weighted_work_function": null, "surface_anisotropy": null, "shape_factor": null, "has_reconstructed": null, "possible_species": null, "has_props": null, "theoretical": null, "database_IDs": null, "fields_not_requested": ["builder_meta", "nsites", "elements", "nelements", "composition", "composition_reduced", "chemsys", "symmetry", "property_name", "deprecated", "deprecation_reasons", "last_updated", "origins", "warnings", "task_ids", "uncorrected_energy_per_atom", "equilibrium_reaction_energy_per_atom", "decomposes_to", "xas", "grain_boundaries", "cbm", "vbm", "is_gap_direct", "is_metal", "es_source_calc_id", "bandstructure", "dos", "dos_energy_up", "dos_energy_down", "is_magnetic", "ordering", "total_magnetization_normalized_vol", "total_magnetization_normalized_formula_units", "num_magnetic_sites", "num_unique_magnetic_sites", "types_of_magnetic_species", "bulk_modulus", "shear_modulus", "universal_anisotropy", "homogeneous_poisson", "e_total", "e_ionic", "e_electronic", "n", "e_ij_max", "weighted_surface_energy_EV_PER_ANG2", "weighted_surface_energy", "weighted_work_function", "surface_anisotropy", "shape_factor", "has_reconstructed", "possible_species", "has_props", "theoretical", "database_IDs"]}