{
  "builder_meta": null,
  "nsites": null,
  "elements": null,
  "nelements": null,
  "composition": null,
  "composition_reduced": null,
  "formula_pretty": "SrI2",
  "formula_anonymous": "AB2",
  "chemsys": null,
  "volume": 534.5025542574858,
  "density": 4.242869103781365,
  "density_atomic": 44.541879521457155,
  "symmetry": null,
  "property_name": null,
  "material_id": "mp-568284",
  "deprecated": null,
  "deprecation_reasons": null,
  "last_updated": null,
  "origins": null,
  "warnings": null,
  "structure": {
    "@module": "pymatgen.core.structure",
    "@class": "Structure",
    "charge": 0,
    "lattice": {
      "matrix": [
        [5.015496, 0.0, 0.0],
        [0.0, 8.500977, 0.0],
        [0.0, 0.0, 12.536233]
      ],
      "pbc": [true, true, true],
      "a": 5.015496,
      "b": 8.500977,
      "c": 12.536233,
      "alpha": 90.0,
      "beta": 90.0,
      "gamma": 90.0,
      "volume": 534.5025542574858
    },
    "properties": {},
    "sites": [
      {
        "species": [{ "element": "Sr", "occu": 1 }],
        "abc": [0.25, 0.131904, 0.170175],
        "properties": { "magmom": 0.0 },
        "label": "Sr",
        "xyz": [1.253874, 1.121312870208, 2.1333534507749996]
      },
      {
        "species": [{ "element": "Sr", "occu": 1 }],
        "abc": [0.75, 0.631904, 0.329825],
        "properties": { "magmom": 0.0 },
        "label": "Sr",
        "xyz": [3.761622, 5.371801370208001, 4.134763049225]
      },
      {
        "species": [{ "element": "Sr", "occu": 1 }],
        "abc": [0.25, 0.368096, 0.670175],
        "properties": { "magmom": 0.0 },
        "label": "Sr",
        "xyz": [1.253874, 3.129175629792, 8.401469950774999]
      },
      {
        "species": [{ "element": "Sr", "occu": 1 }],
        "abc": [0.75, 0.868096, 0.829824999999999],
        "properties": { "magmom": 0.0 },
        "label": "Sr",
        "xyz": [3.761622, 7.379664129792, 10.402879549224988]
      },
      {
        "species": [{ "element": "I", "occu": 1 }],
        "abc": [0.25, 0.376976, 0.391847],
        "properties": { "magmom": 0.0 },
        "label": "I",
        "xyz": [1.253874, 3.204664305552, 4.912285292351]
      },
      {
        "species": [{ "element": "I", "occu": 1 }],
        "abc": [0.25, 0.880563, 0.377536],
        "properties": { "magmom": 0.0 },
        "label": "I",
        "xyz": [1.253874, 7.485645810051, 4.732879261888]
      },
      {
        "species": [{ "element": "I", "occu": 1 }],
        "abc": [0.75, 0.380563, 0.122463999999999],
        "properties": { "magmom": 0.0 },
        "label": "I",
        "xyz": [3.761622, 3.235157310051, 1.5352372381119874]
      },
      {
        "species": [{ "element": "I", "occu": 1 }],
        "abc": [0.25, 0.619437, 0.877536],
        "properties": { "magmom": 0.0 },
        "label": "I",
        "xyz": [1.253874, 5.265819689949001, 11.000995761888]
      },
      {
        "species": [{ "element": "I", "occu": 1 }],
        "abc": [0.25, 0.123024, 0.891847],
        "properties": { "magmom": 0.0 },
        "label": "I",
        "xyz": [1.253874, 1.045824194448, 11.180401792350999]
      },
      {
        "species": [{ "element": "I", "occu": 1 }],
        "abc": [0.75, 0.876976, 0.108153],
        "properties": { "magmom": 0.0 },
        "label": "I",
        "xyz": [3.761622, 7.455152805552, 1.355831207649]
      },
      {
        "species": [{ "element": "I", "occu": 1 }],
        "abc": [0.75, 0.119437, 0.622464],
        "properties": { "magmom": 0.0 },
        "label": "I",
        "xyz": [3.761622, 1.015331189949, 7.8033537381119995]
      },
      {
        "species": [{ "element": "I", "occu": 1 }],
        "abc": [0.75, 0.623024, 0.608152999999999],
        "properties": { "magmom": 0.0 },
        "label": "I",
        "xyz": [3.761622, 5.296312694448001, 7.623947707648988]
      }
    ]
  },
  "task_ids": null,
  "uncorrected_energy_per_atom": null,
  "energy_per_atom": -3.5413490474999962,
  "formation_energy_per_atom": -1.961197940833329,
  "energy_above_hull": 0.0,
  "is_stable": true,
  "equilibrium_reaction_energy_per_atom": null,
  "decomposes_to": null,
  "xas": null,
  "grain_boundaries": null,
  "band_gap": 3.801999999999999,
  "cbm": null,
  "vbm": null,
  "efermi": 1.2094033,
  "is_gap_direct": null,
  "is_metal": null,
  "es_source_calc_id": null,
  "bandstructure": null,
  "dos": null,
  "dos_energy_up": null,
  "dos_energy_down": null,
  "is_magnetic": null,
  "ordering": null,
  "total_magnetization": 5.5e-6,
  "total_magnetization_normalized_vol": null,
  "total_magnetization_normalized_formula_units": null,
  "num_magnetic_sites": null,
  "num_unique_magnetic_sites": null,
  "types_of_magnetic_species": null,
  "bulk_modulus": null,
  "shear_modulus": null,
  "universal_anisotropy": null,
  "homogeneous_poisson": null,
  "e_total": null,
  "e_ionic": null,
  "e_electronic": null,
  "n": null,
  "e_ij_max": null,
  "weighted_surface_energy_EV_PER_ANG2": null,
  "weighted_surface_energy": null,
  "weighted_work_function": null,
  "surface_anisotropy": null,
  "shape_factor": null,
  "has_reconstructed": null,
  "possible_species": null,
  "has_props": null,
  "theoretical": null,
  "database_IDs": null,
  "fields_not_requested": [
    "builder_meta",
    "nsites",
    "elements",
    "nelements",
    "composition",
    "composition_reduced",
    "chemsys",
    "symmetry",
    "property_name",
    "deprecated",
    "deprecation_reasons",
    "last_updated",
    "origins",
    "warnings",
    "task_ids",
    "uncorrected_energy_per_atom",
    "equilibrium_reaction_energy_per_atom",
    "decomposes_to",
    "xas",
    "grain_boundaries",
    "cbm",
    "vbm",
    "is_gap_direct",
    "is_metal",
    "es_source_calc_id",
    "bandstructure",
    "dos",
    "dos_energy_up",
    "dos_energy_down",
    "is_magnetic",
    "ordering",
    "total_magnetization_normalized_vol",
    "total_magnetization_normalized_formula_units",
    "num_magnetic_sites",
    "num_unique_magnetic_sites",
    "types_of_magnetic_species",
    "bulk_modulus",
    "shear_modulus",
    "universal_anisotropy",
    "homogeneous_poisson",
    "e_total",
    "e_ionic",
    "e_electronic",
    "n",
    "e_ij_max",
    "weighted_surface_energy_EV_PER_ANG2",
    "weighted_surface_energy",
    "weighted_work_function",
    "surface_anisotropy",
    "shape_factor",
    "has_reconstructed",
    "possible_species",
    "has_props",
    "theoretical",
    "database_IDs"
  ]
}
