{
  "builder_meta": null,
  "nsites": null,
  "elements": null,
  "nelements": null,
  "composition": null,
  "composition_reduced": null,
  "formula_pretty": "SrIn",
  "formula_anonymous": "AB",
  "chemsys": null,
  "volume": 576.8550447999221,
  "density": 4.661915822280297,
  "density_atomic": 36.05344029999513,
  "symmetry": null,
  "property_name": null,
  "material_id": "mp-608072",
  "deprecated": null,
  "deprecation_reasons": null,
  "last_updated": null,
  "origins": null,
  "warnings": null,
  "structure": {
    "@module": "pymatgen.core.structure",
    "@class": "Structure",
    "charge": 0,
    "lattice": {
      "matrix": [
        [6.540999, 0.023316, -1.304468],
        [-1.5564040000000001, 6.359249, -1.305628],
        [-0.014523999999999001, -0.020897, 13.864195]
      ],
      "pbc": [true, true, true],
      "a": 6.66984619889252,
      "b": 6.67585992435439,
      "c": 13.864218356229463,
      "alpha": 101.34789048492361,
      "beta": 101.33874478745332,
      "gamma": 100.78099911883449,
      "volume": 576.8550447999221
    },
    "properties": {},
    "sites": [
      {
        "species": [{ "element": "Sr", "occu": 1 }],
        "abc": [0.7213400000000001, 0.419832, 0.639959],
        "properties": { "magmom": 0.0 },
        "label": "Sr",
        "xyz": [4.055561250016002, 2.6732617663849996, 7.383407006389]
      },
      {
        "species": [{ "element": "Sr", "occu": 1 }],
        "abc": [0.209304, 0.910526, 0.154971],
        "properties": { "magmom": 0.0 },
        "label": "Sr",
        "xyz": [-0.050339852611999726, 5.791903258051, 0.686709552745]
      },
      {
        "species": [{ "element": "Sr", "occu": 1 }],
        "abc": [0.777934, 0.074522999999999, 0.358654],
        "properties": { "magmom": 0.0 },
        "label": "Sr",
        "xyz": [4.967268530078002, 0.48455382973299366, 3.860359668974001]
      },
      {
        "species": [{ "element": "Sr", "occu": 1 }],
        "abc": [0.301438, 0.503836, 0.344479],
        "properties": { "magmom": 0.0 },
        "label": "Sr",
        "xyz": [1.1825300778220005, 3.203848329909, 3.7248854154130004]
      },
      {
        "species": [{ "element": "Sr", "occu": 1 }],
        "abc": [0.33134399999999903, 0.528644, 0.857815],
        "properties": { "magmom": 0.0 },
        "label": "Sr",
        "xyz": [1.3320782314199942, 3.3515786850050002, 10.770474380501001]
      },
      {
        "species": [{ "element": "Sr", "occu": 1 }],
        "abc": [0.761193, 0.057346999999999, 0.8443400000000001],
        "properties": { "magmom": 0.0 },
        "label": "Sr",
        "xyz": [4.8774443574590025, 0.36478765541099367, 10.638268647060004]
      },
      {
        "species": [{ "element": "Sr", "occu": 1 }],
        "abc": [0.166792, 0.964097, 0.654466],
        "properties": { "magmom": 0.0 },
        "label": "Sr",
        "xyz": [-0.4190435861639994, 6.1211454294230006, 7.597317380298]
      },
      {
        "species": [{ "element": "Sr", "occu": 1 }],
        "abc": [0.668181, 0.468435999999999, 0.14294],
        "properties": { "magmom": 0.0 },
        "label": "Sr",
        "xyz": [3.639419528115002, 2.991493455579994, 0.4985241427840015]
      },
      {
        "species": [{ "element": "In", "occu": 1 }],
        "abc": [0.872082999999999, 0.626852, 0.427317],
        "properties": { "magmom": -0.0 },
        "label": "In",
        "xyz": [4.722452718600995, 3.997711798027, 3.968366324915001]
      },
      {
        "species": [{ "element": "In", "occu": 1 }],
        "abc": [0.28757000000000005, 0.037558, 0.931833999999999],
        "properties": { "magmom": -0.0 },
        "label": "In",
        "xyz": [1.8090057039820011, 0.22607312096400003, 12.494965644445987]
      },
      {
        "species": [{ "element": "In", "occu": 1 }],
        "abc": [0.10480199999999901, 0.3552, 0.07041599999999901],
        "properties": { "magmom": -0.0 },
        "label": "In",
        "xyz": [0.13165235441399356, 2.25977732508, 0.3757912341839875]
      },
      {
        "species": [{ "element": "In", "occu": 1 }],
        "abc": [0.20735699999999901, 0.446915, 0.574098],
        "properties": { "magmom": -0.0 },
        "label": "In",
        "xyz": [0.6524034366309941, 2.834881576741, 7.1054113124140015]
      },
      {
        "species": [{ "element": "In", "occu": 1 }],
        "abc": [0.69457, 0.950542999999999, 0.073348],
        "properties": { "magmom": -0.0 },
        "label": "In",
        "xyz": [3.0626874417060024, 6.059401463170994, -1.1301889199039987]
      },
      {
        "species": [{ "element": "In", "occu": 1 }],
        "abc": [0.881518999999999, 0.622472, 0.925955],
        "properties": { "magmom": -0.0 },
        "label": "In",
        "xyz": [4.783748416372995, 3.959658258897, 10.874990481917001]
      },
      {
        "species": [{ "element": "In", "occu": 1 }],
        "abc": [0.605768, 0.856378, 0.567381999999999],
        "properties": { "magmom": -0.0 },
        "label": "In",
        "xyz": [2.621217081352001, 5.448188445155999, 5.957978620681988]
      },
      {
        "species": [{ "element": "In", "occu": 1 }],
        "abc": [0.285572, 0.033476, 0.428135999999999],
        "properties": { "magmom": -0.0 },
        "label": "In",
        "xyz": [1.8096057388600004, 0.210593858284, 5.519534251895986]
      }
    ]
  },
  "task_ids": null,
  "uncorrected_energy_per_atom": null,
  "energy_per_atom": -2.645871494375,
  "formation_energy_per_atom": -0.42007057770833206,
  "energy_above_hull": 0.0,
  "is_stable": true,
  "equilibrium_reaction_energy_per_atom": null,
  "decomposes_to": null,
  "xas": null,
  "grain_boundaries": null,
  "band_gap": 0.0,
  "cbm": null,
  "vbm": null,
  "efermi": 3.85114132,
  "is_gap_direct": null,
  "is_metal": null,
  "es_source_calc_id": null,
  "bandstructure": null,
  "dos": null,
  "dos_energy_up": null,
  "dos_energy_down": null,
  "is_magnetic": null,
  "ordering": null,
  "total_magnetization": 0.015307399999999001,
  "total_magnetization_normalized_vol": null,
  "total_magnetization_normalized_formula_units": null,
  "num_magnetic_sites": null,
  "num_unique_magnetic_sites": null,
  "types_of_magnetic_species": null,
  "bulk_modulus": null,
  "shear_modulus": null,
  "universal_anisotropy": null,
  "homogeneous_poisson": null,
  "e_total": null,
  "e_ionic": null,
  "e_electronic": null,
  "n": null,
  "e_ij_max": null,
  "weighted_surface_energy_EV_PER_ANG2": null,
  "weighted_surface_energy": null,
  "weighted_work_function": null,
  "surface_anisotropy": null,
  "shape_factor": null,
  "has_reconstructed": null,
  "possible_species": null,
  "has_props": null,
  "theoretical": null,
  "database_IDs": null,
  "fields_not_requested": [
    "builder_meta",
    "nsites",
    "elements",
    "nelements",
    "composition",
    "composition_reduced",
    "chemsys",
    "symmetry",
    "property_name",
    "deprecated",
    "deprecation_reasons",
    "last_updated",
    "origins",
    "warnings",
    "task_ids",
    "uncorrected_energy_per_atom",
    "equilibrium_reaction_energy_per_atom",
    "decomposes_to",
    "xas",
    "grain_boundaries",
    "cbm",
    "vbm",
    "is_gap_direct",
    "is_metal",
    "es_source_calc_id",
    "bandstructure",
    "dos",
    "dos_energy_up",
    "dos_energy_down",
    "is_magnetic",
    "ordering",
    "total_magnetization_normalized_vol",
    "total_magnetization_normalized_formula_units",
    "num_magnetic_sites",
    "num_unique_magnetic_sites",
    "types_of_magnetic_species",
    "bulk_modulus",
    "shear_modulus",
    "universal_anisotropy",
    "homogeneous_poisson",
    "e_total",
    "e_ionic",
    "e_electronic",
    "n",
    "e_ij_max",
    "weighted_surface_energy_EV_PER_ANG2",
    "weighted_surface_energy",
    "weighted_work_function",
    "surface_anisotropy",
    "shape_factor",
    "has_reconstructed",
    "possible_species",
    "has_props",
    "theoretical",
    "database_IDs"
  ]
}
