{
  "builder_meta": null,
  "nsites": null,
  "elements": null,
  "nelements": null,
  "composition": null,
  "composition_reduced": null,
  "formula_pretty": "SrIn4",
  "formula_anonymous": "AB4",
  "chemsys": null,
  "volume": 286.46478526242845,
  "density": 6.3402943602933295,
  "density_atomic": 28.646478526242845,
  "symmetry": null,
  "property_name": null,
  "material_id": "mp-567207",
  "deprecated": null,
  "deprecation_reasons": null,
  "last_updated": null,
  "origins": null,
  "warnings": null,
  "structure": {
    "@module": "pymatgen.core.structure",
    "@class": "Structure",
    "charge": 0,
    "lattice": {
      "matrix": [
        [2.5270259900000003, 6.25503098, -0.08400364],
        [-2.5270259900000003, 6.25503098, -0.08400364],
        [0.0, 4.27470227, 9.004133]
      ],
      "pbc": [true, true, true],
      "a": 6.7467273197031234,
      "b": 6.7467273197031234,
      "c": 9.967321133525905,
      "alpha": 67.27130225998285,
      "beta": 67.27130225998285,
      "gamma": 43.99372505149639,
      "volume": 286.46478526242845
    },
    "properties": {},
    "sites": [
      {
        "species": [{ "element": "Sr", "occu": 1 }],
        "abc": [0.84488715, 0.84488715, 0.71086618],
        "properties": { "magmom": -0.0 },
        "label": "Sr",
        "xyz": [0.0, 13.608331869020041, 6.258786437943488]
      },
      {
        "species": [{ "element": "Sr", "occu": 1 }],
        "abc": [0.15511285, 0.15511285, 0.28913382],
        "properties": { "magmom": -0.0 },
        "label": "Sr",
        "xyz": [0.0, 3.176432360979957, 2.5773392820565117]
      },
      {
        "species": [{ "element": "In", "occu": 1 }],
        "abc": [0.16884536, 0.16884536, 0.63436317],
        "properties": { "magmom": 0.0 },
        "label": "In",
        "xyz": [0.0, 4.823979598061902, 5.6835231033073885]
      },
      {
        "species": [{ "element": "In", "occu": 1 }],
        "abc": [0.5698274, 0.5698274, 0.09220618],
        "properties": { "magmom": -0.0 },
        "label": "In",
        "xyz": [0.0, 7.522730047459732, 0.7345015565984679]
      },
      {
        "species": [{ "element": "In", "occu": 1 }],
        "abc": [0.8311546400000001, 0.8311546400000001, 0.36563683],
        "properties": { "magmom": 0.0 },
        "label": "In",
        "xyz": [0.0, 11.9607846319381, 3.1526026166926107]
      },
      {
        "species": [{ "element": "In", "occu": 1 }],
        "abc": [0.43055712, 0.43055712, 0.4140771],
        "properties": { "magmom": -0.0 },
        "label": "In",
        "xyz": [0.0, 7.156352567844172, 3.656068550038466]
      },
      {
        "species": [{ "element": "In", "occu": 1 }],
        "abc": [0.430172599999999, 0.430172599999999, 0.90779382],
        "properties": { "magmom": -0.0 },
        "label": "In",
        "xyz": [0.0, 9.262034182540255, 8.101624163401532]
      },
      {
        "species": [{ "element": "In", "occu": 1 }],
        "abc": [0.84362768, 0.84362768, 0.06228013],
        "properties": { "magmom": 0.0 },
        "label": "In",
        "xyz": [0.0, 10.820063561057946, 0.4190429819277796]
      },
      {
        "species": [{ "element": "In", "occu": 1 }],
        "abc": [0.56944288, 0.56944288, 0.5859229],
        "properties": { "magmom": -0.0 },
        "label": "In",
        "xyz": [0.0, 9.628411662155827, 5.180057169961533]
      },
      {
        "species": [{ "element": "In", "occu": 1 }],
        "abc": [0.15637232, 0.15637232, 0.93771987],
        "properties": { "magmom": 0.0 },
        "label": "In",
        "xyz": [0.0, 5.964700668942052, 8.41708273807222]
      }
    ]
  },
  "task_ids": null,
  "uncorrected_energy_per_atom": null,
  "energy_per_atom": -2.804402339999998,
  "formation_energy_per_atom": -0.25857772733333,
  "energy_above_hull": 0.007084296222223001,
  "is_stable": false,
  "equilibrium_reaction_energy_per_atom": null,
  "decomposes_to": null,
  "xas": null,
  "grain_boundaries": null,
  "band_gap": 0.0,
  "cbm": null,
  "vbm": null,
  "efermi": 5.97330261,
  "is_gap_direct": null,
  "is_metal": null,
  "es_source_calc_id": null,
  "bandstructure": null,
  "dos": null,
  "dos_energy_up": null,
  "dos_energy_down": null,
  "is_magnetic": null,
  "ordering": null,
  "total_magnetization": 0.0,
  "total_magnetization_normalized_vol": null,
  "total_magnetization_normalized_formula_units": null,
  "num_magnetic_sites": null,
  "num_unique_magnetic_sites": null,
  "types_of_magnetic_species": null,
  "bulk_modulus": null,
  "shear_modulus": null,
  "universal_anisotropy": null,
  "homogeneous_poisson": null,
  "e_total": null,
  "e_ionic": null,
  "e_electronic": null,
  "n": null,
  "e_ij_max": null,
  "weighted_surface_energy_EV_PER_ANG2": null,
  "weighted_surface_energy": null,
  "weighted_work_function": null,
  "surface_anisotropy": null,
  "shape_factor": null,
  "has_reconstructed": null,
  "possible_species": null,
  "has_props": null,
  "theoretical": null,
  "database_IDs": null,
  "fields_not_requested": [
    "builder_meta",
    "nsites",
    "elements",
    "nelements",
    "composition",
    "composition_reduced",
    "chemsys",
    "symmetry",
    "property_name",
    "deprecated",
    "deprecation_reasons",
    "last_updated",
    "origins",
    "warnings",
    "task_ids",
    "uncorrected_energy_per_atom",
    "equilibrium_reaction_energy_per_atom",
    "decomposes_to",
    "xas",
    "grain_boundaries",
    "cbm",
    "vbm",
    "is_gap_direct",
    "is_metal",
    "es_source_calc_id",
    "bandstructure",
    "dos",
    "dos_energy_up",
    "dos_energy_down",
    "is_magnetic",
    "ordering",
    "total_magnetization_normalized_vol",
    "total_magnetization_normalized_formula_units",
    "num_magnetic_sites",
    "num_unique_magnetic_sites",
    "types_of_magnetic_species",
    "bulk_modulus",
    "shear_modulus",
    "universal_anisotropy",
    "homogeneous_poisson",
    "e_total",
    "e_ionic",
    "e_electronic",
    "n",
    "e_ij_max",
    "weighted_surface_energy_EV_PER_ANG2",
    "weighted_surface_energy",
    "weighted_work_function",
    "surface_anisotropy",
    "shape_factor",
    "has_reconstructed",
    "possible_species",
    "has_props",
    "theoretical",
    "database_IDs"
  ]
}
