{"builder_meta": null, "nsites": null, "elements": null, "nelements": null, "composition": null, "composition_reduced": null, "formula_pretty": "SrIn3", "formula_anonymous": "AB3", "chemsys": null, "volume": 233.92049833499564, "density": 6.134355576095235, "density_atomic": 29.240062291874455, "symmetry": null, "property_name": null, "material_id": "mp-1080608", "deprecated": null, "deprecation_reasons": null, "last_updated": null, "origins": null, "warnings": null, "structure": {"@module": "pymatgen.core.structure", "@class": "Structure", "charge": 0, "lattice": {"matrix": [[3.719013239999999, -6.44151904, 0.0], [3.719013239999999, 6.44151904, 0.0], [0.0, 0.0, 4.88227531]], "pbc": [true, true, true], "a": 7.438025747601161, "b": 7.438025747601161, "c": 4.88227531, "alpha": 90.0, "beta": 90.0, "gamma": 119.99999348548668, "volume": 233.92049833499559}, "properties": {}, "sites": [{"species": [{"element": "Sr", "occu": 1}], "abc": [0.333333, 0.666667, 0.25], "properties": {"magmom": 0.0}, "label": "Sr", "xyz": [3.719013239999999, 2.14717730767936, 1.2205688275]}, {"species": [{"element": "Sr", "occu": 1}], "abc": [0.666667, 0.333333, 0.75], "properties": {"magmom": 0.0}, "label": "Sr", "xyz": [3.719013239999999, -2.14717730767936, 3.6617064824999996]}, {"species": [{"element": "In", "occu": 1}], "abc": [0.8521932, 0.1478068, 0.25], "properties": {"magmom": 0.0}, "label": "In", "xyz": [3.719013239999999, -4.5373184071170565, 1.2205688275]}, {"species": [{"element": "In", "occu": 1}], "abc": [0.8521932, 0.7043864, 0.25], "properties": {"magmom": 0.0}, "label": "In", "xyz": [5.788940141513902, -0.9521003164414727, 1.2205688275]}, {"species": [{"element": "In", "occu": 1}], "abc": [0.2956136, 0.1478068, 0.25], "properties": {"magmom": 0.0}, "label": "In", "xyz": [1.6490863384860954, -0.952100316441472, 1.2205688275]}, {"species": [{"element": "In", "occu": 1}], "abc": [0.1478068, 0.8521932, 0.75], "properties": {"magmom": 0.0}, "label": "In", "xyz": [3.719013239999999, 4.5373184071170565, 3.6617064824999996]}, {"species": [{"element": "In", "occu": 1}], "abc": [0.1478068, 0.2956136, 0.75], "properties": {"magmom": 0.0}, "label": "In", "xyz": [1.6490863384860954, 0.952100316441472, 3.6617064824999996]}, {"species": [{"element": "In", "occu": 1}], "abc": [0.7043864, 0.8521932, 0.75], "properties": {"magmom": 0.0}, "label": "In", "xyz": [5.788940141513902, 0.9521003164414727, 3.6617064824999996]}]}, "task_ids": null, "uncorrected_energy_per_atom": null, "energy_per_atom": -2.792224077499998, "formation_energy_per_atom": -0.299736747499997, "energy_above_hull": 0.031821873, "is_stable": false, "equilibrium_reaction_energy_per_atom": null, "decomposes_to": null, "xas": null, "grain_boundaries": null, "band_gap": 0.0, "cbm": null, "vbm": null, "efermi": 5.70191136, "is_gap_direct": null, "is_metal": null, "es_source_calc_id": null, "bandstructure": null, "dos": null, "dos_energy_up": null, "dos_energy_down": null, "is_magnetic": null, "ordering": null, "total_magnetization": 6.799999999999997e-06, "total_magnetization_normalized_vol": null, "total_magnetization_normalized_formula_units": null, "num_magnetic_sites": null, "num_unique_magnetic_sites": null, "types_of_magnetic_species": null, "bulk_modulus": null, "shear_modulus": null, "universal_anisotropy": null, "homogeneous_poisson": null, "e_total": null, "e_ionic": null, "e_electronic": null, "n": null, "e_ij_max": null, "weighted_surface_energy_EV_PER_ANG2": null, "weighted_surface_energy": null, "weighted_work_function": null, "surface_anisotropy": null, "shape_factor": null, "has_reconstructed": null, "possible_species": null, "has_props": null, "theoretical": null, "database_IDs": null, "fields_not_requested": ["builder_meta", "nsites", "elements", "nelements", "composition", "composition_reduced", "chemsys", "symmetry", "property_name", "deprecated", "deprecation_reasons", "last_updated", "origins", "warnings", "task_ids", "uncorrected_energy_per_atom", "equilibrium_reaction_energy_per_atom", "decomposes_to", "xas", "grain_boundaries", "cbm", "vbm", "is_gap_direct", "is_metal", "es_source_calc_id", "bandstructure", "dos", "dos_energy_up", "dos_energy_down", "is_magnetic", "ordering", "total_magnetization_normalized_vol", "total_magnetization_normalized_formula_units", "num_magnetic_sites", "num_unique_magnetic_sites", "types_of_magnetic_species", "bulk_modulus", "shear_modulus", "universal_anisotropy", "homogeneous_poisson", "e_total", "e_ionic", "e_electronic", "n", "e_ij_max", "weighted_surface_energy_EV_PER_ANG2", "weighted_surface_energy", "weighted_work_function", "surface_anisotropy", "shape_factor", "has_reconstructed", "possible_species", "has_props", "theoretical", "database_IDs"]}