{"builder_meta": null, "nsites": null, "elements": null, "nelements": null, "composition": null, "composition_reduced": null, "formula_pretty": "SrMg2", "formula_anonymous": "AB2", "chemsys": null, "volume": 375.21375919769343, "density": 2.4115878642257282, "density_atomic": 31.26781326647445, "symmetry": null, "property_name": null, "material_id": "mp-2572", "deprecated": null, "deprecation_reasons": null, "last_updated": null, "origins": null, "warnings": null, "structure": {"@module": "pymatgen.core.structure", "@class": "Structure", "charge": 0, "lattice": {"matrix": [[6.50676951, -5.19e-06, -0.0], [-3.25338841, 5.63502743, 0.0], [0.0, -0.0, 10.23334223]], "pbc": [true, true, true], "a": 6.506769510002069, "b": 6.506771110402973, "c": 10.23334223, "alpha": 90.0, "beta": 90.0, "gamma": 120.00007472787001, "volume": 375.21375919769343}, "properties": {}, "sites": [{"species": [{"element": "Sr", "occu": 1}], "abc": [0.333333, 0.666667, 0.93955098], "properties": {"magmom": 0.0}, "label": "Sr", "xyz": [-5.690052640172638e-06, 3.75668510167754, 9.614746720871885]}, {"species": [{"element": "Sr", "occu": 1}], "abc": [0.333333, 0.666667, 0.56044902], "properties": {"magmom": 0.0}, "label": "Sr", "xyz": [-5.690052640172638e-06, 3.75668510167754, 5.735266624128114]}, {"species": [{"element": "Sr", "occu": 1}], "abc": [0.666667, 0.333333, 0.06044902], "properties": {"magmom": 0.0}, "label": "Sr", "xyz": [3.2533867900526396, 1.8783371383224599, 0.6185955091281146]}, {"species": [{"element": "Sr", "occu": 1}], "abc": [0.666667, 0.333333, 0.43955098000000004], "properties": {"magmom": 0.0}, "label": "Sr", "xyz": [3.2533867900526396, 1.8783371383224599, 4.498075605871886]}, {"species": [{"element": "Mg", "occu": 1}], "abc": [0.8338565, 0.1661435, 0.75], "properties": {"magmom": -0.0}, "label": "Mg", "xyz": [4.885182712618479, 0.93621885210097, 7.6750066725]}, {"species": [{"element": "Mg", "occu": 1}], "abc": [0.667712, 0.8338565, 0.25], "properties": {"magmom": -0.0}, "label": "Mg", "xyz": [1.6317890103579553, 4.698800784758515, 2.5583355575]}, {"species": [{"element": "Mg", "occu": 1}], "abc": [0.332288, 0.1661435, 0.75], "properties": {"magmom": -0.0}, "label": "Mg", "xyz": [1.6215920896420448, 0.9362214552414849, 7.6750066725]}, {"species": [{"element": "Mg", "occu": 1}], "abc": [0.8338565, 0.667712, 0.75], "properties": {"magmom": -0.0}, "label": "Mg", "xyz": [3.2533855678973946, 3.762571107624925, 7.6750066725]}, {"species": [{"element": "Mg", "occu": 1}], "abc": [0.1661435, 0.332288, 0.25], "properties": {"magmom": -0.0}, "label": "Mg", "xyz": [-4.467897394944131e-06, 1.872451132375075, 2.5583355575]}, {"species": [{"element": "Mg", "occu": 1}], "abc": [0.1661435, 0.8338565, 0.25], "properties": {"magmom": -0.0}, "label": "Mg", "xyz": [-1.6318016126184798, 4.69880338789903, 2.5583355575]}, {"species": [{"element": "Mg", "occu": 1}], "abc": [0.0, 0.0, 0.5], "properties": {"magmom": 0.0}, "label": "Mg", "xyz": [0.0, 0.0, 5.116671115]}, {"species": [{"element": "Mg", "occu": 1}], "abc": [0.0, 0.0, -0.0], "properties": {"magmom": 0.0}, "label": "Mg", "xyz": [0.0, 0.0, 0.0]}]}, "task_ids": null, "uncorrected_energy_per_atom": null, "energy_per_atom": -7.91825068, "formation_energy_per_atom": -0.090161266666666, "energy_above_hull": 0.0, "is_stable": true, "equilibrium_reaction_energy_per_atom": null, "decomposes_to": null, "xas": null, "grain_boundaries": null, "band_gap": 0.0, "cbm": null, "vbm": null, "efermi": 2.47773506, "is_gap_direct": null, "is_metal": null, "es_source_calc_id": null, "bandstructure": null, "dos": null, "dos_energy_up": null, "dos_energy_down": null, "is_magnetic": null, "ordering": null, "total_magnetization": 1e-07, "total_magnetization_normalized_vol": null, "total_magnetization_normalized_formula_units": null, "num_magnetic_sites": null, "num_unique_magnetic_sites": null, "types_of_magnetic_species": null, "bulk_modulus": null, "shear_modulus": null, "universal_anisotropy": null, "homogeneous_poisson": null, "e_total": null, "e_ionic": null, "e_electronic": null, "n": null, "e_ij_max": null, "weighted_surface_energy_EV_PER_ANG2": null, "weighted_surface_energy": null, "weighted_work_function": null, "surface_anisotropy": null, "shape_factor": null, "has_reconstructed": null, "possible_species": null, "has_props": null, "theoretical": null, "database_IDs": null, "fields_not_requested": ["builder_meta", "nsites", "elements", "nelements", "composition", "composition_reduced", "chemsys", "symmetry", "property_name", "deprecated", "deprecation_reasons", "last_updated", "origins", "warnings", "task_ids", "uncorrected_energy_per_atom", "equilibrium_reaction_energy_per_atom", "decomposes_to", "xas", "grain_boundaries", "cbm", "vbm", "is_gap_direct", "is_metal", "es_source_calc_id", "bandstructure", "dos", "dos_energy_up", "dos_energy_down", "is_magnetic", "ordering", "total_magnetization_normalized_vol", "total_magnetization_normalized_formula_units", "num_magnetic_sites", "num_unique_magnetic_sites", "types_of_magnetic_species", "bulk_modulus", "shear_modulus", "universal_anisotropy", "homogeneous_poisson", "e_total", "e_ionic", "e_electronic", "n", "e_ij_max", "weighted_surface_energy_EV_PER_ANG2", "weighted_surface_energy", "weighted_work_function", "surface_anisotropy", "shape_factor", "has_reconstructed", "possible_species", "has_props", "theoretical", "database_IDs"]}