{
  "builder_meta": null,
  "nsites": null,
  "elements": null,
  "nelements": null,
  "composition": null,
  "composition_reduced": null,
  "formula_pretty": "SrMg5",
  "formula_anonymous": "AB5",
  "chemsys": null,
  "volume": 166.77104749590768,
  "density": 2.082456447319364,
  "density_atomic": 27.79517458265128,
  "symmetry": null,
  "property_name": null,
  "material_id": "mp-981214",
  "deprecated": null,
  "deprecation_reasons": null,
  "last_updated": null,
  "origins": null,
  "warnings": null,
  "structure": {
    "@module": "pymatgen.core.structure",
    "@class": "Structure",
    "charge": 0,
    "lattice": {
      "matrix": [
        [0.0, 0.0, 5.02906601],
        [5.35897851, 3.09401519, -0.0],
        [8.23e-6, 6.188019, -0.0]
      ],
      "pbc": [true, true, true],
      "a": 5.02906601,
      "b": 6.188019122998293,
      "c": 6.188019000005473,
      "alpha": 59.99986361984507,
      "beta": 90.0,
      "gamma": 90.0,
      "volume": 166.77104749590768
    },
    "properties": {},
    "sites": [
      {
        "species": [{ "element": "Sr", "occu": 1 }],
        "abc": [0.5, 0.666667, 0.333333],
        "properties": { "magmom": -0.0 },
        "label": "Sr",
        "xyz": [3.5726568696567598, 4.12534876199873, 2.514533005]
      },
      {
        "species": [{ "element": "Mg", "occu": 1 }],
        "abc": [-0.0, 0.16981442, 0.83018558],
        "properties": { "magmom": -0.0 },
        "label": "Mg",
        "xyz": [0.9100386598954375, 5.6626125375270595, 0.0]
      },
      {
        "species": [{ "element": "Mg", "occu": 1 }],
        "abc": [0.5, 0.333333, 1e-6],
        "properties": { "magmom": 0.0 },
        "label": "Mg",
        "xyz": [1.7863243836820601, 1.0313435533472701, 2.514533005]
      },
      {
        "species": [{ "element": "Mg", "occu": 1 }],
        "abc": [-0.0, 0.16351758, 0.333333],
        "properties": { "magmom": -0.0 },
        "label": "Mg",
        "xyz": [0.8762899405577959, 2.56859681367904, 0.0]
      },
      {
        "species": [{ "element": "Mg", "occu": 1 }],
        "abc": [0.5, 0.0, 0.666667],
        "properties": { "magmom": 0.0 },
        "label": "Mg",
        "xyz": [5.486669410000001e-6, 4.125348062673, 2.514533005]
      },
      {
        "species": [{ "element": "Mg", "occu": 1 }],
        "abc": [-0.0, 0.666667, 0.83648142],
        "properties": { "magmom": -0.0 },
        "label": "Mg",
        "xyz": [3.5726610105682566, 7.2388407447787095, 0.0]
      }
    ]
  },
  "task_ids": null,
  "uncorrected_energy_per_atom": null,
  "energy_per_atom": -6.03394392,
  "formation_energy_per_atom": -0.035247420833332,
  "energy_above_hull": 0.022749004791666003,
  "is_stable": false,
  "equilibrium_reaction_energy_per_atom": null,
  "decomposes_to": null,
  "xas": null,
  "grain_boundaries": null,
  "band_gap": 0.0,
  "cbm": null,
  "vbm": null,
  "efermi": 2.67661478,
  "is_gap_direct": null,
  "is_metal": null,
  "es_source_calc_id": null,
  "bandstructure": null,
  "dos": null,
  "dos_energy_up": null,
  "dos_energy_down": null,
  "is_magnetic": null,
  "ordering": null,
  "total_magnetization": 1.4e-6,
  "total_magnetization_normalized_vol": null,
  "total_magnetization_normalized_formula_units": null,
  "num_magnetic_sites": null,
  "num_unique_magnetic_sites": null,
  "types_of_magnetic_species": null,
  "bulk_modulus": null,
  "shear_modulus": null,
  "universal_anisotropy": null,
  "homogeneous_poisson": null,
  "e_total": null,
  "e_ionic": null,
  "e_electronic": null,
  "n": null,
  "e_ij_max": null,
  "weighted_surface_energy_EV_PER_ANG2": null,
  "weighted_surface_energy": null,
  "weighted_work_function": null,
  "surface_anisotropy": null,
  "shape_factor": null,
  "has_reconstructed": null,
  "possible_species": null,
  "has_props": null,
  "theoretical": null,
  "database_IDs": null,
  "fields_not_requested": [
    "builder_meta",
    "nsites",
    "elements",
    "nelements",
    "composition",
    "composition_reduced",
    "chemsys",
    "symmetry",
    "property_name",
    "deprecated",
    "deprecation_reasons",
    "last_updated",
    "origins",
    "warnings",
    "task_ids",
    "uncorrected_energy_per_atom",
    "equilibrium_reaction_energy_per_atom",
    "decomposes_to",
    "xas",
    "grain_boundaries",
    "cbm",
    "vbm",
    "is_gap_direct",
    "is_metal",
    "es_source_calc_id",
    "bandstructure",
    "dos",
    "dos_energy_up",
    "dos_energy_down",
    "is_magnetic",
    "ordering",
    "total_magnetization_normalized_vol",
    "total_magnetization_normalized_formula_units",
    "num_magnetic_sites",
    "num_unique_magnetic_sites",
    "types_of_magnetic_species",
    "bulk_modulus",
    "shear_modulus",
    "universal_anisotropy",
    "homogeneous_poisson",
    "e_total",
    "e_ionic",
    "e_electronic",
    "n",
    "e_ij_max",
    "weighted_surface_energy_EV_PER_ANG2",
    "weighted_surface_energy",
    "weighted_work_function",
    "surface_anisotropy",
    "shape_factor",
    "has_reconstructed",
    "possible_species",
    "has_props",
    "theoretical",
    "database_IDs"
  ]
}
