{
  "builder_meta": null,
  "nsites": null,
  "elements": null,
  "nelements": null,
  "composition": null,
  "composition_reduced": null,
  "formula_pretty": "SrMg4",
  "formula_anonymous": "AB4",
  "chemsys": null,
  "volume": 2646.8095214133295,
  "density": 2.08734806738797,
  "density_atomic": 29.408994682370327,
  "symmetry": null,
  "property_name": null,
  "material_id": "mp-567526",
  "deprecated": null,
  "deprecation_reasons": null,
  "last_updated": null,
  "origins": null,
  "warnings": null,
  "structure": {
    "@module": "pymatgen.core.structure",
    "@class": "Structure",
    "charge": 0,
    "lattice": {
      "matrix": [
        [5.23161, -9.061415, 0.0],
        [5.23161, 9.061415, 0.0],
        [0.0, 0.0, 27.916522]
      ],
      "pbc": [true, true, true],
      "a": 10.463220584233374,
      "b": 10.463220584233374,
      "c": 27.916522,
      "alpha": 90.0,
      "beta": 90.0,
      "gamma": 120.00000369413685,
      "volume": 2646.8095214133295
    },
    "properties": {},
    "sites": [
      {
        "species": [{ "element": "Sr", "occu": 1 }],
        "abc": [0.135659, 0.864340999999999, 0.061597],
        "properties": { "magmom": 0.0 },
        "label": "Sr",
        "xyz": [5.231609999999995, 6.602890005029991, 1.719574005634]
      },
      {
        "species": [{ "element": "Sr", "occu": 1 }],
        "abc": [0.864340999999999, 0.135659, 0.938403],
        "properties": { "magmom": 0.0 },
        "label": "Sr",
        "xyz": [5.231609999999995, -6.602890005029991, 26.196947994366]
      },
      {
        "species": [{ "element": "Sr", "occu": 1 }],
        "abc": [0.940353, 0.470176, 0.25],
        "properties": { "magmom": 0.0 },
        "label": "Sr",
        "xyz": [7.3793376216899995, -4.260468920455, 6.9791305]
      },
      {
        "species": [{ "element": "Sr", "occu": 1 }],
        "abc": [0.135659, 0.271318, 0.061597],
        "properties": { "magmom": 0.0 },
        "label": "Sr",
        "xyz": [2.12914494297, 1.229262497485, 1.719574005634]
      },
      {
        "species": [{ "element": "Sr", "occu": 1 }],
        "abc": [0.470176, 0.529824, 0.75],
        "properties": { "magmom": 0.0 },
        "label": "Sr",
        "xyz": [5.23161, 0.5404952819200002, 20.9373915]
      },
      {
        "species": [{ "element": "Sr", "occu": 1 }],
        "abc": [0.864340999999999, 0.728681999999999, 0.938403],
        "properties": { "magmom": 0.0 },
        "label": "Sr",
        "xyz": [8.33407505702999, -1.2292624974849993, 26.196947994366]
      },
      {
        "species": [{ "element": "Sr", "occu": 1 }],
        "abc": [0.864340999999999, 0.728681999999999, 0.561597],
        "properties": { "magmom": 0.0 },
        "label": "Sr",
        "xyz": [8.33407505702999, -1.2292624974849993, 15.677835005634]
      },
      {
        "species": [{ "element": "Sr", "occu": 1 }],
        "abc": [0.529824, 0.470176, 0.25],
        "properties": { "magmom": 0.0 },
        "label": "Sr",
        "xyz": [5.23161, -0.5404952819200002, 6.9791305]
      },
      {
        "species": [{ "element": "Sr", "occu": 1 }],
        "abc": [0.728681999999999, 0.864340999999999, 0.061597],
        "properties": { "magmom": 0.0 },
        "label": "Sr",
        "xyz": [8.33407505702999, 1.2292624974849993, 1.719574005634]
      },
      {
        "species": [{ "element": "Sr", "occu": 1 }],
        "abc": [0.135659, 0.271318, 0.438403],
        "properties": { "magmom": 0.0 },
        "label": "Sr",
        "xyz": [2.12914494297, 1.229262497485, 12.238686994366]
      },
      {
        "species": [{ "element": "Sr", "occu": 1 }],
        "abc": [0.271318, 0.135659, 0.938403],
        "properties": { "magmom": 0.0 },
        "label": "Sr",
        "xyz": [2.12914494297, -1.229262497485, 26.196947994366]
      },
      {
        "species": [{ "element": "Sr", "occu": 1 }],
        "abc": [0.728681999999999, 0.864340999999999, 0.438403],
        "properties": { "magmom": 0.0 },
        "label": "Sr",
        "xyz": [8.33407505702999, 1.2292624974849993, 12.238686994366]
      },
      {
        "species": [{ "element": "Sr", "occu": 1 }],
        "abc": [0.135659, 0.864340999999999, 0.438403],
        "properties": { "magmom": 0.0 },
        "label": "Sr",
        "xyz": [5.231609999999995, 6.602890005029991, 12.238686994366]
      },
      {
        "species": [{ "element": "Sr", "occu": 1 }],
        "abc": [0.529824, 0.059647, 0.25],
        "properties": { "magmom": 0.0 },
        "label": "Sr",
        "xyz": [3.08388237831, -4.260468920455001, 6.9791305]
      },
      {
        "species": [{ "element": "Sr", "occu": 1 }],
        "abc": [0.864340999999999, 0.135659, 0.561597],
        "properties": { "magmom": 0.0 },
        "label": "Sr",
        "xyz": [5.231609999999995, -6.602890005029991, 15.677835005634]
      },
      {
        "species": [{ "element": "Sr", "occu": 1 }],
        "abc": [0.271318, 0.135659, 0.561597],
        "properties": { "magmom": 0.0 },
        "label": "Sr",
        "xyz": [2.12914494297, -1.229262497485, 15.677835005634]
      },
      {
        "species": [{ "element": "Sr", "occu": 1 }],
        "abc": [0.470176, 0.940353, 0.75],
        "properties": { "magmom": 0.0 },
        "label": "Sr",
        "xyz": [7.3793376216899995, 4.260468920455, 20.9373915]
      },
      {
        "species": [{ "element": "Sr", "occu": 1 }],
        "abc": [0.059647, 0.529824, 0.75],
        "properties": { "magmom": 0.0 },
        "label": "Sr",
        "xyz": [3.08388237831, 4.260468920455001, 20.9373915]
      },
      {
        "species": [{ "element": "Mg", "occu": 1 }],
        "abc": [0.0, 0.0, 0.341551],
        "properties": { "magmom": 0.0 },
        "label": "Mg",
        "xyz": [0.0, 0.0, 9.534916005622]
      },
      {
        "species": [{ "element": "Mg", "occu": 1 }],
        "abc": [0.832267, 0.664534, 0.34660799999999903],
        "properties": { "magmom": 0.0 },
        "label": "Mg",
        "xyz": [7.830679079609999, -1.5198983221950009, 9.676089857375972]
      },
      {
        "species": [{ "element": "Mg", "occu": 1 }],
        "abc": [0.233873, 0.766127, 0.945402],
        "properties": { "magmom": 0.0 },
        "label": "Mg",
        "xyz": [5.23161, 4.822974379410001, 26.392335731844]
      },
      {
        "species": [{ "element": "Mg", "occu": 1 }],
        "abc": [0.832267, 0.664534, 0.153392],
        "properties": { "magmom": 0.0 },
        "label": "Mg",
        "xyz": [7.830679079609999, -1.5198983221950009, 4.282171142624]
      },
      {
        "species": [{ "element": "Mg", "occu": 1 }],
        "abc": [0.647787999999999, 0.823894, 0.188078],
        "properties": { "magmom": 0.0 },
        "label": "Mg",
        "xyz": [7.699266268019995, 1.5957695499900089, 5.250483624716]
      },
      {
        "species": [{ "element": "Mg", "occu": 1 }],
        "abc": [0.333333, 0.666667, 0.851584999999999],
        "properties": { "magmom": 0.0 },
        "label": "Mg",
        "xyz": [5.23161, 3.0204777076100005, 23.773291387369973]
      },
      {
        "species": [{ "element": "Mg", "occu": 1 }],
        "abc": [0.666667, 0.333333, 0.351585],
        "properties": { "magmom": 0.0 },
        "label": "Mg",
        "xyz": [5.23161, -3.0204777076100005, 9.81503038737]
      },
      {
        "species": [{ "element": "Mg", "occu": 1 }],
        "abc": [0.176105999999999, 0.823894, 0.188078],
        "properties": { "magmom": 0.0 },
        "label": "Mg",
        "xyz": [5.2316099999999945, 5.869875900020009, 5.250483624716]
      },
      {
        "species": [{ "element": "Mg", "occu": 1 }],
        "abc": [0.0, 0.0, 0.658449],
        "properties": { "magmom": 0.0 },
        "label": "Mg",
        "xyz": [0.0, 0.0, 18.381605994378]
      },
      {
        "species": [{ "element": "Mg", "occu": 1 }],
        "abc": [0.832267, 0.167733, 0.34660799999999903],
        "properties": { "magmom": 0.0 },
        "label": "Mg",
        "xyz": [5.23161, -6.02161835561, 9.676089857375972]
      },
      {
        "species": [{ "element": "Mg", "occu": 1 }],
        "abc": [0.766127, 0.233873, 0.445401999999999],
        "properties": { "magmom": 0.0 },
        "label": "Mg",
        "xyz": [5.23161, -4.822974379410001, 12.434074731843973]
      },
      {
        "species": [{ "element": "Mg", "occu": 1 }],
        "abc": [0.511518, 0.48848199999999903, 0.881404],
        "properties": { "magmom": 0.0 },
        "label": "Mg",
        "xyz": [5.2316099999999945, -0.20873875594000957, 24.605734156887998]
      },
      {
        "species": [{ "element": "Mg", "occu": 1 }],
        "abc": [0.532254999999999, 0.766127, 0.554597999999999],
        "properties": { "magmom": 0.0 },
        "label": "Mg",
        "xyz": [6.792628255019995, 2.119211248880009, 15.482447268155973]
      },
      {
        "species": [{ "element": "Mg", "occu": 1 }],
        "abc": [0.823894, 0.176105999999999, 0.688078],
        "properties": { "magmom": 0.0 },
        "label": "Mg",
        "xyz": [5.2316099999999945, -5.869875900020009, 19.208744624716]
      },
      {
        "species": [{ "element": "Mg", "occu": 1 }],
        "abc": [0.766127, 0.532254999999999, 0.054598],
        "properties": { "magmom": 0.0 },
        "label": "Mg",
        "xyz": [6.792628255019995, -2.119211248880009, 1.5241862681560001]
      },
      {
        "species": [{ "element": "Mg", "occu": 1 }],
        "abc": [0.167733, 0.335466, 0.653392],
        "properties": { "magmom": 0.0 },
        "label": "Mg",
        "xyz": [2.63254092039, 1.519898322195, 18.240432142623998]
      },
      {
        "species": [{ "element": "Mg", "occu": 1 }],
        "abc": [0.167733, 0.335466, 0.846607999999999],
        "properties": { "magmom": 0.0 },
        "label": "Mg",
        "xyz": [2.63254092039, 1.519898322195, 23.634350857375974]
      },
      {
        "species": [{ "element": "Mg", "occu": 1 }],
        "abc": [0.335466, 0.167733, 0.153392],
        "properties": { "magmom": 0.0 },
        "label": "Mg",
        "xyz": [2.63254092039, -1.519898322195, 4.282171142624]
      },
      {
        "species": [{ "element": "Mg", "occu": 1 }],
        "abc": [0.023037, 0.511518, 0.381403999999999],
        "properties": { "magmom": 0.0 },
        "label": "Mg",
        "xyz": [2.79658328355, 4.426329060615, 10.647473156887973]
      },
      {
        "species": [{ "element": "Mg", "occu": 1 }],
        "abc": [0.176105999999999, 0.352211999999999, 0.311922],
        "properties": { "magmom": 0.0 },
        "label": "Mg",
        "xyz": [2.76395373197999, 1.59576954999, 8.707777375284]
      },
      {
        "species": [{ "element": "Mg", "occu": 1 }],
        "abc": [0.532254999999999, 0.766127, 0.945402],
        "properties": { "magmom": 0.0 },
        "label": "Mg",
        "xyz": [6.792628255019995, 2.119211248880009, 26.392335731844]
      },
      {
        "species": [{ "element": "Mg", "occu": 1 }],
        "abc": [0.333333, 0.666667, 0.648415],
        "properties": { "magmom": 0.0 },
        "label": "Mg",
        "xyz": [5.23161, 3.0204777076100005, 18.10149161263]
      },
      {
        "species": [{ "element": "Mg", "occu": 1 }],
        "abc": [0.333333, 0.666667, 0.045967],
        "properties": { "magmom": 0.0 },
        "label": "Mg",
        "xyz": [5.23161, 3.0204777076100005, 1.283238766774]
      },
      {
        "species": [{ "element": "Mg", "occu": 1 }],
        "abc": [0.0, 0.0, 0.841550999999999],
        "properties": { "magmom": 0.0 },
        "label": "Mg",
        "xyz": [0.0, 0.0, 23.493177005621973]
      },
      {
        "species": [{ "element": "Mg", "occu": 1 }],
        "abc": [0.5, 0.0, 0.5],
        "properties": { "magmom": 0.0 },
        "label": "Mg",
        "xyz": [2.615805, -4.5307075, 13.958261]
      },
      {
        "species": [{ "element": "Mg", "occu": 1 }],
        "abc": [0.901005, 0.8020100000000001, 0.25],
        "properties": { "magmom": 0.0 },
        "label": "Mg",
        "xyz": [8.90951030415, -0.8970347779249987, 6.9791305]
      },
      {
        "species": [{ "element": "Mg", "occu": 1 }],
        "abc": [0.335466, 0.167733, 0.34660799999999903],
        "properties": { "magmom": 0.0 },
        "label": "Mg",
        "xyz": [2.63254092039, -1.519898322195, 9.676089857375972]
      },
      {
        "species": [{ "element": "Mg", "occu": 1 }],
        "abc": [0.511518, 0.023037, 0.618595999999999],
        "properties": { "magmom": 0.0 },
        "label": "Mg",
        "xyz": [2.79658328355, -4.426329060615, 17.269048843111975]
      },
      {
        "species": [{ "element": "Mg", "occu": 1 }],
        "abc": [0.766127, 0.532254999999999, 0.445401999999999],
        "properties": { "magmom": 0.0 },
        "label": "Mg",
        "xyz": [6.792628255019995, -2.119211248880009, 12.434074731843973]
      },
      {
        "species": [{ "element": "Mg", "occu": 1 }],
        "abc": [0.511518, 0.48848199999999903, 0.618595999999999],
        "properties": { "magmom": 0.0 },
        "label": "Mg",
        "xyz": [5.2316099999999945, -0.20873875594000957, 17.269048843111975]
      },
      {
        "species": [{ "element": "Mg", "occu": 1 }],
        "abc": [0.233873, 0.766127, 0.554597999999999],
        "properties": { "magmom": 0.0 },
        "label": "Mg",
        "xyz": [5.23161, 4.822974379410001, 15.482447268155973]
      },
      {
        "species": [{ "element": "Mg", "occu": 1 }],
        "abc": [0.666667, 0.333333, 0.148415],
        "properties": { "magmom": 0.0 },
        "label": "Mg",
        "xyz": [5.23161, -3.0204777076100005, 4.14323061263]
      },
      {
        "species": [{ "element": "Mg", "occu": 1 }],
        "abc": [0.766127, 0.233873, 0.054598],
        "properties": { "magmom": 0.0 },
        "label": "Mg",
        "xyz": [5.23161, -4.822974379410001, 1.5241862681560001]
      },
      {
        "species": [{ "element": "Mg", "occu": 1 }],
        "abc": [0.233873, 0.467744999999999, 0.945402],
        "properties": { "magmom": 0.0 },
        "label": "Mg",
        "xyz": [3.6705917449799945, 2.119211248879991, 26.392335731844]
      },
      {
        "species": [{ "element": "Mg", "occu": 1 }],
        "abc": [0.352211999999999, 0.176105999999999, 0.688078],
        "properties": { "magmom": 0.0 },
        "label": "Mg",
        "xyz": [2.76395373197999, -1.59576954999, 19.208744624716]
      },
      {
        "species": [{ "element": "Mg", "occu": 1 }],
        "abc": [0.0, 0.0, 0.158449],
        "properties": { "magmom": 0.0 },
        "label": "Mg",
        "xyz": [0.0, 0.0, 4.4233449943780005]
      },
      {
        "species": [{ "element": "Mg", "occu": 1 }],
        "abc": [0.0, 0.5, 0.5],
        "properties": { "magmom": 0.0 },
        "label": "Mg",
        "xyz": [2.615805, 4.5307075, 13.958261]
      },
      {
        "species": [{ "element": "Mg", "occu": 1 }],
        "abc": [0.8020100000000001, 0.901005, 0.75],
        "properties": { "magmom": 0.0 },
        "label": "Mg",
        "xyz": [8.90951030415, 0.8970347779249987, 20.9373915]
      },
      {
        "species": [{ "element": "Mg", "occu": 1 }],
        "abc": [0.666667, 0.333333, 0.954032999999999],
        "properties": { "magmom": 0.0 },
        "label": "Mg",
        "xyz": [5.23161, -3.0204777076100005, 26.633283233225974]
      },
      {
        "species": [{ "element": "Mg", "occu": 1 }],
        "abc": [0.976962999999999, 0.48848199999999903, 0.881404],
        "properties": { "magmom": 0.0 },
        "label": "Mg",
        "xyz": [7.66663671644999, -4.426329060615, 24.605734156887998]
      },
      {
        "species": [{ "element": "Mg", "occu": 1 }],
        "abc": [0.467744999999999, 0.233873, 0.054598],
        "properties": { "magmom": 0.0 },
        "label": "Mg",
        "xyz": [3.6705917449799945, -2.119211248879991, 1.5241862681560001]
      },
      {
        "species": [{ "element": "Mg", "occu": 1 }],
        "abc": [0.976962999999999, 0.48848199999999903, 0.618595999999999],
        "properties": { "magmom": 0.0 },
        "label": "Mg",
        "xyz": [7.66663671644999, -4.426329060615, 17.269048843111975]
      },
      {
        "species": [{ "element": "Mg", "occu": 1 }],
        "abc": [0.48848199999999903, 0.976962999999999, 0.381403999999999],
        "properties": { "magmom": 0.0 },
        "label": "Mg",
        "xyz": [7.66663671644999, 4.426329060615, 10.647473156887973]
      },
      {
        "species": [{ "element": "Mg", "occu": 1 }],
        "abc": [0.167733, 0.832267, 0.846607999999999],
        "properties": { "magmom": 0.0 },
        "label": "Mg",
        "xyz": [5.23161, 6.02161835561, 23.634350857375974]
      },
      {
        "species": [{ "element": "Mg", "occu": 1 }],
        "abc": [0.48848199999999903, 0.511518, 0.118596],
        "properties": { "magmom": 0.0 },
        "label": "Mg",
        "xyz": [5.2316099999999945, 0.20873875594000957, 3.3107878431119997]
      },
      {
        "species": [{ "element": "Mg", "occu": 1 }],
        "abc": [0.823894, 0.176105999999999, 0.811921999999999],
        "properties": { "magmom": 0.0 },
        "label": "Mg",
        "xyz": [5.2316099999999945, -5.869875900020009, 22.666038375283975]
      },
      {
        "species": [{ "element": "Mg", "occu": 1 }],
        "abc": [0.823894, 0.647787999999999, 0.688078],
        "properties": { "magmom": 0.0 },
        "label": "Mg",
        "xyz": [7.699266268019995, -1.5957695499900089, 19.208744624716]
      },
      {
        "species": [{ "element": "Mg", "occu": 1 }],
        "abc": [0.176105999999999, 0.352211999999999, 0.188078],
        "properties": { "magmom": 0.0 },
        "label": "Mg",
        "xyz": [2.76395373197999, 1.59576954999, 5.250483624716]
      },
      {
        "species": [{ "element": "Mg", "occu": 1 }],
        "abc": [0.5, 0.5, 0.5],
        "properties": { "magmom": 0.0 },
        "label": "Mg",
        "xyz": [5.23161, 0.0, 13.958261]
      },
      {
        "species": [{ "element": "Mg", "occu": 1 }],
        "abc": [0.664534, 0.832267, 0.846607999999999],
        "properties": { "magmom": 0.0 },
        "label": "Mg",
        "xyz": [7.830679079609999, 1.5198983221950009, 23.634350857375974]
      },
      {
        "species": [{ "element": "Mg", "occu": 1 }],
        "abc": [0.48848199999999903, 0.976962999999999, 0.118596],
        "properties": { "magmom": 0.0 },
        "label": "Mg",
        "xyz": [7.66663671644999, 4.426329060615, 3.3107878431119997]
      },
      {
        "species": [{ "element": "Mg", "occu": 1 }],
        "abc": [0.0, 0.5, 0.0],
        "properties": { "magmom": 0.0 },
        "label": "Mg",
        "xyz": [2.615805, 4.5307075, 0.0]
      },
      {
        "species": [{ "element": "Mg", "occu": 1 }],
        "abc": [0.5, 0.5, 0.0],
        "properties": { "magmom": 0.0 },
        "label": "Mg",
        "xyz": [5.23161, 0.0, 0.0]
      },
      {
        "species": [{ "element": "Mg", "occu": 1 }],
        "abc": [0.098995, 0.901005, 0.75],
        "properties": { "magmom": 0.0 },
        "label": "Mg",
        "xyz": [5.23161, 7.26734544415, 20.9373915]
      },
      {
        "species": [{ "element": "Mg", "occu": 1 }],
        "abc": [0.333333, 0.666667, 0.454032999999999],
        "properties": { "magmom": 0.0 },
        "label": "Mg",
        "xyz": [5.23161, 3.0204777076100005, 12.675022233225972]
      },
      {
        "species": [{ "element": "Mg", "occu": 1 }],
        "abc": [0.664534, 0.832267, 0.653392],
        "properties": { "magmom": 0.0 },
        "label": "Mg",
        "xyz": [7.830679079609999, 1.5198983221950009, 18.240432142623998]
      },
      {
        "species": [{ "element": "Mg", "occu": 1 }],
        "abc": [0.19799000000000003, 0.098995, 0.25],
        "properties": { "magmom": 0.0 },
        "label": "Mg",
        "xyz": [1.5537096958500003, -0.8970347779250004, 6.9791305]
      },
      {
        "species": [{ "element": "Mg", "occu": 1 }],
        "abc": [0.901005, 0.098995, 0.25],
        "properties": { "magmom": 0.0 },
        "label": "Mg",
        "xyz": [5.23161, -7.26734544415, 6.9791305]
      },
      {
        "species": [{ "element": "Mg", "occu": 1 }],
        "abc": [0.023037, 0.511518, 0.118596],
        "properties": { "magmom": 0.0 },
        "label": "Mg",
        "xyz": [2.79658328355, 4.426329060615, 3.3107878431119997]
      },
      {
        "species": [{ "element": "Mg", "occu": 1 }],
        "abc": [0.823894, 0.647787999999999, 0.811921999999999],
        "properties": { "magmom": 0.0 },
        "label": "Mg",
        "xyz": [7.699266268019995, -1.5957695499900089, 22.666038375283975]
      },
      {
        "species": [{ "element": "Mg", "occu": 1 }],
        "abc": [0.167733, 0.832267, 0.653392],
        "properties": { "magmom": 0.0 },
        "label": "Mg",
        "xyz": [5.23161, 6.02161835561, 18.240432142623998]
      },
      {
        "species": [{ "element": "Mg", "occu": 1 }],
        "abc": [0.832267, 0.167733, 0.153392],
        "properties": { "magmom": 0.0 },
        "label": "Mg",
        "xyz": [5.23161, -6.02161835561, 4.282171142624]
      },
      {
        "species": [{ "element": "Mg", "occu": 1 }],
        "abc": [0.647787999999999, 0.823894, 0.311922],
        "properties": { "magmom": 0.0 },
        "label": "Mg",
        "xyz": [7.699266268019995, 1.5957695499900089, 8.707777375284]
      },
      {
        "species": [{ "element": "Mg", "occu": 1 }],
        "abc": [0.5, 0.0, 0.0],
        "properties": { "magmom": 0.0 },
        "label": "Mg",
        "xyz": [2.615805, -4.5307075, 0.0]
      },
      {
        "species": [{ "element": "Mg", "occu": 1 }],
        "abc": [0.098995, 0.19799000000000003, 0.75],
        "properties": { "magmom": 0.0 },
        "label": "Mg",
        "xyz": [1.5537096958500003, 0.8970347779250004, 20.9373915]
      },
      {
        "species": [{ "element": "Mg", "occu": 1 }],
        "abc": [0.511518, 0.023037, 0.881404],
        "properties": { "magmom": 0.0 },
        "label": "Mg",
        "xyz": [2.79658328355, -4.426329060615, 24.605734156887998]
      },
      {
        "species": [{ "element": "Mg", "occu": 1 }],
        "abc": [0.176105999999999, 0.823894, 0.311922],
        "properties": { "magmom": 0.0 },
        "label": "Mg",
        "xyz": [5.2316099999999945, 5.869875900020009, 8.707777375284]
      },
      {
        "species": [{ "element": "Mg", "occu": 1 }],
        "abc": [0.666667, 0.333333, 0.545967],
        "properties": { "magmom": 0.0 },
        "label": "Mg",
        "xyz": [5.23161, -3.0204777076100005, 15.241499766774]
      },
      {
        "species": [{ "element": "Mg", "occu": 1 }],
        "abc": [0.467744999999999, 0.233873, 0.445401999999999],
        "properties": { "magmom": 0.0 },
        "label": "Mg",
        "xyz": [3.6705917449799945, -2.119211248879991, 12.434074731843973]
      },
      {
        "species": [{ "element": "Mg", "occu": 1 }],
        "abc": [0.48848199999999903, 0.511518, 0.381403999999999],
        "properties": { "magmom": 0.0 },
        "label": "Mg",
        "xyz": [5.2316099999999945, 0.20873875594000957, 10.647473156887973]
      },
      {
        "species": [{ "element": "Mg", "occu": 1 }],
        "abc": [0.352211999999999, 0.176105999999999, 0.811921999999999],
        "properties": { "magmom": 0.0 },
        "label": "Mg",
        "xyz": [2.76395373197999, -1.59576954999, 22.666038375283975]
      },
      {
        "species": [{ "element": "Mg", "occu": 1 }],
        "abc": [0.233873, 0.467744999999999, 0.554597999999999],
        "properties": { "magmom": 0.0 },
        "label": "Mg",
        "xyz": [3.6705917449799945, 2.119211248879991, 15.482447268155973]
      }
    ]
  },
  "task_ids": null,
  "uncorrected_energy_per_atom": null,
  "energy_per_atom": -6.39051440231349,
  "formation_energy_per_atom": -0.025939320313490003,
  "energy_above_hull": 0.042078570222222,
  "is_stable": false,
  "equilibrium_reaction_energy_per_atom": null,
  "decomposes_to": null,
  "xas": null,
  "grain_boundaries": null,
  "band_gap": 0.0,
  "cbm": null,
  "vbm": null,
  "efermi": 2.46343392,
  "is_gap_direct": null,
  "is_metal": null,
  "es_source_calc_id": null,
  "bandstructure": null,
  "dos": null,
  "dos_energy_up": null,
  "dos_energy_down": null,
  "is_magnetic": null,
  "ordering": null,
  "total_magnetization": 0.0387743,
  "total_magnetization_normalized_vol": null,
  "total_magnetization_normalized_formula_units": null,
  "num_magnetic_sites": null,
  "num_unique_magnetic_sites": null,
  "types_of_magnetic_species": null,
  "bulk_modulus": null,
  "shear_modulus": null,
  "universal_anisotropy": null,
  "homogeneous_poisson": null,
  "e_total": null,
  "e_ionic": null,
  "e_electronic": null,
  "n": null,
  "e_ij_max": null,
  "weighted_surface_energy_EV_PER_ANG2": null,
  "weighted_surface_energy": null,
  "weighted_work_function": null,
  "surface_anisotropy": null,
  "shape_factor": null,
  "has_reconstructed": null,
  "possible_species": null,
  "has_props": null,
  "theoretical": null,
  "database_IDs": null,
  "fields_not_requested": [
    "builder_meta",
    "nsites",
    "elements",
    "nelements",
    "composition",
    "composition_reduced",
    "chemsys",
    "symmetry",
    "property_name",
    "deprecated",
    "deprecation_reasons",
    "last_updated",
    "origins",
    "warnings",
    "task_ids",
    "uncorrected_energy_per_atom",
    "equilibrium_reaction_energy_per_atom",
    "decomposes_to",
    "xas",
    "grain_boundaries",
    "cbm",
    "vbm",
    "is_gap_direct",
    "is_metal",
    "es_source_calc_id",
    "bandstructure",
    "dos",
    "dos_energy_up",
    "dos_energy_down",
    "is_magnetic",
    "ordering",
    "total_magnetization_normalized_vol",
    "total_magnetization_normalized_formula_units",
    "num_magnetic_sites",
    "num_unique_magnetic_sites",
    "types_of_magnetic_species",
    "bulk_modulus",
    "shear_modulus",
    "universal_anisotropy",
    "homogeneous_poisson",
    "e_total",
    "e_ionic",
    "e_electronic",
    "n",
    "e_ij_max",
    "weighted_surface_energy_EV_PER_ANG2",
    "weighted_surface_energy",
    "weighted_work_function",
    "surface_anisotropy",
    "shape_factor",
    "has_reconstructed",
    "possible_species",
    "has_props",
    "theoretical",
    "database_IDs"
  ]
}
