{"builder_meta": null, "nsites": null, "elements": null, "nelements": null, "composition": null, "composition_reduced": null, "formula_pretty": "SrN", "formula_anonymous": "AB", "chemsys": null, "volume": 172.2527221471594, "density": 3.9187794179639583, "density_atomic": 21.531590268394925, "symmetry": null, "property_name": null, "material_id": "mp-29973", "deprecated": null, "deprecation_reasons": null, "last_updated": null, "origins": null, "warnings": null, "structure": {"@module": "pymatgen.core.structure", "@class": "Structure", "charge": 0, "lattice": {"matrix": [[3.67851155, -3.0600000000000005e-05, -1.04108024], [-0.14158293, 6.69178155, -0.4998221], [-0.006259499999999, 0.03324974, 6.99674016]], "pbc": [true, true, true], "a": 3.822995591226626, "b": 6.711915387624921, "c": 6.996821963799503, "alpha": 93.99734633037943, "beta": 105.85347663634079, "gamma": 90.00148332596969, "volume": 172.2527221471594}, "properties": {}, "sites": [{"species": [{"element": "Sr", "occu": 1}], "abc": [0.35620823, 0.08812042, 0.71234279], "properties": {"magmom": 0.027}, "label": "Sr", "xyz": [1.2933808313096218, 0.6133569133207877, 4.56919152352379]}, {"species": [{"element": "Sr", "occu": 1}], "abc": [0.64379177, 0.91187958, 0.28765721], "properties": {"magmom": 0.027}, "label": "Sr", "xyz": [2.2372882886903795, 6.111643776679213, 0.8866462964762107]}, {"species": [{"element": "Sr", "occu": 1}], "abc": [0.15372824000000002, 0.38876802, 0.30741414], "properties": {"magmom": 0.021}, "label": "Sr", "xyz": [0.5085239322299437, 2.6117673996092106, 1.7965385779266425]}, {"species": [{"element": "Sr", "occu": 1}], "abc": [0.84627176, 0.61123198, 0.69258586], "properties": {"magmom": 0.021}, "label": "Sr", "xyz": [3.0221451877700574, 4.113233290390789, 3.6592992420733568]}, {"species": [{"element": "N", "occu": 1}], "abc": [0.02292415, 0.08411958, 0.04566503], "properties": {"magmom": 0.448}, "label": "N", "xyz": [0.07213101368687815, 0.5644275023333513, 0.2535956445980908]}, {"species": [{"element": "N", "occu": 1}], "abc": [0.97707585, 0.91588042, 0.95433497], "properties": {"magmom": 0.448}, "label": "N", "xyz": [3.4585381063131226, 6.160573187666649, 5.202242175401909]}, {"species": [{"element": "N", "occu": 1}], "abc": [0.24698753, 0.7489688, 0.49394678000000003], "properties": {"magmom": 0.013000000000000001}, "label": "N", "xyz": [0.799413424758978, 5.028351641556059, 2.8245322770687977]}, {"species": [{"element": "N", "occu": 1}], "abc": [0.75301247, 0.2510312, 0.50605322], "properties": {"magmom": 0.013000000000000001}, "label": "N", "xyz": [2.7312556952410234, 1.696649048443941, 2.631305542931202]}]}, "task_ids": null, "uncorrected_energy_per_atom": null, "energy_per_atom": -12.80603334, "formation_energy_per_atom": -0.668827469375001, "energy_above_hull": 0.0, "is_stable": true, "equilibrium_reaction_energy_per_atom": null, "decomposes_to": null, "xas": null, "grain_boundaries": null, "band_gap": 0.0, "cbm": null, "vbm": null, "efermi": 2.54011029, "is_gap_direct": null, "is_metal": null, "es_source_calc_id": null, "bandstructure": null, "dos": null, "dos_energy_up": null, "dos_energy_down": null, "is_magnetic": null, "ordering": null, "total_magnetization": 1.9186545, "total_magnetization_normalized_vol": null, "total_magnetization_normalized_formula_units": null, "num_magnetic_sites": null, "num_unique_magnetic_sites": null, "types_of_magnetic_species": null, "bulk_modulus": null, "shear_modulus": null, "universal_anisotropy": null, "homogeneous_poisson": null, "e_total": null, "e_ionic": null, "e_electronic": null, "n": null, "e_ij_max": null, "weighted_surface_energy_EV_PER_ANG2": null, "weighted_surface_energy": null, "weighted_work_function": null, "surface_anisotropy": null, "shape_factor": null, "has_reconstructed": null, "possible_species": null, "has_props": null, "theoretical": null, "database_IDs": null, "fields_not_requested": ["builder_meta", "nsites", "elements", "nelements", "composition", "composition_reduced", "chemsys", "symmetry", "property_name", "deprecated", "deprecation_reasons", "last_updated", "origins", "warnings", "task_ids", "uncorrected_energy_per_atom", "equilibrium_reaction_energy_per_atom", "decomposes_to", "xas", "grain_boundaries", "cbm", "vbm", "is_gap_direct", "is_metal", "es_source_calc_id", "bandstructure", "dos", "dos_energy_up", "dos_energy_down", "is_magnetic", "ordering", "total_magnetization_normalized_vol", "total_magnetization_normalized_formula_units", "num_magnetic_sites", "num_unique_magnetic_sites", "types_of_magnetic_species", "bulk_modulus", "shear_modulus", "universal_anisotropy", "homogeneous_poisson", "e_total", "e_ionic", "e_electronic", "n", "e_ij_max", "weighted_surface_energy_EV_PER_ANG2", "weighted_surface_energy", "weighted_work_function", "surface_anisotropy", "shape_factor", "has_reconstructed", "possible_species", "has_props", "theoretical", "database_IDs"]}