{
  "builder_meta": null,
  "nsites": null,
  "elements": null,
  "nelements": null,
  "composition": null,
  "composition_reduced": null,
  "formula_pretty": "SrN6",
  "formula_anonymous": "AB6",
  "chemsys": null,
  "volume": 209.06894179717114,
  "density": 2.726837050305731,
  "density_atomic": 14.93349584265508,
  "symmetry": null,
  "property_name": null,
  "material_id": "mp-2131",
  "deprecated": null,
  "deprecation_reasons": null,
  "last_updated": null,
  "origins": null,
  "warnings": null,
  "structure": {
    "@module": "pymatgen.core.structure",
    "@class": "Structure",
    "charge": 0,
    "lattice": {
      "matrix": [
        [5.44564666, -0.0, 2.8181878300000003],
        [2.722823329999999, 5.80295198, 1.40909392],
        [0.02226075, -0.0, 6.62745301]
      ],
      "pbc": [true, true, true],
      "a": 6.131659660379828,
      "b": 6.563045348308906,
      "c": 6.627490395372039,
      "alpha": 77.5203107660047,
      "beta": 62.44544175786623,
      "gamma": 62.15150045104403,
      "volume": 209.06894179717114
    },
    "properties": {},
    "sites": [
      {
        "species": [{ "element": "Sr", "occu": 1 }],
        "abc": [0.625, 0.75, 0.75],
        "properties": { "magmom": 0.0 },
        "label": "Sr",
        "xyz": [5.462342222499999, 4.352213985, 7.78877759125]
      },
      {
        "species": [{ "element": "Sr", "occu": 1 }],
        "abc": [0.375, 0.25, 0.25],
        "properties": { "magmom": 0.0 },
        "label": "Sr",
        "xyz": [2.7283885174999996, 1.450737995, 3.0659571687500002]
      },
      {
        "species": [{ "element": "N", "occu": 1 }],
        "abc": [0.83096039, 0.38218768000000003, 0.49697303000000004],
        "properties": { "magmom": -0.0 },
        "label": "N",
        "xyz": [5.576809196315944, 2.2178167543876066, 6.17400619805928]
      },
      {
        "species": [{ "element": "N", "occu": 1 }],
        "abc": [0.2101191, 0.11781232, 0.00302697],
        "properties": { "magmom": -0.0 },
        "label": "N",
        "xyz": [1.4650838911970592, 0.6836592356123935, 0.7782248157213272]
      },
      {
        "species": [{ "element": "N", "occu": 1 }],
        "abc": [0.99992512, 0.25, 0.00014976],
        "properties": { "magmom": 0.0 },
        "label": "N",
        "xyz": [6.125948056248019, 1.450737995, 3.1712428114580673]
      },
      {
        "species": [{ "element": "N", "occu": 1 }],
        "abc": [0.75007488, 0.25, 0.49985024],
        "properties": { "magmom": 0.0 },
        "label": "N",
        "xyz": [4.776475638751982, 1.450737995, 5.778859356041933]
      },
      {
        "species": [{ "element": "N", "occu": 1 }],
        "abc": [7.488e-5, 0.75, 0.99985024],
        "properties": { "magmom": 0.0 },
        "label": "N",
        "xyz": [2.06478268375198, 4.352213985, 7.683491948541933]
      },
      {
        "species": [{ "element": "N", "occu": 1 }],
        "abc": [0.24992512, 0.75, 0.50014976],
        "properties": { "magmom": 0.0 },
        "label": "N",
        "xyz": [3.4142551012480187, 4.352213985, 5.075875403958067]
      },
      {
        "species": [{ "element": "N", "occu": 1 }],
        "abc": [0.32793242, 0.88218768, 0.50302697],
        "properties": { "magmom": -0.0 },
        "label": "N",
        "xyz": [4.199043041843718, 5.119292744387606, 5.501048057731033]
      },
      {
        "species": [{ "element": "N", "occu": 1 }],
        "abc": [0.21314607, 0.61781232, 0.99697303],
        "properties": { "magmom": -0.0 },
        "label": "N",
        "xyz": [2.8651053500226236, 3.585135225612393, 8.078633152861743]
      },
      {
        "species": [{ "element": "N", "occu": 1 }],
        "abc": [0.7898809, 0.88218768, 0.99697303],
        "properties": { "magmom": -0.0 },
        "label": "N",
        "xyz": [6.725646848802941, 5.119292744387606, 10.076509944278673]
      },
      {
        "species": [{ "element": "N", "occu": 1 }],
        "abc": [0.16903961, 0.61781232, 0.50302697],
        "properties": { "magmom": -0.0 },
        "label": "N",
        "xyz": [2.613921543684055, 3.585135225612393, 4.68072856194072]
      },
      {
        "species": [{ "element": "N", "occu": 1 }],
        "abc": [0.67206758, 0.11781232, 0.49697303000000004],
        "properties": { "magmom": -0.0 },
        "label": "N",
        "xyz": [3.991687698156281, 0.6836592356123935, 5.353686702268966]
      },
      {
        "species": [{ "element": "N", "occu": 1 }],
        "abc": [0.78685393, 0.38218768000000003, 0.00302697],
        "properties": { "magmom": -0.0 },
        "label": "N",
        "xyz": [5.325625389977375, 2.2178167543876066, 2.7761016071382576]
      }
    ]
  },
  "task_ids": null,
  "uncorrected_energy_per_atom": null,
  "energy_per_atom": -10.246239301428572,
  "formation_energy_per_atom": -0.257930001785715,
  "energy_above_hull": 0.009174299285714001,
  "is_stable": false,
  "equilibrium_reaction_energy_per_atom": null,
  "decomposes_to": null,
  "xas": null,
  "grain_boundaries": null,
  "band_gap": 3.6681,
  "cbm": null,
  "vbm": null,
  "efermi": 0.37559521,
  "is_gap_direct": null,
  "is_metal": null,
  "es_source_calc_id": null,
  "bandstructure": null,
  "dos": null,
  "dos_energy_up": null,
  "dos_energy_down": null,
  "is_magnetic": null,
  "ordering": null,
  "total_magnetization": 0.0,
  "total_magnetization_normalized_vol": null,
  "total_magnetization_normalized_formula_units": null,
  "num_magnetic_sites": null,
  "num_unique_magnetic_sites": null,
  "types_of_magnetic_species": null,
  "bulk_modulus": null,
  "shear_modulus": null,
  "universal_anisotropy": null,
  "homogeneous_poisson": null,
  "e_total": null,
  "e_ionic": null,
  "e_electronic": null,
  "n": null,
  "e_ij_max": null,
  "weighted_surface_energy_EV_PER_ANG2": null,
  "weighted_surface_energy": null,
  "weighted_work_function": null,
  "surface_anisotropy": null,
  "shape_factor": null,
  "has_reconstructed": null,
  "possible_species": null,
  "has_props": null,
  "theoretical": null,
  "database_IDs": null,
  "fields_not_requested": [
    "builder_meta",
    "nsites",
    "elements",
    "nelements",
    "composition",
    "composition_reduced",
    "chemsys",
    "symmetry",
    "property_name",
    "deprecated",
    "deprecation_reasons",
    "last_updated",
    "origins",
    "warnings",
    "task_ids",
    "uncorrected_energy_per_atom",
    "equilibrium_reaction_energy_per_atom",
    "decomposes_to",
    "xas",
    "grain_boundaries",
    "cbm",
    "vbm",
    "is_gap_direct",
    "is_metal",
    "es_source_calc_id",
    "bandstructure",
    "dos",
    "dos_energy_up",
    "dos_energy_down",
    "is_magnetic",
    "ordering",
    "total_magnetization_normalized_vol",
    "total_magnetization_normalized_formula_units",
    "num_magnetic_sites",
    "num_unique_magnetic_sites",
    "types_of_magnetic_species",
    "bulk_modulus",
    "shear_modulus",
    "universal_anisotropy",
    "homogeneous_poisson",
    "e_total",
    "e_ionic",
    "e_electronic",
    "n",
    "e_ij_max",
    "weighted_surface_energy_EV_PER_ANG2",
    "weighted_surface_energy",
    "weighted_work_function",
    "surface_anisotropy",
    "shape_factor",
    "has_reconstructed",
    "possible_species",
    "has_props",
    "theoretical",
    "database_IDs"
  ]
}
