{"builder_meta": null, "nsites": null, "elements": null, "nelements": null, "composition": null, "composition_reduced": null, "formula_pretty": "SrNd3", "formula_anonymous": "AB3", "chemsys": null, "volume": 309.2164620528105, "density": 5.588673095945798, "density_atomic": 38.652057756601316, "symmetry": null, "property_name": null, "material_id": "mp-1187221", "deprecated": null, "deprecation_reasons": null, "last_updated": null, "origins": null, "warnings": null, "structure": {"@module": "pymatgen.core.structure", "@class": "Structure", "charge": 0, "lattice": {"matrix": [[3.830746, -6.635047, 0.0], [3.830746, 6.635047, 0.0], [0.0, 0.0, 6.082824]], "pbc": [true, true, true], "a": 7.661492257303729, "b": 7.661492257303729, "c": 6.082824, "alpha": 90.0, "beta": 90.0, "gamma": 120.00000222190107, "volume": 309.2164620528105}, "properties": {}, "sites": [{"species": [{"element": "Sr", "occu": 1}], "abc": [0.333333, 0.666667, 0.75], "properties": {"magmom": 0.002}, "label": "Sr", "xyz": [3.8307459999999995, 2.2116867566980005, 4.562118]}, {"species": [{"element": "Sr", "occu": 1}], "abc": [0.666667, 0.333333, 0.25], "properties": {"magmom": 0.006}, "label": "Sr", "xyz": [3.8307459999999995, -2.2116867566980005, 1.520706]}, {"species": [{"element": "Nd", "occu": 1}], "abc": [0.159939, 0.319878999999999, 0.25], "properties": {"magmom": 0.012}, "label": "Nd", "xyz": [1.8380608842279962, 1.0612094171799935, 1.520706]}, {"species": [{"element": "Nd", "occu": 1}], "abc": [0.680121, 0.840061, 0.25], "properties": {"magmom": 0.012}, "label": "Nd", "xyz": [5.823431115771999, 1.0612094171799997, 1.520706]}, {"species": [{"element": "Nd", "occu": 1}], "abc": [0.159939, 0.840061, 0.25], "properties": {"magmom": 0.012}, "label": "Nd", "xyz": [3.830746, 4.5126414357339995, 1.520706]}, {"species": [{"element": "Nd", "occu": 1}], "abc": [0.840061, 0.680121, 0.75], "properties": {"magmom": 0.032}, "label": "Nd", "xyz": [5.823431115771999, -1.0612094171799997, 4.562118]}, {"species": [{"element": "Nd", "occu": 1}], "abc": [0.319878999999999, 0.159939, 0.75], "properties": {"magmom": 0.032}, "label": "Nd", "xyz": [1.8380608842279962, -1.0612094171799935, 4.562118]}, {"species": [{"element": "Nd", "occu": 1}], "abc": [0.840061, 0.159939, 0.75], "properties": {"magmom": 0.032}, "label": "Nd", "xyz": [3.830746, -4.5126414357339995, 4.562118]}]}, "task_ids": null, "uncorrected_energy_per_atom": null, "energy_per_atom": -25.70713442291667, "formation_energy_per_atom": 0.142787581458332, "energy_above_hull": 0.142787581458332, "is_stable": false, "equilibrium_reaction_energy_per_atom": null, "decomposes_to": null, "xas": null, "grain_boundaries": null, "band_gap": 0.0, "cbm": null, "vbm": null, "efermi": 2.86430854, "is_gap_direct": null, "is_metal": null, "es_source_calc_id": null, "bandstructure": null, "dos": null, "dos_energy_up": null, "dos_energy_down": null, "is_magnetic": null, "ordering": null, "total_magnetization": 0.329992599999999, "total_magnetization_normalized_vol": null, "total_magnetization_normalized_formula_units": null, "num_magnetic_sites": null, "num_unique_magnetic_sites": null, "types_of_magnetic_species": null, "bulk_modulus": null, "shear_modulus": null, "universal_anisotropy": null, "homogeneous_poisson": null, "e_total": null, "e_ionic": null, "e_electronic": null, "n": null, "e_ij_max": null, "weighted_surface_energy_EV_PER_ANG2": null, "weighted_surface_energy": null, "weighted_work_function": null, "surface_anisotropy": null, "shape_factor": null, "has_reconstructed": null, "possible_species": null, "has_props": null, "theoretical": null, "database_IDs": null, "fields_not_requested": ["builder_meta", "nsites", "elements", "nelements", "composition", "composition_reduced", "chemsys", "symmetry", "property_name", "deprecated", "deprecation_reasons", "last_updated", "origins", "warnings", "task_ids", "uncorrected_energy_per_atom", "equilibrium_reaction_energy_per_atom", "decomposes_to", "xas", "grain_boundaries", "cbm", "vbm", "is_gap_direct", "is_metal", "es_source_calc_id", "bandstructure", "dos", "dos_energy_up", "dos_energy_down", "is_magnetic", "ordering", "total_magnetization_normalized_vol", "total_magnetization_normalized_formula_units", "num_magnetic_sites", "num_unique_magnetic_sites", "types_of_magnetic_species", "bulk_modulus", "shear_modulus", "universal_anisotropy", "homogeneous_poisson", "e_total", "e_ionic", "e_electronic", "n", "e_ij_max", "weighted_surface_energy_EV_PER_ANG2", "weighted_surface_energy", "weighted_work_function", "surface_anisotropy", "shape_factor", "has_reconstructed", "possible_species", "has_props", "theoretical", "database_IDs"]}