{"builder_meta": null, "nsites": null, "elements": null, "nelements": null, "composition": null, "composition_reduced": null, "formula_pretty": "SrO2", "formula_anonymous": "AB2", "chemsys": null, "volume": 41.98421694191871, "density": 4.7311038520642335, "density_atomic": 13.99473898063957, "symmetry": null, "property_name": null, "material_id": "mp-2697", "deprecated": null, "deprecation_reasons": null, "last_updated": null, "origins": null, "warnings": null, "structure": {"@module": "pymatgen.core.structure", "@class": "Structure", "charge": 0, "lattice": {"matrix": [[3.19936803, 0.0, -1.5250202], [-0.7269203200000001, 3.11569203, -1.52502019], [0.0279986, 0.03528396, 4.17725599]], "pbc": [true, true, true], "a": 3.544240736997717, "b": 3.54423991249775, "c": 4.1774988312896175, "alpha": 115.10041547493206, "beta": 115.10042383616062, "gamma": 89.99999560762716, "volume": 41.98421694191871}, "properties": {}, "sites": [{"species": [{"element": "Sr", "occu": 1}], "abc": [0.0, 0.0, 0.0], "properties": {"magmom": -0.0}, "label": "Sr", "xyz": [0.0, 0.0, 0.0]}, {"species": [{"element": "O", "occu": 1}], "abc": [0.38787763000000003, 0.38787763000000003, 0.77575525], "properties": {"magmom": -0.0}, "label": "O", "xyz": [0.9807272189963774, 1.2358789576170788, 2.0574858269589713]}, {"species": [{"element": "O", "occu": 1}], "abc": [0.61212237, 0.61212237, 0.22424475], "properties": {"magmom": -0.0}, "label": "O", "xyz": [1.519719091003623, 1.915097032382921, -0.930270226958972]}]}, "task_ids": null, "uncorrected_energy_per_atom": null, "energy_per_atom": -6.067262499999998, "formation_energy_per_atom": -2.204479133333331, "energy_above_hull": 0.0, "is_stable": true, "equilibrium_reaction_energy_per_atom": null, "decomposes_to": null, "xas": null, "grain_boundaries": null, "band_gap": 2.8495, "cbm": null, "vbm": null, "efermi": 2.59636997, "is_gap_direct": null, "is_metal": null, "es_source_calc_id": null, "bandstructure": null, "dos": null, "dos_energy_up": null, "dos_energy_down": null, "is_magnetic": null, "ordering": null, "total_magnetization": 0.0, "total_magnetization_normalized_vol": null, "total_magnetization_normalized_formula_units": null, "num_magnetic_sites": null, "num_unique_magnetic_sites": null, "types_of_magnetic_species": null, "bulk_modulus": null, "shear_modulus": null, "universal_anisotropy": null, "homogeneous_poisson": null, "e_total": null, "e_ionic": null, "e_electronic": null, "n": null, "e_ij_max": null, "weighted_surface_energy_EV_PER_ANG2": null, "weighted_surface_energy": null, "weighted_work_function": null, "surface_anisotropy": null, "shape_factor": null, "has_reconstructed": null, "possible_species": null, "has_props": null, "theoretical": null, "database_IDs": null, "fields_not_requested": ["builder_meta", "nsites", "elements", "nelements", "composition", "composition_reduced", "chemsys", "symmetry", "property_name", "deprecated", "deprecation_reasons", "last_updated", "origins", "warnings", "task_ids", "uncorrected_energy_per_atom", "equilibrium_reaction_energy_per_atom", "decomposes_to", "xas", "grain_boundaries", "cbm", "vbm", "is_gap_direct", "is_metal", "es_source_calc_id", "bandstructure", "dos", "dos_energy_up", "dos_energy_down", "is_magnetic", "ordering", "total_magnetization_normalized_vol", "total_magnetization_normalized_formula_units", "num_magnetic_sites", "num_unique_magnetic_sites", "types_of_magnetic_species", "bulk_modulus", "shear_modulus", "universal_anisotropy", "homogeneous_poisson", "e_total", "e_ionic", "e_electronic", "n", "e_ij_max", "weighted_surface_energy_EV_PER_ANG2", "weighted_surface_energy", "weighted_work_function", "surface_anisotropy", "shape_factor", "has_reconstructed", "possible_species", "has_props", "theoretical", "database_IDs"]}