{
  "builder_meta": null,
  "nsites": null,
  "elements": null,
  "nelements": null,
  "composition": null,
  "composition_reduced": null,
  "formula_pretty": "SrO3",
  "formula_anonymous": "AB3",
  "chemsys": null,
  "volume": 109.70034156709768,
  "density": 4.10571774025389,
  "density_atomic": 13.71254269588721,
  "symmetry": null,
  "property_name": null,
  "material_id": "mp-1206311",
  "deprecated": null,
  "deprecation_reasons": null,
  "last_updated": null,
  "origins": null,
  "warnings": null,
  "structure": {
    "@module": "pymatgen.core.structure",
    "@class": "Structure",
    "charge": 0,
    "lattice": {
      "matrix": [
        [3.773499, 0.0, 0.0],
        [0.0, 4.794068, 0.0],
        [0.0, 0.0, 6.064005]
      ],
      "pbc": [true, true, true],
      "a": 3.773499,
      "b": 4.794068,
      "c": 6.064005,
      "alpha": 90.0,
      "beta": 90.0,
      "gamma": 90.0,
      "volume": 109.70034156709768
    },
    "properties": {},
    "sites": [
      {
        "species": [{ "element": "Sr", "occu": 1 }],
        "abc": [0.5, 0.290821, 0.007467],
        "properties": { "magmom": -0.0 },
        "label": "Sr",
        "xyz": [1.8867495, 1.394215649828, 0.045279925335]
      },
      {
        "species": [{ "element": "Sr", "occu": 1 }],
        "abc": [0.5, 0.709179, 0.507467],
        "properties": { "magmom": -0.0 },
        "label": "Sr",
        "xyz": [1.8867495, 3.3998523501720004, 3.077282425335]
      },
      {
        "species": [{ "element": "O", "occu": 1 }],
        "abc": [0.5, 0.199940999999999, 0.603383],
        "properties": { "magmom": -0.0 },
        "label": "O",
        "xyz": [1.8867495, 0.9585307499879953, 3.658917528915]
      },
      {
        "species": [{ "element": "O", "occu": 1 }],
        "abc": [0.5, 0.800059, 0.103382999999999],
        "properties": { "magmom": -0.0 },
        "label": "O",
        "xyz": [1.8867495, 3.835537250012, 0.626915028914994]
      },
      {
        "species": [{ "element": "O", "occu": 1 }],
        "abc": [0.0, 0.817628999999999, 0.993953],
        "properties": { "magmom": 0.0 },
        "label": "O",
        "xyz": [0.0, 3.9197690247719956, 6.027335961765]
      },
      {
        "species": [{ "element": "O", "occu": 1 }],
        "abc": [0.0, 0.182371, 0.493953],
        "properties": { "magmom": 0.0 },
        "label": "O",
        "xyz": [0.0, 0.874298975228, 2.9953334617649996]
      },
      {
        "species": [{ "element": "O", "occu": 1 }],
        "abc": [0.0, 0.374492999999999, 0.322997],
        "properties": { "magmom": 0.0 },
        "label": "O",
        "xyz": [0.0, 1.7953449075239953, 1.9586554229849997]
      },
      {
        "species": [{ "element": "O", "occu": 1 }],
        "abc": [0.0, 0.625506999999999, 0.822997],
        "properties": { "magmom": 0.0 },
        "label": "O",
        "xyz": [0.0, 2.9987230924759953, 4.990657922985]
      }
    ]
  },
  "task_ids": null,
  "uncorrected_energy_per_atom": null,
  "energy_per_atom": -5.42730154875,
  "formation_energy_per_atom": -1.2932237725,
  "energy_above_hull": 0.360135577499998,
  "is_stable": false,
  "equilibrium_reaction_energy_per_atom": null,
  "decomposes_to": null,
  "xas": null,
  "grain_boundaries": null,
  "band_gap": 0.46820000000000006,
  "cbm": null,
  "vbm": null,
  "efermi": 2.39207956,
  "is_gap_direct": null,
  "is_metal": null,
  "es_source_calc_id": null,
  "bandstructure": null,
  "dos": null,
  "dos_energy_up": null,
  "dos_energy_down": null,
  "is_magnetic": null,
  "ordering": null,
  "total_magnetization": 0.0008093999999990001,
  "total_magnetization_normalized_vol": null,
  "total_magnetization_normalized_formula_units": null,
  "num_magnetic_sites": null,
  "num_unique_magnetic_sites": null,
  "types_of_magnetic_species": null,
  "bulk_modulus": null,
  "shear_modulus": null,
  "universal_anisotropy": null,
  "homogeneous_poisson": null,
  "e_total": null,
  "e_ionic": null,
  "e_electronic": null,
  "n": null,
  "e_ij_max": null,
  "weighted_surface_energy_EV_PER_ANG2": null,
  "weighted_surface_energy": null,
  "weighted_work_function": null,
  "surface_anisotropy": null,
  "shape_factor": null,
  "has_reconstructed": null,
  "possible_species": null,
  "has_props": null,
  "theoretical": null,
  "database_IDs": null,
  "fields_not_requested": [
    "builder_meta",
    "nsites",
    "elements",
    "nelements",
    "composition",
    "composition_reduced",
    "chemsys",
    "symmetry",
    "property_name",
    "deprecated",
    "deprecation_reasons",
    "last_updated",
    "origins",
    "warnings",
    "task_ids",
    "uncorrected_energy_per_atom",
    "equilibrium_reaction_energy_per_atom",
    "decomposes_to",
    "xas",
    "grain_boundaries",
    "cbm",
    "vbm",
    "is_gap_direct",
    "is_metal",
    "es_source_calc_id",
    "bandstructure",
    "dos",
    "dos_energy_up",
    "dos_energy_down",
    "is_magnetic",
    "ordering",
    "total_magnetization_normalized_vol",
    "total_magnetization_normalized_formula_units",
    "num_magnetic_sites",
    "num_unique_magnetic_sites",
    "types_of_magnetic_species",
    "bulk_modulus",
    "shear_modulus",
    "universal_anisotropy",
    "homogeneous_poisson",
    "e_total",
    "e_ionic",
    "e_electronic",
    "n",
    "e_ij_max",
    "weighted_surface_energy_EV_PER_ANG2",
    "weighted_surface_energy",
    "weighted_work_function",
    "surface_anisotropy",
    "shape_factor",
    "has_reconstructed",
    "possible_species",
    "has_props",
    "theoretical",
    "database_IDs"
  ]
}
