{
  "builder_meta": null,
  "nsites": null,
  "elements": null,
  "nelements": null,
  "composition": null,
  "composition_reduced": null,
  "formula_pretty": "SrO6",
  "formula_anonymous": "AB6",
  "chemsys": null,
  "volume": 217.60133110856907,
  "density": 2.802392833859326,
  "density_atomic": 15.542952222040649,
  "symmetry": null,
  "property_name": null,
  "material_id": "mp-1179143",
  "deprecated": null,
  "deprecation_reasons": null,
  "last_updated": null,
  "origins": null,
  "warnings": null,
  "structure": {
    "@module": "pymatgen.core.structure",
    "@class": "Structure",
    "charge": 0,
    "lattice": {
      "matrix": [
        [4.540925, 3.838880999999999, 0.0],
        [-4.540925, 3.838880999999999, 0.0],
        [0.0, 0.392308, 6.241408]
      ],
      "pbc": [true, true, true],
      "a": 5.946175845683173,
      "b": 5.946175845683173,
      "c": 6.253725240952627,
      "alpha": 87.67888478402323,
      "beta": 87.67888478402323,
      "gamma": 99.57789347174291,
      "volume": 217.60133110856896
    },
    "properties": {},
    "sites": [
      {
        "species": [{ "element": "Sr", "occu": 1 }],
        "abc": [0.191586999999999, 0.808412999999999, 0.75],
        "properties": { "magmom": 0.02 },
        "label": "Sr",
        "xyz": [-2.80096060405, 4.133111999999992, 4.681056]
      },
      {
        "species": [{ "element": "Sr", "occu": 1 }],
        "abc": [0.808412999999999, 0.191586999999999, 0.25],
        "properties": { "magmom": 0.02 },
        "label": "Sr",
        "xyz": [2.80096060405, 3.9369579999999913, 1.560352]
      },
      {
        "species": [{ "element": "O", "occu": 1 }],
        "abc": [0.9274, 0.756915, 0.409147],
        "properties": { "magmom": 0.549 },
        "label": "O",
        "xyz": [0.7741595986250003, 6.626396492790998, 2.5536533589759998]
      },
      {
        "species": [{ "element": "O", "occu": 1 }],
        "abc": [0.243085, 0.0726, 0.090852999999999],
        "properties": { "magmom": 0.549 },
        "label": "O",
        "xyz": [0.7741595986249998, 1.2475195072089993, 0.5670506410239937]
      },
      {
        "species": [{ "element": "O", "occu": 1 }],
        "abc": [0.0726, 0.243085, 0.590853],
        "properties": { "magmom": 0.549 },
        "label": "O",
        "xyz": [-0.7741595986249998, 1.4436735072089997, 3.6877546410239996]
      },
      {
        "species": [{ "element": "O", "occu": 1 }],
        "abc": [0.756915, 0.9274, 0.909146999999999],
        "properties": { "magmom": 0.549 },
        "label": "O",
        "xyz": [-0.7741595986250003, 6.822550492790998, 5.6743573589759935]
      },
      {
        "species": [{ "element": "O", "occu": 1 }],
        "abc": [0.7515900000000001, 0.597372999999999, 0.421127],
        "properties": { "magmom": 0.62 },
        "label": "O",
        "xyz": [0.7002878307250047, 5.343719921518995, 2.628425426816]
      },
      {
        "species": [{ "element": "O", "occu": 1 }],
        "abc": [0.402626999999999, 0.24841000000000002, 0.078873],
        "properties": { "magmom": 0.62 },
        "label": "O",
        "xyz": [0.7002878307249953, 2.5301960784809956, 0.492278573184]
      },
      {
        "species": [{ "element": "O", "occu": 1 }],
        "abc": [0.24841000000000002, 0.402626999999999, 0.578873],
        "properties": { "magmom": 0.62 },
        "label": "O",
        "xyz": [-0.7002878307249953, 2.7263500784809955, 3.6129825731839995]
      },
      {
        "species": [{ "element": "O", "occu": 1 }],
        "abc": [0.597372999999999, 0.7515900000000001, 0.921126999999999],
        "properties": { "magmom": 0.62 },
        "label": "O",
        "xyz": [-0.7002878307250047, 5.539873921518995, 5.749129426815994]
      },
      {
        "species": [{ "element": "O", "occu": 1 }],
        "abc": [0.9139900000000001, 0.466225, 0.934734],
        "properties": { "magmom": -0.363 },
        "label": "O",
        "xyz": [2.0332672826250002, 5.665184765486998, 5.834056265471999]
      },
      {
        "species": [{ "element": "O", "occu": 1 }],
        "abc": [0.533775, 0.08601, 0.565265999999999],
        "properties": { "magmom": -0.363 },
        "label": "O",
        "xyz": [2.0332672826250002, 2.601039234512999, 3.528055734527994]
      },
      {
        "species": [{ "element": "O", "occu": 1 }],
        "abc": [0.08601, 0.533775, 0.065265999999999],
        "properties": { "magmom": -0.363 },
        "label": "O",
        "xyz": [-2.0332672826250002, 2.404885234512999, 0.4073517345279938]
      },
      {
        "species": [{ "element": "O", "occu": 1 }],
        "abc": [0.466225, 0.9139900000000001, 0.434733999999999],
        "properties": { "magmom": -0.363 },
        "label": "O",
        "xyz": [-2.0332672826250002, 5.469030765486998, 2.7133522654719937]
      }
    ]
  },
  "task_ids": null,
  "uncorrected_energy_per_atom": null,
  "energy_per_atom": -5.350631542142858,
  "formation_energy_per_atom": -0.867746667857143,
  "energy_above_hull": 0.077030103571426,
  "is_stable": false,
  "equilibrium_reaction_energy_per_atom": null,
  "decomposes_to": null,
  "xas": null,
  "grain_boundaries": null,
  "band_gap": 0.0,
  "cbm": null,
  "vbm": null,
  "efermi": 0.0558964,
  "is_gap_direct": null,
  "is_metal": null,
  "es_source_calc_id": null,
  "bandstructure": null,
  "dos": null,
  "dos_energy_up": null,
  "dos_energy_down": null,
  "is_magnetic": null,
  "ordering": null,
  "total_magnetization": 4.0047955,
  "total_magnetization_normalized_vol": null,
  "total_magnetization_normalized_formula_units": null,
  "num_magnetic_sites": null,
  "num_unique_magnetic_sites": null,
  "types_of_magnetic_species": null,
  "bulk_modulus": null,
  "shear_modulus": null,
  "universal_anisotropy": null,
  "homogeneous_poisson": null,
  "e_total": null,
  "e_ionic": null,
  "e_electronic": null,
  "n": null,
  "e_ij_max": null,
  "weighted_surface_energy_EV_PER_ANG2": null,
  "weighted_surface_energy": null,
  "weighted_work_function": null,
  "surface_anisotropy": null,
  "shape_factor": null,
  "has_reconstructed": null,
  "possible_species": null,
  "has_props": null,
  "theoretical": null,
  "database_IDs": null,
  "fields_not_requested": [
    "builder_meta",
    "nsites",
    "elements",
    "nelements",
    "composition",
    "composition_reduced",
    "chemsys",
    "symmetry",
    "property_name",
    "deprecated",
    "deprecation_reasons",
    "last_updated",
    "origins",
    "warnings",
    "task_ids",
    "uncorrected_energy_per_atom",
    "equilibrium_reaction_energy_per_atom",
    "decomposes_to",
    "xas",
    "grain_boundaries",
    "cbm",
    "vbm",
    "is_gap_direct",
    "is_metal",
    "es_source_calc_id",
    "bandstructure",
    "dos",
    "dos_energy_up",
    "dos_energy_down",
    "is_magnetic",
    "ordering",
    "total_magnetization_normalized_vol",
    "total_magnetization_normalized_formula_units",
    "num_magnetic_sites",
    "num_unique_magnetic_sites",
    "types_of_magnetic_species",
    "bulk_modulus",
    "shear_modulus",
    "universal_anisotropy",
    "homogeneous_poisson",
    "e_total",
    "e_ionic",
    "e_electronic",
    "n",
    "e_ij_max",
    "weighted_surface_energy_EV_PER_ANG2",
    "weighted_surface_energy",
    "weighted_work_function",
    "surface_anisotropy",
    "shape_factor",
    "has_reconstructed",
    "possible_species",
    "has_props",
    "theoretical",
    "database_IDs"
  ]
}
