{
  "builder_meta": null,
  "nsites": null,
  "elements": null,
  "nelements": null,
  "composition": null,
  "composition_reduced": null,
  "formula_pretty": "SrP",
  "formula_anonymous": "AB",
  "chemsys": null,
  "volume": 342.36289376264824,
  "density": 3.451242732968408,
  "density_atomic": 28.530241146887352,
  "symmetry": null,
  "property_name": null,
  "material_id": "mp-7931",
  "deprecated": null,
  "deprecation_reasons": null,
  "last_updated": null,
  "origins": null,
  "warnings": null,
  "structure": {
    "@module": "pymatgen.core.structure",
    "@class": "Structure",
    "charge": 0,
    "lattice": {
      "matrix": [
        [8.08553955, -1e-8, -0.0],
        [-4.04277029, 7.00228311, -0.0],
        [0.0, 0.0, 6.04697283]
      ],
      "pbc": [true, true, true],
      "a": 8.08553955,
      "b": 8.085540202750707,
      "c": 6.04697283,
      "alpha": 90.0,
      "beta": 90.0,
      "gamma": 120.00000161427238,
      "volume": 342.36289376264824
    },
    "properties": {},
    "sites": [
      {
        "species": [{ "element": "Sr", "occu": 1 }],
        "abc": [-0.0, 0.63985189, 0.5],
        "properties": { "magmom": -0.0 },
        "label": "Sr",
        "xyz": [-2.586774210892348, 4.480424082248578, 3.023486415]
      },
      {
        "species": [{ "element": "Sr", "occu": 1 }],
        "abc": [0.36014811, 0.36014811, 0.5],
        "properties": { "magmom": -0.0 },
        "label": "Sr",
        "xyz": [1.4559957081550985, 2.5218590241499412, 3.023486415]
      },
      {
        "species": [{ "element": "Sr", "occu": 1 }],
        "abc": [0.63985189, 0.0, 0.5],
        "properties": { "magmom": -0.0 },
        "label": "Sr",
        "xyz": [5.1735477627372495, -6.3985189e-9, 3.023486415]
      },
      {
        "species": [{ "element": "Sr", "occu": 1 }],
        "abc": [-0.0, 0.30490625, 0.0],
        "properties": { "magmom": 0.0 },
        "label": "Sr",
        "xyz": [-1.2326659287353126, 2.1350398845084375, 0.0]
      },
      {
        "species": [{ "element": "Sr", "occu": 1 }],
        "abc": [0.6950937500000001, 0.6950937500000001, 0.0],
        "properties": { "magmom": 0.0 },
        "label": "Sr",
        "xyz": [2.8101036453181254, 4.867243218540625, 0.0]
      },
      {
        "species": [{ "element": "Sr", "occu": 1 }],
        "abc": [0.30490625, 0.0, 0.0],
        "properties": { "magmom": 0.0 },
        "label": "Sr",
        "xyz": [2.4653315434171876, -3.0490624999999998e-9, 0.0]
      },
      {
        "species": [{ "element": "P", "occu": 1 }],
        "abc": [0.666667, 0.333333, 0.19071642],
        "properties": { "magmom": 0.0 },
        "label": "P",
        "xyz": [4.042773646103281, 2.3340920292389598, 1.1532570099748685]
      },
      {
        "species": [{ "element": "P", "occu": 1 }],
        "abc": [0.666667, 0.333333, 0.80928358],
        "properties": { "magmom": 0.0 },
        "label": "P",
        "xyz": [4.042773646103281, 2.3340920292389598, 4.893715820025131]
      },
      {
        "species": [{ "element": "P", "occu": 1 }],
        "abc": [0.333333, 0.666667, 0.80928358],
        "properties": { "magmom": 0.0 },
        "label": "P",
        "xyz": [-4.386103280129561e-6, 4.66819107076104, 4.893715820025131]
      },
      {
        "species": [{ "element": "P", "occu": 1 }],
        "abc": [0.333333, 0.666667, 0.19071642],
        "properties": { "magmom": 0.0 },
        "label": "P",
        "xyz": [-4.386103280129561e-6, 4.66819107076104, 1.1532570099748685]
      },
      {
        "species": [{ "element": "P", "occu": 1 }],
        "abc": [0.0, 0.0, 0.68563537],
        "properties": { "magmom": 0.0 },
        "label": "P",
        "xyz": [0.0, 0.0, 4.146018453676997]
      },
      {
        "species": [{ "element": "P", "occu": 1 }],
        "abc": [0.0, 0.0, 0.31436463000000003],
        "properties": { "magmom": 0.0 },
        "label": "P",
        "xyz": [0.0, 0.0, 1.900954376323003]
      }
    ]
  },
  "task_ids": null,
  "uncorrected_energy_per_atom": null,
  "energy_per_atom": -13.284295559999999,
  "formation_energy_per_atom": -1.210426868988094,
  "energy_above_hull": 0.0,
  "is_stable": true,
  "equilibrium_reaction_energy_per_atom": null,
  "decomposes_to": null,
  "xas": null,
  "grain_boundaries": null,
  "band_gap": 0.45940000000000003,
  "cbm": null,
  "vbm": null,
  "efermi": 3.41588326,
  "is_gap_direct": null,
  "is_metal": null,
  "es_source_calc_id": null,
  "bandstructure": null,
  "dos": null,
  "dos_energy_up": null,
  "dos_energy_down": null,
  "is_magnetic": null,
  "ordering": null,
  "total_magnetization": 0.0,
  "total_magnetization_normalized_vol": null,
  "total_magnetization_normalized_formula_units": null,
  "num_magnetic_sites": null,
  "num_unique_magnetic_sites": null,
  "types_of_magnetic_species": null,
  "bulk_modulus": null,
  "shear_modulus": null,
  "universal_anisotropy": null,
  "homogeneous_poisson": null,
  "e_total": null,
  "e_ionic": null,
  "e_electronic": null,
  "n": null,
  "e_ij_max": null,
  "weighted_surface_energy_EV_PER_ANG2": null,
  "weighted_surface_energy": null,
  "weighted_work_function": null,
  "surface_anisotropy": null,
  "shape_factor": null,
  "has_reconstructed": null,
  "possible_species": null,
  "has_props": null,
  "theoretical": null,
  "database_IDs": null,
  "fields_not_requested": [
    "builder_meta",
    "nsites",
    "elements",
    "nelements",
    "composition",
    "composition_reduced",
    "chemsys",
    "symmetry",
    "property_name",
    "deprecated",
    "deprecation_reasons",
    "last_updated",
    "origins",
    "warnings",
    "task_ids",
    "uncorrected_energy_per_atom",
    "equilibrium_reaction_energy_per_atom",
    "decomposes_to",
    "xas",
    "grain_boundaries",
    "cbm",
    "vbm",
    "is_gap_direct",
    "is_metal",
    "es_source_calc_id",
    "bandstructure",
    "dos",
    "dos_energy_up",
    "dos_energy_down",
    "is_magnetic",
    "ordering",
    "total_magnetization_normalized_vol",
    "total_magnetization_normalized_formula_units",
    "num_magnetic_sites",
    "num_unique_magnetic_sites",
    "types_of_magnetic_species",
    "bulk_modulus",
    "shear_modulus",
    "universal_anisotropy",
    "homogeneous_poisson",
    "e_total",
    "e_ionic",
    "e_electronic",
    "n",
    "e_ij_max",
    "weighted_surface_energy_EV_PER_ANG2",
    "weighted_surface_energy",
    "weighted_work_function",
    "surface_anisotropy",
    "shape_factor",
    "has_reconstructed",
    "possible_species",
    "has_props",
    "theoretical",
    "database_IDs"
  ]
}
