{
  "builder_meta": null,
  "nsites": null,
  "elements": null,
  "nelements": null,
  "composition": null,
  "composition_reduced": null,
  "formula_pretty": "SrP2",
  "formula_anonymous": "AB2",
  "chemsys": null,
  "volume": 441.13240855365945,
  "density": 3.378070328284513,
  "density_atomic": 24.507356030758856,
  "symmetry": null,
  "property_name": null,
  "material_id": "mp-1105302",
  "deprecated": null,
  "deprecation_reasons": null,
  "last_updated": null,
  "origins": null,
  "warnings": null,
  "structure": {
    "@module": "pymatgen.core.structure",
    "@class": "Structure",
    "charge": 0,
    "lattice": {
      "matrix": [
        [4.9320615199999995, 0.0, -3.68063501],
        [-4.93105513, 0.0, -3.80862785],
        [0.0, 11.94386704, 0.0]
      ],
      "pbc": [true, true, true],
      "a": 6.154047847872358,
      "b": 6.230646097708884,
      "c": 11.94386704,
      "alpha": 90.0,
      "beta": 90.0,
      "gamma": 105.5856016100669,
      "volume": 441.13240855365945
    },
    "properties": {},
    "sites": [
      {
        "species": [{ "element": "Sr", "occu": 1 }],
        "abc": [0.10363974000000001, 0.31492287, 0.16619346000000002],
        "properties": { "magmom": 0.0 },
        "label": "Sr",
        "xyz": [-1.0417444600710184, 1.9849925891575586, -1.580884068755227]
      },
      {
        "species": [{ "element": "Sr", "occu": 1 }],
        "abc": [0.39636026, 0.18507713, 0.66619346],
        "properties": { "magmom": 0.0 },
        "label": "Sr",
        "xyz": [1.0422476550710182, 7.956926109157559, -2.1637473612447735]
      },
      {
        "species": [{ "element": "Sr", "occu": 1 }],
        "abc": [0.89636026, 0.68507713, 0.83380654],
        "properties": { "magmom": 0.0 },
        "label": "Sr",
        "xyz": [1.0427508500710179, 9.958874450842442, -5.908378791244774]
      },
      {
        "species": [{ "element": "Sr", "occu": 1 }],
        "abc": [0.60363974, 0.81492287, 0.33380654],
        "properties": { "magmom": 0.0 },
        "label": "Sr",
        "xyz": [-1.0412412650710188, 3.9869409308424415, -5.325515498755227]
      },
      {
        "species": [{ "element": "Sr", "occu": 1 }],
        "abc": [-0.0, 0.5, 0.5],
        "properties": { "magmom": -0.0 },
        "label": "Sr",
        "xyz": [-2.465527565, 5.97193352, -1.904313925]
      },
      {
        "species": [{ "element": "Sr", "occu": 1 }],
        "abc": [0.5, 0.0, -0.0],
        "properties": { "magmom": -0.0 },
        "label": "Sr",
        "xyz": [2.4660307599999998, 0.0, -1.840317505]
      },
      {
        "species": [{ "element": "P", "occu": 1 }],
        "abc": [0.35280515, 0.28389347, 0.39799319],
        "properties": { "magmom": -0.0 },
        "label": "P",
        "xyz": [0.34016235275582685, 4.753577744185458, -2.379791563073441]
      },
      {
        "species": [{ "element": "P", "occu": 1 }],
        "abc": [0.14719485000000002, 0.21610653, 0.89799319],
        "properties": { "magmom": -0.0 },
        "label": "P",
        "xyz": [-0.3396591577558269, 10.725511264185458, -1.364839866926559]
      },
      {
        "species": [{ "element": "P", "occu": 1 }],
        "abc": [0.64719485, 0.71610653, 0.60200681],
        "properties": { "magmom": -0.0 },
        "label": "P",
        "xyz": [-0.3391559627558274, 7.190289295814543, -5.109471296926559]
      },
      {
        "species": [{ "element": "P", "occu": 1 }],
        "abc": [0.85280515, 0.78389347, 0.10200681],
        "properties": { "magmom": -0.0 },
        "label": "P",
        "xyz": [0.34066554775582647, 1.2183557758145425, -6.124422993073441]
      },
      {
        "species": [{ "element": "P", "occu": 1 }],
        "abc": [0.64304731, 0.43617346, 0.1319467],
        "properties": { "magmom": 0.0 },
        "label": "P",
        "xyz": [1.020753515687661, 1.5759538411667682, -4.028044829459184]
      },
      {
        "species": [{ "element": "P", "occu": 1 }],
        "abc": [0.8569526900000001, 0.06382654, 0.6319467],
        "properties": { "magmom": 0.0 },
        "label": "P",
        "xyz": [3.911811199312339, 7.547887361166768, -3.397221610540816]
      },
      {
        "species": [{ "element": "P", "occu": 1 }],
        "abc": [0.35695269, 0.56382654, 0.868053299999999],
        "properties": { "magmom": 0.0 },
        "label": "P",
        "xyz": [-1.0197471256876613, 10.367913198833222, -3.461218030540816]
      },
      {
        "species": [{ "element": "P", "occu": 1 }],
        "abc": [0.14304731, 0.93617346, 0.36805329999999903],
        "properties": { "magmom": 0.0 },
        "label": "P",
        "xyz": [-3.910804809312338, 4.39597967883322, -4.092041249459184]
      },
      {
        "species": [{ "element": "P", "occu": 1 }],
        "abc": [0.6711657600000001, 0.33462455, 0.30662505],
        "properties": { "magmom": -0.0 },
        "label": "P",
        "xyz": [1.6601787145361138, 3.6622888283333523, -3.7447765741929757]
      },
      {
        "species": [{ "element": "P", "occu": 1 }],
        "abc": [0.82883424, 0.16537545, 0.8066250500000001],
        "properties": { "magmom": -0.0 },
        "label": "P",
        "xyz": [3.272386000463886, 9.634222348333353, -3.6804898658070253]
      },
      {
        "species": [{ "element": "P", "occu": 1 }],
        "abc": [0.32883424, 0.66537545, 0.69337495],
        "properties": { "magmom": -0.0 },
        "label": "P",
        "xyz": [-1.6591723245361134, 8.281578211666648, -3.7444862858070245]
      },
      {
        "species": [{ "element": "P", "occu": 1 }],
        "abc": [0.17116576, 0.83462455, 0.19337495000000002],
        "properties": { "magmom": -0.0 },
        "label": "P",
        "xyz": [-3.271379610463886, 2.3096446916666484, -3.8087729941929753]
      }
    ]
  },
  "task_ids": null,
  "uncorrected_energy_per_atom": null,
  "energy_per_atom": -11.970547448888889,
  "formation_energy_per_atom": -0.9206095508730161,
  "energy_above_hull": 0.0,
  "is_stable": true,
  "equilibrium_reaction_energy_per_atom": null,
  "decomposes_to": null,
  "xas": null,
  "grain_boundaries": null,
  "band_gap": 0.796899999999999,
  "cbm": null,
  "vbm": null,
  "efermi": 4.34754141,
  "is_gap_direct": null,
  "is_metal": null,
  "es_source_calc_id": null,
  "bandstructure": null,
  "dos": null,
  "dos_energy_up": null,
  "dos_energy_down": null,
  "is_magnetic": null,
  "ordering": null,
  "total_magnetization": 0.0,
  "total_magnetization_normalized_vol": null,
  "total_magnetization_normalized_formula_units": null,
  "num_magnetic_sites": null,
  "num_unique_magnetic_sites": null,
  "types_of_magnetic_species": null,
  "bulk_modulus": null,
  "shear_modulus": null,
  "universal_anisotropy": null,
  "homogeneous_poisson": null,
  "e_total": null,
  "e_ionic": null,
  "e_electronic": null,
  "n": null,
  "e_ij_max": null,
  "weighted_surface_energy_EV_PER_ANG2": null,
  "weighted_surface_energy": null,
  "weighted_work_function": null,
  "surface_anisotropy": null,
  "shape_factor": null,
  "has_reconstructed": null,
  "possible_species": null,
  "has_props": null,
  "theoretical": null,
  "database_IDs": null,
  "fields_not_requested": [
    "builder_meta",
    "nsites",
    "elements",
    "nelements",
    "composition",
    "composition_reduced",
    "chemsys",
    "symmetry",
    "property_name",
    "deprecated",
    "deprecation_reasons",
    "last_updated",
    "origins",
    "warnings",
    "task_ids",
    "uncorrected_energy_per_atom",
    "equilibrium_reaction_energy_per_atom",
    "decomposes_to",
    "xas",
    "grain_boundaries",
    "cbm",
    "vbm",
    "is_gap_direct",
    "is_metal",
    "es_source_calc_id",
    "bandstructure",
    "dos",
    "dos_energy_up",
    "dos_energy_down",
    "is_magnetic",
    "ordering",
    "total_magnetization_normalized_vol",
    "total_magnetization_normalized_formula_units",
    "num_magnetic_sites",
    "num_unique_magnetic_sites",
    "types_of_magnetic_species",
    "bulk_modulus",
    "shear_modulus",
    "universal_anisotropy",
    "homogeneous_poisson",
    "e_total",
    "e_ionic",
    "e_electronic",
    "n",
    "e_ij_max",
    "weighted_surface_energy_EV_PER_ANG2",
    "weighted_surface_energy",
    "weighted_work_function",
    "surface_anisotropy",
    "shape_factor",
    "has_reconstructed",
    "possible_species",
    "has_props",
    "theoretical",
    "database_IDs"
  ]
}
