{"builder_meta": null, "nsites": null, "elements": null, "nelements": null, "composition": null, "composition_reduced": null, "formula_pretty": "SrP3", "formula_anonymous": "AB3", "chemsys": null, "volume": 358.82877940660364, "density": 3.341937723423155, "density_atomic": 22.426798712912728, "symmetry": null, "property_name": null, "material_id": "mp-569867", "deprecated": null, "deprecation_reasons": null, "last_updated": null, "origins": null, "warnings": null, "structure": {"@module": "pymatgen.core.structure", "@class": "Structure", "charge": 0, "lattice": {"matrix": [[6.72640896, 0.00456349, 1.36022254], [2.61086011, 6.19903407, 1.36022254], [0.02896605, 0.019243760000000002, 8.61647552]], "pbc": [true, true, true], "a": 6.862565386277446, "b": 6.862566522324867, "c": 8.616545696571848, "alpha": 78.3750915109424, "beta": 78.37508333870996, "gamma": 65.61986072555978, "volume": 358.82877940660364}, "properties": {}, "sites": [{"species": [{"element": "Sr", "occu": 1}], "abc": [0.042700499999999, 0.042700499999999, 0.2595532], "properties": {"magmom": -0.0}, "label": "Sr", "xyz": [0.4062242888923857, 0.26989149709880583, 2.352598159076201]}, {"species": [{"element": "Sr", "occu": 1}], "abc": [0.70674046, 0.70674046, 0.223135299999999], "properties": {"magmom": 0.0}, "label": "Sr", "xyz": [6.605489185932138, 4.388627355370005, 3.8452884573417845]}, {"species": [{"element": "Sr", "occu": 1}], "abc": [0.29325954, 0.29325954, 0.7768647], "properties": {"magmom": 0.0}, "label": "Sr", "xyz": [2.7607459340678626, 1.8342139646299944, 7.491632142658207]}, {"species": [{"element": "Sr", "occu": 1}], "abc": [0.9572995, 0.9572995, 0.7404468], "properties": {"magmom": -0.0}, "label": "Sr", "xyz": [8.960010831107605, 5.9529498229011875, 8.984322440923796]}, {"species": [{"element": "P", "occu": 1}], "abc": [0.36086736, 0.83358615, 0.97624696], "properties": {"magmom": -0.0}, "label": "P", "xyz": [4.631996289214731, 5.187862420917787, 10.036530619598533]}, {"species": [{"element": "P", "occu": 1}], "abc": [0.09638167, 0.60060742, 0.48667518], "properties": {"magmom": -0.0}, "label": "P", "xyz": [2.2305015409134183, 3.7329911564239047, 5.141485045013683]}, {"species": [{"element": "P", "occu": 1}], "abc": [0.32797692, 0.32797692, 0.16050352], "properties": {"magmom": 0.0}, "label": "P", "xyz": [3.06705790377536, 2.0377255118663506, 2.2752178493213844]}, {"species": [{"element": "P", "occu": 1}], "abc": [0.39939258, 0.90361833, 0.51332482], "properties": {"magmom": -0.0}, "label": "P", "xyz": [5.060567873533694, 5.61326173762953, 6.195435554986318]}, {"species": [{"element": "P", "occu": 1}], "abc": [0.4147577, 0.4147577, 0.36621934], "properties": {"magmom": 0.0}, "label": "P", "xyz": [3.883312171467746, 2.58003729279753, 4.283845522417673]}, {"species": [{"element": "P", "occu": 1}], "abc": [0.67202308, 0.67202308, 0.83949648], "properties": {"magmom": 0.0}, "label": "P", "xyz": [6.29917721622464, 4.185115808133649, 9.061702750678617]}, {"species": [{"element": "P", "occu": 1}], "abc": [0.60060742, 0.09638167, 0.48667518], "properties": {"magmom": -0.0}, "label": "P", "xyz": [4.305667246466306, 0.6095795823704695, 5.141485045013683]}, {"species": [{"element": "P", "occu": 1}], "abc": [0.5852423, 0.5852423, 0.63378066], "properties": {"magmom": 0.0}, "label": "P", "xyz": [5.482922948532254, 3.6428040272024695, 7.053075077582327]}, {"species": [{"element": "P", "occu": 1}], "abc": [0.63913264, 0.16641385, 0.02375304], "properties": {"magmom": -0.0}, "label": "P", "xyz": [4.734238830785269, 1.0349788990822135, 1.3003899804014656]}, {"species": [{"element": "P", "occu": 1}], "abc": [0.90361833, 0.39939258, 0.51332482], "properties": {"magmom": -0.0}, "label": "P", "xyz": [7.1357335790865815, 2.4898501635760955, 6.195435554986318]}, {"species": [{"element": "P", "occu": 1}], "abc": [0.83358615, 0.36086736, 0.97624696], "properties": {"magmom": -0.0}, "label": "P", "xyz": [6.577493561772622, 2.259619783649588, 10.036530619598533]}, {"species": [{"element": "P", "occu": 1}], "abc": [0.16641385, 0.63913264, 0.02375304], "properties": {"magmom": -0.0}, "label": "P", "xyz": [2.788741558227378, 3.9632215363504115, 1.3003899804014656]}]}, "task_ids": null, "uncorrected_energy_per_atom": null, "energy_per_atom": -11.292647954375, "formation_energy_per_atom": -0.7546754528571421, "energy_above_hull": 0.0, "is_stable": true, "equilibrium_reaction_energy_per_atom": null, "decomposes_to": null, "xas": null, "grain_boundaries": null, "band_gap": 0.378, "cbm": null, "vbm": null, "efermi": 5.17427575, "is_gap_direct": null, "is_metal": null, "es_source_calc_id": null, "bandstructure": null, "dos": null, "dos_energy_up": null, "dos_energy_down": null, "is_magnetic": null, "ordering": null, "total_magnetization": 0.0, "total_magnetization_normalized_vol": null, "total_magnetization_normalized_formula_units": null, "num_magnetic_sites": null, "num_unique_magnetic_sites": null, "types_of_magnetic_species": null, "bulk_modulus": null, "shear_modulus": null, "universal_anisotropy": null, "homogeneous_poisson": null, "e_total": null, "e_ionic": null, "e_electronic": null, "n": null, "e_ij_max": null, "weighted_surface_energy_EV_PER_ANG2": null, "weighted_surface_energy": null, "weighted_work_function": null, "surface_anisotropy": null, "shape_factor": null, "has_reconstructed": null, "possible_species": null, "has_props": null, "theoretical": null, "database_IDs": null, "fields_not_requested": ["builder_meta", "nsites", "elements", "nelements", "composition", "composition_reduced", "chemsys", "symmetry", "property_name", "deprecated", "deprecation_reasons", "last_updated", "origins", "warnings", "task_ids", "uncorrected_energy_per_atom", "equilibrium_reaction_energy_per_atom", "decomposes_to", "xas", "grain_boundaries", "cbm", "vbm", "is_gap_direct", "is_metal", "es_source_calc_id", "bandstructure", "dos", "dos_energy_up", "dos_energy_down", "is_magnetic", "ordering", "total_magnetization_normalized_vol", "total_magnetization_normalized_formula_units", "num_magnetic_sites", "num_unique_magnetic_sites", "types_of_magnetic_species", "bulk_modulus", "shear_modulus", "universal_anisotropy", "homogeneous_poisson", "e_total", "e_ionic", "e_electronic", "n", "e_ij_max", "weighted_surface_energy_EV_PER_ANG2", "weighted_surface_energy", "weighted_work_function", "surface_anisotropy", "shape_factor", "has_reconstructed", "possible_species", "has_props", "theoretical", "database_IDs"]}