{"builder_meta": null, "nsites": null, "elements": null, "nelements": null, "composition": null, "composition_reduced": null, "formula_pretty": "SrPd2", "formula_anonymous": "AB2", "chemsys": null, "volume": 121.91891303205152, "density": 8.184547508547299, "density_atomic": 20.319818838675253, "symmetry": null, "property_name": null, "material_id": "mp-1558", "deprecated": null, "deprecation_reasons": null, "last_updated": null, "origins": null, "warnings": null, "structure": {"@module": "pymatgen.core.structure", "@class": "Structure", "charge": 0, "lattice": {"matrix": [[4.8201364, 1e-08, 2.78290727], [1.60671282, 4.54446857, 2.78290727], [1e-08, 0.0, 5.56581351]], "pbc": [true, true, true], "a": 5.565814207106074, "b": 5.565814724107249, "c": 5.56581351, "alpha": 60.00000105990462, "beta": 59.99999791854346, "gamma": 59.999994587963506, "volume": 121.91891303205152}, "properties": {}, "sites": [{"species": [{"element": "Sr", "occu": 1}], "abc": [0.125, 0.125, 0.125], "properties": {"magmom": -0.0}, "label": "Sr", "xyz": [0.80335615375, 0.5680585725, 1.39145350625]}, {"species": [{"element": "Sr", "occu": 1}], "abc": [0.875, 0.875, 0.875], "properties": {"magmom": -0.0}, "label": "Sr", "xyz": [5.62349307625, 3.9764100075, 9.740174543750001]}, {"species": [{"element": "Pd", "occu": 1}], "abc": [0.0, 0.5, 0.5], "properties": {"magmom": 0.0}, "label": "Pd", "xyz": [0.803356415, 2.272234285, 4.17436039]}, {"species": [{"element": "Pd", "occu": 1}], "abc": [0.5, -0.0, 0.5], "properties": {"magmom": 0.0}, "label": "Pd", "xyz": [2.410068205, 5e-09, 4.17436039]}, {"species": [{"element": "Pd", "occu": 1}], "abc": [0.5, 0.5, 0.0], "properties": {"magmom": 0.0}, "label": "Pd", "xyz": [3.21342461, 2.27223429, 2.78290727]}, {"species": [{"element": "Pd", "occu": 1}], "abc": [0.5, 0.5, 0.5], "properties": {"magmom": 0.0}, "label": "Pd", "xyz": [3.213424615, 2.27223429, 5.565814025]}]}, "task_ids": null, "uncorrected_energy_per_atom": null, "energy_per_atom": -4.6521335433333295, "formation_energy_per_atom": -0.634736306666662, "energy_above_hull": 0.0, "is_stable": true, "equilibrium_reaction_energy_per_atom": null, "decomposes_to": null, "xas": null, "grain_boundaries": null, "band_gap": 0.0, "cbm": null, "vbm": null, "efermi": 3.90786896, "is_gap_direct": null, "is_metal": null, "es_source_calc_id": null, "bandstructure": null, "dos": null, "dos_energy_up": null, "dos_energy_down": null, "is_magnetic": null, "ordering": null, "total_magnetization": 2e-07, "total_magnetization_normalized_vol": null, "total_magnetization_normalized_formula_units": null, "num_magnetic_sites": null, "num_unique_magnetic_sites": null, "types_of_magnetic_species": null, "bulk_modulus": null, "shear_modulus": null, "universal_anisotropy": null, "homogeneous_poisson": null, "e_total": null, "e_ionic": null, "e_electronic": null, "n": null, "e_ij_max": null, "weighted_surface_energy_EV_PER_ANG2": null, "weighted_surface_energy": null, "weighted_work_function": null, "surface_anisotropy": null, "shape_factor": null, "has_reconstructed": null, "possible_species": null, "has_props": null, "theoretical": null, "database_IDs": null, "fields_not_requested": ["builder_meta", "nsites", "elements", "nelements", "composition", "composition_reduced", "chemsys", "symmetry", "property_name", "deprecated", "deprecation_reasons", "last_updated", "origins", "warnings", "task_ids", "uncorrected_energy_per_atom", "equilibrium_reaction_energy_per_atom", "decomposes_to", "xas", "grain_boundaries", "cbm", "vbm", "is_gap_direct", "is_metal", "es_source_calc_id", "bandstructure", "dos", "dos_energy_up", "dos_energy_down", "is_magnetic", "ordering", "total_magnetization_normalized_vol", "total_magnetization_normalized_formula_units", "num_magnetic_sites", "num_unique_magnetic_sites", "types_of_magnetic_species", "bulk_modulus", "shear_modulus", "universal_anisotropy", "homogeneous_poisson", "e_total", "e_ionic", "e_electronic", "n", "e_ij_max", "weighted_surface_energy_EV_PER_ANG2", "weighted_surface_energy", "weighted_work_function", "surface_anisotropy", "shape_factor", "has_reconstructed", "possible_species", "has_props", "theoretical", "database_IDs"]}