{"builder_meta": null, "nsites": null, "elements": null, "nelements": null, "composition": null, "composition_reduced": null, "formula_pretty": "SrPd", "formula_anonymous": "AB", "chemsys": null, "volume": 109.01862172806648, "density": 5.911118584617216, "density_atomic": 27.25465543201662, "symmetry": null, "property_name": null, "material_id": "mp-999143", "deprecated": null, "deprecation_reasons": null, "last_updated": null, "origins": null, "warnings": null, "structure": {"@module": "pymatgen.core.structure", "@class": "Structure", "charge": 0, "lattice": {"matrix": [[-4.25232893, 0.0, -0.0], [0.0, 0.0, -4.52183715], [-2.12616447, -5.66968484, 0.0]], "pbc": [true, true, true], "a": 4.25232893, "b": 4.52183715, "c": 6.0552375294794345, "alpha": 90.0, "beta": 69.44366546625419, "gamma": 90.0, "volume": 109.01862172806648}, "properties": {}, "sites": [{"species": [{"element": "Sr", "occu": 1}], "abc": [0.13931345, 0.75, 0.72137309], "properties": {"magmom": -0.0}, "label": "Sr", "xyz": [-2.126164447345221, -4.089958072356956, -3.3913778624999997]}, {"species": [{"element": "Sr", "occu": 1}], "abc": [0.86068655, 0.25, 0.27862691], "properties": {"magmom": -0.0}, "label": "Sr", "xyz": [-4.252328952654779, -1.5797267676430446, -1.1304592875]}, {"species": [{"element": "Pd", "occu": 1}], "abc": [0.42940829, 0.75, 0.14118343], "properties": {"magmom": 0.0}, "label": "Pd", "xyz": [-2.126164486967562, -0.8004655527302013, -3.3913778624999997]}, {"species": [{"element": "Pd", "occu": 1}], "abc": [0.57059171, 0.25, 0.85881657], "properties": {"magmom": 0.0}, "label": "Pd", "xyz": [-4.2523289130324375, -4.869219287269799, -1.1304592875]}]}, "task_ids": null, "uncorrected_energy_per_atom": null, "energy_per_atom": -4.041267234999999, "formation_energy_per_atom": -0.605112284999998, "energy_above_hull": 0.0, "is_stable": true, "equilibrium_reaction_energy_per_atom": null, "decomposes_to": null, "xas": null, "grain_boundaries": null, "band_gap": 0.0, "cbm": null, "vbm": null, "efermi": 2.62245052, "is_gap_direct": null, "is_metal": null, "es_source_calc_id": null, "bandstructure": null, "dos": null, "dos_energy_up": null, "dos_energy_down": null, "is_magnetic": null, "ordering": null, "total_magnetization": 0.0, "total_magnetization_normalized_vol": null, "total_magnetization_normalized_formula_units": null, "num_magnetic_sites": null, "num_unique_magnetic_sites": null, "types_of_magnetic_species": null, "bulk_modulus": null, "shear_modulus": null, "universal_anisotropy": null, "homogeneous_poisson": null, "e_total": null, "e_ionic": null, "e_electronic": null, "n": null, "e_ij_max": null, "weighted_surface_energy_EV_PER_ANG2": null, "weighted_surface_energy": null, "weighted_work_function": null, "surface_anisotropy": null, "shape_factor": null, "has_reconstructed": null, "possible_species": null, "has_props": null, "theoretical": null, "database_IDs": null, "fields_not_requested": ["builder_meta", "nsites", "elements", "nelements", "composition", "composition_reduced", "chemsys", "symmetry", "property_name", "deprecated", "deprecation_reasons", "last_updated", "origins", "warnings", "task_ids", "uncorrected_energy_per_atom", "equilibrium_reaction_energy_per_atom", "decomposes_to", "xas", "grain_boundaries", "cbm", "vbm", "is_gap_direct", "is_metal", "es_source_calc_id", "bandstructure", "dos", "dos_energy_up", "dos_energy_down", "is_magnetic", "ordering", "total_magnetization_normalized_vol", "total_magnetization_normalized_formula_units", "num_magnetic_sites", "num_unique_magnetic_sites", "types_of_magnetic_species", "bulk_modulus", "shear_modulus", "universal_anisotropy", "homogeneous_poisson", "e_total", "e_ionic", "e_electronic", "n", "e_ij_max", "weighted_surface_energy_EV_PER_ANG2", "weighted_surface_energy", "weighted_work_function", "surface_anisotropy", "shape_factor", "has_reconstructed", "possible_species", "has_props", "theoretical", "database_IDs"]}