{
  "builder_meta": null,
  "nsites": null,
  "elements": null,
  "nelements": null,
  "composition": null,
  "composition_reduced": null,
  "formula_pretty": "SrPm3",
  "formula_anonymous": "AB3",
  "chemsys": null,
  "volume": 302.4689299813102,
  "density": 5.73831452400824,
  "density_atomic": 37.80861624766378,
  "symmetry": null,
  "property_name": null,
  "material_id": "mp-1187235",
  "deprecated": null,
  "deprecation_reasons": null,
  "last_updated": null,
  "origins": null,
  "warnings": null,
  "structure": {
    "@module": "pymatgen.core.structure",
    "@class": "Structure",
    "charge": 0,
    "lattice": {
      "matrix": [
        [3.805844999999999, -6.591916, 0.0],
        [3.805844999999999, 6.591916, 0.0],
        [0.0, 0.0, 6.028205]
      ],
      "pbc": [true, true, true],
      "a": 7.611689215613115,
      "b": 7.611689215613115,
      "c": 6.028205,
      "alpha": 90.0,
      "beta": 90.0,
      "gamma": 119.99999318224668,
      "volume": 302.46892998131017
    },
    "properties": {},
    "sites": [
      {
        "species": [{ "element": "Sr", "occu": 1 }],
        "abc": [0.333333, 0.666667, 0.75],
        "properties": { "magmom": 0.008 },
        "label": "Sr",
        "xyz": [3.805844999999999, 2.197309727944, 4.52115375]
      },
      {
        "species": [{ "element": "Sr", "occu": 1 }],
        "abc": [0.666667, 0.333333, 0.25],
        "properties": { "magmom": 0.008 },
        "label": "Sr",
        "xyz": [3.805844999999999, -2.197309727944, 1.50705125]
      },
      {
        "species": [{ "element": "Pm", "occu": 1 }],
        "abc": [0.160033999999999, 0.320067999999999, 0.25],
        "properties": { "magmom": 0.065 },
        "label": "Pm",
        "xyz": [1.827193796189992, 1.0549306851440001, 1.50705125]
      },
      {
        "species": [{ "element": "Pm", "occu": 1 }],
        "abc": [0.679932, 0.839966, 0.25],
        "properties": { "magmom": 0.065 },
        "label": "Pm",
        "xyz": [5.784496203809998, 1.054930685144, 1.50705125]
      },
      {
        "species": [{ "element": "Pm", "occu": 1 }],
        "abc": [0.160033999999999, 0.839966, 0.25],
        "properties": { "magmom": 0.066 },
        "label": "Pm",
        "xyz": [3.8058449999999953, 4.482054629712007, 1.50705125]
      },
      {
        "species": [{ "element": "Pm", "occu": 1 }],
        "abc": [0.839966, 0.679932, 0.75],
        "properties": { "magmom": 0.065 },
        "label": "Pm",
        "xyz": [5.784496203809998, -1.054930685144, 4.52115375]
      },
      {
        "species": [{ "element": "Pm", "occu": 1 }],
        "abc": [0.320067999999999, 0.160033999999999, 0.75],
        "properties": { "magmom": 0.065 },
        "label": "Pm",
        "xyz": [1.827193796189992, -1.0549306851440001, 4.52115375]
      },
      {
        "species": [{ "element": "Pm", "occu": 1 }],
        "abc": [0.839966, 0.160033999999999, 0.75],
        "properties": { "magmom": 0.066 },
        "label": "Pm",
        "xyz": [3.8058449999999953, -4.482054629712007, 4.52115375]
      }
    ]
  },
  "task_ids": null,
  "uncorrected_energy_per_atom": null,
  "energy_per_atom": -25.781656257916662,
  "formation_energy_per_atom": 0.160218356458337,
  "energy_above_hull": 0.160218356458337,
  "is_stable": false,
  "equilibrium_reaction_energy_per_atom": null,
  "decomposes_to": null,
  "xas": null,
  "grain_boundaries": null,
  "band_gap": 0.0,
  "cbm": null,
  "vbm": null,
  "efermi": 2.81039299,
  "is_gap_direct": null,
  "is_metal": null,
  "es_source_calc_id": null,
  "bandstructure": null,
  "dos": null,
  "dos_energy_up": null,
  "dos_energy_down": null,
  "is_magnetic": null,
  "ordering": null,
  "total_magnetization": 0.8437513,
  "total_magnetization_normalized_vol": null,
  "total_magnetization_normalized_formula_units": null,
  "num_magnetic_sites": null,
  "num_unique_magnetic_sites": null,
  "types_of_magnetic_species": null,
  "bulk_modulus": null,
  "shear_modulus": null,
  "universal_anisotropy": null,
  "homogeneous_poisson": null,
  "e_total": null,
  "e_ionic": null,
  "e_electronic": null,
  "n": null,
  "e_ij_max": null,
  "weighted_surface_energy_EV_PER_ANG2": null,
  "weighted_surface_energy": null,
  "weighted_work_function": null,
  "surface_anisotropy": null,
  "shape_factor": null,
  "has_reconstructed": null,
  "possible_species": null,
  "has_props": null,
  "theoretical": null,
  "database_IDs": null,
  "fields_not_requested": [
    "builder_meta",
    "nsites",
    "elements",
    "nelements",
    "composition",
    "composition_reduced",
    "chemsys",
    "symmetry",
    "property_name",
    "deprecated",
    "deprecation_reasons",
    "last_updated",
    "origins",
    "warnings",
    "task_ids",
    "uncorrected_energy_per_atom",
    "equilibrium_reaction_energy_per_atom",
    "decomposes_to",
    "xas",
    "grain_boundaries",
    "cbm",
    "vbm",
    "is_gap_direct",
    "is_metal",
    "es_source_calc_id",
    "bandstructure",
    "dos",
    "dos_energy_up",
    "dos_energy_down",
    "is_magnetic",
    "ordering",
    "total_magnetization_normalized_vol",
    "total_magnetization_normalized_formula_units",
    "num_magnetic_sites",
    "num_unique_magnetic_sites",
    "types_of_magnetic_species",
    "bulk_modulus",
    "shear_modulus",
    "universal_anisotropy",
    "homogeneous_poisson",
    "e_total",
    "e_ionic",
    "e_electronic",
    "n",
    "e_ij_max",
    "weighted_surface_energy_EV_PER_ANG2",
    "weighted_surface_energy",
    "weighted_work_function",
    "surface_anisotropy",
    "shape_factor",
    "has_reconstructed",
    "possible_species",
    "has_props",
    "theoretical",
    "database_IDs"
  ]
}
