{"builder_meta": null, "nsites": null, "elements": null, "nelements": null, "composition": null, "composition_reduced": null, "formula_pretty": "SrRh2", "formula_anonymous": "AB2", "chemsys": null, "volume": 114.31079175690834, "density": 8.525068042354059, "density_atomic": 19.051798626151392, "symmetry": null, "property_name": null, "material_id": "mp-1328", "deprecated": null, "deprecation_reasons": null, "last_updated": null, "origins": null, "warnings": null, "structure": {"@module": "pymatgen.core.structure", "@class": "Structure", "charge": 0, "lattice": {"matrix": [[4.7177245800000005, -1.029e-05, 2.723760839999999], [1.5725659300000001, 4.44790257, 2.723760839999999], [-1e-08, -0.0, 5.4475227]], "pbc": [true, true, true], "a": 5.447549754372104, "b": 5.447538342217232, "c": 5.4475227, "alpha": 60.00010121496716, "beta": 60.00017058401642, "gamma": 60.0002403143788, "volume": 114.31079175690836}, "properties": {}, "sites": [{"species": [{"element": "Sr", "occu": 1}], "abc": [0.125001, 0.125, 0.125], "properties": {"magmom": 0.0}, "label": "Sr", "xyz": [0.7862910302245801, 0.5559865349897101, 1.3618832712608397]}, {"species": [{"element": "Sr", "occu": 1}], "abc": [0.874999, 0.875, 0.875], "properties": {"magmom": 0.0}, "label": "Sr", "xyz": [5.503999469775421, 3.8919057450102903, 9.533161108739158]}, {"species": [{"element": "Rh", "occu": 1}], "abc": [1e-06, 0.499998999999999, 0.5], "properties": {"magmom": -0.001}, "label": "Rh", "xyz": [0.7862861051586485, 2.223946837087136, 4.085641769999997]}, {"species": [{"element": "Rh", "occu": 1}], "abc": [0.499998999999999, 0.0, 0.5], "properties": {"magmom": -0.001}, "label": "Rh", "xyz": [2.3588575672754155, -5.14498970999999e-06, 4.085639046239157]}, {"species": [{"element": "Rh", "occu": 1}], "abc": [0.5, 0.5, -0.0], "properties": {"magmom": -0.001}, "label": "Rh", "xyz": [3.145145255, 2.2239461400000002, 2.723760839999999]}, {"species": [{"element": "Rh", "occu": 1}], "abc": [0.5, 0.5, 0.5], "properties": {"magmom": -0.001}, "label": "Rh", "xyz": [3.14514525, 2.2239461400000002, 5.447522189999999]}]}, "task_ids": null, "uncorrected_energy_per_atom": null, "energy_per_atom": -21.39438645, "formation_energy_per_atom": -0.255013673333332, "energy_above_hull": 0.0, "is_stable": true, "equilibrium_reaction_energy_per_atom": null, "decomposes_to": null, "xas": null, "grain_boundaries": null, "band_gap": 0.0, "cbm": null, "vbm": null, "efermi": 4.31676066, "is_gap_direct": null, "is_metal": null, "es_source_calc_id": null, "bandstructure": null, "dos": null, "dos_energy_up": null, "dos_energy_down": null, "is_magnetic": null, "ordering": null, "total_magnetization": 0.0042298, "total_magnetization_normalized_vol": null, "total_magnetization_normalized_formula_units": null, "num_magnetic_sites": null, "num_unique_magnetic_sites": null, "types_of_magnetic_species": null, "bulk_modulus": null, "shear_modulus": null, "universal_anisotropy": null, "homogeneous_poisson": null, "e_total": null, "e_ionic": null, "e_electronic": null, "n": null, "e_ij_max": null, "weighted_surface_energy_EV_PER_ANG2": null, "weighted_surface_energy": null, "weighted_work_function": null, "surface_anisotropy": null, "shape_factor": null, "has_reconstructed": null, "possible_species": null, "has_props": null, "theoretical": null, "database_IDs": null, "fields_not_requested": ["builder_meta", "nsites", "elements", "nelements", "composition", "composition_reduced", "chemsys", "symmetry", "property_name", "deprecated", "deprecation_reasons", "last_updated", "origins", "warnings", "task_ids", "uncorrected_energy_per_atom", "equilibrium_reaction_energy_per_atom", "decomposes_to", "xas", "grain_boundaries", "cbm", "vbm", "is_gap_direct", "is_metal", "es_source_calc_id", "bandstructure", "dos", "dos_energy_up", "dos_energy_down", "is_magnetic", "ordering", "total_magnetization_normalized_vol", "total_magnetization_normalized_formula_units", "num_magnetic_sites", "num_unique_magnetic_sites", "types_of_magnetic_species", "bulk_modulus", "shear_modulus", "universal_anisotropy", "homogeneous_poisson", "e_total", "e_ionic", "e_electronic", "n", "e_ij_max", "weighted_surface_energy_EV_PER_ANG2", "weighted_surface_energy", "weighted_work_function", "surface_anisotropy", "shape_factor", "has_reconstructed", "possible_species", "has_props", "theoretical", "database_IDs"]}