{"builder_meta": null, "nsites": null, "elements": null, "nelements": null, "composition": null, "composition_reduced": null, "formula_pretty": "SrS2", "formula_anonymous": "AB2", "chemsys": null, "volume": 144.40716119265772, "density": 3.489948853995782, "density_atomic": 24.067860198776287, "symmetry": null, "property_name": null, "material_id": "mp-1950", "deprecated": null, "deprecation_reasons": null, "last_updated": null, "origins": null, "warnings": null, "structure": {"@module": "pymatgen.core.structure", "@class": "Structure", "charge": 0, "lattice": {"matrix": [[5.20116161, -0.00811023, -2.55526256], [-3.18114593, 4.79514291, -0.68442222], [-0.00538029, 0.00811024, 5.79494837]], "pbc": [true, true, true], "a": 5.794955963569197, "b": 5.794956318257158, "c": 5.794956542932742, "alpha": 96.68660997118285, "beta": 116.21754758098737, "gamma": 116.21755092685842, "volume": 144.40716119265775}, "properties": {}, "sites": [{"species": [{"element": "Sr", "occu": 1}], "abc": [0.0, 0.75, 0.75], "properties": {"magmom": -0.0}, "label": "Sr", "xyz": [-2.389894665, 3.6024398625000003, 3.8328946125]}, {"species": [{"element": "Sr", "occu": 1}], "abc": [0.0, 0.25, 0.25], "properties": {"magmom": -0.0}, "label": "Sr", "xyz": [-0.796631555, 1.2008132875, 1.2776315375]}, {"species": [{"element": "S", "occu": 1}], "abc": [0.25692364, 0.37846182, 0.8784618200000001], "properties": {"magmom": 0.0}, "label": "S", "xyz": [0.12763271537053997, 1.8198193392568958, 4.1751058548156745]}, {"species": [{"element": "S", "occu": 1}], "abc": [0.5, 0.8784618200000001, 0.62153818], "properties": {"magmom": 0.0}, "label": "S", "xyz": [-0.19727849400786496, 4.21333567668766, 1.7229115940541264]}, {"species": [{"element": "S", "occu": 1}], "abc": [0.74307636, 0.62153818, 0.12153818], "properties": {"magmom": 0.0}, "label": "S", "xyz": [1.8870026746294595, 2.975323580743104, -1.6198422648156747]}, {"species": [{"element": "S", "occu": 1}], "abc": [0.5, 0.12153818, 0.37846182], "properties": {"magmom": 0.0}, "label": "S", "xyz": [2.2119138840078647, 0.5818072433123407, 0.8323519959458736]}]}, "task_ids": null, "uncorrected_energy_per_atom": null, "energy_per_atom": -11.997843998333332, "formation_energy_per_atom": -1.5926242535416661, "energy_above_hull": 0.023715329062502, "is_stable": false, "equilibrium_reaction_energy_per_atom": null, "decomposes_to": null, "xas": null, "grain_boundaries": null, "band_gap": 1.2822, "cbm": null, "vbm": null, "efermi": 4.02449458, "is_gap_direct": null, "is_metal": null, "es_source_calc_id": null, "bandstructure": null, "dos": null, "dos_energy_up": null, "dos_energy_down": null, "is_magnetic": null, "ordering": null, "total_magnetization": 0.0, "total_magnetization_normalized_vol": null, "total_magnetization_normalized_formula_units": null, "num_magnetic_sites": null, "num_unique_magnetic_sites": null, "types_of_magnetic_species": null, "bulk_modulus": null, "shear_modulus": null, "universal_anisotropy": null, "homogeneous_poisson": null, "e_total": null, "e_ionic": null, "e_electronic": null, "n": null, "e_ij_max": null, "weighted_surface_energy_EV_PER_ANG2": null, "weighted_surface_energy": null, "weighted_work_function": null, "surface_anisotropy": null, "shape_factor": null, "has_reconstructed": null, "possible_species": null, "has_props": null, "theoretical": null, "database_IDs": null, "fields_not_requested": ["builder_meta", "nsites", "elements", "nelements", "composition", "composition_reduced", "chemsys", "symmetry", "property_name", "deprecated", "deprecation_reasons", "last_updated", "origins", "warnings", "task_ids", "uncorrected_energy_per_atom", "equilibrium_reaction_energy_per_atom", "decomposes_to", "xas", "grain_boundaries", "cbm", "vbm", "is_gap_direct", "is_metal", "es_source_calc_id", "bandstructure", "dos", "dos_energy_up", "dos_energy_down", "is_magnetic", "ordering", "total_magnetization_normalized_vol", "total_magnetization_normalized_formula_units", "num_magnetic_sites", "num_unique_magnetic_sites", "types_of_magnetic_species", "bulk_modulus", "shear_modulus", "universal_anisotropy", "homogeneous_poisson", "e_total", "e_ionic", "e_electronic", "n", "e_ij_max", "weighted_surface_energy_EV_PER_ANG2", "weighted_surface_energy", "weighted_work_function", "surface_anisotropy", "shape_factor", "has_reconstructed", "possible_species", "has_props", "theoretical", "database_IDs"]}