{"builder_meta": null, "nsites": null, "elements": null, "nelements": null, "composition": null, "composition_reduced": null, "formula_pretty": "SrS3", "formula_anonymous": "AB3", "chemsys": null, "volume": 201.99467600365136, "density": 3.022178550107542, "density_atomic": 25.24933450045642, "symmetry": null, "property_name": null, "material_id": "mp-1175", "deprecated": null, "deprecation_reasons": null, "last_updated": null, "origins": null, "warnings": null, "structure": {"@module": "pymatgen.core.structure", "@class": "Structure", "charge": 0, "lattice": {"matrix": [[5.42155888, 0.010696540000000001, -0.0], [-0.66373527, 5.38078738, 0.0], [-0.0, -0.0, 6.92252019]], "pbc": [true, true, true], "a": 5.421569431933416, "b": 5.421569637790262, "c": 6.92252019, "alpha": 90.0, "beta": 90.0, "gamma": 96.91903042837508, "volume": 201.99467600365136}, "properties": {}, "sites": [{"species": [{"element": "Sr", "occu": 1}], "abc": [0.00104551, 0.00104551, 0.0], "properties": {"magmom": -0.0}, "label": "Sr", "xyz": [0.0049743521624911, 0.0056368503531992005, 0.0]}, {"species": [{"element": "Sr", "occu": 1}], "abc": [0.50104551, 0.50104551, 0.5], "properties": {"magmom": -0.0}, "label": "Sr", "xyz": [2.383886157162491, 2.7013788103531993, 3.461260095]}, {"species": [{"element": "S", "occu": 1}], "abc": [0.53405718, 0.53405718, 0.0], "properties": {"magmom": 0.0}, "label": "S", "xyz": [2.54094986009402, 2.8793606983305455, 0.0]}, {"species": [{"element": "S", "occu": 1}], "abc": [0.03405718, 0.03405718, 0.5], "properties": {"magmom": 0.0}, "label": "S", "xyz": [0.1620380550940198, 0.18361873833054562, 3.461260095]}, {"species": [{"element": "S", "occu": 1}], "abc": [0.1952306, 0.52576572, 0.8600274], "properties": {"magmom": -0.0}, "label": "S", "xyz": [0.7094849409567836, 2.8311218429347376, 5.953557040453206]}, {"species": [{"element": "S", "occu": 1}], "abc": [0.52576572, 0.1952306, 0.1399726], "properties": {"magmom": -0.0}, "label": "S", "xyz": [2.7208883730623317, 1.0561182227244368, 0.9689631495467941]}, {"species": [{"element": "S", "occu": 1}], "abc": [0.695230599999999, 0.02576572, 0.6399726], "properties": {"magmom": -0.0}, "label": "S", "xyz": [3.7521320159567786, 0.1460764229347376, 4.430223244546794]}, {"species": [{"element": "S", "occu": 1}], "abc": [0.02576572, 0.695230599999999, 0.3600274], "properties": {"magmom": -0.0}, "label": "S", "xyz": [-0.32175870193766776, 3.7411636427244317, 2.492296945453206]}]}, "task_ids": null, "uncorrected_energy_per_atom": null, "energy_per_atom": -10.99209136, "formation_energy_per_atom": -1.179426780859374, "energy_above_hull": 0.032827906093750005, "is_stable": false, "equilibrium_reaction_energy_per_atom": null, "decomposes_to": null, "xas": null, "grain_boundaries": null, "band_gap": 1.093099999999999, "cbm": null, "vbm": null, "efermi": 3.6418562, "is_gap_direct": null, "is_metal": null, "es_source_calc_id": null, "bandstructure": null, "dos": null, "dos_energy_up": null, "dos_energy_down": null, "is_magnetic": null, "ordering": null, "total_magnetization": 0.0, "total_magnetization_normalized_vol": null, "total_magnetization_normalized_formula_units": null, "num_magnetic_sites": null, "num_unique_magnetic_sites": null, "types_of_magnetic_species": null, "bulk_modulus": null, "shear_modulus": null, "universal_anisotropy": null, "homogeneous_poisson": null, "e_total": null, "e_ionic": null, "e_electronic": null, "n": null, "e_ij_max": null, "weighted_surface_energy_EV_PER_ANG2": null, "weighted_surface_energy": null, "weighted_work_function": null, "surface_anisotropy": null, "shape_factor": null, "has_reconstructed": null, "possible_species": null, "has_props": null, "theoretical": null, "database_IDs": null, "fields_not_requested": ["builder_meta", "nsites", "elements", "nelements", "composition", "composition_reduced", "chemsys", "symmetry", "property_name", "deprecated", "deprecation_reasons", "last_updated", "origins", "warnings", "task_ids", "uncorrected_energy_per_atom", "equilibrium_reaction_energy_per_atom", "decomposes_to", "xas", "grain_boundaries", "cbm", "vbm", "is_gap_direct", "is_metal", "es_source_calc_id", "bandstructure", "dos", "dos_energy_up", "dos_energy_down", "is_magnetic", "ordering", "total_magnetization_normalized_vol", "total_magnetization_normalized_formula_units", "num_magnetic_sites", "num_unique_magnetic_sites", "types_of_magnetic_species", "bulk_modulus", "shear_modulus", "universal_anisotropy", "homogeneous_poisson", "e_total", "e_ionic", "e_electronic", "n", "e_ij_max", "weighted_surface_energy_EV_PER_ANG2", "weighted_surface_energy", "weighted_work_function", "surface_anisotropy", "shape_factor", "has_reconstructed", "possible_species", "has_props", "theoretical", "database_IDs"]}