{
  "builder_meta": null,
  "nsites": null,
  "elements": null,
  "nelements": null,
  "composition": null,
  "composition_reduced": null,
  "formula_pretty": "SrSb2",
  "formula_anonymous": "AB2",
  "chemsys": null,
  "volume": 195.7708135376327,
  "density": 5.617496260832804,
  "density_atomic": 32.62846892293879,
  "symmetry": null,
  "property_name": null,
  "material_id": "mp-10636",
  "deprecated": null,
  "deprecation_reasons": null,
  "last_updated": null,
  "origins": null,
  "warnings": null,
  "structure": {
    "@module": "pymatgen.core.structure",
    "@class": "Structure",
    "charge": 0,
    "lattice": {
      "matrix": [
        [4.36037677, 0.0, 0.0],
        [0.0, 4.81570316, -1.0139636],
        [0.0, -0.03075967, 9.32965978]
      ],
      "pbc": [true, true, true],
      "a": 4.36037677,
      "b": 4.9212924224596675,
      "c": 9.329710486818342,
      "alpha": 102.0790566957799,
      "beta": 90.0,
      "gamma": 90.0,
      "volume": 195.7708135376327
    },
    "properties": {},
    "sites": [
      {
        "species": [{ "element": "Sr", "occu": 1 }],
        "abc": [0.75, 0.58758106, 0.71418623],
        "properties": { "magmom": 0.0 },
        "label": "Sr",
        "xyz": [3.2702825775, 2.8076478346448055, 6.067328738571414]
      },
      {
        "species": [{ "element": "Sr", "occu": 1 }],
        "abc": [0.25, 0.41241894, 0.28581377],
        "properties": { "magmom": 0.0 },
        "label": "Sr",
        "xyz": [1.0900941925, 1.9772956553551946, 2.248367441428587]
      },
      {
        "species": [{ "element": "Sb", "occu": 1 }],
        "abc": [0.75, 0.18461748, 0.98040331],
        "properties": { "magmom": -0.0 },
        "label": "Sb",
        "xyz": [3.2702825775, 0.8589060995447291, 8.959633924842144]
      },
      {
        "species": [{ "element": "Sb", "occu": 1 }],
        "abc": [0.25, 0.81538252, 0.01959669],
        "properties": { "magmom": -0.0 },
        "label": "Sb",
        "xyz": [1.0900941925, 3.926037390455271, -0.6439377448421439]
      },
      {
        "species": [{ "element": "Sb", "occu": 1 }],
        "abc": [0.75, 0.95442295, 0.39194044],
        "properties": { "magmom": 0.0 },
        "label": "Sb",
        "xyz": [3.2702825775, 4.584161657697467, 2.6889208289188833]
      },
      {
        "species": [{ "element": "Sb", "occu": 1 }],
        "abc": [0.25, 0.04557705, 0.60805956],
        "properties": { "magmom": 0.0 },
        "label": "Sb",
        "xyz": [1.0900941925, 0.2007818323025328, 5.626775351081117]
      }
    ]
  },
  "task_ids": null,
  "uncorrected_energy_per_atom": null,
  "energy_per_atom": -4.112364156666667,
  "formation_energy_per_atom": -0.7955539666666661,
  "energy_above_hull": 0.0,
  "is_stable": true,
  "equilibrium_reaction_energy_per_atom": null,
  "decomposes_to": null,
  "xas": null,
  "grain_boundaries": null,
  "band_gap": 0.0,
  "cbm": null,
  "vbm": null,
  "efermi": 5.576487,
  "is_gap_direct": null,
  "is_metal": null,
  "es_source_calc_id": null,
  "bandstructure": null,
  "dos": null,
  "dos_energy_up": null,
  "dos_energy_down": null,
  "is_magnetic": null,
  "ordering": null,
  "total_magnetization": 0.0,
  "total_magnetization_normalized_vol": null,
  "total_magnetization_normalized_formula_units": null,
  "num_magnetic_sites": null,
  "num_unique_magnetic_sites": null,
  "types_of_magnetic_species": null,
  "bulk_modulus": null,
  "shear_modulus": null,
  "universal_anisotropy": null,
  "homogeneous_poisson": null,
  "e_total": null,
  "e_ionic": null,
  "e_electronic": null,
  "n": null,
  "e_ij_max": null,
  "weighted_surface_energy_EV_PER_ANG2": null,
  "weighted_surface_energy": null,
  "weighted_work_function": null,
  "surface_anisotropy": null,
  "shape_factor": null,
  "has_reconstructed": null,
  "possible_species": null,
  "has_props": null,
  "theoretical": null,
  "database_IDs": null,
  "fields_not_requested": [
    "builder_meta",
    "nsites",
    "elements",
    "nelements",
    "composition",
    "composition_reduced",
    "chemsys",
    "symmetry",
    "property_name",
    "deprecated",
    "deprecation_reasons",
    "last_updated",
    "origins",
    "warnings",
    "task_ids",
    "uncorrected_energy_per_atom",
    "equilibrium_reaction_energy_per_atom",
    "decomposes_to",
    "xas",
    "grain_boundaries",
    "cbm",
    "vbm",
    "is_gap_direct",
    "is_metal",
    "es_source_calc_id",
    "bandstructure",
    "dos",
    "dos_energy_up",
    "dos_energy_down",
    "is_magnetic",
    "ordering",
    "total_magnetization_normalized_vol",
    "total_magnetization_normalized_formula_units",
    "num_magnetic_sites",
    "num_unique_magnetic_sites",
    "types_of_magnetic_species",
    "bulk_modulus",
    "shear_modulus",
    "universal_anisotropy",
    "homogeneous_poisson",
    "e_total",
    "e_ionic",
    "e_electronic",
    "n",
    "e_ij_max",
    "weighted_surface_energy_EV_PER_ANG2",
    "weighted_surface_energy",
    "weighted_work_function",
    "surface_anisotropy",
    "shape_factor",
    "has_reconstructed",
    "possible_species",
    "has_props",
    "theoretical",
    "database_IDs"
  ]
}
