{
  "builder_meta": null,
  "nsites": null,
  "elements": null,
  "nelements": null,
  "composition": null,
  "composition_reduced": null,
  "formula_pretty": "SrSi6",
  "formula_anonymous": "AB6",
  "chemsys": null,
  "volume": 271.529685178614,
  "density": 3.132761358786096,
  "density_atomic": 19.394977512758143,
  "symmetry": null,
  "property_name": null,
  "material_id": "mp-1009",
  "deprecated": null,
  "deprecation_reasons": null,
  "last_updated": null,
  "origins": null,
  "warnings": null,
  "structure": {
    "@module": "pymatgen.core.structure",
    "@class": "Structure",
    "charge": 0,
    "lattice": {
      "matrix": [
        [2.244513, -5.16582, 0.0],
        [2.244513, 5.16582, 0.0],
        [0.0, 0.0, 11.709165]
      ],
      "pbc": [true, true, true],
      "a": 5.632364945524127,
      "b": 5.632364945524127,
      "c": 11.709165,
      "alpha": 90.0,
      "beta": 90.0,
      "gamma": 133.03077529066863,
      "volume": 271.529685178614
    },
    "properties": {},
    "sites": [
      {
        "species": [{ "element": "Sr", "occu": 1 }],
        "abc": [0.275629, 0.724371, 0.25],
        "properties": { "magmom": -0.0 },
        "label": "Sr",
        "xyz": [2.244513, 2.3181203984399996, 2.92729125]
      },
      {
        "species": [{ "element": "Sr", "occu": 1 }],
        "abc": [0.724371, 0.275629, 0.75],
        "properties": { "magmom": 0.001 },
        "label": "Sr",
        "xyz": [2.244513, -2.3181203984399996, 8.78187375]
      },
      {
        "species": [{ "element": "Si", "occu": 1 }],
        "abc": [0.9775300000000001, 0.02247, 0.100707999999999],
        "properties": { "magmom": -0.001 },
        "label": "Si",
        "xyz": [2.244513, -4.9336680492000005, 1.1792065888199885]
      },
      {
        "species": [{ "element": "Si", "occu": 1 }],
        "abc": [0.02247, 0.9775300000000001, 0.899292],
        "properties": { "magmom": -0.0 },
        "label": "Si",
        "xyz": [2.244513, 4.9336680492000005, 10.52995841118]
      },
      {
        "species": [{ "element": "Si", "occu": 1 }],
        "abc": [0.753934, 0.246065999999999, 0.462240999999999],
        "properties": { "magmom": -0.001 },
        "label": "Si",
        "xyz": [2.2445129999999978, -2.6235546717600053, 5.4124561387649885]
      },
      {
        "species": [{ "element": "Si", "occu": 1 }],
        "abc": [0.246065999999999, 0.753934, 0.537759],
        "properties": { "magmom": -0.0 },
        "label": "Si",
        "xyz": [2.2445129999999978, 2.6235546717600053, 6.296708861235]
      },
      {
        "species": [{ "element": "Si", "occu": 1 }],
        "abc": [0.246065999999999, 0.753934, 0.9622409999999991],
        "properties": { "magmom": 0.001 },
        "label": "Si",
        "xyz": [2.2445129999999978, 2.6235546717600053, 11.26703863876499]
      },
      {
        "species": [{ "element": "Si", "occu": 1 }],
        "abc": [0.753934, 0.246065999999999, 0.037759],
        "properties": { "magmom": 0.0 },
        "label": "Si",
        "xyz": [2.2445129999999978, -2.6235546717600053, 0.44212636123500004]
      },
      {
        "species": [{ "element": "Si", "occu": 1 }],
        "abc": [0.440606999999999, 0.559393, 0.647324],
        "properties": { "magmom": 0.001 },
        "label": "Si",
        "xyz": [2.2445129999999978, 0.6136270945200049, 7.5796235244600005]
      },
      {
        "species": [{ "element": "Si", "occu": 1 }],
        "abc": [0.559393, 0.440606999999999, 0.352676],
        "properties": { "magmom": 0.001 },
        "label": "Si",
        "xyz": [2.2445129999999978, -0.6136270945200049, 4.12954147554]
      },
      {
        "species": [{ "element": "Si", "occu": 1 }],
        "abc": [0.559393, 0.440606999999999, 0.147323999999999],
        "properties": { "magmom": -0.001 },
        "label": "Si",
        "xyz": [2.2445129999999978, -0.6136270945200049, 1.7250410244599885]
      },
      {
        "species": [{ "element": "Si", "occu": 1 }],
        "abc": [0.440606999999999, 0.559393, 0.852676],
        "properties": { "magmom": -0.001 },
        "label": "Si",
        "xyz": [2.2445129999999978, 0.6136270945200049, 9.984123975540001]
      },
      {
        "species": [{ "element": "Si", "occu": 1 }],
        "abc": [0.9775300000000001, 0.02247, 0.399292],
        "properties": { "magmom": 0.0 },
        "label": "Si",
        "xyz": [2.244513, -4.9336680492000005, 4.67537591118]
      },
      {
        "species": [{ "element": "Si", "occu": 1 }],
        "abc": [0.02247, 0.9775300000000001, 0.600708],
        "properties": { "magmom": 0.001 },
        "label": "Si",
        "xyz": [2.244513, 4.9336680492000005, 7.033789088820001]
      }
    ]
  },
  "task_ids": null,
  "uncorrected_energy_per_atom": null,
  "energy_per_atom": -9.745176733571428,
  "formation_energy_per_atom": -0.06114121357142901,
  "energy_above_hull": 0.11359542642857201,
  "is_stable": false,
  "equilibrium_reaction_energy_per_atom": null,
  "decomposes_to": null,
  "xas": null,
  "grain_boundaries": null,
  "band_gap": 0.0,
  "cbm": null,
  "vbm": null,
  "efermi": 6.84806747,
  "is_gap_direct": null,
  "is_metal": null,
  "es_source_calc_id": null,
  "bandstructure": null,
  "dos": null,
  "dos_energy_up": null,
  "dos_energy_down": null,
  "is_magnetic": null,
  "ordering": null,
  "total_magnetization": 0.0004567,
  "total_magnetization_normalized_vol": null,
  "total_magnetization_normalized_formula_units": null,
  "num_magnetic_sites": null,
  "num_unique_magnetic_sites": null,
  "types_of_magnetic_species": null,
  "bulk_modulus": null,
  "shear_modulus": null,
  "universal_anisotropy": null,
  "homogeneous_poisson": null,
  "e_total": null,
  "e_ionic": null,
  "e_electronic": null,
  "n": null,
  "e_ij_max": null,
  "weighted_surface_energy_EV_PER_ANG2": null,
  "weighted_surface_energy": null,
  "weighted_work_function": null,
  "surface_anisotropy": null,
  "shape_factor": null,
  "has_reconstructed": null,
  "possible_species": null,
  "has_props": null,
  "theoretical": null,
  "database_IDs": null,
  "fields_not_requested": [
    "builder_meta",
    "nsites",
    "elements",
    "nelements",
    "composition",
    "composition_reduced",
    "chemsys",
    "symmetry",
    "property_name",
    "deprecated",
    "deprecation_reasons",
    "last_updated",
    "origins",
    "warnings",
    "task_ids",
    "uncorrected_energy_per_atom",
    "equilibrium_reaction_energy_per_atom",
    "decomposes_to",
    "xas",
    "grain_boundaries",
    "cbm",
    "vbm",
    "is_gap_direct",
    "is_metal",
    "es_source_calc_id",
    "bandstructure",
    "dos",
    "dos_energy_up",
    "dos_energy_down",
    "is_magnetic",
    "ordering",
    "total_magnetization_normalized_vol",
    "total_magnetization_normalized_formula_units",
    "num_magnetic_sites",
    "num_unique_magnetic_sites",
    "types_of_magnetic_species",
    "bulk_modulus",
    "shear_modulus",
    "universal_anisotropy",
    "homogeneous_poisson",
    "e_total",
    "e_ionic",
    "e_electronic",
    "n",
    "e_ij_max",
    "weighted_surface_energy_EV_PER_ANG2",
    "weighted_surface_energy",
    "weighted_work_function",
    "surface_anisotropy",
    "shape_factor",
    "has_reconstructed",
    "possible_species",
    "has_props",
    "theoretical",
    "database_IDs"
  ]
}
