{"builder_meta": null, "nsites": null, "elements": null, "nelements": null, "composition": null, "composition_reduced": null, "formula_pretty": "SrSi2", "formula_anonymous": "AB2", "chemsys": null, "volume": 280.16467761877396, "density": 3.409003232739864, "density_atomic": 23.347056468231163, "symmetry": null, "property_name": null, "material_id": "mp-496", "deprecated": null, "deprecation_reasons": null, "last_updated": null, "origins": null, "warnings": null, "structure": {"@module": "pymatgen.core.structure", "@class": "Structure", "charge": 0, "lattice": {"matrix": [[6.54341492, -0.0, -0.0], [0.0, 6.54341492, -0.0], [0.0, -0.0, 6.54341492]], "pbc": [true, true, true], "a": 6.54341492, "b": 6.54341492, "c": 6.54341492, "alpha": 90.0, "beta": 90.0, "gamma": 90.0, "volume": 280.16467761877396}, "properties": {}, "sites": [{"species": [{"element": "Sr", "occu": 1}], "abc": [0.625, 0.375, 0.875], "properties": {"magmom": -0.0}, "label": "Sr", "xyz": [4.0896343250000005, 2.453780595, 5.725488055]}, {"species": [{"element": "Sr", "occu": 1}], "abc": [0.375, 0.875, 0.625], "properties": {"magmom": -0.0}, "label": "Sr", "xyz": [2.453780595, 5.725488055, 4.0896343250000005]}, {"species": [{"element": "Sr", "occu": 1}], "abc": [0.875, 0.625, 0.375], "properties": {"magmom": -0.0}, "label": "Sr", "xyz": [5.725488055, 4.0896343250000005, 2.453780595]}, {"species": [{"element": "Sr", "occu": 1}], "abc": [0.125, 0.125, 0.125], "properties": {"magmom": -0.0}, "label": "Sr", "xyz": [0.817926865, 0.817926865, 0.817926865]}, {"species": [{"element": "Si", "occu": 1}], "abc": [0.82803837, 0.82803837, 0.82803837], "properties": {"magmom": 0.0}, "label": "Si", "xyz": [5.418198624590481, 5.418198624590481, 5.418198624590481]}, {"species": [{"element": "Si", "occu": 1}], "abc": [0.57803837, 0.92196163, 0.07803837], "properties": {"magmom": 0.0}, "label": "Si", "xyz": [3.7823448945904805, 6.032777485409519, 0.5106374345904804]}, {"species": [{"element": "Si", "occu": 1}], "abc": [0.92196163, 0.07803837, 0.57803837], "properties": {"magmom": 0.0}, "label": "Si", "xyz": [6.032777485409519, 0.5106374345904804, 3.7823448945904805]}, {"species": [{"element": "Si", "occu": 1}], "abc": [0.07803837, 0.57803837, 0.92196163], "properties": {"magmom": 0.0}, "label": "Si", "xyz": [0.5106374345904804, 3.7823448945904805, 6.032777485409519]}, {"species": [{"element": "Si", "occu": 1}], "abc": [0.42196163000000003, 0.42196163000000003, 0.42196163000000003], "properties": {"magmom": 0.0}, "label": "Si", "xyz": [2.76107002540952, 2.76107002540952, 2.76107002540952]}, {"species": [{"element": "Si", "occu": 1}], "abc": [0.17196163, 0.32803837, 0.67196163], "properties": {"magmom": 0.0}, "label": "Si", "xyz": [1.1252162954095197, 2.1464911645904805, 4.396923755409519]}, {"species": [{"element": "Si", "occu": 1}], "abc": [0.67196163, 0.17196163, 0.32803837], "properties": {"magmom": 0.0}, "label": "Si", "xyz": [4.396923755409519, 1.1252162954095197, 2.1464911645904805]}, {"species": [{"element": "Si", "occu": 1}], "abc": [0.32803837, 0.67196163, 0.17196163], "properties": {"magmom": 0.0}, "label": "Si", "xyz": [2.1464911645904805, 4.396923755409519, 1.1252162954095197]}]}, "task_ids": null, "uncorrected_energy_per_atom": null, "energy_per_atom": -11.305448913333334, "formation_energy_per_atom": -0.40771882666666903, "energy_above_hull": 0.0, "is_stable": true, "equilibrium_reaction_energy_per_atom": null, "decomposes_to": null, "xas": null, "grain_boundaries": null, "band_gap": 0.0, "cbm": null, "vbm": null, "efermi": 5.39625507, "is_gap_direct": null, "is_metal": null, "es_source_calc_id": null, "bandstructure": null, "dos": null, "dos_energy_up": null, "dos_energy_down": null, "is_magnetic": null, "ordering": null, "total_magnetization": 0.0, "total_magnetization_normalized_vol": null, "total_magnetization_normalized_formula_units": null, "num_magnetic_sites": null, "num_unique_magnetic_sites": null, "types_of_magnetic_species": null, "bulk_modulus": null, "shear_modulus": null, "universal_anisotropy": null, "homogeneous_poisson": null, "e_total": null, "e_ionic": null, "e_electronic": null, "n": null, "e_ij_max": null, "weighted_surface_energy_EV_PER_ANG2": null, "weighted_surface_energy": null, "weighted_work_function": null, "surface_anisotropy": null, "shape_factor": null, "has_reconstructed": null, "possible_species": null, "has_props": null, "theoretical": null, "database_IDs": null, "fields_not_requested": ["builder_meta", "nsites", "elements", "nelements", "composition", "composition_reduced", "chemsys", "symmetry", "property_name", "deprecated", "deprecation_reasons", "last_updated", "origins", "warnings", "task_ids", "uncorrected_energy_per_atom", "equilibrium_reaction_energy_per_atom", "decomposes_to", "xas", "grain_boundaries", "cbm", "vbm", "is_gap_direct", "is_metal", "es_source_calc_id", "bandstructure", "dos", "dos_energy_up", "dos_energy_down", "is_magnetic", "ordering", "total_magnetization_normalized_vol", "total_magnetization_normalized_formula_units", "num_magnetic_sites", "num_unique_magnetic_sites", "types_of_magnetic_species", "bulk_modulus", "shear_modulus", "universal_anisotropy", "homogeneous_poisson", "e_total", "e_ionic", "e_electronic", "n", "e_ij_max", "weighted_surface_energy_EV_PER_ANG2", "weighted_surface_energy", "weighted_work_function", "surface_anisotropy", "shape_factor", "has_reconstructed", "possible_species", "has_props", "theoretical", "database_IDs"]}