{"builder_meta": null, "nsites": null, "elements": null, "nelements": null, "composition": null, "composition_reduced": null, "formula_pretty": "SrSn4", "formula_anonymous": "AB4", "chemsys": null, "volume": 290.0804035316248, "density": 6.439502924216057, "density_atomic": 29.00804035316248, "symmetry": null, "property_name": null, "material_id": "mp-714", "deprecated": null, "deprecation_reasons": null, "last_updated": null, "origins": null, "warnings": null, "structure": {"@module": "pymatgen.core.structure", "@class": "Structure", "charge": 0, "lattice": {"matrix": [[4.51789711, -0.0, -1.20205267], [0.0, 7.08627505, 0.0], [-0.00758037, 0.0, 9.06276482]], "pbc": [true, true, true], "a": 4.675074856940847, "b": 7.08627505, "c": 9.062767990224563, "alpha": 90.0, "beta": 104.94713272768728, "gamma": 90.0, "volume": 290.0804035316248}, "properties": {}, "sites": [{"species": [{"element": "Sr", "occu": 1}], "abc": [0.61152563, 0.25, 0.22305125], "properties": {"magmom": -0.0}, "label": "Sr", "xyz": [2.7611190654639666, 1.7715687625, 1.2863750052420928]}, {"species": [{"element": "Sr", "occu": 1}], "abc": [0.38847437, 0.75, 0.77694875], "properties": {"magmom": -0.0}, "label": "Sr", "xyz": [1.7491976745360331, 5.3147062875, 6.574337144757907]}, {"species": [{"element": "Sn", "occu": 1}], "abc": [0.80395395, 0.04515953, 0.60790791], "properties": {"magmom": 0.0}, "label": "Sn", "xyz": [3.627573060394358, 0.32001285070872654, 4.54293142839318]}, {"species": [{"element": "Sn", "occu": 1}], "abc": [0.19604605, 0.95484047, 0.39209209], "properties": {"magmom": 0.0}, "label": "Sn", "xyz": [0.8827436796056422, 6.766262199291274, 3.3177807216068205]}, {"species": [{"element": "Sn", "occu": 1}], "abc": [0.19604605, 0.5451595300000001, 0.39209209], "properties": {"magmom": 0.0}, "label": "Sn", "xyz": [0.8827436796056422, 3.863150375708727, 3.3177807216068205]}, {"species": [{"element": "Sn", "occu": 1}], "abc": [0.80395395, 0.45484047, 0.60790791], "properties": {"magmom": 0.0}, "label": "Sn", "xyz": [3.627573060394358, 3.223124674291274, 4.54293142839318]}, {"species": [{"element": "Sn", "occu": 1}], "abc": [0.40999988, 0.25, 0.81999876], "properties": {"magmom": -0.0}, "label": "Sn", "xyz": [1.8461213789520055, 1.7715687625, 6.9386144641179435]}, {"species": [{"element": "Sn", "occu": 1}], "abc": [0.59000012, 0.75, 0.18000124], "properties": {"magmom": -0.0}, "label": "Sn", "xyz": [2.664195361047994, 5.3147062875, 0.9220976858820564]}, {"species": [{"element": "Sn", "occu": 1}], "abc": [-0.0, 0.0, -0.0], "properties": {"magmom": -0.0}, "label": "Sn", "xyz": [0.0, 0.0, 0.0]}, {"species": [{"element": "Sn", "occu": 1}], "abc": [-0.0, 0.5, -0.0], "properties": {"magmom": -0.0}, "label": "Sn", "xyz": [0.0, 3.543137525, 0.0]}]}, "task_ids": null, "uncorrected_energy_per_atom": null, "energy_per_atom": -23.111701334, "formation_energy_per_atom": -0.28562209600000005, "energy_above_hull": 0.043334207333334006, "is_stable": false, "equilibrium_reaction_energy_per_atom": null, "decomposes_to": null, "xas": null, "grain_boundaries": null, "band_gap": 0.0, "cbm": null, "vbm": null, "efermi": 6.43113916, "is_gap_direct": null, "is_metal": null, "es_source_calc_id": null, "bandstructure": null, "dos": null, "dos_energy_up": null, "dos_energy_down": null, "is_magnetic": null, "ordering": null, "total_magnetization": 2e-07, "total_magnetization_normalized_vol": null, "total_magnetization_normalized_formula_units": null, "num_magnetic_sites": null, "num_unique_magnetic_sites": null, "types_of_magnetic_species": null, "bulk_modulus": null, "shear_modulus": null, "universal_anisotropy": null, "homogeneous_poisson": null, "e_total": null, "e_ionic": null, "e_electronic": null, "n": null, "e_ij_max": null, "weighted_surface_energy_EV_PER_ANG2": null, "weighted_surface_energy": null, "weighted_work_function": null, "surface_anisotropy": null, "shape_factor": null, "has_reconstructed": null, "possible_species": null, "has_props": null, "theoretical": null, "database_IDs": null, "fields_not_requested": ["builder_meta", "nsites", "elements", "nelements", "composition", "composition_reduced", "chemsys", "symmetry", "property_name", "deprecated", "deprecation_reasons", "last_updated", "origins", "warnings", "task_ids", "uncorrected_energy_per_atom", "equilibrium_reaction_energy_per_atom", "decomposes_to", "xas", "grain_boundaries", "cbm", "vbm", "is_gap_direct", "is_metal", "es_source_calc_id", "bandstructure", "dos", "dos_energy_up", "dos_energy_down", "is_magnetic", "ordering", "total_magnetization_normalized_vol", "total_magnetization_normalized_formula_units", "num_magnetic_sites", "num_unique_magnetic_sites", "types_of_magnetic_species", "bulk_modulus", "shear_modulus", "universal_anisotropy", "homogeneous_poisson", "e_total", "e_ionic", "e_electronic", "n", "e_ij_max", "weighted_surface_energy_EV_PER_ANG2", "weighted_surface_energy", "weighted_work_function", "surface_anisotropy", "shape_factor", "has_reconstructed", "possible_species", "has_props", "theoretical", "database_IDs"]}