{
  "builder_meta": null,
  "nsites": null,
  "elements": null,
  "nelements": null,
  "composition": null,
  "composition_reduced": null,
  "formula_pretty": "SrSn3",
  "formula_anonymous": "AB3",
  "chemsys": null,
  "volume": 478.0465443373447,
  "density": 6.165627339280709,
  "density_atomic": 29.877909021084044,
  "symmetry": null,
  "property_name": null,
  "material_id": "mp-18063",
  "deprecated": null,
  "deprecation_reasons": null,
  "last_updated": null,
  "origins": null,
  "warnings": null,
  "structure": {
    "@module": "pymatgen.core.structure",
    "@class": "Structure",
    "charge": 0,
    "lattice": {
      "matrix": [
        [11.69034377, -3.46135246, 0.02203553],
        [11.69034377, 3.46135246, 0.02203553],
        [10.65435419, -0.0, 5.92708425]
      ],
      "pbc": [true, true, true],
      "a": 12.192029522508067,
      "b": 12.192029522508067,
      "c": 12.192029811010494,
      "alpha": 32.98655769680751,
      "beta": 32.98655769680751,
      "gamma": 32.98656084575669,
      "volume": 478.0465443373447
    },
    "properties": {},
    "sites": [
      {
        "species": [{ "element": "Sr", "occu": 1 }],
        "abc": [0.8610651300000001, 0.8610651300000001, 0.8610651300000001],
        "properties": { "magmom": 0.0 },
        "label": "Sr",
        "xyz": [29.306387631797875, 0.0, 5.141553623255341]
      },
      {
        "species": [{ "element": "Sr", "occu": 1 }],
        "abc": [0.13893487000000002, 0.13893487000000002, 0.13893487000000002],
        "properties": { "magmom": 0.0 },
        "label": "Sr",
        "xyz": [4.728654098202125, 0.0, 0.8296016867446598]
      },
      {
        "species": [{ "element": "Sr", "occu": 1 }],
        "abc": [0.70216458, 0.70216458, 0.70216458],
        "properties": { "magmom": 0.0 },
        "label": "Sr",
        "xyz": [23.898200781627924, 0.0, 4.19273376036092]
      },
      {
        "species": [{ "element": "Sr", "occu": 1 }],
        "abc": [0.29783542, 0.29783542, 0.29783542],
        "properties": { "magmom": 0.0 },
        "label": "Sr",
        "xyz": [10.136840948372077, 0.0, 1.7784215496390803]
      },
      {
        "species": [{ "element": "Sn", "occu": 1 }],
        "abc": [0.26124365, 0.79800112, 0.79800112],
        "properties": { "magmom": -0.0 },
        "label": "Sn",
        "xyz": [20.885122074371274, 1.8579067892078764, 4.7531608897410385]
      },
      {
        "species": [{ "element": "Sn", "occu": 1 }],
        "abc": [0.79800112, 0.79800112, 0.26124365],
        "properties": { "magmom": -0.0 },
        "label": "Sn",
        "xyz": [21.441197220278436, 0.0, 1.5835818785670996]
      },
      {
        "species": [{ "element": "Sn", "occu": 1 }],
        "abc": [0.8389795600000001, 0.4028039, 0.4028039],
        "properties": { "magmom": 0.0 },
        "label": "Sn",
        "xyz": [18.808490955013387, -1.5097576937331239, 2.4148160082149084]
      },
      {
        "species": [{ "element": "Sn", "occu": 1 }],
        "abc": [0.4028039, 0.4028039, 0.8389795600000001],
        "properties": { "magmom": 0.0 },
        "label": "Sn",
        "xyz": [18.356617516203762, 0.0, 4.990454530993064]
      },
      {
        "species": [{ "element": "Sn", "occu": 1 }],
        "abc": [0.4028039, 0.8389795600000001, 0.4028039],
        "properties": { "magmom": 0.0 },
        "label": "Sn",
        "xyz": [18.808490955013387, 1.5097576937331239, 2.4148160082149084]
      },
      {
        "species": [{ "element": "Sn", "occu": 1 }],
        "abc": [0.5971961, 0.16102044000000001, 0.5971961],
        "properties": { "magmom": 0.0 },
        "label": "Sn",
        "xyz": [15.226550774986613, -1.5097576937331236, 3.5563393017850915]
      },
      {
        "species": [{ "element": "Sn", "occu": 1 }],
        "abc": [0.16102044000000001, 0.5971961, 0.5971961],
        "properties": { "magmom": 0.0 },
        "label": "Sn",
        "xyz": [15.226550774986613, 1.5097576937331236, 3.5563393017850915]
      },
      {
        "species": [{ "element": "Sn", "occu": 1 }],
        "abc": [0.5971961, 0.5971961, 0.16102044000000001],
        "properties": { "magmom": 0.0 },
        "label": "Sn",
        "xyz": [15.678424213796237, 0.0, 0.9807007790069361]
      },
      {
        "species": [{ "element": "Sn", "occu": 1 }],
        "abc": [0.79800112, 0.26124365, 0.79800112],
        "properties": { "magmom": -0.0 },
        "label": "Sn",
        "xyz": [20.885122074371274, -1.8579067892078764, 4.7531608897410385]
      },
      {
        "species": [{ "element": "Sn", "occu": 1 }],
        "abc": [0.20199888, 0.7387563500000001, 0.20199888],
        "properties": { "magmom": -0.0 },
        "label": "Sn",
        "xyz": [13.149919655628725, 1.8579067892078764, 1.2179944202589619]
      },
      {
        "species": [{ "element": "Sn", "occu": 1 }],
        "abc": [0.20199888, 0.20199888, 0.7387563500000001],
        "properties": { "magmom": -0.0 },
        "label": "Sn",
        "xyz": [12.593844509721562, 0.0, 4.387573431432901]
      },
      {
        "species": [{ "element": "Sn", "occu": 1 }],
        "abc": [0.7387563500000001, 0.20199888, 0.20199888],
        "properties": { "magmom": -0.0 },
        "label": "Sn",
        "xyz": [13.149919655628725, -1.8579067892078764, 1.2179944202589619]
      }
    ]
  },
  "task_ids": null,
  "uncorrected_energy_per_atom": null,
  "energy_per_atom": -22.729835205625,
  "formation_energy_per_atom": -0.38378210312500005,
  "energy_above_hull": 0.027413276041663003,
  "is_stable": false,
  "equilibrium_reaction_energy_per_atom": null,
  "decomposes_to": null,
  "xas": null,
  "grain_boundaries": null,
  "band_gap": 0.0,
  "cbm": null,
  "vbm": null,
  "efermi": 6.36258674,
  "is_gap_direct": null,
  "is_metal": null,
  "es_source_calc_id": null,
  "bandstructure": null,
  "dos": null,
  "dos_energy_up": null,
  "dos_energy_down": null,
  "is_magnetic": null,
  "ordering": null,
  "total_magnetization": 4e-7,
  "total_magnetization_normalized_vol": null,
  "total_magnetization_normalized_formula_units": null,
  "num_magnetic_sites": null,
  "num_unique_magnetic_sites": null,
  "types_of_magnetic_species": null,
  "bulk_modulus": null,
  "shear_modulus": null,
  "universal_anisotropy": null,
  "homogeneous_poisson": null,
  "e_total": null,
  "e_ionic": null,
  "e_electronic": null,
  "n": null,
  "e_ij_max": null,
  "weighted_surface_energy_EV_PER_ANG2": null,
  "weighted_surface_energy": null,
  "weighted_work_function": null,
  "surface_anisotropy": null,
  "shape_factor": null,
  "has_reconstructed": null,
  "possible_species": null,
  "has_props": null,
  "theoretical": null,
  "database_IDs": null,
  "fields_not_requested": [
    "builder_meta",
    "nsites",
    "elements",
    "nelements",
    "composition",
    "composition_reduced",
    "chemsys",
    "symmetry",
    "property_name",
    "deprecated",
    "deprecation_reasons",
    "last_updated",
    "origins",
    "warnings",
    "task_ids",
    "uncorrected_energy_per_atom",
    "equilibrium_reaction_energy_per_atom",
    "decomposes_to",
    "xas",
    "grain_boundaries",
    "cbm",
    "vbm",
    "is_gap_direct",
    "is_metal",
    "es_source_calc_id",
    "bandstructure",
    "dos",
    "dos_energy_up",
    "dos_energy_down",
    "is_magnetic",
    "ordering",
    "total_magnetization_normalized_vol",
    "total_magnetization_normalized_formula_units",
    "num_magnetic_sites",
    "num_unique_magnetic_sites",
    "types_of_magnetic_species",
    "bulk_modulus",
    "shear_modulus",
    "universal_anisotropy",
    "homogeneous_poisson",
    "e_total",
    "e_ionic",
    "e_electronic",
    "n",
    "e_ij_max",
    "weighted_surface_energy_EV_PER_ANG2",
    "weighted_surface_energy",
    "weighted_work_function",
    "surface_anisotropy",
    "shape_factor",
    "has_reconstructed",
    "possible_species",
    "has_props",
    "theoretical",
    "database_IDs"
  ]
}
