{"builder_meta": null, "nsites": null, "elements": null, "nelements": null, "composition": null, "composition_reduced": null, "formula_pretty": "SrTh3", "formula_anonymous": "AB3", "chemsys": null, "volume": 281.59151670675544, "density": 9.243326922202659, "density_atomic": 35.19893958834443, "symmetry": null, "property_name": null, "material_id": "mp-1186782", "deprecated": null, "deprecation_reasons": null, "last_updated": null, "origins": null, "warnings": null, "structure": {"@module": "pymatgen.core.structure", "@class": "Structure", "charge": 0, "lattice": {"matrix": [[3.68848, -6.388634, 0.0], [3.68848, 6.388634, 0.0], [0.0, 0.0, 5.9749479999999995]], "pbc": [true, true, true], "a": 7.376959339481003, "b": 7.376959339481003, "c": 5.9749479999999995, "alpha": 90.0, "beta": 90.0, "gamma": 119.99999407620624, "volume": 281.5915167067554}, "properties": {}, "sites": [{"species": [{"element": "Sr", "occu": 1}], "abc": [0.333333, 0.666667, 0.75], "properties": {"magmom": 0.0}, "label": "Sr", "xyz": [3.68848, 2.1295489257559996, 4.481211]}, {"species": [{"element": "Sr", "occu": 1}], "abc": [0.666667, 0.333333, 0.25], "properties": {"magmom": 0.0}, "label": "Sr", "xyz": [3.68848, -2.1295489257559996, 1.4937369999999999]}, {"species": [{"element": "Th", "occu": 1}], "abc": [0.160817, 0.321635, 0.25], "properties": {"magmom": 0.001}, "label": "Th", "xyz": [1.7795145529599998, 1.0274073426120003, 1.4937369999999999]}, {"species": [{"element": "Th", "occu": 1}], "abc": [0.678365, 0.839183, 0.25], "properties": {"magmom": 0.001}, "label": "Th", "xyz": [5.59744544704, 1.0274073426120003, 1.4937369999999999]}, {"species": [{"element": "Th", "occu": 1}], "abc": [0.160817, 0.839183, 0.25], "properties": {"magmom": 0.001}, "label": "Th", "xyz": [3.68848, 4.333832092044, 1.4937369999999999]}, {"species": [{"element": "Th", "occu": 1}], "abc": [0.839183, 0.678365, 0.75], "properties": {"magmom": 0.001}, "label": "Th", "xyz": [5.59744544704, -1.0274073426120003, 4.481211]}, {"species": [{"element": "Th", "occu": 1}], "abc": [0.321635, 0.160817, 0.75], "properties": {"magmom": 0.001}, "label": "Th", "xyz": [1.7795145529599998, -1.0274073426120003, 4.481211]}, {"species": [{"element": "Th", "occu": 1}], "abc": [0.839183, 0.160817, 0.75], "properties": {"magmom": 0.001}, "label": "Th", "xyz": [3.68848, -4.333832092044, 4.481211]}]}, "task_ids": null, "uncorrected_energy_per_atom": null, "energy_per_atom": -58.566435350416675, "formation_energy_per_atom": 0.326426529583329, "energy_above_hull": 0.326426529583329, "is_stable": false, "equilibrium_reaction_energy_per_atom": null, "decomposes_to": null, "xas": null, "grain_boundaries": null, "band_gap": 0.0, "cbm": null, "vbm": null, "efermi": 5.9047428, "is_gap_direct": null, "is_metal": null, "es_source_calc_id": null, "bandstructure": null, "dos": null, "dos_energy_up": null, "dos_energy_down": null, "is_magnetic": null, "ordering": null, "total_magnetization": 0.0171989, "total_magnetization_normalized_vol": null, "total_magnetization_normalized_formula_units": null, "num_magnetic_sites": null, "num_unique_magnetic_sites": null, "types_of_magnetic_species": null, "bulk_modulus": null, "shear_modulus": null, "universal_anisotropy": null, "homogeneous_poisson": null, "e_total": null, "e_ionic": null, "e_electronic": null, "n": null, "e_ij_max": null, "weighted_surface_energy_EV_PER_ANG2": null, "weighted_surface_energy": null, "weighted_work_function": null, "surface_anisotropy": null, "shape_factor": null, "has_reconstructed": null, "possible_species": null, "has_props": null, "theoretical": null, "database_IDs": null, "fields_not_requested": ["builder_meta", "nsites", "elements", "nelements", "composition", "composition_reduced", "chemsys", "symmetry", "property_name", "deprecated", "deprecation_reasons", "last_updated", "origins", "warnings", "task_ids", "uncorrected_energy_per_atom", "equilibrium_reaction_energy_per_atom", "decomposes_to", "xas", "grain_boundaries", "cbm", "vbm", "is_gap_direct", "is_metal", "es_source_calc_id", "bandstructure", "dos", "dos_energy_up", "dos_energy_down", "is_magnetic", "ordering", "total_magnetization_normalized_vol", "total_magnetization_normalized_formula_units", "num_magnetic_sites", "num_unique_magnetic_sites", "types_of_magnetic_species", "bulk_modulus", "shear_modulus", "universal_anisotropy", "homogeneous_poisson", "e_total", "e_ionic", "e_electronic", "n", "e_ij_max", "weighted_surface_energy_EV_PER_ANG2", "weighted_surface_energy", "weighted_work_function", "surface_anisotropy", "shape_factor", "has_reconstructed", "possible_species", "has_props", "theoretical", "database_IDs"]}