{"builder_meta": null, "nsites": null, "elements": null, "nelements": null, "composition": null, "composition_reduced": null, "formula_pretty": "SrTl3", "formula_anonymous": "AB3", "chemsys": null, "volume": 243.53574689591053, "density": 9.556344893751739, "density_atomic": 30.441968361988817, "symmetry": null, "property_name": null, "material_id": "mp-1186776", "deprecated": null, "deprecation_reasons": null, "last_updated": null, "origins": null, "warnings": null, "structure": {"@module": "pymatgen.core.structure", "@class": "Structure", "charge": 0, "lattice": {"matrix": [[3.57323982, -6.18903466, -0.0], [3.57323982, 6.18903466, 0.0], [0.0, 0.0, 5.50614497]], "pbc": [true, true, true], "a": 7.1464811504624395, "b": 7.1464811504624395, "c": 5.50614497, "alpha": 90.0, "beta": 90.0, "gamma": 120.0000139832996, "volume": 243.53574689591053}, "properties": {}, "sites": [{"species": [{"element": "Sr", "occu": 1}], "abc": [0.333333, 0.666667, 0.75], "properties": {"magmom": 0.0}, "label": "Sr", "xyz": [3.5732398200000004, 2.0630156793564405, 4.1296087275]}, {"species": [{"element": "Sr", "occu": 1}], "abc": [0.666667, 0.333333, 0.25], "properties": {"magmom": 0.0}, "label": "Sr", "xyz": [3.5732398200000004, -2.0630156793564405, 1.3765362425]}, {"species": [{"element": "Tl", "occu": 1}], "abc": [0.15708434000000002, 0.31416869000000003, 0.25], "properties": {"magmom": 0.0}, "label": "Tl", "xyz": [1.6839000920916547, 0.9722004866935711, 1.3765362425]}, {"species": [{"element": "Tl", "occu": 1}], "abc": [0.68583131, 0.8429156600000001, 0.25], "properties": {"magmom": 0.0}, "label": "Tl", "xyz": [5.462579547908345, 0.9722004866935716, 1.3765362425]}, {"species": [{"element": "Tl", "occu": 1}], "abc": [0.15708434000000002, 0.8429156600000001, 0.25], "properties": {"magmom": 0.0}, "label": "Tl", "xyz": [3.57323982, 4.244633810393552, 1.3765362425]}, {"species": [{"element": "Tl", "occu": 1}], "abc": [0.8429156600000001, 0.68583131, 0.75], "properties": {"magmom": 0.0}, "label": "Tl", "xyz": [5.462579547908345, -0.9722004866935716, 4.1296087275]}, {"species": [{"element": "Tl", "occu": 1}], "abc": [0.31416869000000003, 0.15708434000000002, 0.75], "properties": {"magmom": 0.0}, "label": "Tl", "xyz": [1.6839000920916547, -0.9722004866935711, 4.1296087275]}, {"species": [{"element": "Tl", "occu": 1}], "abc": [0.8429156600000001, 0.15708434000000002, 0.75], "properties": {"magmom": 0.0}, "label": "Tl", "xyz": [3.57323982, -4.244633810393552, 4.1296087275]}]}, "task_ids": null, "uncorrected_energy_per_atom": null, "energy_per_atom": -43.9737034925, "formation_energy_per_atom": -0.302809790000004, "energy_above_hull": 0.021081438750002002, "is_stable": false, "equilibrium_reaction_energy_per_atom": null, "decomposes_to": null, "xas": null, "grain_boundaries": null, "band_gap": 0.0, "cbm": null, "vbm": null, "efermi": 5.07699877, "is_gap_direct": null, "is_metal": null, "es_source_calc_id": null, "bandstructure": null, "dos": null, "dos_energy_up": null, "dos_energy_down": null, "is_magnetic": null, "ordering": null, "total_magnetization": 1e-07, "total_magnetization_normalized_vol": null, "total_magnetization_normalized_formula_units": null, "num_magnetic_sites": null, "num_unique_magnetic_sites": null, "types_of_magnetic_species": null, "bulk_modulus": null, "shear_modulus": null, "universal_anisotropy": null, "homogeneous_poisson": null, "e_total": null, "e_ionic": null, "e_electronic": null, "n": null, "e_ij_max": null, "weighted_surface_energy_EV_PER_ANG2": null, "weighted_surface_energy": null, "weighted_work_function": null, "surface_anisotropy": null, "shape_factor": null, "has_reconstructed": null, "possible_species": null, "has_props": null, "theoretical": null, "database_IDs": null, "fields_not_requested": ["builder_meta", "nsites", "elements", "nelements", "composition", "composition_reduced", "chemsys", "symmetry", "property_name", "deprecated", "deprecation_reasons", "last_updated", "origins", "warnings", "task_ids", "uncorrected_energy_per_atom", "equilibrium_reaction_energy_per_atom", "decomposes_to", "xas", "grain_boundaries", "cbm", "vbm", "is_gap_direct", "is_metal", "es_source_calc_id", "bandstructure", "dos", "dos_energy_up", "dos_energy_down", "is_magnetic", "ordering", "total_magnetization_normalized_vol", "total_magnetization_normalized_formula_units", "num_magnetic_sites", "num_unique_magnetic_sites", "types_of_magnetic_species", "bulk_modulus", "shear_modulus", "universal_anisotropy", "homogeneous_poisson", "e_total", "e_ionic", "e_electronic", "n", "e_ij_max", "weighted_surface_energy_EV_PER_ANG2", "weighted_surface_energy", "weighted_work_function", "surface_anisotropy", "shape_factor", "has_reconstructed", "possible_species", "has_props", "theoretical", "database_IDs"]}