{
  "builder_meta": null,
  "nsites": null,
  "elements": null,
  "nelements": null,
  "composition": null,
  "composition_reduced": null,
  "formula_pretty": "SrZn2",
  "formula_anonymous": "AB2",
  "chemsys": null,
  "volume": 140.345524292749,
  "density": 5.169026008600848,
  "density_atomic": 23.390920715458165,
  "symmetry": null,
  "property_name": null,
  "material_id": "mp-569426",
  "deprecated": null,
  "deprecation_reasons": null,
  "last_updated": null,
  "origins": null,
  "warnings": null,
  "structure": {
    "@module": "pymatgen.core.structure",
    "@class": "Structure",
    "charge": 0,
    "lattice": {
      "matrix": [
        [4.35030333, -0.0, 1.88290808],
        [2.18134627, 5.44130488, 0.92714048],
        [0.01382789, -0.033019, 5.93501329]
      ],
      "pbc": [true, true, true],
      "a": 4.740303988220415,
      "b": 5.93512087630988,
      "c": 5.935121247066438,
      "alpha": 81.259148181102,
      "beta": 66.46285924299778,
      "gamma": 66.46286157397681,
      "volume": 140.345524292749
    },
    "properties": {},
    "sites": [
      {
        "species": [{ "element": "Sr", "occu": 1 }],
        "abc": [0.9465289, 0.8034711, 0.3034711],
        "properties": { "magmom": 0.0 },
        "label": "Sr",
        "xyz": [5.874532877638013, 4.361910905118068, 4.328262506714559]
      },
      {
        "species": [{ "element": "Sr", "occu": 1 }],
        "abc": [0.0534711, 0.196528899999999, 0.6965289],
        "properties": { "magmom": 0.0 },
        "label": "Sr",
        "xyz": [0.6709446123619849, 1.0463749748819267, 4.416799343285439]
      },
      {
        "species": [{ "element": "Zn", "occu": 1 }],
        "abc": [0.3364155, 0.23248883, 0.09468217],
        "properties": { "magmom": -0.0 },
        "label": "Zn",
        "xyz": [1.9719573666825003, 1.2619162946532603, 1.4109292059041176]
      },
      {
        "species": [{ "element": "Zn", "occu": 1 }],
        "abc": [0.6635845, 0.76751117, 0.90531783],
        "properties": { "magmom": -0.0 },
        "label": "Zn",
        "xyz": [4.5735201233175005, 4.146369585346739, 7.334132644095882]
      },
      {
        "species": [{ "element": "Zn", "occu": 1 }],
        "abc": [0.3364155, 0.59468217, 0.73248883],
        "properties": { "magmom": -0.0 },
        "label": "Zn",
        "xyz": [2.77084597824609, 3.2116609449922193, 5.5321243165550325]
      },
      {
        "species": [{ "element": "Zn", "occu": 1 }],
        "abc": [0.6635845, 0.40531783, 0.26751117],
        "properties": { "magmom": -0.0 },
        "label": "Zn",
        "xyz": [3.7746315117539107, 2.1966249350077804, 3.2129375334449675]
      }
    ]
  },
  "task_ids": null,
  "uncorrected_energy_per_atom": null,
  "energy_per_atom": -11.2169989,
  "formation_energy_per_atom": -0.22804347333333402,
  "energy_above_hull": 0.0,
  "is_stable": true,
  "equilibrium_reaction_energy_per_atom": null,
  "decomposes_to": null,
  "xas": null,
  "grain_boundaries": null,
  "band_gap": 0.0,
  "cbm": null,
  "vbm": null,
  "efermi": 2.3448849,
  "is_gap_direct": null,
  "is_metal": null,
  "es_source_calc_id": null,
  "bandstructure": null,
  "dos": null,
  "dos_energy_up": null,
  "dos_energy_down": null,
  "is_magnetic": null,
  "ordering": null,
  "total_magnetization": 0.0,
  "total_magnetization_normalized_vol": null,
  "total_magnetization_normalized_formula_units": null,
  "num_magnetic_sites": null,
  "num_unique_magnetic_sites": null,
  "types_of_magnetic_species": null,
  "bulk_modulus": null,
  "shear_modulus": null,
  "universal_anisotropy": null,
  "homogeneous_poisson": null,
  "e_total": null,
  "e_ionic": null,
  "e_electronic": null,
  "n": null,
  "e_ij_max": null,
  "weighted_surface_energy_EV_PER_ANG2": null,
  "weighted_surface_energy": null,
  "weighted_work_function": null,
  "surface_anisotropy": null,
  "shape_factor": null,
  "has_reconstructed": null,
  "possible_species": null,
  "has_props": null,
  "theoretical": null,
  "database_IDs": null,
  "fields_not_requested": [
    "builder_meta",
    "nsites",
    "elements",
    "nelements",
    "composition",
    "composition_reduced",
    "chemsys",
    "symmetry",
    "property_name",
    "deprecated",
    "deprecation_reasons",
    "last_updated",
    "origins",
    "warnings",
    "task_ids",
    "uncorrected_energy_per_atom",
    "equilibrium_reaction_energy_per_atom",
    "decomposes_to",
    "xas",
    "grain_boundaries",
    "cbm",
    "vbm",
    "is_gap_direct",
    "is_metal",
    "es_source_calc_id",
    "bandstructure",
    "dos",
    "dos_energy_up",
    "dos_energy_down",
    "is_magnetic",
    "ordering",
    "total_magnetization_normalized_vol",
    "total_magnetization_normalized_formula_units",
    "num_magnetic_sites",
    "num_unique_magnetic_sites",
    "types_of_magnetic_species",
    "bulk_modulus",
    "shear_modulus",
    "universal_anisotropy",
    "homogeneous_poisson",
    "e_total",
    "e_ionic",
    "e_electronic",
    "n",
    "e_ij_max",
    "weighted_surface_energy_EV_PER_ANG2",
    "weighted_surface_energy",
    "weighted_work_function",
    "surface_anisotropy",
    "shape_factor",
    "has_reconstructed",
    "possible_species",
    "has_props",
    "theoretical",
    "database_IDs"
  ]
}
