{"builder_meta": null, "nsites": null, "elements": null, "nelements": null, "composition": null, "composition_reduced": null, "formula_pretty": "SrZn5", "formula_anonymous": "AB5", "chemsys": null, "volume": 450.5090647706964, "density": 6.113683260976436, "density_atomic": 18.77121103211235, "symmetry": null, "property_name": null, "material_id": "mp-1435", "deprecated": null, "deprecation_reasons": null, "last_updated": null, "origins": null, "warnings": null, "structure": {"@module": "pymatgen.core.structure", "@class": "Structure", "charge": 0, "lattice": {"matrix": [[5.26916317, -0.0, 0.0], [-0.0, 6.61929882, 0.0], [0.0, 0.0, 12.91665022]], "pbc": [true, true, true], "a": 5.26916317, "b": 6.61929882, "c": 12.91665022, "alpha": 90.0, "beta": 90.0, "gamma": 90.0, "volume": 450.5090647706964}, "properties": {}, "sites": [{"species": [{"element": "Sr", "occu": 1}], "abc": [0.25, 0.64298303, 0.91114292], "properties": {"magmom": 0.0}, "label": "Sr", "xyz": [1.3172907925, 4.256096811759025, 11.768914398069441]}, {"species": [{"element": "Sr", "occu": 1}], "abc": [0.75, 0.35701697, 0.08885708], "properties": {"magmom": 0.0}, "label": "Sr", "xyz": [3.9518723775, 2.3632020082409753, 1.1477358219305576]}, {"species": [{"element": "Sr", "occu": 1}], "abc": [0.75, 0.14298303, 0.58885708], "properties": {"magmom": 0.0}, "label": "Sr", "xyz": [3.9518723775, 0.9464474017590246, 7.606060931930558]}, {"species": [{"element": "Sr", "occu": 1}], "abc": [0.25, 0.85701697, 0.41114292], "properties": {"magmom": 0.0}, "label": "Sr", "xyz": [1.3172907925, 5.672851418240976, 5.310589288069442]}, {"species": [{"element": "Zn", "occu": 1}], "abc": [0.25, 0.40578526, 0.51974846], "properties": {"magmom": 0.0}, "label": "Zn", "xyz": [1.3172907925, 2.6860138926913932, 6.71340906020366]}, {"species": [{"element": "Zn", "occu": 1}], "abc": [0.75, 0.59421474, 0.48025154000000003], "properties": {"magmom": 0.0}, "label": "Zn", "xyz": [3.9518723775, 3.933284927308607, 6.203241159796339]}, {"species": [{"element": "Zn", "occu": 1}], "abc": [0.75, 0.90578526, 0.98025154], "properties": {"magmom": 0.0}, "label": "Zn", "xyz": [3.9518723775, 5.995663302691393, 12.661566269796339]}, {"species": [{"element": "Zn", "occu": 1}], "abc": [0.25, 0.09421474, 0.01974846], "properties": {"magmom": 0.0}, "label": "Zn", "xyz": [1.3172907925, 0.6236355173086069, 0.25508395020366115]}, {"species": [{"element": "Zn", "occu": 1}], "abc": [0.25, 0.16227058, 0.21278253], "properties": {"magmom": 0.0}, "label": "Zn", "xyz": [1.3172907925, 1.0741174587147155, 2.7484375129366563]}, {"species": [{"element": "Zn", "occu": 1}], "abc": [0.75, 0.8377294200000001, 0.78721747], "properties": {"magmom": 0.0}, "label": "Zn", "xyz": [3.9518723775, 5.545181361285285, 10.168212707063342]}, {"species": [{"element": "Zn", "occu": 1}], "abc": [0.75, 0.66227058, 0.28721747000000003], "properties": {"magmom": 0.0}, "label": "Zn", "xyz": [3.9518723775, 4.383766868714716, 3.7098875970633434]}, {"species": [{"element": "Zn", "occu": 1}], "abc": [0.25, 0.33772942, 0.71278253], "properties": {"magmom": 0.0}, "label": "Zn", "xyz": [1.3172907925, 2.2355319512852843, 9.206762622936656]}, {"species": [{"element": "Zn", "occu": 1}], "abc": [0.25, 0.54600998, 0.20639128], "properties": {"magmom": 0.0}, "label": "Zn", "xyz": [1.3172907925, 3.6142032163222235, 2.6658839722180816]}, {"species": [{"element": "Zn", "occu": 1}], "abc": [0.75, 0.45399002, 0.79360872], "properties": {"magmom": 0.0}, "label": "Zn", "xyz": [3.9518723775, 3.0050956036777765, 10.250766247781918]}, {"species": [{"element": "Zn", "occu": 1}], "abc": [0.75, 0.04600998, 0.29360872], "properties": {"magmom": 0.0}, "label": "Zn", "xyz": [3.9518723775, 0.3045538063222236, 3.792441137781918]}, {"species": [{"element": "Zn", "occu": 1}], "abc": [0.25, 0.95399002, 0.7063912800000001], "properties": {"magmom": 0.0}, "label": "Zn", "xyz": [1.3172907925, 6.3147450136777765, 9.124209082218082]}, {"species": [{"element": "Zn", "occu": 1}], "abc": [0.9998883, 0.34903909, 0.35524188], "properties": {"magmom": -0.0}, "label": "Zn", "xyz": [5.26857460447391, 2.310394036570874, 4.588535107455214]}, {"species": [{"element": "Zn", "occu": 1}], "abc": [0.49988829999999906, 0.65096091, 0.64475812], "properties": {"magmom": -0.0}, "label": "Zn", "xyz": [2.633993019473906, 4.308904783429126, 8.328115112544786]}, {"species": [{"element": "Zn", "occu": 1}], "abc": [0.000111699999999, 0.84903909, 0.14475812], "properties": {"magmom": -0.0}, "label": "Zn", "xyz": [0.0005885655260837308, 5.6200434465708735, 1.8697900025447862]}, {"species": [{"element": "Zn", "occu": 1}], "abc": [0.500111699999999, 0.15096091, 0.85524188], "properties": {"magmom": -0.0}, "label": "Zn", "xyz": [2.6351701505260836, 0.9992553734291262, 11.046860217455214]}, {"species": [{"element": "Zn", "occu": 1}], "abc": [0.000111699999999, 0.65096091, 0.64475812], "properties": {"magmom": -0.0}, "label": "Zn", "xyz": [0.0005885655260837308, 4.308904783429126, 8.328115112544786]}, {"species": [{"element": "Zn", "occu": 1}], "abc": [0.500111699999999, 0.34903909, 0.35524188], "properties": {"magmom": -0.0}, "label": "Zn", "xyz": [2.6351701505260836, 2.310394036570874, 4.588535107455214]}, {"species": [{"element": "Zn", "occu": 1}], "abc": [0.9998883, 0.15096091, 0.85524188], "properties": {"magmom": -0.0}, "label": "Zn", "xyz": [5.26857460447391, 0.9992553734291262, 11.046860217455214]}, {"species": [{"element": "Zn", "occu": 1}], "abc": [0.49988829999999906, 0.84903909, 0.14475812], "properties": {"magmom": -0.0}, "label": "Zn", "xyz": [2.633993019473906, 5.6200434465708735, 1.8697900025447862]}]}, "task_ids": null, "uncorrected_energy_per_atom": null, "energy_per_atom": -10.194682170833334, "formation_energy_per_atom": -0.244903154999999, "energy_above_hull": 0.0, "is_stable": true, "equilibrium_reaction_energy_per_atom": null, "decomposes_to": null, "xas": null, "grain_boundaries": null, "band_gap": 0.0, "cbm": null, "vbm": null, "efermi": 2.4657132, "is_gap_direct": null, "is_metal": null, "es_source_calc_id": null, "bandstructure": null, "dos": null, "dos_energy_up": null, "dos_energy_down": null, "is_magnetic": null, "ordering": null, "total_magnetization": 0.0, "total_magnetization_normalized_vol": null, "total_magnetization_normalized_formula_units": null, "num_magnetic_sites": null, "num_unique_magnetic_sites": null, "types_of_magnetic_species": null, "bulk_modulus": null, "shear_modulus": null, "universal_anisotropy": null, "homogeneous_poisson": null, "e_total": null, "e_ionic": null, "e_electronic": null, "n": null, "e_ij_max": null, "weighted_surface_energy_EV_PER_ANG2": null, "weighted_surface_energy": null, "weighted_work_function": null, "surface_anisotropy": null, "shape_factor": null, "has_reconstructed": null, "possible_species": null, "has_props": null, "theoretical": null, "database_IDs": null, "fields_not_requested": ["builder_meta", "nsites", "elements", "nelements", "composition", "composition_reduced", "chemsys", "symmetry", "property_name", "deprecated", "deprecation_reasons", "last_updated", "origins", "warnings", "task_ids", "uncorrected_energy_per_atom", "equilibrium_reaction_energy_per_atom", "decomposes_to", "xas", "grain_boundaries", "cbm", "vbm", "is_gap_direct", "is_metal", "es_source_calc_id", "bandstructure", "dos", "dos_energy_up", "dos_energy_down", "is_magnetic", "ordering", "total_magnetization_normalized_vol", "total_magnetization_normalized_formula_units", "num_magnetic_sites", "num_unique_magnetic_sites", "types_of_magnetic_species", "bulk_modulus", "shear_modulus", "universal_anisotropy", "homogeneous_poisson", "e_total", "e_ionic", "e_electronic", "n", "e_ij_max", "weighted_surface_energy_EV_PER_ANG2", "weighted_surface_energy", "weighted_work_function", "surface_anisotropy", "shape_factor", "has_reconstructed", "possible_species", "has_props", "theoretical", "database_IDs"]}