{
  "builder_meta": null,
  "nsites": null,
  "elements": null,
  "nelements": null,
  "composition": null,
  "composition_reduced": null,
  "formula_pretty": "SrZn",
  "formula_anonymous": "AB",
  "chemsys": null,
  "volume": 251.88150818874178,
  "density": 4.035399575777024,
  "density_atomic": 31.485188523592722,
  "symmetry": null,
  "property_name": null,
  "material_id": "mp-12724",
  "deprecated": null,
  "deprecation_reasons": null,
  "last_updated": null,
  "origins": null,
  "warnings": null,
  "structure": {
    "@module": "pymatgen.core.structure",
    "@class": "Structure",
    "charge": 0,
    "lattice": {
      "matrix": [
        [4.54911253, 0.0, 0.0],
        [0.0, 6.23291024, 0.0],
        [0.0, 0.0, 8.88339007]
      ],
      "pbc": [true, true, true],
      "a": 4.54911253,
      "b": 6.23291024,
      "c": 8.88339007,
      "alpha": 90.0,
      "beta": 90.0,
      "gamma": 90.0,
      "volume": 251.88150818874178
    },
    "properties": {},
    "sites": [
      {
        "species": [{ "element": "Sr", "occu": 1 }],
        "abc": [0.25, 0.39229659, 0.67837528],
        "properties": { "magmom": -0.0 },
        "label": "Sr",
        "xyz": [1.1372781325, 2.4451494329280816, 6.02627222608547]
      },
      {
        "species": [{ "element": "Sr", "occu": 1 }],
        "abc": [0.75, 0.60770341, 0.32162472000000003],
        "properties": { "magmom": -0.0 },
        "label": "Sr",
        "xyz": [3.4118343975000003, 3.7877608070719186, 2.857117843914531]
      },
      {
        "species": [{ "element": "Sr", "occu": 1 }],
        "abc": [0.75, 0.8922965900000001, 0.82162472],
        "properties": { "magmom": -0.0 },
        "label": "Sr",
        "xyz": [3.4118343975000003, 5.561604552928082, 7.298812878914531]
      },
      {
        "species": [{ "element": "Sr", "occu": 1 }],
        "abc": [0.25, 0.10770341, 0.17837528],
        "properties": { "magmom": -0.0 },
        "label": "Sr",
        "xyz": [1.1372781325, 0.6713056870719184, 1.5845771910854698]
      },
      {
        "species": [{ "element": "Zn", "occu": 1 }],
        "abc": [0.25, 0.91107457, 0.52381907],
        "properties": { "magmom": 0.0 },
        "label": "Zn",
        "xyz": [1.1372781325, 5.678646016756597, 4.653289124914636]
      },
      {
        "species": [{ "element": "Zn", "occu": 1 }],
        "abc": [0.75, 0.08892543, 0.47618093],
        "properties": { "magmom": 0.0 },
        "label": "Zn",
        "xyz": [3.4118343975000003, 0.5542642232434032, 4.230100945085366]
      },
      {
        "species": [{ "element": "Zn", "occu": 1 }],
        "abc": [0.75, 0.41107457000000003, 0.9761809300000001],
        "properties": { "magmom": 0.0 },
        "label": "Zn",
        "xyz": [3.4118343975000003, 2.5621908967565967, 8.671795980085367]
      },
      {
        "species": [{ "element": "Zn", "occu": 1 }],
        "abc": [0.25, 0.58892543, 0.02381907],
        "properties": { "magmom": 0.0 },
        "label": "Zn",
        "xyz": [1.1372781325, 3.670719343243403, 0.21159408991463494]
      }
    ]
  },
  "task_ids": null,
  "uncorrected_energy_per_atom": null,
  "energy_per_atom": -12.2130674175,
  "formation_energy_per_atom": -0.18493558000000102,
  "energy_above_hull": 0.0,
  "is_stable": true,
  "equilibrium_reaction_energy_per_atom": null,
  "decomposes_to": null,
  "xas": null,
  "grain_boundaries": null,
  "band_gap": 0.0,
  "cbm": null,
  "vbm": null,
  "efermi": 2.10991117,
  "is_gap_direct": null,
  "is_metal": null,
  "es_source_calc_id": null,
  "bandstructure": null,
  "dos": null,
  "dos_energy_up": null,
  "dos_energy_down": null,
  "is_magnetic": null,
  "ordering": null,
  "total_magnetization": 8e-7,
  "total_magnetization_normalized_vol": null,
  "total_magnetization_normalized_formula_units": null,
  "num_magnetic_sites": null,
  "num_unique_magnetic_sites": null,
  "types_of_magnetic_species": null,
  "bulk_modulus": null,
  "shear_modulus": null,
  "universal_anisotropy": null,
  "homogeneous_poisson": null,
  "e_total": null,
  "e_ionic": null,
  "e_electronic": null,
  "n": null,
  "e_ij_max": null,
  "weighted_surface_energy_EV_PER_ANG2": null,
  "weighted_surface_energy": null,
  "weighted_work_function": null,
  "surface_anisotropy": null,
  "shape_factor": null,
  "has_reconstructed": null,
  "possible_species": null,
  "has_props": null,
  "theoretical": null,
  "database_IDs": null,
  "fields_not_requested": [
    "builder_meta",
    "nsites",
    "elements",
    "nelements",
    "composition",
    "composition_reduced",
    "chemsys",
    "symmetry",
    "property_name",
    "deprecated",
    "deprecation_reasons",
    "last_updated",
    "origins",
    "warnings",
    "task_ids",
    "uncorrected_energy_per_atom",
    "equilibrium_reaction_energy_per_atom",
    "decomposes_to",
    "xas",
    "grain_boundaries",
    "cbm",
    "vbm",
    "is_gap_direct",
    "is_metal",
    "es_source_calc_id",
    "bandstructure",
    "dos",
    "dos_energy_up",
    "dos_energy_down",
    "is_magnetic",
    "ordering",
    "total_magnetization_normalized_vol",
    "total_magnetization_normalized_formula_units",
    "num_magnetic_sites",
    "num_unique_magnetic_sites",
    "types_of_magnetic_species",
    "bulk_modulus",
    "shear_modulus",
    "universal_anisotropy",
    "homogeneous_poisson",
    "e_total",
    "e_ionic",
    "e_electronic",
    "n",
    "e_ij_max",
    "weighted_surface_energy_EV_PER_ANG2",
    "weighted_surface_energy",
    "weighted_work_function",
    "surface_anisotropy",
    "shape_factor",
    "has_reconstructed",
    "possible_species",
    "has_props",
    "theoretical",
    "database_IDs"
  ]
}
