{"builder_meta": null, "nsites": null, "elements": null, "nelements": null, "composition": null, "composition_reduced": null, "formula_pretty": "Ta2Al", "formula_anonymous": "AB2", "chemsys": null, "volume": 509.67917142373227, "density": 12.66965539587097, "density_atomic": 16.98930571412441, "symmetry": null, "property_name": null, "material_id": "mp-1193531", "deprecated": null, "deprecation_reasons": null, "last_updated": null, "origins": null, "warnings": null, "structure": {"@module": "pymatgen.core.structure", "@class": "Structure", "charge": 0, "lattice": {"matrix": [[0.0, 0.0, 5.19544959], [9.9045985, -0.0, 0.0], [-0.0, 9.9045985, 0.0]], "pbc": [true, true, true], "a": 5.19544959, "b": 9.9045985, "c": 9.9045985, "alpha": 90.0, "beta": 90.0, "gamma": 90.0, "volume": 509.67917142373227}, "properties": {}, "sites": [{"species": [{"element": "Ta", "occu": 1}], "abc": [0.5, 0.10201661000000001, 0.89798339], "properties": {"magmom": 0.0}, "label": "Ta", "xyz": [1.0104335623810852, 8.894164937618916, 2.597724795]}, {"species": [{"element": "Ta", "occu": 1}], "abc": [0.5, 0.89798339, 0.10201661000000001], "properties": {"magmom": 0.0}, "label": "Ta", "xyz": [8.894164937618916, 1.0104335623810852, 2.597724795]}, {"species": [{"element": "Ta", "occu": 1}], "abc": [0.0, 0.39798339, 0.39798339], "properties": {"magmom": 0.0}, "label": "Ta", "xyz": [3.941865687618915, 3.941865687618915, 0.0]}, {"species": [{"element": "Ta", "occu": 1}], "abc": [0.0, 0.6020166100000001, 0.6020166100000001], "properties": {"magmom": 0.0}, "label": "Ta", "xyz": [5.962732812381086, 5.962732812381086, 0.0]}, {"species": [{"element": "Ta", "occu": 1}], "abc": [0.5, 0.37077103, 0.96421372], "properties": {"magmom": 0.0}, "label": "Ta", "xyz": [3.672338187581455, 9.55014976479142, 2.597724795]}, {"species": [{"element": "Ta", "occu": 1}], "abc": [0.5, 0.62922897, 0.035786280000000004], "properties": {"magmom": 0.0}, "label": "Ta", "xyz": [6.232260312418545, 0.35444873520858006, 2.597724795]}, {"species": [{"element": "Ta", "occu": 1}], "abc": [0.0, 0.12922897, 0.46421372], "properties": {"magmom": 0.0}, "label": "Ta", "xyz": [1.2799610624185451, 4.59785051479142, 0.0]}, {"species": [{"element": "Ta", "occu": 1}], "abc": [0.0, 0.87077103, 0.5357862800000001], "properties": {"magmom": 0.0}, "label": "Ta", "xyz": [8.624637437581455, 5.306747985208581, 0.0]}, {"species": [{"element": "Ta", "occu": 1}], "abc": [0.5, 0.96421372, 0.37077103], "properties": {"magmom": 0.0}, "label": "Ta", "xyz": [9.55014976479142, 3.672338187581455, 2.597724795]}, {"species": [{"element": "Ta", "occu": 1}], "abc": [0.5, 0.035786280000000004, 0.62922897], "properties": {"magmom": 0.0}, "label": "Ta", "xyz": [0.35444873520858006, 6.232260312418545, 2.597724795]}, {"species": [{"element": "Ta", "occu": 1}], "abc": [0.0, 0.46421372, 0.12922897], "properties": {"magmom": 0.0}, "label": "Ta", "xyz": [4.59785051479142, 1.2799610624185451, 0.0]}, {"species": [{"element": "Ta", "occu": 1}], "abc": [0.0, 0.5357862800000001, 0.87077103], "properties": {"magmom": 0.0}, "label": "Ta", "xyz": [5.306747985208581, 8.624637437581455, 0.0]}, {"species": [{"element": "Ta", "occu": 1}], "abc": [0.24823262000000001, 0.318550799999999, 0.6814492], "properties": {"magmom": -0.0}, "label": "Ta", "xyz": [3.1551177758537907, 6.7494807241462, 1.2896800638036259]}, {"species": [{"element": "Ta", "occu": 1}], "abc": [0.24823262000000001, 0.6814492, 0.318550799999999], "properties": {"magmom": -0.0}, "label": "Ta", "xyz": [6.7494807241462, 3.1551177758537907, 1.2896800638036259]}, {"species": [{"element": "Ta", "occu": 1}], "abc": [0.74823262, 0.1814492, 0.1814492], "properties": {"magmom": -0.0}, "label": "Ta", "xyz": [1.7971814741462002, 1.7971814741462002, 3.8874048588036256]}, {"species": [{"element": "Ta", "occu": 1}], "abc": [0.74823262, 0.818550799999999, 0.818550799999999], "properties": {"magmom": -0.0}, "label": "Ta", "xyz": [8.10741702585379, 8.10741702585379, 3.8874048588036256]}, {"species": [{"element": "Ta", "occu": 1}], "abc": [0.75176738, 0.6814492, 0.318550799999999], "properties": {"magmom": -0.0}, "label": "Ta", "xyz": [6.7494807241462, 3.1551177758537907, 3.9057695261963743]}, {"species": [{"element": "Ta", "occu": 1}], "abc": [0.75176738, 0.318550799999999, 0.6814492], "properties": {"magmom": -0.0}, "label": "Ta", "xyz": [3.1551177758537907, 6.7494807241462, 3.9057695261963743]}, {"species": [{"element": "Ta", "occu": 1}], "abc": [0.25176738, 0.818550799999999, 0.818550799999999], "properties": {"magmom": -0.0}, "label": "Ta", "xyz": [8.10741702585379, 8.10741702585379, 1.308044731196374]}, {"species": [{"element": "Ta", "occu": 1}], "abc": [0.25176738, 0.1814492, 0.1814492], "properties": {"magmom": -0.0}, "label": "Ta", "xyz": [1.7971814741462002, 1.7971814741462002, 1.308044731196374]}, {"species": [{"element": "Al", "occu": 1}], "abc": [0.5, 0.5, 0.5], "properties": {"magmom": -0.0}, "label": "Al", "xyz": [4.95229925, 4.95229925, 2.597724795]}, {"species": [{"element": "Al", "occu": 1}], "abc": [0.0, -0.0, -0.0], "properties": {"magmom": -0.0}, "label": "Al", "xyz": [0.0, 0.0, 0.0]}, {"species": [{"element": "Al", "occu": 1}], "abc": [0.5, 0.43361443, 0.23763676], "properties": {"magmom": 0.0}, "label": "Al", "xyz": [4.294776832956355, 2.3536966966408603, 2.597724795]}, {"species": [{"element": "Al", "occu": 1}], "abc": [0.5, 0.56638557, 0.76236324], "properties": {"magmom": 0.0}, "label": "Al", "xyz": [5.609821667043645, 7.550901803359141, 2.597724795]}, {"species": [{"element": "Al", "occu": 1}], "abc": [0.0, 0.06638557, 0.73763676], "properties": {"magmom": 0.0}, "label": "Al", "xyz": [0.6575224170436451, 7.30599594664086, 0.0]}, {"species": [{"element": "Al", "occu": 1}], "abc": [0.0, 0.93361443, 0.26236324], "properties": {"magmom": 0.0}, "label": "Al", "xyz": [9.247076082956356, 2.59860255335914, 0.0]}, {"species": [{"element": "Al", "occu": 1}], "abc": [0.5, 0.23763676, 0.43361443], "properties": {"magmom": 0.0}, "label": "Al", "xyz": [2.3536966966408603, 4.294776832956355, 2.597724795]}, {"species": [{"element": "Al", "occu": 1}], "abc": [0.5, 0.76236324, 0.56638557], "properties": {"magmom": 0.0}, "label": "Al", "xyz": [7.550901803359141, 5.609821667043645, 2.597724795]}, {"species": [{"element": "Al", "occu": 1}], "abc": [0.0, 0.73763676, 0.06638557], "properties": {"magmom": 0.0}, "label": "Al", "xyz": [7.30599594664086, 0.6575224170436451, 0.0]}, {"species": [{"element": "Al", "occu": 1}], "abc": [0.0, 0.26236324, 0.93361443], "properties": {"magmom": 0.0}, "label": "Al", "xyz": [2.59860255335914, 9.247076082956356, 0.0]}]}, "task_ids": null, "uncorrected_energy_per_atom": null, "energy_per_atom": -34.934290092333335, "formation_energy_per_atom": -0.29570217388888903, "energy_above_hull": 0.0, "is_stable": true, "equilibrium_reaction_energy_per_atom": null, "decomposes_to": null, "xas": null, "grain_boundaries": null, "band_gap": 0.0, "cbm": null, "vbm": null, "efermi": 6.43658953, "is_gap_direct": null, "is_metal": null, "es_source_calc_id": null, "bandstructure": null, "dos": null, "dos_energy_up": null, "dos_energy_down": null, "is_magnetic": null, "ordering": null, "total_magnetization": 1e-07, "total_magnetization_normalized_vol": null, "total_magnetization_normalized_formula_units": null, "num_magnetic_sites": null, "num_unique_magnetic_sites": null, "types_of_magnetic_species": null, "bulk_modulus": null, "shear_modulus": null, "universal_anisotropy": null, "homogeneous_poisson": null, "e_total": null, "e_ionic": null, "e_electronic": null, "n": null, "e_ij_max": null, "weighted_surface_energy_EV_PER_ANG2": null, "weighted_surface_energy": null, "weighted_work_function": null, "surface_anisotropy": null, "shape_factor": null, "has_reconstructed": null, "possible_species": null, "has_props": null, "theoretical": null, "database_IDs": null, "fields_not_requested": ["builder_meta", "nsites", "elements", "nelements", "composition", "composition_reduced", "chemsys", "symmetry", "property_name", "deprecated", "deprecation_reasons", "last_updated", "origins", "warnings", "task_ids", "uncorrected_energy_per_atom", "equilibrium_reaction_energy_per_atom", "decomposes_to", "xas", "grain_boundaries", "cbm", "vbm", "is_gap_direct", "is_metal", "es_source_calc_id", "bandstructure", "dos", "dos_energy_up", "dos_energy_down", "is_magnetic", "ordering", "total_magnetization_normalized_vol", "total_magnetization_normalized_formula_units", "num_magnetic_sites", "num_unique_magnetic_sites", "types_of_magnetic_species", "bulk_modulus", "shear_modulus", "universal_anisotropy", "homogeneous_poisson", "e_total", "e_ionic", "e_electronic", "n", "e_ij_max", "weighted_surface_energy_EV_PER_ANG2", "weighted_surface_energy", "weighted_work_function", "surface_anisotropy", "shape_factor", "has_reconstructed", "possible_species", "has_props", "theoretical", "database_IDs"]}