{"builder_meta": null, "nsites": null, "elements": null, "nelements": null, "composition": null, "composition_reduced": null, "formula_pretty": "Ta2As", "formula_anonymous": "AB2", "chemsys": null, "volume": 613.1138331447871, "density": 14.196756009146196, "density_atomic": 17.03093980957742, "symmetry": null, "property_name": null, "material_id": "mp-672222", "deprecated": null, "deprecation_reasons": null, "last_updated": null, "origins": null, "warnings": null, "structure": {"@module": "pymatgen.core.structure", "@class": "Structure", "charge": 0, "lattice": {"matrix": [[3.47777913, 0.0, 0.0], [0.0, 11.90048495, -0.0], [0.0, -0.0, 14.81407225]], "pbc": [true, true, true], "a": 3.47777913, "b": 11.90048495, "c": 14.81407225, "alpha": 90.0, "beta": 90.0, "gamma": 90.0, "volume": 613.1138331447871}, "properties": {}, "sites": [{"species": [{"element": "Ta", "occu": 1}], "abc": [0.0, 0.19249737, 0.29705349000000003], "properties": {"magmom": -0.0}, "label": "Ta", "xyz": [0.0, 2.290812054599581, 4.400571862974653]}, {"species": [{"element": "Ta", "occu": 1}], "abc": [0.0, 0.52702793, 0.10977542], "properties": {"magmom": -0.0}, "label": "Ta", "xyz": [0.0, 6.271887949194653, 1.6262210031540951]}, {"species": [{"element": "Ta", "occu": 1}], "abc": [0.5, 0.91263383, 0.079042099999999], "properties": {"magmom": 0.0}, "label": "Ta", "xyz": [1.738889565, 10.860785158775858, 1.1709353801917104]}, {"species": [{"element": "Ta", "occu": 1}], "abc": [0.0, 0.88598407, 0.92784972], "properties": {"magmom": -0.0}, "label": "Ta", "xyz": [0.0, 10.543640090974746, 13.745232789222271]}, {"species": [{"element": "Ta", "occu": 1}], "abc": [-0.0, 0.85918211, 0.47704483000000003], "properties": {"magmom": 0.0}, "label": "Ta", "xyz": [0.0, 10.224683769364244, 7.066976578108968]}, {"species": [{"element": "Ta", "occu": 1}], "abc": [0.5, 0.69249737, 0.20294651], "properties": {"magmom": -0.0}, "label": "Ta", "xyz": [1.738889565, 8.24105452959958, 3.0064642620253474]}, {"species": [{"element": "Ta", "occu": 1}], "abc": [0.5, 0.38598407, 0.57215028], "properties": {"magmom": -0.0}, "label": "Ta", "xyz": [1.738889565, 4.593397615974746, 8.47587558577773]}, {"species": [{"element": "Ta", "occu": 1}], "abc": [-0.0, 0.58736617, 0.5790421], "properties": {"magmom": 0.0}, "label": "Ta", "xyz": [0.0, 6.9899422662241415, 8.577971505191725]}, {"species": [{"element": "Ta", "occu": 1}], "abc": [0.5, 0.61401593, 0.42784972], "properties": {"magmom": -0.0}, "label": "Ta", "xyz": [1.738889565, 7.307087334025253, 6.33819666422227]}, {"species": [{"element": "Ta", "occu": 1}], "abc": [-0.0, 0.08247373, 0.75662401], "properties": {"magmom": 0.0}, "label": "Ta", "xyz": [0.0, 0.9814773826353633, 11.208682750224723]}, {"species": [{"element": "Ta", "occu": 1}], "abc": [0.5, 0.64081789, 0.97704483], "properties": {"magmom": 0.0}, "label": "Ta", "xyz": [1.738889565, 7.626043655635755, 14.474012703108968]}, {"species": [{"element": "Ta", "occu": 1}], "abc": [0.0, 0.14081789, 0.52295517], "properties": {"magmom": 0.0}, "label": "Ta", "xyz": [0.0, 1.6758011806357553, 7.747095671891033]}, {"species": [{"element": "Ta", "occu": 1}], "abc": [0.0, 0.41263383000000003, 0.4209579], "properties": {"magmom": 0.0}, "label": "Ta", "xyz": [0.0, 4.910542683775859, 6.236100744808275]}, {"species": [{"element": "Ta", "occu": 1}], "abc": [0.5, 0.41752627000000003, 0.25662401], "properties": {"magmom": 0.0}, "label": "Ta", "xyz": [1.738889565, 4.968765092364636, 3.801646625224723]}, {"species": [{"element": "Ta", "occu": 1}], "abc": [0.5, 0.58247373, 0.74337599], "properties": {"magmom": 0.0}, "label": "Ta", "xyz": [1.738889565, 6.931719857635363, 11.012425624775277]}, {"species": [{"element": "Ta", "occu": 1}], "abc": [0.5, 0.97297207, 0.6097754200000001], "properties": {"magmom": -0.0}, "label": "Ta", "xyz": [1.738889565, 11.578839475805346, 9.033257128154096]}, {"species": [{"element": "Ta", "occu": 1}], "abc": [0.5, 0.35918211, 0.02295517], "properties": {"magmom": 0.0}, "label": "Ta", "xyz": [1.738889565, 4.2744412943642445, 0.3400595468910325]}, {"species": [{"element": "Ta", "occu": 1}], "abc": [-0.0, 0.11401593, 0.07215028], "properties": {"magmom": -0.0}, "label": "Ta", "xyz": [0.0, 1.3568448590252533, 1.06883946077773]}, {"species": [{"element": "Ta", "occu": 1}], "abc": [0.5, 0.08736617, 0.9209579], "properties": {"magmom": 0.0}, "label": "Ta", "xyz": [1.738889565, 1.0396997912241415, 13.643136869808275]}, {"species": [{"element": "Ta", "occu": 1}], "abc": [0.0, 0.47297207, 0.89022458], "properties": {"magmom": -0.0}, "label": "Ta", "xyz": [0.0, 5.628597000805346, 13.187851246845906]}, {"species": [{"element": "Ta", "occu": 1}], "abc": [-0.0, 0.80750263, 0.70294651], "properties": {"magmom": -0.0}, "label": "Ta", "xyz": [0.0, 9.609672895400418, 10.413500387025348]}, {"species": [{"element": "Ta", "occu": 1}], "abc": [0.5, 0.30750263, 0.79705349], "properties": {"magmom": -0.0}, "label": "Ta", "xyz": [1.738889565, 3.6594304204004184, 11.807607987974654]}, {"species": [{"element": "Ta", "occu": 1}], "abc": [-0.0, 0.91752627, 0.24337599000000001], "properties": {"magmom": 0.0}, "label": "Ta", "xyz": [0.0, 10.919007567364636, 3.605389499775278]}, {"species": [{"element": "Ta", "occu": 1}], "abc": [0.5, 0.027027930000000002, 0.39022458], "properties": {"magmom": -0.0}, "label": "Ta", "xyz": [1.738889565, 0.3216454741946535, 5.780815121845905]}, {"species": [{"element": "As", "occu": 1}], "abc": [-0.0, 0.42320395, 0.70392679], "properties": {"magmom": 0.0}, "label": "As", "xyz": [0.0, 5.036332237755552, 10.428022325770579]}, {"species": [{"element": "As", "occu": 1}], "abc": [0.0, 0.24793541, 0.91872153], "properties": {"magmom": 0.0}, "label": "As", "xyz": [0.0, 2.9505516152770794, 13.610007123050543]}, {"species": [{"element": "As", "occu": 1}], "abc": [0.0, 0.31055876, 0.15092009], "properties": {"magmom": 0.0}, "label": "As", "xyz": [0.0, 3.6957998494706614, 2.2357411172365027]}, {"species": [{"element": "As", "occu": 1}], "abc": [0.5, 0.74793541, 0.58127847], "properties": {"magmom": 0.0}, "label": "As", "xyz": [1.738889565, 8.900794090277078, 8.611101251949458]}, {"species": [{"element": "As", "occu": 1}], "abc": [0.5, 0.25206459000000003, 0.41872153], "properties": {"magmom": 0.0}, "label": "As", "xyz": [1.738889565, 2.9996908597229206, 6.202970998050543]}, {"species": [{"element": "As", "occu": 1}], "abc": [0.0, 0.57679605, 0.29607321000000003], "properties": {"magmom": 0.0}, "label": "As", "xyz": [0.0, 6.864152712244447, 4.3860499242294235]}, {"species": [{"element": "As", "occu": 1}], "abc": [0.5, 0.18944124, 0.6509200900000001], "properties": {"magmom": 0.0}, "label": "As", "xyz": [1.738889565, 2.254442625529338, 9.642777242236503]}, {"species": [{"element": "As", "occu": 1}], "abc": [-0.0, 0.75206459, 0.08127847], "properties": {"magmom": 0.0}, "label": "As", "xyz": [0.0, 8.949933334722921, 1.2040651269494576]}, {"species": [{"element": "As", "occu": 1}], "abc": [0.5, 0.81055876, 0.34907991], "properties": {"magmom": 0.0}, "label": "As", "xyz": [1.738889565, 9.646042324470661, 5.171295007763498]}, {"species": [{"element": "As", "occu": 1}], "abc": [-0.0, 0.6894412400000001, 0.84907991], "properties": {"magmom": 0.0}, "label": "As", "xyz": [0.0, 8.204685100529339, 12.578331132763498]}, {"species": [{"element": "As", "occu": 1}], "abc": [0.5, 0.07679605, 0.20392679], "properties": {"magmom": 0.0}, "label": "As", "xyz": [1.738889565, 0.9139102372444475, 3.0209862007705777]}, {"species": [{"element": "As", "occu": 1}], "abc": [0.5, 0.92320395, 0.79607321], "properties": {"magmom": 0.0}, "label": "As", "xyz": [1.738889565, 10.986574712755552, 11.793086049229423]}]}, "task_ids": null, "uncorrected_energy_per_atom": null, "energy_per_atom": -37.75575156527778, "formation_energy_per_atom": -0.458686094333333, "energy_above_hull": 0.011061889603176, "is_stable": false, "equilibrium_reaction_energy_per_atom": null, "decomposes_to": null, "xas": null, "grain_boundaries": null, "band_gap": 0.0, "cbm": null, "vbm": null, "efermi": 7.19726236, "is_gap_direct": null, "is_metal": null, "es_source_calc_id": null, "bandstructure": null, "dos": null, "dos_energy_up": null, "dos_energy_down": null, "is_magnetic": null, "ordering": null, "total_magnetization": 2e-07, "total_magnetization_normalized_vol": null, "total_magnetization_normalized_formula_units": null, "num_magnetic_sites": null, "num_unique_magnetic_sites": null, "types_of_magnetic_species": null, "bulk_modulus": null, "shear_modulus": null, "universal_anisotropy": null, "homogeneous_poisson": null, "e_total": null, "e_ionic": null, "e_electronic": null, "n": null, "e_ij_max": null, "weighted_surface_energy_EV_PER_ANG2": null, "weighted_surface_energy": null, "weighted_work_function": null, "surface_anisotropy": null, "shape_factor": null, "has_reconstructed": null, "possible_species": null, "has_props": null, "theoretical": null, "database_IDs": null, "fields_not_requested": ["builder_meta", "nsites", "elements", "nelements", "composition", "composition_reduced", "chemsys", "symmetry", "property_name", "deprecated", "deprecation_reasons", "last_updated", "origins", "warnings", "task_ids", "uncorrected_energy_per_atom", "equilibrium_reaction_energy_per_atom", "decomposes_to", "xas", "grain_boundaries", "cbm", "vbm", "is_gap_direct", "is_metal", "es_source_calc_id", "bandstructure", "dos", "dos_energy_up", "dos_energy_down", "is_magnetic", "ordering", "total_magnetization_normalized_vol", "total_magnetization_normalized_formula_units", "num_magnetic_sites", "num_unique_magnetic_sites", "types_of_magnetic_species", "bulk_modulus", "shear_modulus", "universal_anisotropy", "homogeneous_poisson", "e_total", "e_ionic", "e_electronic", "n", "e_ij_max", "weighted_surface_energy_EV_PER_ANG2", "weighted_surface_energy", "weighted_work_function", "surface_anisotropy", "shape_factor", "has_reconstructed", "possible_species", "has_props", "theoretical", "database_IDs"]}