{"builder_meta": null, "nsites": null, "elements": null, "nelements": null, "composition": null, "composition_reduced": null, "formula_pretty": "Ta2B", "formula_anonymous": "AB2", "chemsys": null, "volume": 81.72050714809409, "density": 15.146605349483425, "density_atomic": 13.620084524682348, "symmetry": null, "property_name": null, "material_id": "mp-1032", "deprecated": null, "deprecation_reasons": null, "last_updated": null, "origins": null, "warnings": null, "structure": {"@module": "pymatgen.core.structure", "@class": "Structure", "charge": 0, "lattice": {"matrix": [[4.60044655, -0.00458506, -1.244595439999999], [-2.6961626, 3.72757732, -1.24459543], [0.00234473, 0.00458506, 4.76582771]], "pbc": [true, true, true], "a": 4.765831227755647, "b": 4.765830801297296, "c": 4.765830492363091, "alpha": 105.110143541866, "beta": 105.11015171488219, "gamma": 118.59720616995548, "volume": 81.72050714809409}, "properties": {}, "sites": [{"species": [{"element": "Ta", "occu": 1}], "abc": [0.8332855100000001, 0.66671449, 0.5], "properties": {"magmom": -0.0}, "label": "Ta", "xyz": [2.0370871418284167, 2.4837016777788863, 0.5160207016671454]}, {"species": [{"element": "Ta", "occu": 1}], "abc": [0.33328551, 0.8332855100000001, 0.16657002], "properties": {"magmom": -0.0}, "label": "Ta", "xyz": [-0.7130204908164411, 3.1053717676360537, -0.658064946624039]}, {"species": [{"element": "Ta", "occu": 1}], "abc": [0.16671449, 0.33328551, 0.5], "properties": {"magmom": -0.0}, "label": "Ta", "xyz": [-0.13045846182841653, 1.243875642221114, 1.7606161383328551]}, {"species": [{"element": "Ta", "occu": 1}], "abc": [0.66671449, 0.16671449, 0.83342998], "properties": {"magmom": -0.0}, "label": "Ta", "xyz": [2.6196491708164413, 0.6222055523639461, 2.93470178662404]}, {"species": [{"element": "B", "occu": 1}], "abc": [0.75, 0.75, 0.0], "properties": {"magmom": 0.0}, "label": "B", "xyz": [1.4282129625, 2.792244195, -1.8668931524999992]}, {"species": [{"element": "B", "occu": 1}], "abc": [0.25, 0.25, 0.0], "properties": {"magmom": 0.0}, "label": "B", "xyz": [0.4760709875, 0.930748065, -0.6222977174999997]}]}, "task_ids": null, "uncorrected_energy_per_atom": null, "energy_per_atom": -35.411575275, "formation_energy_per_atom": -0.56823540072222, "energy_above_hull": 0.033650347111112006, "is_stable": false, "equilibrium_reaction_energy_per_atom": null, "decomposes_to": null, "xas": null, "grain_boundaries": null, "band_gap": 0.0, "cbm": null, "vbm": null, "efermi": 6.41356212, "is_gap_direct": null, "is_metal": null, "es_source_calc_id": null, "bandstructure": null, "dos": null, "dos_energy_up": null, "dos_energy_down": null, "is_magnetic": null, "ordering": null, "total_magnetization": 0.0, "total_magnetization_normalized_vol": null, "total_magnetization_normalized_formula_units": null, "num_magnetic_sites": null, "num_unique_magnetic_sites": null, "types_of_magnetic_species": null, "bulk_modulus": null, "shear_modulus": null, "universal_anisotropy": null, "homogeneous_poisson": null, "e_total": null, "e_ionic": null, "e_electronic": null, "n": null, "e_ij_max": null, "weighted_surface_energy_EV_PER_ANG2": null, "weighted_surface_energy": null, "weighted_work_function": null, "surface_anisotropy": null, "shape_factor": null, "has_reconstructed": null, "possible_species": null, "has_props": null, "theoretical": null, "database_IDs": null, "fields_not_requested": ["builder_meta", "nsites", "elements", "nelements", "composition", "composition_reduced", "chemsys", "symmetry", "property_name", "deprecated", "deprecation_reasons", "last_updated", "origins", "warnings", "task_ids", "uncorrected_energy_per_atom", "equilibrium_reaction_energy_per_atom", "decomposes_to", "xas", "grain_boundaries", "cbm", "vbm", "is_gap_direct", "is_metal", "es_source_calc_id", "bandstructure", "dos", "dos_energy_up", "dos_energy_down", "is_magnetic", "ordering", "total_magnetization_normalized_vol", "total_magnetization_normalized_formula_units", "num_magnetic_sites", "num_unique_magnetic_sites", "types_of_magnetic_species", "bulk_modulus", "shear_modulus", "universal_anisotropy", "homogeneous_poisson", "e_total", "e_ionic", "e_electronic", "n", "e_ij_max", "weighted_surface_energy_EV_PER_ANG2", "weighted_surface_energy", "weighted_work_function", "surface_anisotropy", "shape_factor", "has_reconstructed", "possible_species", "has_props", "theoretical", "database_IDs"]}