{"builder_meta": null, "nsites": null, "elements": null, "nelements": null, "composition": null, "composition_reduced": null, "formula_pretty": "Ta2Br5", "formula_anonymous": "A2B5", "chemsys": null, "volume": 5123.167435035977, "density": 5.923026165844063, "density_atomic": 30.49504425616653, "symmetry": null, "property_name": null, "material_id": "mp-680077", "deprecated": null, "deprecation_reasons": null, "last_updated": null, "origins": null, "warnings": null, "structure": {"@module": "pymatgen.core.structure", "@class": "Structure", "charge": 0, "lattice": {"matrix": [[-10.859909, 10.859909, 10.859909], [10.859909, -10.859909, 10.859909], [10.859909, 10.859909, -10.859909]], "pbc": [true, true, true], "a": 18.809914153574518, "b": 18.809914153574518, "c": 18.809914153574518, "alpha": 109.47122063449069, "beta": 109.47122063449069, "gamma": 109.47122063449069, "volume": 5123.167435035977}, "properties": {}, "sites": [{"species": [{"element": "Ta", "occu": 1}], "abc": [0.396113, 0.983622999999999, 0.5244], "properties": {"magmom": 0.0}, "label": "Ta", "xyz": [12.07524141618999, -0.6853688569899914, 9.288871124423991]}, {"species": [{"element": "Ta", "occu": 1}], "abc": [0.41249, 0.016377, 0.040777], "properties": {"magmom": 0.0}, "label": "Ta", "xyz": [-3.8589166244240003, 4.744585643010001, 4.21462208381]}, {"species": [{"element": "Ta", "occu": 1}], "abc": [0.0244, 0.483622999999999, 0.896112999999999], "properties": {"magmom": 0.0}, "label": "Ta", "xyz": [14.718825624423978, 4.744585643010001, -4.21462208381]}, {"species": [{"element": "Ta", "occu": 1}], "abc": [0.959222999999999, 0.871714, 0.9756], "properties": {"magmom": 0.0}, "label": "Ta", "xyz": [9.644587443719011, 11.54526699708099, 9.28888198433299]}, {"species": [{"element": "Ta", "occu": 1}], "abc": [0.371714, 0.41249, 0.896112999999999], "properties": {"magmom": 0.0}, "label": "Ta", "xyz": [10.174529283100991, 9.288881984332988, -1.2153215562809887]}, {"species": [{"element": "Ta", "occu": 1}], "abc": [0.483622999999999, 0.08751, 0.459223], "properties": {"magmom": 0.0}, "label": "Ta", "xyz": [0.6853688569900109, 9.288871124423988, 1.21533241618999]}, {"species": [{"element": "Ta", "occu": 1}], "abc": [0.4756, 0.603887, 0.016377], "properties": {"magmom": 0.0}, "label": "Ta", "xyz": [1.5710378755759988, -1.215332416189999, 11.54527785699]}, {"species": [{"element": "Ta", "occu": 1}], "abc": [0.896112999999999, 0.371714, 0.41249], "properties": {"magmom": 0.0}, "label": "Ta", "xyz": [-1.2153215562809896, 10.174529283100991, 9.28888198433299]}, {"species": [{"element": "Ta", "occu": 1}], "abc": [0.5244, 0.628286, 0.540777], "properties": {"magmom": 0.0}, "label": "Ta", "xyz": [7.000981515667, 4.7445965029189985, 6.645276056281]}, {"species": [{"element": "Ta", "occu": 1}], "abc": [0.540777, 0.5244, 0.628286], "properties": {"magmom": 0.0}, "label": "Ta", "xyz": [6.645276056281, 7.000981515667, 4.744596502918998]}, {"species": [{"element": "Ta", "occu": 1}], "abc": [0.08751, 0.128285999999999, 0.603887], "properties": {"magmom": 0.0}, "label": "Ta", "xyz": [7.000981515666989, 6.115334216899011, -4.21463294371901]}, {"species": [{"element": "Ta", "occu": 1}], "abc": [0.896112999999999, 0.0244, 0.483622999999999], "properties": {"magmom": 0.0}, "label": "Ta", "xyz": [-4.214622083810001, 14.71882562442398, 4.74458564301]}, {"species": [{"element": "Ta", "occu": 1}], "abc": [0.871714, 0.396113, 0.91249], "properties": {"magmom": 0.0}, "label": "Ta", "xyz": [4.744574783100999, 15.074541943719, 3.858927484333]}, {"species": [{"element": "Ta", "occu": 1}], "abc": [0.91249, 0.540777, 0.516377], "properties": {"magmom": 0.0}, "label": "Ta", "xyz": [1.5710378755759997, 9.64457658381, 10.174540143009999]}, {"species": [{"element": "Ta", "occu": 1}], "abc": [0.396113, 0.91249, 0.871714], "properties": {"magmom": 0.0}, "label": "Ta", "xyz": [15.074541943719, 3.858927484333, 4.744574783100999]}, {"species": [{"element": "Ta", "occu": 1}], "abc": [0.959222999999999, 0.5875100000000001, 0.983622999999999], "properties": {"magmom": 0.0}, "label": "Ta", "xyz": [6.645286916190002, 14.718825624423978, 6.11532335699]}, {"species": [{"element": "Ta", "occu": 1}], "abc": [0.371714, 0.459223, 0.4756], "properties": {"magmom": 0.0}, "label": "Ta", "xyz": [6.115312497081001, 4.214632943719001, 3.858927484332999]}, {"species": [{"element": "Ta", "occu": 1}], "abc": [0.5244, 0.396113, 0.983622999999999], "properties": {"magmom": 0.0}, "label": "Ta", "xyz": [9.288871124423991, 12.07524141618999, -0.6853688569899923]}, {"species": [{"element": "Ta", "occu": 1}], "abc": [0.040777, 0.41249, 0.016377], "properties": {"magmom": 0.0}, "label": "Ta", "xyz": [4.21462208381, -3.8589166244240003, 4.744585643010001]}, {"species": [{"element": "Ta", "occu": 1}], "abc": [0.983622999999999, 0.959222999999999, 0.5875100000000001], "properties": {"magmom": 0.0}, "label": "Ta", "xyz": [6.115323356989999, 6.645286916190002, 14.718825624423982]}, {"species": [{"element": "Ta", "occu": 1}], "abc": [0.483622999999999, 0.896112999999999, 0.0244], "properties": {"magmom": 0.0}, "label": "Ta", "xyz": [4.744585643010001, -4.21462208381, 14.71882562442398]}, {"species": [{"element": "Ta", "occu": 1}], "abc": [0.983622999999999, 0.5244, 0.396113], "properties": {"magmom": 0.0}, "label": "Ta", "xyz": [-0.6853688569899914, 9.288871124423991, 12.075241416189991]}, {"species": [{"element": "Ta", "occu": 1}], "abc": [0.628286, 0.5875100000000001, 0.103887], "properties": {"magmom": 0.0}, "label": "Ta", "xyz": [0.6853797168990003, 1.5710270156669996, 12.075230556281001]}, {"species": [{"element": "Ta", "occu": 1}], "abc": [0.08751, 0.459223, 0.483622999999999], "properties": {"magmom": 0.0}, "label": "Ta", "xyz": [9.28887112442399, 1.2153324161899892, 0.68536885699001]}, {"species": [{"element": "Ta", "occu": 1}], "abc": [0.628286, 0.540777, 0.5244], "properties": {"magmom": 0.0}, "label": "Ta", "xyz": [4.7445965029189985, 6.645276056281, 7.000981515667001]}, {"species": [{"element": "Ta", "occu": 1}], "abc": [0.103887, 0.628286, 0.5875100000000001], "properties": {"magmom": 0.0}, "label": "Ta", "xyz": [12.075230556281, 0.6853797168990008, 1.571027015667]}, {"species": [{"element": "Ta", "occu": 1}], "abc": [0.516377, 0.103887, 0.9756], "properties": {"magmom": 0.0}, "label": "Ta", "xyz": [6.11532335699, 15.074531083810001, -3.858916624424001]}, {"species": [{"element": "Ta", "occu": 1}], "abc": [0.871714, 0.9756, 0.959222999999999], "properties": {"magmom": 0.0}, "label": "Ta", "xyz": [11.54526699708099, 9.288881984332988, 9.64458744371901]}, {"species": [{"element": "Ta", "occu": 1}], "abc": [0.0244, 0.040777, 0.128285999999999], "properties": {"magmom": 0.0}, "label": "Ta", "xyz": [1.5710270156669892, 1.2153215562809894, -0.6853579970809893]}, {"species": [{"element": "Ta", "occu": 1}], "abc": [0.603887, 0.08751, 0.128285999999999], "properties": {"magmom": 0.0}, "label": "Ta", "xyz": [-4.21463294371901, 7.0009815156669895, 6.11533421689901]}, {"species": [{"element": "Ta", "occu": 1}], "abc": [0.128285999999999, 0.603887, 0.08751], "properties": {"magmom": 0.0}, "label": "Ta", "xyz": [6.11533421689901, -4.21463294371901, 7.0009815156669895]}, {"species": [{"element": "Ta", "occu": 1}], "abc": [0.040777, 0.128285999999999, 0.0244], "properties": {"magmom": 0.0}, "label": "Ta", "xyz": [1.2153215562809894, -0.6853579970809893, 1.5710270156669892]}, {"species": [{"element": "Ta", "occu": 1}], "abc": [0.603887, 0.016377, 0.4756], "properties": {"magmom": 0.0}, "label": "Ta", "xyz": [-1.215332416189999, 11.545277856990001, 1.5710378755759988]}, {"species": [{"element": "Ta", "occu": 1}], "abc": [0.9756, 0.516377, 0.103887], "properties": {"magmom": 0.0}, "label": "Ta", "xyz": [-3.8589166244240007, 6.11532335699, 15.074531083810001]}, {"species": [{"element": "Ta", "occu": 1}], "abc": [0.516377, 0.91249, 0.540777], "properties": {"magmom": 0.0}, "label": "Ta", "xyz": [10.174540143009999, 1.5710378755759997, 9.64457658381]}, {"species": [{"element": "Ta", "occu": 1}], "abc": [0.9756, 0.959222999999999, 0.871714], "properties": {"magmom": 0.0}, "label": "Ta", "xyz": [9.288881984332988, 9.644587443719011, 11.54526699708099]}, {"species": [{"element": "Ta", "occu": 1}], "abc": [0.128285999999999, 0.0244, 0.040777], "properties": {"magmom": 0.0}, "label": "Ta", "xyz": [-0.6853579970809893, 1.5710270156669892, 1.2153215562809894]}, {"species": [{"element": "Ta", "occu": 1}], "abc": [0.459223, 0.483622999999999, 0.08751], "properties": {"magmom": 0.0}, "label": "Ta", "xyz": [1.2153324161899897, 0.6853688569900105, 9.28887112442399]}, {"species": [{"element": "Ta", "occu": 1}], "abc": [0.103887, 0.9756, 0.516377], "properties": {"magmom": 0.0}, "label": "Ta", "xyz": [15.074531083810001, -3.858916624424001, 6.11532335699]}, {"species": [{"element": "Ta", "occu": 1}], "abc": [0.91249, 0.871714, 0.396113], "properties": {"magmom": 0.0}, "label": "Ta", "xyz": [3.858927484333, 4.744574783100999, 15.074541943719]}, {"species": [{"element": "Ta", "occu": 1}], "abc": [0.5875100000000001, 0.983622999999999, 0.959222999999999], "properties": {"magmom": 0.0}, "label": "Ta", "xyz": [14.718825624423978, 6.115323356989999, 6.645286916190001]}, {"species": [{"element": "Ta", "occu": 1}], "abc": [0.459223, 0.4756, 0.371714], "properties": {"magmom": 0.0}, "label": "Ta", "xyz": [4.214632943719001, 3.858927484332999, 6.115312497081001]}, {"species": [{"element": "Ta", "occu": 1}], "abc": [0.016377, 0.040777, 0.41249], "properties": {"magmom": 0.0}, "label": "Ta", "xyz": [4.744585643010001, 4.21462208381, -3.8589166244240003]}, {"species": [{"element": "Ta", "occu": 1}], "abc": [0.4756, 0.371714, 0.459223], "properties": {"magmom": 0.0}, "label": "Ta", "xyz": [3.858927484332999, 6.115312497081001, 4.214632943719001]}, {"species": [{"element": "Ta", "occu": 1}], "abc": [0.540777, 0.516377, 0.91249], "properties": {"magmom": 0.0}, "label": "Ta", "xyz": [9.64457658381, 10.174540143009999, 1.5710378755759997]}, {"species": [{"element": "Ta", "occu": 1}], "abc": [0.5875100000000001, 0.103887, 0.628286], "properties": {"magmom": 0.0}, "label": "Ta", "xyz": [1.571027015667, 12.075230556281, 0.6853797168990008]}, {"species": [{"element": "Ta", "occu": 1}], "abc": [0.41249, 0.896112999999999, 0.371714], "properties": {"magmom": 0.0}, "label": "Ta", "xyz": [9.288881984332988, -1.2153215562809896, 10.174529283100991]}, {"species": [{"element": "Ta", "occu": 1}], "abc": [0.016377, 0.4756, 0.603887], "properties": {"magmom": 0.0}, "label": "Ta", "xyz": [11.545277856990001, 1.5710378755759988, -1.215332416189999]}, {"species": [{"element": "Br", "occu": 1}], "abc": [0.293396999999999, 0.372718, 0.979514999999999], "properties": {"magmom": 0.0}, "label": "Br", "xyz": [11.498862605924, 9.776024922345979, -3.4034954806]}, {"species": [{"element": "Br", "occu": 1}], "abc": [0.607104, 0.553551999999999, 0.803551999999999], "properties": {"magmom": 0.0}, "label": "Br", "xyz": [8.14493174999998, 9.308071443536, 3.878116943535998]}, {"species": [{"element": "Br", "occu": 1}], "abc": [0.628483, 0.394849, 0.487904], "properties": {"magmom": 0.0}, "label": "Br", "xyz": [2.761349061429999, 7.835837020042001, 5.814699356052001]}, {"species": [{"element": "Br", "occu": 1}], "abc": [0.371517, 0.605151, 0.512096], "properties": {"magmom": 0.0}, "label": "Br", "xyz": [8.098559938570002, 3.0240719799579994, 5.045209643947999]}, {"species": [{"element": "Br", "occu": 1}], "abc": [0.946448, 0.892895999999999, 0.696448], "properties": {"magmom": 0.0}, "label": "Br", "xyz": [6.9817920564639895, 8.14493175000001, 12.411746556463989]}, {"species": [{"element": "Br", "occu": 1}], "abc": [0.105151, 0.871517, 0.012095999999999002], "properties": {"magmom": 0.0}, "label": "Br", "xyz": [8.454026479957989, -8.191303561430011, 10.47516414394801]}, {"species": [{"element": "Br", "occu": 1}], "abc": [0.392895999999999, 0.446447999999999, 0.196447999999999], "properties": {"magmom": 0.0}, "label": "Br", "xyz": [2.71497724999999, 1.5518375564639886, 6.98179205646399]}, {"species": [{"element": "Br", "occu": 1}], "abc": [0.479514999999999, 0.106797999999999, 0.686118999999999], "properties": {"magmom": 0.0}, "label": "Br", "xyz": [3.4035172004179897, 11.49886260592399, -1.0838840776540115]}, {"species": [{"element": "Br", "occu": 1}], "abc": [0.12848299999999901, 0.987904, 0.894849], "properties": {"magmom": 0.0}, "label": "Br", "xyz": [19.051212561430013, 0.3847448560519897, 2.40588252004199]}, {"species": [{"element": "Br", "occu": 1}], "abc": [0.686118999999999, 0.706603, 0.579321], "properties": {"magmom": 0.0}, "label": "Br", "xyz": [6.51382771774501, 6.06891896583299, 8.833460840508991]}, {"species": [{"element": "Br", "occu": 1}], "abc": [0.393202, 0.872718, 0.579321], "properties": {"magmom": 0.0}, "label": "Br", "xyz": [11.498873465833, 1.0838732177449995, 7.456402659491002]}, {"species": [{"element": "Br", "occu": 1}], "abc": [0.512096, 0.371517, 0.605151], "properties": {"magmom": 0.0}, "label": "Br", "xyz": [5.045209643948, 8.098559938570002, 3.0240719799580003]}, {"species": [{"element": "Br", "occu": 1}], "abc": [0.520485, 0.127282, 0.206602999999999], "properties": {"magmom": 0.0}, "label": "Br", "xyz": [-2.0264590194000105, 6.513838577653989, 4.791000894076011]}, {"species": [{"element": "Br", "occu": 1}], "abc": [0.893201999999999, 0.313880999999999, 0.520485], "properties": {"magmom": 0.0}, "label": "Br", "xyz": [-0.6389536059240006, 11.943793077654, 7.456391799581978]}, {"species": [{"element": "Br", "occu": 1}], "abc": [0.605151, 0.512096, 0.371517], "properties": {"magmom": 0.0}, "label": "Br", "xyz": [3.0240719799579994, 5.045209643948, 8.098559938570002]}, {"species": [{"element": "Br", "occu": 1}], "abc": [0.196447999999999, 0.303552, 0.75], "properties": {"magmom": 0.0}, "label": "Br", "xyz": [9.30807144353601, 6.9817920564639895, -2.714977250000011]}, {"species": [{"element": "Br", "occu": 1}], "abc": [0.696448, 0.946448, 0.892895999999999], "properties": {"magmom": 0.0}, "label": "Br", "xyz": [12.41174655646399, 6.9817920564639895, 8.14493175000001]}, {"species": [{"element": "Br", "occu": 1}], "abc": [0.987904, 0.593056, 0.859421], "properties": {"magmom": 0.0}, "label": "Br", "xyz": [5.045220503857, 13.621247201521001, 7.835847879951002]}, {"species": [{"element": "Br", "occu": 1}], "abc": [0.020485, 0.813881, 0.393202], "properties": {"magmom": 0.0}, "label": "Br", "xyz": [12.886346299582002, -4.346070422346, 4.791000894076]}, {"species": [{"element": "Br", "occu": 1}], "abc": [0.793397, 0.479514999999999, 0.872718], "properties": {"magmom": 0.0}, "label": "Br", "xyz": [6.068908105923989, 12.886368019400013, 4.34607042234599]}, {"species": [{"element": "Br", "occu": 1}], "abc": [0.406944, 0.766366, 0.394849], "properties": {"magmom": 0.0}, "label": "Br", "xyz": [8.191314421339001, 0.38473399614299897, 8.454015620048999]}, {"species": [{"element": "Br", "occu": 1}], "abc": [0.733634, 0.093056, 0.105151], "properties": {"magmom": 0.0}, "label": "Br", "xyz": [-5.814688496143001, 8.098549078661, 7.835847879951]}, {"species": [{"element": "Br", "occu": 1}], "abc": [0.872718, 0.579321, 0.393202], "properties": {"magmom": 0.0}, "label": "Br", "xyz": [1.0838732177449995, 7.456402659491001, 11.498873465833]}, {"species": [{"element": "Br", "occu": 1}], "abc": [0.605151, 0.593056, 0.233633999999999], "properties": {"magmom": 0.0}, "label": "Br", "xyz": [2.4058933799509896, 2.668594578660989, 10.475175003857013]}, {"species": [{"element": "Br", "occu": 1}], "abc": [0.871517, 0.359421, 0.766366], "properties": {"magmom": 0.0}, "label": "Br", "xyz": [2.76134906143, 13.883980979958, 5.045209643947999]}, {"species": [{"element": "Br", "occu": 1}], "abc": [0.053551999999999, 0.107103999999999, 0.303552], "properties": {"magmom": 0.0}, "label": "Br", "xyz": [3.878116943536, 2.7149772499999996, -1.5518375564640214]}, {"species": [{"element": "Br", "occu": 1}], "abc": [0.266366, 0.906944, 0.894849], "properties": {"magmom": 0.0}, "label": "Br", "xyz": [16.674597496143, 2.761359921339001, 3.024061120048998]}, {"species": [{"element": "Br", "occu": 1}], "abc": [0.303552, 0.053551999999999, 0.107103999999999], "properties": {"magmom": 0.0}, "label": "Br", "xyz": [-1.5518375564640214, 3.878116943536, 2.7149772499999996]}, {"species": [{"element": "Br", "occu": 1}], "abc": [0.446447999999999, 0.75, 0.053551999999999], "properties": {"magmom": 0.0}, "label": "Br", "xyz": [3.878116943535999, -2.714977250000021, 12.411746556464001]}, {"species": [{"element": "Br", "occu": 1}], "abc": [0.894849, 0.266366, 0.906944], "properties": {"magmom": 0.0}, "label": "Br", "xyz": [3.024061120048999, 16.674597496143, 2.7613599213390003]}, {"species": [{"element": "Br", "occu": 1}], "abc": [0.553551999999999, 0.25, 0.946448], "properties": {"magmom": 0.0}, "label": "Br", "xyz": [6.981792056464011, 13.57488624999999, -1.55183755646401]}, {"species": [{"element": "Br", "occu": 1}], "abc": [0.372718, 0.893201999999999, 0.079321], "properties": {"magmom": 0.0}, "label": "Br", "xyz": [6.51382771774499, -4.79099003416699, 12.88635715949099]}, {"species": [{"element": "Br", "occu": 1}], "abc": [0.75, 0.196447999999999, 0.303552], "properties": {"magmom": 0.0}, "label": "Br", "xyz": [-2.7149772500000107, 9.30807144353601, 6.9817920564639895]}, {"species": [{"element": "Br", "occu": 1}], "abc": [0.75, 0.053551999999999, 0.446447999999999], "properties": {"magmom": 0.0}, "label": "Br", "xyz": [-2.714977250000021, 12.411746556464, 3.878116943535999]}, {"species": [{"element": "Br", "occu": 1}], "abc": [0.106797999999999, 0.686118999999999, 0.479514999999999], "properties": {"magmom": 0.0}, "label": "Br", "xyz": [11.49886260592399, -1.0838840776540115, 3.4035172004179897]}, {"species": [{"element": "Br", "occu": 1}], "abc": [0.053551999999999, 0.446447999999999, 0.75], "properties": {"magmom": 0.0}, "label": "Br", "xyz": [12.411746556464, 3.878116943535999, -2.714977250000021]}, {"species": [{"element": "Br", "occu": 1}], "abc": [0.871517, 0.012095999999999002, 0.105151], "properties": {"magmom": 0.0}, "label": "Br", "xyz": [-8.191303561430011, 10.47516414394801, 8.454026479957989]}, {"species": [{"element": "Br", "occu": 1}], "abc": [0.186118999999999, 0.606798, 0.979514999999999], "properties": {"magmom": 0.0}, "label": "Br", "xyz": [15.205979422346, 6.068908105923979, -2.0264372995819997]}, {"species": [{"element": "Br", "occu": 1}], "abc": [0.706603, 0.579321, 0.686118999999999], "properties": {"magmom": 0.0}, "label": "Br", "xyz": [6.06891896583299, 8.833460840508991, 6.513827717745011]}, {"species": [{"element": "Br", "occu": 1}], "abc": [0.593056, 0.859421, 0.987904], "properties": {"magmom": 0.0}, "label": "Br", "xyz": [13.621247201521001, 7.835847879951001, 5.045220503857001]}, {"species": [{"element": "Br", "occu": 1}], "abc": [0.107103999999999, 0.303552, 0.053551999999999], "properties": {"magmom": 0.0}, "label": "Br", "xyz": [2.7149772499999996, -1.5518375564640214, 3.878116943536]}, {"species": [{"element": "Br", "occu": 1}], "abc": [0.093056, 0.105151, 0.733634], "properties": {"magmom": 0.0}, "label": "Br", "xyz": [8.098549078661, 7.835847879951, -5.814688496143]}, {"species": [{"element": "Br", "occu": 1}], "abc": [0.803551999999999, 0.696448, 0.25], "properties": {"magmom": 0.0}, "label": "Br", "xyz": [1.5518375564640094, 3.8781169435359906, 13.574886249999988]}, {"species": [{"element": "Br", "occu": 1}], "abc": [0.813881, 0.920678999999999, 0.793397], "properties": {"magmom": 0.0}, "label": "Br", "xyz": [9.77603578225499, 7.456402659491012, 10.220944534166987]}, {"species": [{"element": "Br", "occu": 1}], "abc": [0.012095999999999002, 0.105151, 0.871517], "properties": {"magmom": 0.0}, "label": "Br", "xyz": [10.47516414394801, 8.454026479957989, -8.191303561430011]}, {"species": [{"element": "Br", "occu": 1}], "abc": [0.628483, 0.733634, 0.140578999999999], "properties": {"magmom": 0.0}, "label": "Br", "xyz": [2.6686054385699887, 0.3847448560519897, 13.265791520042011]}, {"species": [{"element": "Br", "occu": 1}], "abc": [0.627282, 0.106797999999999, 0.920678999999999], "properties": {"magmom": 0.0}, "label": "Br", "xyz": [4.346081282254978, 15.650899034167, -2.026448159491]}, {"species": [{"element": "Br", "occu": 1}], "abc": [0.371517, 0.266366, 0.859421], "properties": {"magmom": 0.0}, "label": "Br", "xyz": [8.19130356143, 10.475164143948, -2.4058825200420006]}, {"species": [{"element": "Br", "occu": 1}], "abc": [0.606798, 0.127282, 0.420678999999999], "properties": {"magmom": 0.0}, "label": "Br", "xyz": [-0.63896446583301, 9.77603578225499, 3.4035063405090105]}, {"species": [{"element": "Br", "occu": 1}], "abc": [0.206602999999999, 0.520485, 0.127282], "properties": {"magmom": 0.0}, "label": "Br", "xyz": [4.791000894076011, -2.0264590194000105, 6.513838577653989]}, {"species": [{"element": "Br", "occu": 1}], "abc": [0.593056, 0.233633999999999, 0.605151], "properties": {"magmom": 0.0}, "label": "Br", "xyz": [2.668594578660989, 10.47517500385701, 2.4058933799509905]}, {"species": [{"element": "Br", "occu": 1}], "abc": [0.512096, 0.640579, 0.906944], "properties": {"magmom": 0.0}, "label": "Br", "xyz": [11.244642996143, 8.454015620048999, 2.6686162984790016]}, {"species": [{"element": "Br", "occu": 1}], "abc": [0.359421, 0.093056, 0.487904], "properties": {"magmom": 0.0}, "label": "Br", "xyz": [2.4058933799510003, 8.191292701521, -0.38473399614299986]}, {"species": [{"element": "Br", "occu": 1}], "abc": [0.420678999999999, 0.606798, 0.127282], "properties": {"magmom": 0.0}, "label": "Br", "xyz": [3.4035063405090105, -0.6389644658330103, 9.77603578225499]}, {"species": [{"element": "Br", "occu": 1}], "abc": [0.394849, 0.487904, 0.628483], "properties": {"magmom": 0.0}, "label": "Br", "xyz": [7.835837020042001, 5.814699356052, 2.761349061429999]}, {"species": [{"element": "Br", "occu": 1}], "abc": [0.105151, 0.733634, 0.093056], "properties": {"magmom": 0.0}, "label": "Br", "xyz": [7.835847879950999, -5.814688496143, 8.098549078661]}, {"species": [{"element": "Br", "occu": 1}], "abc": [0.553551999999999, 0.803551999999999, 0.607104], "properties": {"magmom": 0.0}, "label": "Br", "xyz": [9.308071443536, 3.878116943535999, 8.14493174999998]}, {"species": [{"element": "Br", "occu": 1}], "abc": [0.487904, 0.628483, 0.394849], "properties": {"magmom": 0.0}, "label": "Br", "xyz": [5.814699356052, 2.761349061429999, 7.835837020042]}, {"species": [{"element": "Br", "occu": 1}], "abc": [0.406944, 0.140578999999999, 0.012095999999999002], "properties": {"magmom": 0.0}, "label": "Br", "xyz": [-2.761338201521021, 3.0240611200489993, 5.814688496142999]}, {"species": [{"element": "Br", "occu": 1}], "abc": [0.487904, 0.359421, 0.093056], "properties": {"magmom": 0.0}, "label": "Br", "xyz": [-0.3847339961430001, 2.4058933799510003, 8.191292701520998]}, {"species": [{"element": "Br", "occu": 1}], "abc": [0.920678999999999, 0.793397, 0.813881], "properties": {"magmom": 0.0}, "label": "Br", "xyz": [7.456402659491012, 10.22094453416699, 9.77603578225499]}, {"species": [{"element": "Br", "occu": 1}], "abc": [0.303552, 0.75, 0.196447999999999], "properties": {"magmom": 0.0}, "label": "Br", "xyz": [6.981792056463989, -2.7149772500000102, 9.308071443536011]}, {"species": [{"element": "Br", "occu": 1}], "abc": [0.793397, 0.813881, 0.920678999999999], "properties": {"magmom": 0.0}, "label": "Br", "xyz": [10.22094453416699, 9.77603578225499, 7.4564026594910136]}, {"species": [{"element": "Br", "occu": 1}], "abc": [0.446447999999999, 0.196447999999999, 0.392895999999999], "properties": {"magmom": 0.0}, "label": "Br", "xyz": [1.5518375564639886, 6.9817920564639895, 2.71497724999999]}, {"species": [{"element": "Br", "occu": 1}], "abc": [0.686118999999999, 0.479514999999999, 0.106797999999999], "properties": {"magmom": 0.0}, "label": "Br", "xyz": [-1.0838840776540113, 3.4035172004179897, 11.498862605923991]}, {"species": [{"element": "Br", "occu": 1}], "abc": [0.106797999999999, 0.920678999999999, 0.627282], "properties": {"magmom": 0.0}, "label": "Br", "xyz": [15.650899034167, -2.026448159491, 4.346081282254978]}, {"species": [{"element": "Br", "occu": 1}], "abc": [0.894849, 0.12848299999999901, 0.987904], "properties": {"magmom": 0.0}, "label": "Br", "xyz": [2.40588252004199, 19.051212561430013, 0.3847448560519897]}, {"species": [{"element": "Br", "occu": 1}], "abc": [0.979514999999999, 0.293396999999999, 0.372718], "properties": {"magmom": 0.0}, "label": "Br", "xyz": [-3.4034954806, 11.498862605924, 9.776024922345979]}, {"species": [{"element": "Br", "occu": 1}], "abc": [0.233633999999999, 0.605151, 0.593056], "properties": {"magmom": 0.0}, "label": "Br", "xyz": [10.47517500385701, 2.4058933799509896, 2.668594578660989]}, {"species": [{"element": "Br", "occu": 1}], "abc": [0.25, 0.803551999999999, 0.696448], "properties": {"magmom": 0.0}, "label": "Br", "xyz": [13.57488624999999, 1.55183755646401, 3.878116943535991]}, {"species": [{"element": "Br", "occu": 1}], "abc": [0.627282, 0.020485, 0.706603], "properties": {"magmom": 0.0}, "label": "Br", "xyz": [1.083884077654, 14.2634044806, -0.6389536059239997]}, {"species": [{"element": "Br", "occu": 1}], "abc": [0.140578999999999, 0.012095999999999002, 0.406944], "properties": {"magmom": 0.0}, "label": "Br", "xyz": [3.0240611200489993, 5.814688496142999, -2.761338201521021]}, {"species": [{"element": "Br", "occu": 1}], "abc": [0.140578999999999, 0.628483, 0.733634], "properties": {"magmom": 0.0}, "label": "Br", "xyz": [13.265791520042011, 2.6686054385699887, 0.3847448560519906]}, {"species": [{"element": "Br", "occu": 1}], "abc": [0.640579, 0.906944, 0.512096], "properties": {"magmom": 0.0}, "label": "Br", "xyz": [8.454015620048999, 2.6686162984790007, 11.244642996143]}, {"species": [{"element": "Br", "occu": 1}], "abc": [0.020485, 0.706603, 0.627282], "properties": {"magmom": 0.0}, "label": "Br", "xyz": [14.2634044806, -0.6389536059239997, 1.083884077654]}, {"species": [{"element": "Br", "occu": 1}], "abc": [0.906944, 0.894849, 0.266366], "properties": {"magmom": 0.0}, "label": "Br", "xyz": [2.761359921339001, 3.024061120048999, 16.674597496143]}, {"species": [{"element": "Br", "occu": 1}], "abc": [0.093056, 0.487904, 0.359421], "properties": {"magmom": 0.0}, "label": "Br", "xyz": [8.191292701521, -0.3847339961430003, 2.405893379951]}, {"species": [{"element": "Br", "occu": 1}], "abc": [0.872718, 0.793397, 0.479514999999999], "properties": {"magmom": 0.0}, "label": "Br", "xyz": [4.346070422345989, 6.068908105923989, 12.886368019400013]}, {"species": [{"element": "Br", "occu": 1}], "abc": [0.946448, 0.553551999999999, 0.25], "properties": {"magmom": 0.0}, "label": "Br", "xyz": [-1.5518375564640103, 6.981792056464011, 13.574886249999988]}, {"species": [{"element": "Br", "occu": 1}], "abc": [0.859421, 0.371517, 0.266366], "properties": {"magmom": 0.0}, "label": "Br", "xyz": [-2.4058825200420006, 8.19130356143, 10.475164143948]}, {"species": [{"element": "Br", "occu": 1}], "abc": [0.127282, 0.206602999999999, 0.520485], "properties": {"magmom": 0.0}, "label": "Br", "xyz": [6.513838577653989, 4.791000894076011, -2.0264590194000105]}, {"species": [{"element": "Br", "occu": 1}], "abc": [0.359421, 0.766366, 0.871517], "properties": {"magmom": 0.0}, "label": "Br", "xyz": [13.883980979958, 5.045209643947999, 2.76134906143]}, {"species": [{"element": "Br", "occu": 1}], "abc": [0.579321, 0.393202, 0.872718], "properties": {"magmom": 0.0}, "label": "Br", "xyz": [7.456402659491001, 11.498873465833, 1.0838732177449995]}, {"species": [{"element": "Br", "occu": 1}], "abc": [0.25, 0.946448, 0.553551999999999], "properties": {"magmom": 0.0}, "label": "Br", "xyz": [13.57488624999999, -1.55183755646401, 6.981792056464011]}, {"species": [{"element": "Br", "occu": 1}], "abc": [0.393202, 0.020485, 0.813881], "properties": {"magmom": 0.0}, "label": "Br", "xyz": [4.791000894076, 12.886346299582002, -4.346070422346]}, {"species": [{"element": "Br", "occu": 1}], "abc": [0.420678999999999, 0.313880999999999, 0.293396999999999], "properties": {"magmom": 0.0}, "label": "Br", "xyz": [2.026448159490989, 4.346081282254989, 4.79099003416699]}, {"species": [{"element": "Br", "occu": 1}], "abc": [0.766366, 0.871517, 0.359421], "properties": {"magmom": 0.0}, "label": "Br", "xyz": [5.045209643947999, 2.7613490614300003, 13.883980979958002]}, {"species": [{"element": "Br", "occu": 1}], "abc": [0.893201999999999, 0.079321, 0.372718], "properties": {"magmom": 0.0}, "label": "Br", "xyz": [-4.79099003416699, 12.88635715949099, 6.51382771774499]}, {"species": [{"element": "Br", "occu": 1}], "abc": [0.906944, 0.512096, 0.640579], "properties": {"magmom": 0.0}, "label": "Br", "xyz": [2.6686162984790007, 11.244642996143, 8.454015620048999]}, {"species": [{"element": "Br", "occu": 1}], "abc": [0.012095999999999002, 0.406944, 0.140578999999999], "properties": {"magmom": 0.0}, "label": "Br", "xyz": [5.814688496142999, -2.7613382015210206, 3.0240611200489997]}, {"species": [{"element": "Br", "occu": 1}], "abc": [0.372718, 0.979514999999999, 0.293396999999999], "properties": {"magmom": 0.0}, "label": "Br", "xyz": [9.776024922345979, -3.4034954806, 11.498862605924]}, {"species": [{"element": "Br", "occu": 1}], "abc": [0.813881, 0.393202, 0.020485], "properties": {"magmom": 0.0}, "label": "Br", "xyz": [-4.346070422346, 4.791000894076, 12.886346299582]}, {"species": [{"element": "Br", "occu": 1}], "abc": [0.12848299999999901, 0.640579, 0.233633999999999], "properties": {"magmom": 0.0}, "label": "Br", "xyz": [8.09855993857, -3.0240719799580216, 5.8146993560519995]}, {"species": [{"element": "Br", "occu": 1}], "abc": [0.803551999999999, 0.607104, 0.553551999999999], "properties": {"magmom": 0.0}, "label": "Br", "xyz": [3.878116943535999, 8.14493174999998, 9.308071443535999]}, {"species": [{"element": "Br", "occu": 1}], "abc": [0.206602999999999, 0.186118999999999, 0.079321], "properties": {"magmom": 0.0}, "label": "Br", "xyz": [0.638964465833, 1.0838732177450001, 3.4035063405089794]}, {"species": [{"element": "Br", "occu": 1}], "abc": [0.394849, 0.406944, 0.766366], "properties": {"magmom": 0.0}, "label": "Br", "xyz": [8.454015620048999, 8.191314421339001, 0.3847339961429981]}, {"species": [{"element": "Br", "occu": 1}], "abc": [0.079321, 0.206602999999999, 0.186118999999999], "properties": {"magmom": 0.0}, "label": "Br", "xyz": [3.4035063405089785, 0.638964465833, 1.083873217745]}, {"species": [{"element": "Br", "occu": 1}], "abc": [0.293396999999999, 0.420678999999999, 0.313880999999999], "properties": {"magmom": 0.0}, "label": "Br", "xyz": [4.79099003416699, 2.026448159490989, 4.346081282254989]}, {"species": [{"element": "Br", "occu": 1}], "abc": [0.979514999999999, 0.186118999999999, 0.606798], "properties": {"magmom": 0.0}, "label": "Br", "xyz": [-2.0264372995820006, 15.205979422346001, 6.0689081059239784]}, {"species": [{"element": "Br", "occu": 1}], "abc": [0.313880999999999, 0.520485, 0.893201999999999], "properties": {"magmom": 0.0}, "label": "Br", "xyz": [11.943793077654, 7.456391799581979, -0.6389536059239997]}, {"species": [{"element": "Br", "occu": 1}], "abc": [0.920678999999999, 0.627282, 0.106797999999999], "properties": {"magmom": 0.0}, "label": "Br", "xyz": [-2.026448159491, 4.346081282254978, 15.650899034167002]}, {"species": [{"element": "Br", "occu": 1}], "abc": [0.892895999999999, 0.696448, 0.946448], "properties": {"magmom": 0.0}, "label": "Br", "xyz": [8.14493175000001, 12.41174655646399, 6.981792056463991]}, {"species": [{"element": "Br", "occu": 1}], "abc": [0.079321, 0.372718, 0.893201999999999], "properties": {"magmom": 0.0}, "label": "Br", "xyz": [12.88635715949099, 6.51382771774499, -4.79099003416699]}, {"species": [{"element": "Br", "occu": 1}], "abc": [0.196447999999999, 0.392895999999999, 0.446447999999999], "properties": {"magmom": 0.0}, "label": "Br", "xyz": [6.9817920564639895, 2.71497724999999, 1.5518375564639886]}, {"species": [{"element": "Br", "occu": 1}], "abc": [0.479514999999999, 0.872718, 0.793397], "properties": {"magmom": 0.0}, "label": "Br", "xyz": [12.886368019400013, 4.346070422345989, 6.06890810592399]}, {"species": [{"element": "Br", "occu": 1}], "abc": [0.859421, 0.987904, 0.593056], "properties": {"magmom": 0.0}, "label": "Br", "xyz": [7.835847879951001, 5.045220503857, 13.621247201521001]}, {"species": [{"element": "Br", "occu": 1}], "abc": [0.579321, 0.686118999999999, 0.706603], "properties": {"magmom": 0.0}, "label": "Br", "xyz": [8.833460840508991, 6.51382771774501, 6.068918965832989]}, {"species": [{"element": "Br", "occu": 1}], "abc": [0.640579, 0.233633999999999, 0.12848299999999901], "properties": {"magmom": 0.0}, "label": "Br", "xyz": [-3.024071979958021, 5.8146993560519995, 8.098559938569998]}, {"species": [{"element": "Br", "occu": 1}], "abc": [0.520485, 0.893201999999999, 0.313880999999999], "properties": {"magmom": 0.0}, "label": "Br", "xyz": [7.456391799581979, -0.6389536059240002, 11.943793077654]}, {"species": [{"element": "Br", "occu": 1}], "abc": [0.127282, 0.420678999999999, 0.606798], "properties": {"magmom": 0.0}, "label": "Br", "xyz": [9.77603578225499, 3.4035063405090105, -0.63896446583301]}, {"species": [{"element": "Br", "occu": 1}], "abc": [0.766366, 0.394849, 0.406944], "properties": {"magmom": 0.0}, "label": "Br", "xyz": [0.38473399614299897, 8.454015620048999, 8.191314421339001]}, {"species": [{"element": "Br", "occu": 1}], "abc": [0.987904, 0.894849, 0.12848299999999901], "properties": {"magmom": 0.0}, "label": "Br", "xyz": [0.38474485605198927, 2.4058825200419895, 19.051212561430013]}, {"species": [{"element": "Br", "occu": 1}], "abc": [0.706603, 0.627282, 0.020485], "properties": {"magmom": 0.0}, "label": "Br", "xyz": [-0.6389536059239999, 1.083884077654, 14.2634044806]}, {"species": [{"element": "Br", "occu": 1}], "abc": [0.696448, 0.25, 0.803551999999999], "properties": {"magmom": 0.0}, "label": "Br", "xyz": [3.878116943535991, 13.57488624999999, 1.55183755646401]}, {"species": [{"element": "Br", "occu": 1}], "abc": [0.266366, 0.859421, 0.371517], "properties": {"magmom": 0.0}, "label": "Br", "xyz": [10.475164143948, -2.4058825200420006, 8.19130356143]}, {"species": [{"element": "Br", "occu": 1}], "abc": [0.606798, 0.979514999999999, 0.186118999999999], "properties": {"magmom": 0.0}, "label": "Br", "xyz": [6.068908105923979, -2.026437299582, 15.205979422346]}, {"species": [{"element": "Br", "occu": 1}], "abc": [0.733634, 0.140578999999999, 0.628483], "properties": {"magmom": 0.0}, "label": "Br", "xyz": [0.3847448560519897, 13.265791520042011, 2.6686054385699878]}, {"species": [{"element": "Br", "occu": 1}], "abc": [0.233633999999999, 0.12848299999999901, 0.640579], "properties": {"magmom": 0.0}, "label": "Br", "xyz": [5.8146993560519995, 8.09855993857, -3.024071979958021]}, {"species": [{"element": "Br", "occu": 1}], "abc": [0.186118999999999, 0.079321, 0.206602999999999], "properties": {"magmom": 0.0}, "label": "Br", "xyz": [1.0838732177450001, 3.4035063405089785, 0.6389644658330003]}, {"species": [{"element": "Br", "occu": 1}], "abc": [0.313880999999999, 0.293396999999999, 0.420678999999999], "properties": {"magmom": 0.0}, "label": "Br", "xyz": [4.346081282254989, 4.79099003416699, 2.0264481594909887]}]}, "task_ids": null, "uncorrected_energy_per_atom": null, "energy_per_atom": -5.846856105535714, "formation_energy_per_atom": -1.287057854059523, "energy_above_hull": 0.0, "is_stable": true, "equilibrium_reaction_energy_per_atom": null, "decomposes_to": null, "xas": null, "grain_boundaries": null, "band_gap": 0.07540000000000001, "cbm": null, "vbm": null, "efermi": 1.84997767, "is_gap_direct": null, "is_metal": null, "es_source_calc_id": null, "bandstructure": null, "dos": null, "dos_energy_up": null, "dos_energy_down": null, "is_magnetic": null, "ordering": null, "total_magnetization": 0.0027697, "total_magnetization_normalized_vol": null, "total_magnetization_normalized_formula_units": null, "num_magnetic_sites": null, "num_unique_magnetic_sites": null, "types_of_magnetic_species": null, "bulk_modulus": null, "shear_modulus": null, "universal_anisotropy": null, "homogeneous_poisson": null, "e_total": null, "e_ionic": null, "e_electronic": null, "n": null, "e_ij_max": null, "weighted_surface_energy_EV_PER_ANG2": null, "weighted_surface_energy": null, "weighted_work_function": null, "surface_anisotropy": null, "shape_factor": null, "has_reconstructed": null, "possible_species": null, "has_props": null, "theoretical": null, "database_IDs": null, "fields_not_requested": ["builder_meta", "nsites", "elements", "nelements", "composition", "composition_reduced", "chemsys", "symmetry", "property_name", "deprecated", "deprecation_reasons", "last_updated", "origins", "warnings", "task_ids", "uncorrected_energy_per_atom", "equilibrium_reaction_energy_per_atom", "decomposes_to", "xas", "grain_boundaries", "cbm", "vbm", "is_gap_direct", "is_metal", "es_source_calc_id", "bandstructure", "dos", "dos_energy_up", "dos_energy_down", "is_magnetic", "ordering", "total_magnetization_normalized_vol", "total_magnetization_normalized_formula_units", "num_magnetic_sites", "num_unique_magnetic_sites", "types_of_magnetic_species", "bulk_modulus", "shear_modulus", "universal_anisotropy", "homogeneous_poisson", "e_total", "e_ionic", "e_electronic", "n", "e_ij_max", "weighted_surface_energy_EV_PER_ANG2", "weighted_surface_energy", "weighted_work_function", "surface_anisotropy", "shape_factor", "has_reconstructed", "possible_species", "has_props", "theoretical", "database_IDs"]}