{
  "builder_meta": null,
  "nsites": null,
  "elements": null,
  "nelements": null,
  "composition": null,
  "composition_reduced": null,
  "formula_pretty": "Ta2Be",
  "formula_anonymous": "AB2",
  "chemsys": null,
  "volume": 88.79836657783719,
  "density": 13.872037325446222,
  "density_atomic": 14.799727762972864,
  "symmetry": null,
  "property_name": null,
  "material_id": "mp-11278",
  "deprecated": null,
  "deprecation_reasons": null,
  "last_updated": null,
  "origins": null,
  "warnings": null,
  "structure": {
    "@module": "pymatgen.core.structure",
    "@class": "Structure",
    "charge": 0,
    "lattice": {
      "matrix": [
        [4.24923292, -0.0, 2.44472506],
        [2.12461595, 4.25600392, 1.22236253],
        [0.00219832, 0.0, 4.91138832]
      ],
      "pbc": [true, true, true],
      "a": 4.902311804384103,
      "b": 4.911388037693395,
      "c": 4.911388811980095,
      "alpha": 75.57710452926793,
      "beta": 60.061104579435735,
      "gamma": 60.06111841446162,
      "volume": 88.79836657783719
    },
    "properties": {},
    "sites": [
      {
        "species": [{ "element": "Ta", "occu": 1 }],
        "abc": [0.16019979, 0.5, 0.17959943],
        "properties": { "magmom": -0.0 },
        "label": "Ta",
        "xyz": [1.7434290134640442, 2.12800196, 1.8849082490003952]
      },
      {
        "species": [{ "element": "Ta", "occu": 1 }],
        "abc": [0.33979921, 0.82040057, 0.5],
        "properties": { "magmom": -0.0 },
        "label": "Ta",
        "xyz": [3.1880212857330843, 3.491628041890235, 4.289236720413845]
      },
      {
        "species": [{ "element": "Ta", "occu": 1 }],
        "abc": [0.6601997900000001, 0.17959943, 0.5],
        "properties": { "magmom": -0.0 },
        "label": "Ta",
        "xyz": [3.1880216550339955, 0.7643758781097657, 4.289236744861096]
      },
      {
        "species": [{ "element": "Ta", "occu": 1 }],
        "abc": [0.83980021, 0.5, 0.82040057],
        "properties": { "magmom": -0.0 },
        "label": "Ta",
        "xyz": [4.6326181765359555, 2.12800196, 6.693567660999605]
      },
      {
        "species": [{ "element": "Be", "occu": 1 }],
        "abc": [0.25, -0.0, 0.0],
        "properties": { "magmom": -0.0 },
        "label": "Be",
        "xyz": [1.06230823, 0.0, 0.611181265]
      },
      {
        "species": [{ "element": "Be", "occu": 1 }],
        "abc": [0.75, -0.0, 0.0],
        "properties": { "magmom": -0.0 },
        "label": "Be",
        "xyz": [3.1869246899999997, 0.0, 1.8335437950000002]
      }
    ]
  },
  "task_ids": null,
  "uncorrected_energy_per_atom": null,
  "energy_per_atom": -9.311947861666667,
  "formation_energy_per_atom": -0.15419187822222202,
  "energy_above_hull": 0.0,
  "is_stable": true,
  "equilibrium_reaction_energy_per_atom": null,
  "decomposes_to": null,
  "xas": null,
  "grain_boundaries": null,
  "band_gap": 0.0,
  "cbm": null,
  "vbm": null,
  "efermi": 4.96184116,
  "is_gap_direct": null,
  "is_metal": null,
  "es_source_calc_id": null,
  "bandstructure": null,
  "dos": null,
  "dos_energy_up": null,
  "dos_energy_down": null,
  "is_magnetic": null,
  "ordering": null,
  "total_magnetization": 9e-7,
  "total_magnetization_normalized_vol": null,
  "total_magnetization_normalized_formula_units": null,
  "num_magnetic_sites": null,
  "num_unique_magnetic_sites": null,
  "types_of_magnetic_species": null,
  "bulk_modulus": null,
  "shear_modulus": null,
  "universal_anisotropy": null,
  "homogeneous_poisson": null,
  "e_total": null,
  "e_ionic": null,
  "e_electronic": null,
  "n": null,
  "e_ij_max": null,
  "weighted_surface_energy_EV_PER_ANG2": null,
  "weighted_surface_energy": null,
  "weighted_work_function": null,
  "surface_anisotropy": null,
  "shape_factor": null,
  "has_reconstructed": null,
  "possible_species": null,
  "has_props": null,
  "theoretical": null,
  "database_IDs": null,
  "fields_not_requested": [
    "builder_meta",
    "nsites",
    "elements",
    "nelements",
    "composition",
    "composition_reduced",
    "chemsys",
    "symmetry",
    "property_name",
    "deprecated",
    "deprecation_reasons",
    "last_updated",
    "origins",
    "warnings",
    "task_ids",
    "uncorrected_energy_per_atom",
    "equilibrium_reaction_energy_per_atom",
    "decomposes_to",
    "xas",
    "grain_boundaries",
    "cbm",
    "vbm",
    "is_gap_direct",
    "is_metal",
    "es_source_calc_id",
    "bandstructure",
    "dos",
    "dos_energy_up",
    "dos_energy_down",
    "is_magnetic",
    "ordering",
    "total_magnetization_normalized_vol",
    "total_magnetization_normalized_formula_units",
    "num_magnetic_sites",
    "num_unique_magnetic_sites",
    "types_of_magnetic_species",
    "bulk_modulus",
    "shear_modulus",
    "universal_anisotropy",
    "homogeneous_poisson",
    "e_total",
    "e_ionic",
    "e_electronic",
    "n",
    "e_ij_max",
    "weighted_surface_energy_EV_PER_ANG2",
    "weighted_surface_energy",
    "weighted_work_function",
    "surface_anisotropy",
    "shape_factor",
    "has_reconstructed",
    "possible_species",
    "has_props",
    "theoretical",
    "database_IDs"
  ]
}
