{
  "builder_meta": null,
  "nsites": null,
  "elements": null,
  "nelements": null,
  "composition": null,
  "composition_reduced": null,
  "formula_pretty": "Ta2Co",
  "formula_anonymous": "AB2",
  "chemsys": null,
  "volume": 91.90798294494512,
  "density": 15.20657722523519,
  "density_atomic": 15.317997157490852,
  "symmetry": null,
  "property_name": null,
  "material_id": "mp-574",
  "deprecated": null,
  "deprecation_reasons": null,
  "last_updated": null,
  "origins": null,
  "warnings": null,
  "structure": {
    "@module": "pymatgen.core.structure",
    "@class": "Structure",
    "charge": 0,
    "lattice": {
      "matrix": [
        [4.30476323, -0.0, 2.47496384],
        [2.15238111, 4.30223435, 1.23748192],
        [0.00802098, -0.0, 4.96721876]
      ],
      "pbc": [true, true, true],
      "a": 4.965524390803813,
      "b": 4.967225216087111,
      "c": 4.96722523606652,
      "alpha": 75.53261813126124,
      "beta": 60.011328989594084,
      "gamma": 60.0113320005114,
      "volume": 91.90798294494512
    },
    "properties": {},
    "sites": [
      {
        "species": [{ "element": "Ta", "occu": 1 }],
        "abc": [0.16135435, 0.5, 0.17729231],
        "properties": { "magmom": 0.0 },
        "label": "Ta",
        "xyz": [1.7722048859532142, 2.151117175, 1.8987368299124396]
      },
      {
        "species": [{ "element": "Ta", "occu": 1 }],
        "abc": [0.33864565, 0.82270769, 0.5],
        "properties": { "magmom": 0.0 },
        "label": "Ta",
        "xyz": [3.2325803231271855, 3.5394812839271514, 4.339831010143261]
      },
      {
        "species": [{ "element": "Ta", "occu": 1 }],
        "abc": [0.66135435, 0.17729231, 0.5],
        "properties": { "magmom": 0.0 },
        "label": "Ta",
        "xyz": [3.2325849968728146, 0.7627530660728485, 4.339833509856739]
      },
      {
        "species": [{ "element": "Ta", "occu": 1 }],
        "abc": [0.83864565, 0.5, 0.82270769],
        "properties": { "magmom": 0.0 },
        "label": "Ta",
        "xyz": [4.692960434046786, 2.151117175, 6.78092769008756]
      },
      {
        "species": [{ "element": "Co", "occu": 1 }],
        "abc": [0.25, 0.0, -0.0],
        "properties": { "magmom": 0.0 },
        "label": "Co",
        "xyz": [1.0761908075, 0.0, 0.61874096]
      },
      {
        "species": [{ "element": "Co", "occu": 1 }],
        "abc": [0.75, 0.0, 0.0],
        "properties": { "magmom": 0.0 },
        "label": "Co",
        "xyz": [3.2285724225, 0.0, 1.85622288]
      }
    ]
  },
  "task_ids": null,
  "uncorrected_energy_per_atom": null,
  "energy_per_atom": -10.523885839999997,
  "formation_energy_per_atom": -0.234795238222217,
  "energy_above_hull": 0.0,
  "is_stable": true,
  "equilibrium_reaction_energy_per_atom": null,
  "decomposes_to": null,
  "xas": null,
  "grain_boundaries": null,
  "band_gap": 0.0,
  "cbm": null,
  "vbm": null,
  "efermi": 5.61211459,
  "is_gap_direct": null,
  "is_metal": null,
  "es_source_calc_id": null,
  "bandstructure": null,
  "dos": null,
  "dos_energy_up": null,
  "dos_energy_down": null,
  "is_magnetic": null,
  "ordering": null,
  "total_magnetization": 0.0,
  "total_magnetization_normalized_vol": null,
  "total_magnetization_normalized_formula_units": null,
  "num_magnetic_sites": null,
  "num_unique_magnetic_sites": null,
  "types_of_magnetic_species": null,
  "bulk_modulus": null,
  "shear_modulus": null,
  "universal_anisotropy": null,
  "homogeneous_poisson": null,
  "e_total": null,
  "e_ionic": null,
  "e_electronic": null,
  "n": null,
  "e_ij_max": null,
  "weighted_surface_energy_EV_PER_ANG2": null,
  "weighted_surface_energy": null,
  "weighted_work_function": null,
  "surface_anisotropy": null,
  "shape_factor": null,
  "has_reconstructed": null,
  "possible_species": null,
  "has_props": null,
  "theoretical": null,
  "database_IDs": null,
  "fields_not_requested": [
    "builder_meta",
    "nsites",
    "elements",
    "nelements",
    "composition",
    "composition_reduced",
    "chemsys",
    "symmetry",
    "property_name",
    "deprecated",
    "deprecation_reasons",
    "last_updated",
    "origins",
    "warnings",
    "task_ids",
    "uncorrected_energy_per_atom",
    "equilibrium_reaction_energy_per_atom",
    "decomposes_to",
    "xas",
    "grain_boundaries",
    "cbm",
    "vbm",
    "is_gap_direct",
    "is_metal",
    "es_source_calc_id",
    "bandstructure",
    "dos",
    "dos_energy_up",
    "dos_energy_down",
    "is_magnetic",
    "ordering",
    "total_magnetization_normalized_vol",
    "total_magnetization_normalized_formula_units",
    "num_magnetic_sites",
    "num_unique_magnetic_sites",
    "types_of_magnetic_species",
    "bulk_modulus",
    "shear_modulus",
    "universal_anisotropy",
    "homogeneous_poisson",
    "e_total",
    "e_ionic",
    "e_electronic",
    "n",
    "e_ij_max",
    "weighted_surface_energy_EV_PER_ANG2",
    "weighted_surface_energy",
    "weighted_work_function",
    "surface_anisotropy",
    "shape_factor",
    "has_reconstructed",
    "possible_species",
    "has_props",
    "theoretical",
    "database_IDs"
  ]
}
