{
  "builder_meta": null,
  "nsites": null,
  "elements": null,
  "nelements": null,
  "composition": null,
  "composition_reduced": null,
  "formula_pretty": "Ta2I5",
  "formula_anonymous": "A2B5",
  "chemsys": null,
  "volume": 361.72286518344924,
  "density": 4.574195765820895,
  "density_atomic": 51.67469502620703,
  "symmetry": null,
  "property_name": null,
  "material_id": "mp-32554",
  "deprecated": null,
  "deprecation_reasons": null,
  "last_updated": null,
  "origins": null,
  "warnings": null,
  "structure": {
    "@module": "pymatgen.core.structure",
    "@class": "Structure",
    "charge": 0,
    "lattice": {
      "matrix": [
        [6.477347, 0.0, 0.0],
        [1.964815, 6.189323, 0.0],
        [0.545215, 0.573292, 9.022682]
      ],
      "pbc": [true, true, true],
      "a": 6.477347,
      "b": 6.4937059667461074,
      "c": 9.05730167249678,
      "alpha": 85.49518384115098,
      "beta": 86.54892635042674,
      "gamma": 72.3878379690977,
      "volume": 361.72286518344924
    },
    "properties": {},
    "sites": [
      {
        "species": [{ "element": "Ta", "occu": 1 }],
        "abc": [0.690925, 0.571025, 0.950334999999999],
        "properties": { "magmom": 0.356 },
        "label": "Ta",
        "xyz": [6.115456358374999, 4.079077618894999, 8.57457049846999]
      },
      {
        "species": [{ "element": "Ta", "occu": 1 }],
        "abc": [0.340653999999999, 0.923466999999999, 0.950766999999999],
        "properties": { "magmom": 0.355 },
        "label": "Ta",
        "xyz": [4.5393484084479905, 6.260702657804994, 8.578468297093991]
      },
      {
        "species": [{ "element": "I", "occu": 1 }],
        "abc": [0.002725999999999, 0.228887999999999, 0.135738],
        "properties": { "magmom": -0.005 },
        "label": "I",
        "xyz": [0.5413862173119917, 1.494479272319994, 1.224720809316]
      },
      {
        "species": [{ "element": "I", "occu": 1 }],
        "abc": [0.514169, 0.260053, 0.852696999999999],
        "properties": { "magmom": -0.003 },
        "label": "I",
        "xyz": [4.306310259692999, 2.098396382642999, 7.693613873353991]
      },
      {
        "species": [{ "element": "I", "occu": 1 }],
        "abc": [0.512242, 0.733297, 0.21355000000000002],
        "properties": { "magmom": -0.001 },
        "label": "I",
        "xyz": [4.875192790279, 4.661038494531, 1.9267937411]
      },
      {
        "species": [{ "element": "I", "occu": 1 }],
        "abc": [0.532558, 0.772524, 0.673972999999999],
        "properties": { "magmom": -0.004 },
        "label": "I",
        "xyz": [5.334889895880999, 5.167783890368, 6.081044055585991]
      },
      {
        "species": [{ "element": "I", "occu": 1 }],
        "abc": [0.018326, 0.760745, 0.859638999999999],
        "properties": { "magmom": -0.002 },
        "label": "I",
        "xyz": [2.0821151256819994, 5.201320687222999, 7.756249331797991]
      }
    ]
  },
  "task_ids": null,
  "uncorrected_energy_per_atom": null,
  "energy_per_atom": -4.782017217142857,
  "formation_energy_per_atom": -0.30288605138095104,
  "energy_above_hull": 0.438964812834826,
  "is_stable": false,
  "equilibrium_reaction_energy_per_atom": null,
  "decomposes_to": null,
  "xas": null,
  "grain_boundaries": null,
  "band_gap": 0.0,
  "cbm": null,
  "vbm": null,
  "efermi": 1.94957717,
  "is_gap_direct": null,
  "is_metal": null,
  "es_source_calc_id": null,
  "bandstructure": null,
  "dos": null,
  "dos_energy_up": null,
  "dos_energy_down": null,
  "is_magnetic": null,
  "ordering": null,
  "total_magnetization": 0.9900625999999991,
  "total_magnetization_normalized_vol": null,
  "total_magnetization_normalized_formula_units": null,
  "num_magnetic_sites": null,
  "num_unique_magnetic_sites": null,
  "types_of_magnetic_species": null,
  "bulk_modulus": null,
  "shear_modulus": null,
  "universal_anisotropy": null,
  "homogeneous_poisson": null,
  "e_total": null,
  "e_ionic": null,
  "e_electronic": null,
  "n": null,
  "e_ij_max": null,
  "weighted_surface_energy_EV_PER_ANG2": null,
  "weighted_surface_energy": null,
  "weighted_work_function": null,
  "surface_anisotropy": null,
  "shape_factor": null,
  "has_reconstructed": null,
  "possible_species": null,
  "has_props": null,
  "theoretical": null,
  "database_IDs": null,
  "fields_not_requested": [
    "builder_meta",
    "nsites",
    "elements",
    "nelements",
    "composition",
    "composition_reduced",
    "chemsys",
    "symmetry",
    "property_name",
    "deprecated",
    "deprecation_reasons",
    "last_updated",
    "origins",
    "warnings",
    "task_ids",
    "uncorrected_energy_per_atom",
    "equilibrium_reaction_energy_per_atom",
    "decomposes_to",
    "xas",
    "grain_boundaries",
    "cbm",
    "vbm",
    "is_gap_direct",
    "is_metal",
    "es_source_calc_id",
    "bandstructure",
    "dos",
    "dos_energy_up",
    "dos_energy_down",
    "is_magnetic",
    "ordering",
    "total_magnetization_normalized_vol",
    "total_magnetization_normalized_formula_units",
    "num_magnetic_sites",
    "num_unique_magnetic_sites",
    "types_of_magnetic_species",
    "bulk_modulus",
    "shear_modulus",
    "universal_anisotropy",
    "homogeneous_poisson",
    "e_total",
    "e_ionic",
    "e_electronic",
    "n",
    "e_ij_max",
    "weighted_surface_energy_EV_PER_ANG2",
    "weighted_surface_energy",
    "weighted_work_function",
    "surface_anisotropy",
    "shape_factor",
    "has_reconstructed",
    "possible_species",
    "has_props",
    "theoretical",
    "database_IDs"
  ]
}
