{"builder_meta": null, "nsites": null, "elements": null, "nelements": null, "composition": null, "composition_reduced": null, "formula_pretty": "Ta2N", "formula_anonymous": "AB2", "chemsys": null, "volume": 119.99852979935649, "density": 15.605209191431054, "density_atomic": 13.333169977706277, "symmetry": null, "property_name": null, "material_id": "mp-1079438", "deprecated": null, "deprecation_reasons": null, "last_updated": null, "origins": null, "warnings": null, "structure": {"@module": "pymatgen.core.structure", "@class": "Structure", "charge": 0, "lattice": {"matrix": [[-1.7420000000000003e-05, 2.7690000000000004e-05, -4.93918257], [-2.64829845, -4.58696882, 1.783e-05], [-2.64828174, 4.5869583800000004, -3.9820000000000015e-05]], "pbc": [true, true, true], "a": 4.939182570108337, "b": 5.296580749525348, "c": 5.2965633533316, "alpha": 119.99989834066756, "beta": 89.99919003043087, "gamma": 90.00037001421678, "volume": 119.99852979935652}, "properties": {}, "sites": [{"species": [{"element": "Ta", "occu": 1}], "abc": [0.24638174000000002, 0.33365577, 0.33366287], "properties": {"magmom": 0.0}, "label": "Ta", "xyz": [-1.7672576364314612, 3.5906348639702657e-05, -1.2169317331473761]}, {"species": [{"element": "Ta", "occu": 1}], "abc": [0.24638146, 0.66634379, 7.55e-06], "properties": {"magmom": 0.0}, "label": "Ta", "xyz": [-1.7647015127162957, -3.0564567342922317, -1.2169111321940174]}, {"species": [{"element": "Ta", "occu": 1}], "abc": [0.24639401, 4.4e-07, 0.6663577900000001], "properties": {"magmom": -0.0}, "label": "Ta", "xyz": [-1.7647086249987267, 3.056560253302637, -1.2170115339037582]}, {"species": [{"element": "Ta", "occu": 1}], "abc": [0.7536182300000001, 0.66634624, 0.66633693], "properties": {"magmom": -0.0}, "label": "Ta", "xyz": [-3.529344766991553, -2.8793548474403963e-05, -3.722272678633345]}, {"species": [{"element": "Ta", "occu": 1}], "abc": [0.7536185200000001, 0.33365424, 0.99999021], "properties": {"magmom": 0.0}, "label": "Ta", "xyz": [-3.5318849479843117, 3.056472745833482, -3.7222933289682594]}, {"species": [{"element": "Ta", "occu": 1}], "abc": [0.7536063900000001, 0.99999952, 0.3336438], "properties": {"magmom": -0.0}, "label": "Ta", "xyz": [-3.5318930898442695, -3.0565355265489837, -3.722195001833297]}, {"species": [{"element": "N", "occu": 1}], "abc": [0.4999994, 0.66665743, 0.33332905], "properties": {"magmom": -0.0}, "label": "N", "xyz": [-2.6482657850660782, -1.5289565208530076, -2.469589708151252]}, {"species": [{"element": "N", "occu": 1}], "abc": [0.4999994, 0.3333426, 0.66667243], "properties": {"magmom": 0.0}, "label": "N", "xyz": [-2.648335823818946, 1.5289804219091176, -2.469608924888062]}, {"species": [{"element": "N", "occu": 1}], "abc": [8.4e-07, -3.0000000000000004e-08, 0.99999835], "properties": {"magmom": 0.0}, "label": "N", "xyz": [-2.648277290900808, 4.586950949150998, -4.396884819070002e-05]}]}, "task_ids": null, "uncorrected_energy_per_atom": null, "energy_per_atom": -36.46538653444444, "formation_energy_per_atom": -1.027914502250003, "energy_above_hull": 0.0, "is_stable": true, "equilibrium_reaction_energy_per_atom": null, "decomposes_to": null, "xas": null, "grain_boundaries": null, "band_gap": 0.0, "cbm": null, "vbm": null, "efermi": 7.3410652800000005, "is_gap_direct": null, "is_metal": null, "es_source_calc_id": null, "bandstructure": null, "dos": null, "dos_energy_up": null, "dos_energy_down": null, "is_magnetic": null, "ordering": null, "total_magnetization": 0.0, "total_magnetization_normalized_vol": null, "total_magnetization_normalized_formula_units": null, "num_magnetic_sites": null, "num_unique_magnetic_sites": null, "types_of_magnetic_species": null, "bulk_modulus": null, "shear_modulus": null, "universal_anisotropy": null, "homogeneous_poisson": null, "e_total": null, "e_ionic": null, "e_electronic": null, "n": null, "e_ij_max": null, "weighted_surface_energy_EV_PER_ANG2": null, "weighted_surface_energy": null, "weighted_work_function": null, "surface_anisotropy": null, "shape_factor": null, "has_reconstructed": null, "possible_species": null, "has_props": null, "theoretical": null, "database_IDs": null, "fields_not_requested": ["builder_meta", "nsites", "elements", "nelements", "composition", "composition_reduced", "chemsys", "symmetry", "property_name", "deprecated", "deprecation_reasons", "last_updated", "origins", "warnings", "task_ids", "uncorrected_energy_per_atom", "equilibrium_reaction_energy_per_atom", "decomposes_to", "xas", "grain_boundaries", "cbm", "vbm", "is_gap_direct", "is_metal", "es_source_calc_id", "bandstructure", "dos", "dos_energy_up", "dos_energy_down", "is_magnetic", "ordering", "total_magnetization_normalized_vol", "total_magnetization_normalized_formula_units", "num_magnetic_sites", "num_unique_magnetic_sites", "types_of_magnetic_species", "bulk_modulus", "shear_modulus", "universal_anisotropy", "homogeneous_poisson", "e_total", "e_ionic", "e_electronic", "n", "e_ij_max", "weighted_surface_energy_EV_PER_ANG2", "weighted_surface_energy", "weighted_work_function", "surface_anisotropy", "shape_factor", "has_reconstructed", "possible_species", "has_props", "theoretical", "database_IDs"]}