{"builder_meta": null, "nsites": null, "elements": null, "nelements": null, "composition": null, "composition_reduced": null, "formula_pretty": "Ta2N3", "formula_anonymous": "A2B3", "chemsys": null, "volume": 199.9905554692441, "density": 13.414994794641364, "density_atomic": 9.999527773462205, "symmetry": null, "property_name": null, "material_id": "mp-1208406", "deprecated": null, "deprecation_reasons": null, "last_updated": null, "origins": null, "warnings": null, "structure": {"@module": "pymatgen.core.structure", "@class": "Structure", "charge": 0, "lattice": {"matrix": [[2.98648427, -0.0, 0.0], [0.0, 8.16377988, 0.0], [0.0, 0.0, 8.20272154]], "pbc": [true, true, true], "a": 2.98648427, "b": 8.16377988, "c": 8.20272154, "alpha": 90.0, "beta": 90.0, "gamma": 90.0, "volume": 199.9905554692441}, "properties": {}, "sites": [{"species": [{"element": "Ta", "occu": 1}], "abc": [0.25, 0.68698306, 0.02088952], "properties": {"magmom": -0.0}, "label": "Ta", "xyz": [0.7466210675, 5.608378483128832, 0.17135091566426083]}, {"species": [{"element": "Ta", "occu": 1}], "abc": [0.75, 0.31301694, 0.97911048], "properties": {"magmom": -0.0}, "label": "Ta", "xyz": [2.2398632025, 2.5554013968711673, 8.03137062433574]}, {"species": [{"element": "Ta", "occu": 1}], "abc": [0.75, 0.18698306, 0.47911048], "properties": {"magmom": -0.0}, "label": "Ta", "xyz": [2.2398632025, 1.5264885431288329, 3.9300098543357396]}, {"species": [{"element": "Ta", "occu": 1}], "abc": [0.25, 0.81301694, 0.52088952], "properties": {"magmom": -0.0}, "label": "Ta", "xyz": [0.7466210675, 6.637291336871168, 4.2727116856642615]}, {"species": [{"element": "Ta", "occu": 1}], "abc": [0.25, 0.0050361, 0.19388358], "properties": {"magmom": 0.0}, "label": "Ta", "xyz": [0.7466210675, 0.041113611853668, 1.5903730179183133]}, {"species": [{"element": "Ta", "occu": 1}], "abc": [0.75, 0.9949638999999991, 0.8061164200000001], "properties": {"magmom": 0.0}, "label": "Ta", "xyz": [2.2398632025, 8.122666268146325, 6.612348522081688]}, {"species": [{"element": "Ta", "occu": 1}], "abc": [0.75, 0.5050361, 0.30611642], "properties": {"magmom": 0.0}, "label": "Ta", "xyz": [2.2398632025, 4.123003551853667, 2.510987752081687]}, {"species": [{"element": "Ta", "occu": 1}], "abc": [0.25, 0.494963899999999, 0.69388358], "properties": {"magmom": 0.0}, "label": "Ta", "xyz": [0.7466210675, 4.040776328146324, 5.691733787918314]}, {"species": [{"element": "N", "occu": 1}], "abc": [0.25, 0.37466834, 0.45382383], "properties": {"magmom": -0.0}, "label": "N", "xyz": [0.7466210675, 3.058709855764999, 3.7225905057062985]}, {"species": [{"element": "N", "occu": 1}], "abc": [0.75, 0.6253316600000001, 0.54617617], "properties": {"magmom": -0.0}, "label": "N", "xyz": [2.2398632025, 5.105070024235001, 4.480131034293702]}, {"species": [{"element": "N", "occu": 1}], "abc": [0.75, 0.87466834, 0.04617617], "properties": {"magmom": -0.0}, "label": "N", "xyz": [2.2398632025, 7.140599795765, 0.37877026429370186]}, {"species": [{"element": "N", "occu": 1}], "abc": [0.25, 0.12533166, 0.95382383], "properties": {"magmom": -0.0}, "label": "N", "xyz": [0.7466210675, 1.023180084235001, 7.823951275706299]}, {"species": [{"element": "N", "occu": 1}], "abc": [0.25, 0.4514138, 0.12097782], "properties": {"magmom": 0.0}, "label": "N", "xyz": [0.7466210675, 3.685242897994344, 0.9923473699762428]}, {"species": [{"element": "N", "occu": 1}], "abc": [0.75, 0.5485862, 0.87902218], "properties": {"magmom": 0.0}, "label": "N", "xyz": [2.2398632025, 4.478536982005656, 7.210374170023758]}, {"species": [{"element": "N", "occu": 1}], "abc": [0.75, 0.9514138, 0.37902218], "properties": {"magmom": 0.0}, "label": "N", "xyz": [2.2398632025, 7.767132837994343, 3.1090134000237573]}, {"species": [{"element": "N", "occu": 1}], "abc": [0.25, 0.048586199999999004, 0.62097782], "properties": {"magmom": 0.0}, "label": "N", "xyz": [0.7466210675, 0.3966470420056479, 5.093708139976243]}, {"species": [{"element": "N", "occu": 1}], "abc": [0.25, 0.699605599999999, 0.28016431], "properties": {"magmom": -0.0}, "label": "N", "xyz": [0.7466210675, 5.71142612121532, 2.298109820376238]}, {"species": [{"element": "N", "occu": 1}], "abc": [0.75, 0.3003944, 0.71983569], "properties": {"magmom": -0.0}, "label": "N", "xyz": [2.2398632025, 2.452353758784672, 5.904611719623763]}, {"species": [{"element": "N", "occu": 1}], "abc": [0.75, 0.1996056, 0.21983569], "properties": {"magmom": -0.0}, "label": "N", "xyz": [2.2398632025, 1.629536181215328, 1.8032509496237628]}, {"species": [{"element": "N", "occu": 1}], "abc": [0.25, 0.8003944, 0.78016431], "properties": {"magmom": -0.0}, "label": "N", "xyz": [0.7466210675, 6.534243698784672, 6.399470590376238]}]}, "task_ids": null, "uncorrected_energy_per_atom": null, "energy_per_atom": -26.154543755, "formation_energy_per_atom": -1.240560267183332, "energy_above_hull": 0.0605685035, "is_stable": false, "equilibrium_reaction_energy_per_atom": null, "decomposes_to": null, "xas": null, "grain_boundaries": null, "band_gap": 0.0, "cbm": null, "vbm": null, "efermi": 7.8253933700000005, "is_gap_direct": null, "is_metal": null, "es_source_calc_id": null, "bandstructure": null, "dos": null, "dos_energy_up": null, "dos_energy_down": null, "is_magnetic": null, "ordering": null, "total_magnetization": 1.899999999999999e-06, "total_magnetization_normalized_vol": null, "total_magnetization_normalized_formula_units": null, "num_magnetic_sites": null, "num_unique_magnetic_sites": null, "types_of_magnetic_species": null, "bulk_modulus": null, "shear_modulus": null, "universal_anisotropy": null, "homogeneous_poisson": null, "e_total": null, "e_ionic": null, "e_electronic": null, "n": null, "e_ij_max": null, "weighted_surface_energy_EV_PER_ANG2": null, "weighted_surface_energy": null, "weighted_work_function": null, "surface_anisotropy": null, "shape_factor": null, "has_reconstructed": null, "possible_species": null, "has_props": null, "theoretical": null, "database_IDs": null, "fields_not_requested": ["builder_meta", "nsites", "elements", "nelements", "composition", "composition_reduced", "chemsys", "symmetry", "property_name", "deprecated", "deprecation_reasons", "last_updated", "origins", "warnings", "task_ids", "uncorrected_energy_per_atom", "equilibrium_reaction_energy_per_atom", "decomposes_to", "xas", "grain_boundaries", "cbm", "vbm", "is_gap_direct", "is_metal", "es_source_calc_id", "bandstructure", "dos", "dos_energy_up", "dos_energy_down", "is_magnetic", "ordering", "total_magnetization_normalized_vol", "total_magnetization_normalized_formula_units", "num_magnetic_sites", "num_unique_magnetic_sites", "types_of_magnetic_species", "bulk_modulus", "shear_modulus", "universal_anisotropy", "homogeneous_poisson", "e_total", "e_ionic", "e_electronic", "n", "e_ij_max", "weighted_surface_energy_EV_PER_ANG2", "weighted_surface_energy", "weighted_work_function", "surface_anisotropy", "shape_factor", "has_reconstructed", "possible_species", "has_props", "theoretical", "database_IDs"]}