{"builder_meta": null, "nsites": null, "elements": null, "nelements": null, "composition": null, "composition_reduced": null, "formula_pretty": "Ta2Ni", "formula_anonymous": "AB2", "chemsys": null, "volume": 92.89567308825741, "density": 15.036324253874438, "density_atomic": 15.482612181376235, "symmetry": null, "property_name": null, "material_id": "mp-1867", "deprecated": null, "deprecation_reasons": null, "last_updated": null, "origins": null, "warnings": null, "structure": {"@module": "pymatgen.core.structure", "@class": "Structure", "charge": 0, "lattice": {"matrix": [[4.23258685, 0.00010754, 2.34590241], [2.11628742, 4.38142432, 1.17316747], [-0.00748752, 0.0002474, 5.00517984]], "pbc": [true, true, true], "a": 4.839219934204435, "b": 5.0051846547958565, "c": 5.005185446604845, "alpha": 76.4790473834778, "beta": 61.08839166757469, "gamma": 61.08837049831286, "volume": 92.89567308825741}, "properties": {}, "sites": [{"species": [{"element": "Ta", "occu": 1}], "abc": [0.15893023, 0.5000646, 0.18197268], "properties": {"magmom": 0.0}, "label": "Ta", "xyz": [1.7296038996518537, 2.191057311409038, 1.8703003205641875]}, {"species": [{"element": "Ta", "occu": 1}], "abc": [0.34106977, 0.81802732, 0.4999354], "properties": {"magmom": 0.0}, "label": "Ta", "xyz": [3.171045073660631, 3.584285156933448, 4.262066022198763]}, {"species": [{"element": "Ta", "occu": 1}], "abc": [0.6589302300000001, 0.18197268, 0.5000646], "properties": {"magmom": 0.0}, "label": "Ta", "xyz": [3.1703416763393695, 0.7974941030665518, 4.2621836978012375]}, {"species": [{"element": "Ta", "occu": 1}], "abc": [0.84106977, 0.4999354, 0.81802732], "properties": {"magmom": 0.0}, "label": "Ta", "xyz": [4.6117828503481455, 2.1907219485909617, 6.653949399435813]}, {"species": [{"element": "Ni", "occu": 1}], "abc": [0.25, 8.869999999999995e-06, 0.9999911300000001], "properties": {"magmom": -0.0}, "label": "Ni", "xyz": [1.0506780303837175, 0.0003131460392804, 5.591621452550278]}, {"species": [{"element": "Ni", "occu": 1}], "abc": [0.75, 0.9999911300000001, 8.869999999999995e-06], "properties": {"magmom": -0.0}, "label": "Ni", "xyz": [5.290708719616282, 4.38146611396072, 2.932628267449722]}]}, "task_ids": null, "uncorrected_energy_per_atom": null, "energy_per_atom": -36.626944101666666, "formation_energy_per_atom": -0.23848323988888803, "energy_above_hull": 0.0, "is_stable": true, "equilibrium_reaction_energy_per_atom": null, "decomposes_to": null, "xas": null, "grain_boundaries": null, "band_gap": 0.0, "cbm": null, "vbm": null, "efermi": 6.40373286, "is_gap_direct": null, "is_metal": null, "es_source_calc_id": null, "bandstructure": null, "dos": null, "dos_energy_up": null, "dos_energy_down": null, "is_magnetic": null, "ordering": null, "total_magnetization": 8.59e-05, "total_magnetization_normalized_vol": null, "total_magnetization_normalized_formula_units": null, "num_magnetic_sites": null, "num_unique_magnetic_sites": null, "types_of_magnetic_species": null, "bulk_modulus": null, "shear_modulus": null, "universal_anisotropy": null, "homogeneous_poisson": null, "e_total": null, "e_ionic": null, "e_electronic": null, "n": null, "e_ij_max": null, "weighted_surface_energy_EV_PER_ANG2": null, "weighted_surface_energy": null, "weighted_work_function": null, "surface_anisotropy": null, "shape_factor": null, "has_reconstructed": null, "possible_species": null, "has_props": null, "theoretical": null, "database_IDs": null, "fields_not_requested": ["builder_meta", "nsites", "elements", "nelements", "composition", "composition_reduced", "chemsys", "symmetry", "property_name", "deprecated", "deprecation_reasons", "last_updated", "origins", "warnings", "task_ids", "uncorrected_energy_per_atom", "equilibrium_reaction_energy_per_atom", "decomposes_to", "xas", "grain_boundaries", "cbm", "vbm", "is_gap_direct", "is_metal", "es_source_calc_id", "bandstructure", "dos", "dos_energy_up", "dos_energy_down", "is_magnetic", "ordering", "total_magnetization_normalized_vol", "total_magnetization_normalized_formula_units", "num_magnetic_sites", "num_unique_magnetic_sites", "types_of_magnetic_species", "bulk_modulus", "shear_modulus", "universal_anisotropy", "homogeneous_poisson", "e_total", "e_ionic", "e_electronic", "n", "e_ij_max", "weighted_surface_energy_EV_PER_ANG2", "weighted_surface_energy", "weighted_work_function", "surface_anisotropy", "shape_factor", "has_reconstructed", "possible_species", "has_props", "theoretical", "database_IDs"]}