{"builder_meta": null, "nsites": null, "elements": null, "nelements": null, "composition": null, "composition_reduced": null, "formula_pretty": "Ta2O3", "formula_anonymous": "A2B3", "chemsys": null, "volume": 117.53100921349599, "density": 11.582388993307815, "density_atomic": 11.7531009213496, "symmetry": null, "property_name": null, "material_id": "mp-1079159", "deprecated": null, "deprecation_reasons": null, "last_updated": null, "origins": null, "warnings": null, "structure": {"@module": "pymatgen.core.structure", "@class": "Structure", "charge": 0, "lattice": {"matrix": [[1.418943, 5.960737, 0.0], [-1.418943, 5.960737, 0.0], [0.0, 3.06918, 6.947964]], "pbc": [true, true, true], "a": 6.127298329640723, "b": 6.127298329640723, "c": 7.595661236370143, "alpha": 66.85333652286408, "beta": 66.85333652286408, "gamma": 26.779899668904253, "volume": 117.53100921349599}, "properties": {}, "sites": [{"species": [{"element": "Ta", "occu": 1}], "abc": [0.164007, 0.164007, 0.155498], "properties": {"magmom": -0.0}, "label": "Ta", "xyz": [0.0, 2.4324565379579997, 1.080394506072]}, {"species": [{"element": "Ta", "occu": 1}], "abc": [0.835993, 0.835993, 0.844502], "properties": {"magmom": -0.0}, "label": "Ta", "xyz": [0.0, 12.558197462042, 5.867569493927999]}, {"species": [{"element": "Ta", "occu": 1}], "abc": [0.340318, 0.340318, 0.357192], "properties": {"magmom": -0.0}, "label": "Ta", "xyz": [0.0, 5.153378731291999, 2.481757157088]}, {"species": [{"element": "Ta", "occu": 1}], "abc": [0.659682, 0.659682, 0.642807999999999], "properties": {"magmom": -0.0}, "label": "Ta", "xyz": [0.0, 9.837275268707998, 4.466206842911993]}, {"species": [{"element": "O", "occu": 1}], "abc": [0.138285, 0.138285, 0.44459000000000004], "properties": {"magmom": 0.0}, "label": "O", "xyz": [0.0, 3.01308776829, 3.08899531476]}, {"species": [{"element": "O", "occu": 1}], "abc": [0.861715, 0.861715, 0.5554100000000001], "properties": {"magmom": 0.0}, "label": "O", "xyz": [0.0, 11.97756623171, 3.8589686852400003]}, {"species": [{"element": "O", "occu": 1}], "abc": [0.186752, 0.186752, 0.846495], "properties": {"magmom": 0.0}, "label": "O", "xyz": [0.0, 4.824404636548, 5.88141678618]}, {"species": [{"element": "O", "occu": 1}], "abc": [0.813248, 0.813248, 0.153505], "properties": {"magmom": 0.0}, "label": "O", "xyz": [0.0, 10.166249363452, 1.06654721382]}, {"species": [{"element": "O", "occu": 1}], "abc": [0.473452999999999, 0.473452999999999, 0.792177999999999], "properties": {"magmom": 0.0}, "label": "O", "xyz": [0.0, 8.075594503761984, 5.504024225591993]}, {"species": [{"element": "O", "occu": 1}], "abc": [0.526547, 0.526547, 0.207821999999999], "properties": {"magmom": 0.0}, "label": "O", "xyz": [0.0, 6.915059496237997, 1.4439397744079931]}]}, "task_ids": null, "uncorrected_energy_per_atom": null, "energy_per_atom": -10.310498911, "formation_energy_per_atom": -2.594951290933333, "energy_above_hull": 0.21616173942666703, "is_stable": false, "equilibrium_reaction_energy_per_atom": null, "decomposes_to": null, "xas": null, "grain_boundaries": null, "band_gap": 0.0, "cbm": null, "vbm": null, "efermi": 6.02306368, "is_gap_direct": null, "is_metal": null, "es_source_calc_id": null, "bandstructure": null, "dos": null, "dos_energy_up": null, "dos_energy_down": null, "is_magnetic": null, "ordering": null, "total_magnetization": 0.0017209999999990002, "total_magnetization_normalized_vol": null, "total_magnetization_normalized_formula_units": null, "num_magnetic_sites": null, "num_unique_magnetic_sites": null, "types_of_magnetic_species": null, "bulk_modulus": null, "shear_modulus": null, "universal_anisotropy": null, "homogeneous_poisson": null, "e_total": null, "e_ionic": null, "e_electronic": null, "n": null, "e_ij_max": null, "weighted_surface_energy_EV_PER_ANG2": null, "weighted_surface_energy": null, "weighted_work_function": null, "surface_anisotropy": null, "shape_factor": null, "has_reconstructed": null, "possible_species": null, "has_props": null, "theoretical": null, "database_IDs": null, "fields_not_requested": ["builder_meta", "nsites", "elements", "nelements", "composition", "composition_reduced", "chemsys", "symmetry", "property_name", "deprecated", "deprecation_reasons", "last_updated", "origins", "warnings", "task_ids", "uncorrected_energy_per_atom", "equilibrium_reaction_energy_per_atom", "decomposes_to", "xas", "grain_boundaries", "cbm", "vbm", "is_gap_direct", "is_metal", "es_source_calc_id", "bandstructure", "dos", "dos_energy_up", "dos_energy_down", "is_magnetic", "ordering", "total_magnetization_normalized_vol", "total_magnetization_normalized_formula_units", "num_magnetic_sites", "num_unique_magnetic_sites", "types_of_magnetic_species", "bulk_modulus", "shear_modulus", "universal_anisotropy", "homogeneous_poisson", "e_total", "e_ionic", "e_electronic", "n", "e_ij_max", "weighted_surface_energy_EV_PER_ANG2", "weighted_surface_energy", "weighted_work_function", "surface_anisotropy", "shape_factor", "has_reconstructed", "possible_species", "has_props", "theoretical", "database_IDs"]}