{
  "builder_meta": null,
  "nsites": null,
  "elements": null,
  "nelements": null,
  "composition": null,
  "composition_reduced": null,
  "formula_pretty": "Ta2O",
  "formula_anonymous": "AB2",
  "chemsys": null,
  "volume": 213.09706570171298,
  "density": 11.778851561239746,
  "density_atomic": 17.75808880847608,
  "symmetry": null,
  "property_name": null,
  "material_id": "mp-27873",
  "deprecated": null,
  "deprecation_reasons": null,
  "last_updated": null,
  "origins": null,
  "warnings": null,
  "structure": {
    "@module": "pymatgen.core.structure",
    "@class": "Structure",
    "charge": 0,
    "lattice": {
      "matrix": [
        [-3.762754, 3.762754, 3.762754],
        [3.762754, -3.762754, 3.762754],
        [3.762754, 3.762754, -3.762754]
      ],
      "pbc": [true, true, true],
      "a": 6.517281104383024,
      "b": 6.517281104383024,
      "c": 6.517281104383024,
      "alpha": 109.47122063449069,
      "beta": 109.47122063449069,
      "gamma": 109.47122063449069,
      "volume": 213.09706570171298
    },
    "properties": {},
    "sites": [
      {
        "species": [{ "element": "Ta", "occu": 1 }],
        "abc": [0.0, 0.0, 0.571068],
        "properties": { "magmom": 0.026000000000000002 },
        "label": "Ta",
        "xyz": [2.148788401272, 2.148788401272, -2.148788401272]
      },
      {
        "species": [{ "element": "Ta", "occu": 1 }],
        "abc": [0.571068, 0.0, 0.0],
        "properties": { "magmom": 0.026000000000000002 },
        "label": "Ta",
        "xyz": [-2.148788401272, 2.148788401272, 2.148788401272]
      },
      {
        "species": [{ "element": "Ta", "occu": 1 }],
        "abc": [0.0, 0.571068, 0.0],
        "properties": { "magmom": 0.026000000000000002 },
        "label": "Ta",
        "xyz": [2.148788401272, -2.148788401272, 2.148788401272]
      },
      {
        "species": [{ "element": "Ta", "occu": 1 }],
        "abc": [0.428932, 0.428932, 0.428932],
        "properties": { "magmom": 0.026000000000000002 },
        "label": "Ta",
        "xyz": [1.613965598728, 1.613965598728, 1.613965598728]
      },
      {
        "species": [{ "element": "Ta", "occu": 1 }],
        "abc": [0.5, 0.5, 0.0],
        "properties": { "magmom": 0.167 },
        "label": "Ta",
        "xyz": [0.0, 0.0, 3.762754]
      },
      {
        "species": [{ "element": "Ta", "occu": 1 }],
        "abc": [0.0, 0.5, 0.5],
        "properties": { "magmom": 0.167 },
        "label": "Ta",
        "xyz": [3.762754, 0.0, 0.0]
      },
      {
        "species": [{ "element": "Ta", "occu": 1 }],
        "abc": [0.5, 0.0, 0.5],
        "properties": { "magmom": 0.167 },
        "label": "Ta",
        "xyz": [0.0, 3.762754, 0.0]
      },
      {
        "species": [{ "element": "Ta", "occu": 1 }],
        "abc": [0.0, 0.0, 0.0],
        "properties": { "magmom": 0.004 },
        "label": "Ta",
        "xyz": [0.0, 0.0, 0.0]
      },
      {
        "species": [{ "element": "O", "occu": 1 }],
        "abc": [0.711258, 0.711258, 0.711258],
        "properties": { "magmom": 0.02 },
        "label": "O",
        "xyz": [2.676288884532, 2.676288884532, 2.676288884532]
      },
      {
        "species": [{ "element": "O", "occu": 1 }],
        "abc": [0.0, 0.288742, 0.0],
        "properties": { "magmom": 0.02 },
        "label": "O",
        "xyz": [1.086465115468, -1.086465115468, 1.086465115468]
      },
      {
        "species": [{ "element": "O", "occu": 1 }],
        "abc": [0.288742, 0.0, 0.0],
        "properties": { "magmom": 0.02 },
        "label": "O",
        "xyz": [-1.086465115468, 1.086465115468, 1.086465115468]
      },
      {
        "species": [{ "element": "O", "occu": 1 }],
        "abc": [0.0, 0.0, 0.288742],
        "properties": { "magmom": 0.02 },
        "label": "O",
        "xyz": [1.086465115468, 1.086465115468, -1.086465115468]
      }
    ]
  },
  "task_ids": null,
  "uncorrected_energy_per_atom": null,
  "energy_per_atom": -9.336004820000001,
  "formation_energy_per_atom": 0.22460054344444402,
  "energy_above_hull": 1.786330004755555,
  "is_stable": false,
  "equilibrium_reaction_energy_per_atom": null,
  "decomposes_to": null,
  "xas": null,
  "grain_boundaries": null,
  "band_gap": 0.0,
  "cbm": null,
  "vbm": null,
  "efermi": 4.90138105,
  "is_gap_direct": null,
  "is_metal": null,
  "es_source_calc_id": null,
  "bandstructure": null,
  "dos": null,
  "dos_energy_up": null,
  "dos_energy_down": null,
  "is_magnetic": null,
  "ordering": null,
  "total_magnetization": 1.04239,
  "total_magnetization_normalized_vol": null,
  "total_magnetization_normalized_formula_units": null,
  "num_magnetic_sites": null,
  "num_unique_magnetic_sites": null,
  "types_of_magnetic_species": null,
  "bulk_modulus": null,
  "shear_modulus": null,
  "universal_anisotropy": null,
  "homogeneous_poisson": null,
  "e_total": null,
  "e_ionic": null,
  "e_electronic": null,
  "n": null,
  "e_ij_max": null,
  "weighted_surface_energy_EV_PER_ANG2": null,
  "weighted_surface_energy": null,
  "weighted_work_function": null,
  "surface_anisotropy": null,
  "shape_factor": null,
  "has_reconstructed": null,
  "possible_species": null,
  "has_props": null,
  "theoretical": null,
  "database_IDs": null,
  "fields_not_requested": [
    "builder_meta",
    "nsites",
    "elements",
    "nelements",
    "composition",
    "composition_reduced",
    "chemsys",
    "symmetry",
    "property_name",
    "deprecated",
    "deprecation_reasons",
    "last_updated",
    "origins",
    "warnings",
    "task_ids",
    "uncorrected_energy_per_atom",
    "equilibrium_reaction_energy_per_atom",
    "decomposes_to",
    "xas",
    "grain_boundaries",
    "cbm",
    "vbm",
    "is_gap_direct",
    "is_metal",
    "es_source_calc_id",
    "bandstructure",
    "dos",
    "dos_energy_up",
    "dos_energy_down",
    "is_magnetic",
    "ordering",
    "total_magnetization_normalized_vol",
    "total_magnetization_normalized_formula_units",
    "num_magnetic_sites",
    "num_unique_magnetic_sites",
    "types_of_magnetic_species",
    "bulk_modulus",
    "shear_modulus",
    "universal_anisotropy",
    "homogeneous_poisson",
    "e_total",
    "e_ionic",
    "e_electronic",
    "n",
    "e_ij_max",
    "weighted_surface_energy_EV_PER_ANG2",
    "weighted_surface_energy",
    "weighted_work_function",
    "surface_anisotropy",
    "shape_factor",
    "has_reconstructed",
    "possible_species",
    "has_props",
    "theoretical",
    "database_IDs"
  ]
}
