{
  "builder_meta": null,
  "nsites": null,
  "elements": null,
  "nelements": null,
  "composition": null,
  "composition_reduced": null,
  "formula_pretty": "Ta2O5",
  "formula_anonymous": "A2B5",
  "chemsys": null,
  "volume": 168.1248937093548,
  "density": 8.7289892060389,
  "density_atomic": 12.00892097923963,
  "symmetry": null,
  "property_name": null,
  "material_id": "mp-10390",
  "deprecated": null,
  "deprecation_reasons": null,
  "last_updated": null,
  "origins": null,
  "warnings": null,
  "structure": {
    "@module": "pymatgen.core.structure",
    "@class": "Structure",
    "charge": 0,
    "lattice": {
      "matrix": [
        [4.55085247, 0.0, -1.7276468500000002],
        [-0.47704668, 5.37219493, -1.25660527],
        [0.0039743700000000005, 0.027050750000000002, 6.86806945]
      ],
      "pbc": [true, true, true],
      "a": 4.867753264291445,
      "b": 5.537789153209835,
      "c": 6.8681238710957855,
      "alpha": 102.8936358029259,
      "beta": 110.75501429749224,
      "gamma": 89.99999771632652,
      "volume": 168.1248937093548
    },
    "properties": {},
    "sites": [
      {
        "species": [{ "element": "Ta", "occu": 1 }],
        "abc": [0.61379877, 0.23343806, 0.71976109],
        "properties": { "magmom": 0.0 },
        "label": "Ta",
        "xyz": [2.6848073939120844, 1.2735448397063533, 3.5896021455887497]
      },
      {
        "species": [{ "element": "Ta", "occu": 1 }],
        "abc": [0.89403667, 0.26656194, 0.28023891],
        "properties": { "magmom": 0.0 },
        "label": "Ta",
        "xyz": [3.9425802725654515, 1.4396033752936468, 0.045157521176886206]
      },
      {
        "species": [{ "element": "Ta", "occu": 1 }],
        "abc": [0.38620123, 0.76656194, 0.28023891],
        "properties": { "magmom": 0.0 },
        "label": "Ta",
        "xyz": [1.3929727660879154, 4.125700840293646, 0.29421518441125016]
      },
      {
        "species": [{ "element": "Ta", "occu": 1 }],
        "abc": [0.10596333000000001, 0.73343806, 0.71976109],
        "properties": { "magmom": 0.0 },
        "label": "Ta",
        "xyz": [0.13519988743454758, 3.959642304706353, 3.8386598088231136]
      },
      {
        "species": [{ "element": "O", "occu": 1 }],
        "abc": [0.27578807, 0.12759778, 0.4102111],
        "properties": { "magmom": -0.0 },
        "label": "O",
        "xyz": [1.1958310529211693, 0.6965766647085804, 2.180553890769515]
      },
      {
        "species": [{ "element": "O", "occu": 1 }],
        "abc": [0.86557798, 0.37240222, 0.5897889],
        "properties": { "magmom": -0.0 },
        "label": "O",
        "xyz": [3.7638084848954736, 2.01657155029142, 2.0873354632510424]
      },
      {
        "species": [{ "element": "O", "occu": 1 }],
        "abc": [0.7242119300000001, 0.87240222, 0.5897889],
        "properties": { "magmom": -0.0 },
        "label": "O",
        "xyz": [2.8819491070788303, 4.70266901529142, 1.7032634392304846]
      },
      {
        "species": [{ "element": "O", "occu": 1 }],
        "abc": [0.13442202, 0.62759778, 0.4102111],
        "properties": { "magmom": -0.0 },
        "label": "O",
        "xyz": [0.31397167510452595, 3.38267412970858, 1.7964818667489573]
      },
      {
        "species": [{ "element": "O", "occu": 1 }],
        "abc": [0.10131746, 0.75, 0.0],
        "properties": { "magmom": -0.0 },
        "label": "O",
        "xyz": [0.10329580309512615, 4.0291461975, -1.1174947431190012]
      },
      {
        "species": [{ "element": "O", "occu": 1 }],
        "abc": [0.89868254, 0.25, -0.0],
        "properties": { "magmom": -0.0 },
        "label": "O",
        "xyz": [3.9705099869048732, 1.3430487325, -1.866757376880999]
      },
      {
        "species": [{ "element": "O", "occu": 1 }],
        "abc": [0.66441949, 0.974955599999999, 0.21965457],
        "properties": { "magmom": -0.0 },
        "label": "O",
        "xyz": [2.5594487335886034, 5.24359335215453, -0.8644137421832312]
      },
      {
        "species": [{ "element": "O", "occu": 1 }],
        "abc": [0.44476392000000003, 0.5250444, 0.78034543],
        "properties": { "magmom": -0.0 },
        "label": "O",
        "xyz": [1.7766856774929196, 2.841749792845464, 3.9312980628244736]
      },
      {
        "species": [{ "element": "O", "occu": 1 }],
        "abc": [0.33558051, 0.025044399999999002, 0.78034543],
        "properties": { "magmom": -0.0 },
        "label": "O",
        "xyz": [1.5183314264113972, 0.15565232784545913, 4.748231072183233]
      },
      {
        "species": [{ "element": "O", "occu": 1 }],
        "abc": [0.55523608, 0.4749556, 0.21965457],
        "properties": { "magmom": -0.0 },
        "label": "O",
        "xyz": [2.3010944825070805, 2.5574958871545355, -0.04748073282447374]
      }
    ]
  },
  "task_ids": null,
  "uncorrected_energy_per_atom": null,
  "energy_per_atom": -10.271371718571428,
  "formation_energy_per_atom": -3.346563131380951,
  "energy_above_hull": 0.0,
  "is_stable": true,
  "equilibrium_reaction_energy_per_atom": null,
  "decomposes_to": null,
  "xas": null,
  "grain_boundaries": null,
  "band_gap": 1.2267000000000001,
  "cbm": null,
  "vbm": null,
  "efermi": 3.28430992,
  "is_gap_direct": null,
  "is_metal": null,
  "es_source_calc_id": null,
  "bandstructure": null,
  "dos": null,
  "dos_energy_up": null,
  "dos_energy_down": null,
  "is_magnetic": null,
  "ordering": null,
  "total_magnetization": 0.0,
  "total_magnetization_normalized_vol": null,
  "total_magnetization_normalized_formula_units": null,
  "num_magnetic_sites": null,
  "num_unique_magnetic_sites": null,
  "types_of_magnetic_species": null,
  "bulk_modulus": null,
  "shear_modulus": null,
  "universal_anisotropy": null,
  "homogeneous_poisson": null,
  "e_total": null,
  "e_ionic": null,
  "e_electronic": null,
  "n": null,
  "e_ij_max": null,
  "weighted_surface_energy_EV_PER_ANG2": null,
  "weighted_surface_energy": null,
  "weighted_work_function": null,
  "surface_anisotropy": null,
  "shape_factor": null,
  "has_reconstructed": null,
  "possible_species": null,
  "has_props": null,
  "theoretical": null,
  "database_IDs": null,
  "fields_not_requested": [
    "builder_meta",
    "nsites",
    "elements",
    "nelements",
    "composition",
    "composition_reduced",
    "chemsys",
    "symmetry",
    "property_name",
    "deprecated",
    "deprecation_reasons",
    "last_updated",
    "origins",
    "warnings",
    "task_ids",
    "uncorrected_energy_per_atom",
    "equilibrium_reaction_energy_per_atom",
    "decomposes_to",
    "xas",
    "grain_boundaries",
    "cbm",
    "vbm",
    "is_gap_direct",
    "is_metal",
    "es_source_calc_id",
    "bandstructure",
    "dos",
    "dos_energy_up",
    "dos_energy_down",
    "is_magnetic",
    "ordering",
    "total_magnetization_normalized_vol",
    "total_magnetization_normalized_formula_units",
    "num_magnetic_sites",
    "num_unique_magnetic_sites",
    "types_of_magnetic_species",
    "bulk_modulus",
    "shear_modulus",
    "universal_anisotropy",
    "homogeneous_poisson",
    "e_total",
    "e_ionic",
    "e_electronic",
    "n",
    "e_ij_max",
    "weighted_surface_energy_EV_PER_ANG2",
    "weighted_surface_energy",
    "weighted_work_function",
    "surface_anisotropy",
    "shape_factor",
    "has_reconstructed",
    "possible_species",
    "has_props",
    "theoretical",
    "database_IDs"
  ]
}
