{
  "builder_meta": null,
  "nsites": null,
  "elements": null,
  "nelements": null,
  "composition": null,
  "composition_reduced": null,
  "formula_pretty": "Ta2O7",
  "formula_anonymous": "A2B7",
  "chemsys": null,
  "volume": 303.7804099346293,
  "density": 5.180817610203072,
  "density_atomic": 16.87668944081274,
  "symmetry": null,
  "property_name": null,
  "material_id": "mp-726074",
  "deprecated": null,
  "deprecation_reasons": null,
  "last_updated": null,
  "origins": null,
  "warnings": null,
  "structure": {
    "@module": "pymatgen.core.structure",
    "@class": "Structure",
    "charge": 0,
    "lattice": {
      "matrix": [
        [0.0, 5.335518, 5.335518],
        [5.335518, 0.0, 5.335518],
        [5.335518, 5.335518, 0.0]
      ],
      "pbc": [true, true, true],
      "a": 7.545561917885772,
      "b": 7.545561917885772,
      "c": 7.545561917885772,
      "alpha": 59.99999999999999,
      "beta": 59.99999999999999,
      "gamma": 59.99999999999999,
      "volume": 303.7804099346293
    },
    "properties": {},
    "sites": [
      {
        "species": [{ "element": "Ta", "occu": 1 }],
        "abc": [0.125, 0.625, 0.625],
        "properties": { "magmom": 0.007 },
        "label": "Ta",
        "xyz": [6.6693975000000005, 4.0016385, 4.0016385]
      },
      {
        "species": [{ "element": "Ta", "occu": 1 }],
        "abc": [0.625, 0.125, 0.625],
        "properties": { "magmom": 0.008 },
        "label": "Ta",
        "xyz": [4.0016385, 6.6693975000000005, 4.0016385]
      },
      {
        "species": [{ "element": "Ta", "occu": 1 }],
        "abc": [0.625, 0.625, 0.125],
        "properties": { "magmom": 0.007 },
        "label": "Ta",
        "xyz": [4.0016385, 4.0016385, 6.6693975000000005]
      },
      {
        "species": [{ "element": "Ta", "occu": 1 }],
        "abc": [0.625, 0.625, 0.625],
        "properties": { "magmom": 0.007 },
        "label": "Ta",
        "xyz": [6.6693975000000005, 6.6693975000000005, 6.6693975000000005]
      },
      {
        "species": [{ "element": "O", "occu": 1 }],
        "abc": [0.31593000000000004, 0.31593000000000004, 0.6840700000000001],
        "properties": { "magmom": -0.004 },
        "label": "O",
        "xyz": [5.335518000000001, 5.335518000000001, 3.3713004034800007]
      },
      {
        "species": [{ "element": "O", "occu": 1 }],
        "abc": [0.6840700000000001, 0.6840700000000001, 0.31593000000000004],
        "properties": { "magmom": -0.006 },
        "label": "O",
        "xyz": [5.335518000000001, 5.335518000000001, 7.2997355965200015]
      },
      {
        "species": [{ "element": "O", "occu": 1 }],
        "abc": [0.31593000000000004, 0.6840700000000001, 0.31593000000000004],
        "properties": { "magmom": -0.024 },
        "label": "O",
        "xyz": [5.335518000000001, 3.3713004034800007, 5.335518000000001]
      },
      {
        "species": [{ "element": "O", "occu": 1 }],
        "abc": [0.6840700000000001, 0.31593000000000004, 0.6840700000000001],
        "properties": { "magmom": 0.006 },
        "label": "O",
        "xyz": [5.335518000000001, 7.2997355965200015, 5.335518000000001]
      },
      {
        "species": [{ "element": "O", "occu": 1 }],
        "abc": [0.6840700000000001, 0.31593000000000004, 0.31593000000000004],
        "properties": { "magmom": 0.007 },
        "label": "O",
        "xyz": [3.3713004034800007, 5.335518000000001, 5.335518000000001]
      },
      {
        "species": [{ "element": "O", "occu": 1 }],
        "abc": [0.31593000000000004, 0.6840700000000001, 0.6840700000000001],
        "properties": { "magmom": -0.024 },
        "label": "O",
        "xyz": [7.2997355965200015, 5.335518000000001, 5.335518000000001]
      },
      {
        "species": [{ "element": "O", "occu": 1 }],
        "abc": [0.9340700000000001, 0.9340700000000001, 0.56593],
        "properties": { "magmom": -0.004 },
        "label": "O",
        "xyz": [8.003277, 8.003277, 9.967494596520002]
      },
      {
        "species": [{ "element": "O", "occu": 1 }],
        "abc": [0.56593, 0.56593, 0.9340700000000001],
        "properties": { "magmom": -0.006 },
        "label": "O",
        "xyz": [8.003277, 8.003277, 6.039059403480001]
      },
      {
        "species": [{ "element": "O", "occu": 1 }],
        "abc": [0.9340700000000001, 0.56593, 0.9340700000000001],
        "properties": { "magmom": -0.024 },
        "label": "O",
        "xyz": [8.003277, 9.967494596520002, 8.003277]
      },
      {
        "species": [{ "element": "O", "occu": 1 }],
        "abc": [0.56593, 0.9340700000000001, 0.56593],
        "properties": { "magmom": 0.006 },
        "label": "O",
        "xyz": [8.003277, 6.039059403480001, 8.003277]
      },
      {
        "species": [{ "element": "O", "occu": 1 }],
        "abc": [0.56593, 0.9340700000000001, 0.9340700000000001],
        "properties": { "magmom": 0.007 },
        "label": "O",
        "xyz": [9.967494596520002, 8.003277, 8.003277]
      },
      {
        "species": [{ "element": "O", "occu": 1 }],
        "abc": [0.9340700000000001, 0.56593, 0.56593],
        "properties": { "magmom": -0.024 },
        "label": "O",
        "xyz": [6.039059403480001, 8.003277, 8.003277]
      },
      {
        "species": [{ "element": "O", "occu": 1 }],
        "abc": [0.0, 0.0, 0.0],
        "properties": { "magmom": 1.658 },
        "label": "O",
        "xyz": [0.0, 0.0, 0.0]
      },
      {
        "species": [{ "element": "O", "occu": 1 }],
        "abc": [0.25, 0.25, 0.25],
        "properties": { "magmom": 1.658 },
        "label": "O",
        "xyz": [2.667759, 2.667759, 2.667759]
      }
    ]
  },
  "task_ids": null,
  "uncorrected_energy_per_atom": null,
  "energy_per_atom": -8.589139539444444,
  "formation_energy_per_atom": -2.103630414962962,
  "energy_above_hull": 0.49925202055555506,
  "is_stable": false,
  "equilibrium_reaction_energy_per_atom": null,
  "decomposes_to": null,
  "xas": null,
  "grain_boundaries": null,
  "band_gap": 0.0,
  "cbm": null,
  "vbm": null,
  "efermi": -1.8264699800000002,
  "is_gap_direct": null,
  "is_metal": null,
  "es_source_calc_id": null,
  "bandstructure": null,
  "dos": null,
  "dos_energy_up": null,
  "dos_energy_down": null,
  "is_magnetic": null,
  "ordering": null,
  "total_magnetization": 4.1735894,
  "total_magnetization_normalized_vol": null,
  "total_magnetization_normalized_formula_units": null,
  "num_magnetic_sites": null,
  "num_unique_magnetic_sites": null,
  "types_of_magnetic_species": null,
  "bulk_modulus": null,
  "shear_modulus": null,
  "universal_anisotropy": null,
  "homogeneous_poisson": null,
  "e_total": null,
  "e_ionic": null,
  "e_electronic": null,
  "n": null,
  "e_ij_max": null,
  "weighted_surface_energy_EV_PER_ANG2": null,
  "weighted_surface_energy": null,
  "weighted_work_function": null,
  "surface_anisotropy": null,
  "shape_factor": null,
  "has_reconstructed": null,
  "possible_species": null,
  "has_props": null,
  "theoretical": null,
  "database_IDs": null,
  "fields_not_requested": [
    "builder_meta",
    "nsites",
    "elements",
    "nelements",
    "composition",
    "composition_reduced",
    "chemsys",
    "symmetry",
    "property_name",
    "deprecated",
    "deprecation_reasons",
    "last_updated",
    "origins",
    "warnings",
    "task_ids",
    "uncorrected_energy_per_atom",
    "equilibrium_reaction_energy_per_atom",
    "decomposes_to",
    "xas",
    "grain_boundaries",
    "cbm",
    "vbm",
    "is_gap_direct",
    "is_metal",
    "es_source_calc_id",
    "bandstructure",
    "dos",
    "dos_energy_up",
    "dos_energy_down",
    "is_magnetic",
    "ordering",
    "total_magnetization_normalized_vol",
    "total_magnetization_normalized_formula_units",
    "num_magnetic_sites",
    "num_unique_magnetic_sites",
    "types_of_magnetic_species",
    "bulk_modulus",
    "shear_modulus",
    "universal_anisotropy",
    "homogeneous_poisson",
    "e_total",
    "e_ionic",
    "e_electronic",
    "n",
    "e_ij_max",
    "weighted_surface_energy_EV_PER_ANG2",
    "weighted_surface_energy",
    "weighted_work_function",
    "surface_anisotropy",
    "shape_factor",
    "has_reconstructed",
    "possible_species",
    "has_props",
    "theoretical",
    "database_IDs"
  ]
}
