{"builder_meta": null, "nsites": null, "elements": null, "nelements": null, "composition": null, "composition_reduced": null, "formula_pretty": "Ta2P", "formula_anonymous": "AB2", "chemsys": null, "volume": 570.0937737294583, "density": 13.731955395823501, "density_atomic": 15.83593815915162, "symmetry": null, "property_name": null, "material_id": "mp-22477", "deprecated": null, "deprecation_reasons": null, "last_updated": null, "origins": null, "warnings": null, "structure": {"@module": "pymatgen.core.structure", "@class": "Structure", "charge": 0, "lattice": {"matrix": [[3.40841768, 0.0, 0.0], [0.0, 11.57848827, 0.0], [0.0, -0.0, 14.44580102]], "pbc": [true, true, true], "a": 3.40841768, "b": 11.57848827, "c": 14.44580102, "alpha": 90.0, "beta": 90.0, "gamma": 90.0, "volume": 570.0937737294583}, "properties": {}, "sites": [{"species": [{"element": "Ta", "occu": 1}], "abc": [-0.0, 0.47042663, 0.39017358], "properties": {"magmom": -0.0}, "label": "Ta", "xyz": [0.0, 5.44682921735063, 5.636369899941052]}, {"species": [{"element": "Ta", "occu": 1}], "abc": [0.0, 0.52957337, 0.60982642], "properties": {"magmom": -0.0}, "label": "Ta", "xyz": [0.0, 6.13165905264937, 8.809431120058948]}, {"species": [{"element": "Ta", "occu": 1}], "abc": [0.5, 0.9704266300000001, 0.10982642000000001], "properties": {"magmom": -0.0}, "label": "Ta", "xyz": [1.70420884, 11.23607335235063, 1.5865306100589485]}, {"species": [{"element": "Ta", "occu": 1}], "abc": [0.5, 0.02957337, 0.89017358], "properties": {"magmom": -0.0}, "label": "Ta", "xyz": [1.70420884, 0.3424149176493699, 12.85927040994105]}, {"species": [{"element": "Ta", "occu": 1}], "abc": [-0.0, 0.80452632, 0.20520332], "properties": {"magmom": -0.0}, "label": "Ta", "xyz": [0.0, 9.315198559026266, 2.964326329363386]}, {"species": [{"element": "Ta", "occu": 1}], "abc": [-0.0, 0.19547368, 0.79479668], "properties": {"magmom": -0.0}, "label": "Ta", "xyz": [0.0, 2.2632897109737335, 11.481474690636613]}, {"species": [{"element": "Ta", "occu": 1}], "abc": [0.5, 0.30452632, 0.29479668000000003], "properties": {"magmom": -0.0}, "label": "Ta", "xyz": [1.70420884, 3.5259544240262666, 4.2585741806366135]}, {"species": [{"element": "Ta", "occu": 1}], "abc": [0.5, 0.69547368, 0.70520332], "properties": {"magmom": -0.0}, "label": "Ta", "xyz": [1.70420884, 8.052533845973732, 10.187226839363385]}, {"species": [{"element": "Ta", "occu": 1}], "abc": [0.0, 0.87851798, 0.42253196], "properties": {"magmom": 0.0}, "label": "Ta", "xyz": [0.0, 10.171910126414094, 6.103812618750599]}, {"species": [{"element": "Ta", "occu": 1}], "abc": [-0.0, 0.12148202, 0.57746804], "properties": {"magmom": 0.0}, "label": "Ta", "xyz": [0.0, 1.4065781435859053, 8.3419884012494]}, {"species": [{"element": "Ta", "occu": 1}], "abc": [0.5, 0.37851798000000003, 0.07746804], "properties": {"magmom": 0.0}, "label": "Ta", "xyz": [1.70420884, 4.382665991414095, 1.1190878912494007]}, {"species": [{"element": "Ta", "occu": 1}], "abc": [0.5, 0.62148202, 0.92253196], "properties": {"magmom": 0.0}, "label": "Ta", "xyz": [1.70420884, 7.195822278585904, 13.3267131287506]}, {"species": [{"element": "Ta", "occu": 1}], "abc": [0.5, 0.91198128, 0.57985452], "properties": {"magmom": -0.0}, "label": "Ta", "xyz": [1.70420884, 10.559364552939584, 8.37646301646761]}, {"species": [{"element": "Ta", "occu": 1}], "abc": [0.5, 0.08801872000000001, 0.42014448], "properties": {"magmom": -0.0}, "label": "Ta", "xyz": [1.70420884, 1.0191237170604144, 6.069323557731369]}, {"species": [{"element": "Ta", "occu": 1}], "abc": [0.0, 0.41198128, 0.9201454800000001], "properties": {"magmom": -0.0}, "label": "Ta", "xyz": [0.0, 4.7701204179395855, 13.29223851353239]}, {"species": [{"element": "Ta", "occu": 1}], "abc": [-0.0, 0.58801872, 0.07985552], "properties": {"magmom": -0.0}, "label": "Ta", "xyz": [0.0, 6.808367852060414, 1.1535769522686303]}, {"species": [{"element": "Ta", "occu": 1}], "abc": [0.5, 0.42097903000000003, 0.75472101], "properties": {"magmom": 0.0}, "label": "Ta", "xyz": [1.70420884, 4.8743007607709785, 10.90254953607343]}, {"species": [{"element": "Ta", "occu": 1}], "abc": [0.5, 0.57902097, 0.24527899], "properties": {"magmom": 0.0}, "label": "Ta", "xyz": [1.70420884, 6.704187509229021, 3.5432514839265696]}, {"species": [{"element": "Ta", "occu": 1}], "abc": [0.0, 0.92097903, 0.74527899], "properties": {"magmom": 0.0}, "label": "Ta", "xyz": [0.0, 10.663544895770977, 10.766151993926568]}, {"species": [{"element": "Ta", "occu": 1}], "abc": [0.0, 0.07902097, 0.25472101], "properties": {"magmom": 0.0}, "label": "Ta", "xyz": [0.0, 0.9149433742290218, 3.6796490260734305]}, {"species": [{"element": "Ta", "occu": 1}], "abc": [0.5, 0.34896355, 0.52299428], "properties": {"magmom": 0.0}, "label": "Ta", "xyz": [1.70420884, 4.040470370332558, 7.555071303478166]}, {"species": [{"element": "Ta", "occu": 1}], "abc": [0.5, 0.65103645, 0.47700572], "properties": {"magmom": 0.0}, "label": "Ta", "xyz": [1.70420884, 7.538017899667441, 6.890729716521834]}, {"species": [{"element": "Ta", "occu": 1}], "abc": [-0.0, 0.84896355, 0.97700572], "properties": {"magmom": 0.0}, "label": "Ta", "xyz": [0.0, 9.829714505332559, 14.113630226521833]}, {"species": [{"element": "Ta", "occu": 1}], "abc": [0.0, 0.15103645000000002, 0.02299428], "properties": {"magmom": 0.0}, "label": "Ta", "xyz": [0.0, 1.7487737646674415, 0.3321707934781656]}, {"species": [{"element": "P", "occu": 1}], "abc": [0.5, 0.81510653, 0.84827768], "properties": {"magmom": 0.0}, "label": "P", "xyz": [1.70420884, 9.437701396405403, 12.254050574987234]}, {"species": [{"element": "P", "occu": 1}], "abc": [0.5, 0.18489347, 0.15172232], "properties": {"magmom": 0.0}, "label": "P", "xyz": [1.70420884, 2.140786873594597, 2.191750445012766]}, {"species": [{"element": "P", "occu": 1}], "abc": [0.0, 0.31510653, 0.65172232], "properties": {"magmom": 0.0}, "label": "P", "xyz": [0.0, 3.6484572614054027, 9.414650955012766]}, {"species": [{"element": "P", "occu": 1}], "abc": [-0.0, 0.68489347, 0.34827768000000003], "properties": {"magmom": 0.0}, "label": "P", "xyz": [0.0, 7.930031008594597, 5.031150064987234]}, {"species": [{"element": "P", "occu": 1}], "abc": [0.5, 0.2547927, 0.9165317], "properties": {"magmom": 0.0}, "label": "P", "xyz": [1.70420884, 2.9501142882316285, 13.240034566722333]}, {"species": [{"element": "P", "occu": 1}], "abc": [0.5, 0.7452073, 0.0834683], "properties": {"magmom": 0.0}, "label": "P", "xyz": [1.70420884, 8.628373981768371, 1.205766453277666]}, {"species": [{"element": "P", "occu": 1}], "abc": [0.0, 0.7547927, 0.583468299999999], "properties": {"magmom": 0.0}, "label": "P", "xyz": [0.0, 8.739358423231629, 8.428666963277651]}, {"species": [{"element": "P", "occu": 1}], "abc": [-0.0, 0.2452073, 0.4165317], "properties": {"magmom": 0.0}, "label": "P", "xyz": [0.0, 2.8391298467683708, 6.017134056722334]}, {"species": [{"element": "P", "occu": 1}], "abc": [0.5, 0.07661348, 0.7050002400000001], "properties": {"magmom": -0.0}, "label": "P", "xyz": [1.70420884, 0.8870682795038796, 10.184293186092246]}, {"species": [{"element": "P", "occu": 1}], "abc": [0.5, 0.9233855200000001, 0.29499976], "properties": {"magmom": -0.0}, "label": "P", "xyz": [1.70420884, 10.691408412007851, 4.261507833907755]}, {"species": [{"element": "P", "occu": 1}], "abc": [0.0, 0.57661448, 0.79499976], "properties": {"magmom": -0.0}, "label": "P", "xyz": [0.0, 6.67632399299215, 11.484408343907756]}, {"species": [{"element": "P", "occu": 1}], "abc": [-0.0, 0.42338652, 0.20500024], "properties": {"magmom": -0.0}, "label": "P", "xyz": [0.0, 4.90217585549612, 2.961392676092245]}]}, "task_ids": null, "uncorrected_energy_per_atom": null, "energy_per_atom": -36.1824088375, "formation_energy_per_atom": -0.787161591714291, "energy_above_hull": 0.0, "is_stable": true, "equilibrium_reaction_energy_per_atom": null, "decomposes_to": null, "xas": null, "grain_boundaries": null, "band_gap": 0.0, "cbm": null, "vbm": null, "efermi": 7.8660739, "is_gap_direct": null, "is_metal": null, "es_source_calc_id": null, "bandstructure": null, "dos": null, "dos_energy_up": null, "dos_energy_down": null, "is_magnetic": null, "ordering": null, "total_magnetization": 0.0, "total_magnetization_normalized_vol": null, "total_magnetization_normalized_formula_units": null, "num_magnetic_sites": null, "num_unique_magnetic_sites": null, "types_of_magnetic_species": null, "bulk_modulus": null, "shear_modulus": null, "universal_anisotropy": null, "homogeneous_poisson": null, "e_total": null, "e_ionic": null, "e_electronic": null, "n": null, "e_ij_max": null, "weighted_surface_energy_EV_PER_ANG2": null, "weighted_surface_energy": null, "weighted_work_function": null, "surface_anisotropy": null, "shape_factor": null, "has_reconstructed": null, "possible_species": null, "has_props": null, "theoretical": null, "database_IDs": null, "fields_not_requested": ["builder_meta", "nsites", "elements", "nelements", "composition", "composition_reduced", "chemsys", "symmetry", "property_name", "deprecated", "deprecation_reasons", "last_updated", "origins", "warnings", "task_ids", "uncorrected_energy_per_atom", "equilibrium_reaction_energy_per_atom", "decomposes_to", "xas", "grain_boundaries", "cbm", "vbm", "is_gap_direct", "is_metal", "es_source_calc_id", "bandstructure", "dos", "dos_energy_up", "dos_energy_down", "is_magnetic", "ordering", "total_magnetization_normalized_vol", "total_magnetization_normalized_formula_units", "num_magnetic_sites", "num_unique_magnetic_sites", "types_of_magnetic_species", "bulk_modulus", "shear_modulus", "universal_anisotropy", "homogeneous_poisson", "e_total", "e_ionic", "e_electronic", "n", "e_ij_max", "weighted_surface_energy_EV_PER_ANG2", "weighted_surface_energy", "weighted_work_function", "surface_anisotropy", "shape_factor", "has_reconstructed", "possible_species", "has_props", "theoretical", "database_IDs"]}