{"builder_meta": null, "nsites": null, "elements": null, "nelements": null, "composition": null, "composition_reduced": null, "formula_pretty": "Ta2S", "formula_anonymous": "AB2", "chemsys": null, "volume": 634.2709220653313, "density": 12.376803853291774, "density_atomic": 17.618636724036982, "symmetry": null, "property_name": null, "material_id": "mp-555935", "deprecated": null, "deprecation_reasons": null, "last_updated": null, "origins": null, "warnings": null, "structure": {"@module": "pymatgen.core.structure", "@class": "Structure", "charge": 0, "lattice": {"matrix": [[5.62045017, -0.0, 0.0], [-0.0, 7.39180448, 0.0], [0.0, 0.0, 15.26698325]], "pbc": [true, true, true], "a": 5.62045017, "b": 7.39180448, "c": 15.26698325, "alpha": 90.0, "beta": 90.0, "gamma": 90.0, "volume": 634.2709220653313}, "properties": {}, "sites": [{"species": [{"element": "Ta", "occu": 1}], "abc": [0.1330342, 0.00921068, 0.25], "properties": {"magmom": 0.0}, "label": "Ta", "xyz": [0.7477120920058139, 0.0680835456878464, 3.8167458125]}, {"species": [{"element": "Ta", "occu": 1}], "abc": [0.10425939000000001, 0.90488458, 0.59086118], "properties": {"magmom": -0.0}, "label": "Ta", "xyz": [0.5859847062495963, 6.688729892326919, 9.020667738135234]}, {"species": [{"element": "Ta", "occu": 1}], "abc": [0.8962287800000001, 0.71780745, 0.15466744], "properties": {"magmom": 0.0}, "label": "Ta", "xyz": [5.037209198909893, 5.305892324687377, 2.3613052158003796]}, {"species": [{"element": "Ta", "occu": 1}], "abc": [0.6042593900000001, 0.09511542, 0.90913882], "properties": {"magmom": -0.0}, "label": "Ta", "xyz": [3.3962097912495963, 0.7030745876730816, 13.879807136864764]}, {"species": [{"element": "Ta", "occu": 1}], "abc": [0.60377122, 0.71780745, 0.84533256], "properties": {"magmom": 0.0}, "label": "Ta", "xyz": [3.3934660560901078, 5.305892324687377, 12.90567803419962]}, {"species": [{"element": "Ta", "occu": 1}], "abc": [0.8669658, 0.99078932, 0.75], "properties": {"magmom": 0.0}, "label": "Ta", "xyz": [4.872738077994186, 7.323720934312154, 11.4502374375]}, {"species": [{"element": "Ta", "occu": 1}], "abc": [0.10377122, 0.28219255, 0.65466744], "properties": {"magmom": 0.0}, "label": "Ta", "xyz": [0.5832409710901074, 2.085912155312624, 9.99479684080038]}, {"species": [{"element": "Ta", "occu": 1}], "abc": [0.89574061, 0.09511542, 0.40913882], "properties": {"magmom": -0.0}, "label": "Ta", "xyz": [5.034465463750403, 0.7030745876730816, 6.246315511864765]}, {"species": [{"element": "Ta", "occu": 1}], "abc": [0.89574061, 0.09511542, 0.09086118], "properties": {"magmom": -0.0}, "label": "Ta", "xyz": [5.034465463750403, 0.7030745876730816, 1.387176113135235]}, {"species": [{"element": "Ta", "occu": 1}], "abc": [0.62805967, 0.34951023000000003, 0.75], "properties": {"magmom": -0.0}, "label": "Ta", "xyz": [3.5299780790216437, 2.583511283919831, 11.4502374375]}, {"species": [{"element": "Ta", "occu": 1}], "abc": [0.39622878, 0.28219255, 0.34533256], "properties": {"magmom": 0.0}, "label": "Ta", "xyz": [2.2269841139098925, 2.085912155312624, 5.27218640919962]}, {"species": [{"element": "Ta", "occu": 1}], "abc": [0.87194033, 0.34951023000000003, 0.25], "properties": {"magmom": -0.0}, "label": "Ta", "xyz": [4.900697175978356, 2.583511283919831, 3.8167458125]}, {"species": [{"element": "Ta", "occu": 1}], "abc": [0.6330342, 0.99078932, 0.25], "properties": {"magmom": 0.0}, "label": "Ta", "xyz": [3.557937177005814, 7.323720934312154, 3.8167458125]}, {"species": [{"element": "Ta", "occu": 1}], "abc": [0.39574061, 0.90488458, 0.09086118], "properties": {"magmom": -0.0}, "label": "Ta", "xyz": [2.2242403787504035, 6.688729892326919, 1.387176113135235]}, {"species": [{"element": "Ta", "occu": 1}], "abc": [0.39574061, 0.90488458, 0.40913882], "properties": {"magmom": -0.0}, "label": "Ta", "xyz": [2.2242403787504035, 6.688729892326919, 6.246315511864765]}, {"species": [{"element": "Ta", "occu": 1}], "abc": [0.3669658, 0.00921068, 0.75], "properties": {"magmom": 0.0}, "label": "Ta", "xyz": [2.062512992994186, 0.0680835456878464, 11.4502374375]}, {"species": [{"element": "Ta", "occu": 1}], "abc": [0.39622878, 0.28219255, 0.15466744], "properties": {"magmom": 0.0}, "label": "Ta", "xyz": [2.2269841139098925, 2.085912155312624, 2.3613052158003796]}, {"species": [{"element": "Ta", "occu": 1}], "abc": [0.10377122, 0.28219255, 0.84533256], "properties": {"magmom": 0.0}, "label": "Ta", "xyz": [0.5832409710901074, 2.085912155312624, 12.90567803419962]}, {"species": [{"element": "Ta", "occu": 1}], "abc": [0.8962287800000001, 0.71780745, 0.34533256], "properties": {"magmom": 0.0}, "label": "Ta", "xyz": [5.037209198909893, 5.305892324687377, 5.27218640919962]}, {"species": [{"element": "Ta", "occu": 1}], "abc": [0.60377122, 0.71780745, 0.65466744], "properties": {"magmom": 0.0}, "label": "Ta", "xyz": [3.3934660560901078, 5.305892324687377, 9.99479684080038]}, {"species": [{"element": "Ta", "occu": 1}], "abc": [0.6042593900000001, 0.09511542, 0.59086118], "properties": {"magmom": -0.0}, "label": "Ta", "xyz": [3.3962097912495963, 0.7030745876730816, 9.020667738135234]}, {"species": [{"element": "Ta", "occu": 1}], "abc": [0.12805967000000001, 0.65048977, 0.75], "properties": {"magmom": -0.0}, "label": "Ta", "xyz": [0.7197529940216439, 4.80829319608017, 11.4502374375]}, {"species": [{"element": "Ta", "occu": 1}], "abc": [0.10425939000000001, 0.90488458, 0.90913882], "properties": {"magmom": -0.0}, "label": "Ta", "xyz": [0.5859847062495963, 6.688729892326919, 13.879807136864764]}, {"species": [{"element": "Ta", "occu": 1}], "abc": [0.37194033, 0.65048977, 0.25], "properties": {"magmom": -0.0}, "label": "Ta", "xyz": [2.090472090978356, 4.80829319608017, 3.8167458125]}, {"species": [{"element": "S", "occu": 1}], "abc": [0.26704476, 0.58766432, 0.09832243], "properties": {"magmom": -0.0}, "label": "S", "xyz": [1.500911766739609, 4.3438997533121535, 1.5010868919092974]}, {"species": [{"element": "S", "occu": 1}], "abc": [0.73295524, 0.41233568, 0.90167757], "properties": {"magmom": -0.0}, "label": "S", "xyz": [4.119538403260391, 3.0479047266878463, 13.765896358090702]}, {"species": [{"element": "S", "occu": 1}], "abc": [0.25, 0.17848865, 0.5], "properties": {"magmom": 0.0}, "label": "S", "xyz": [1.4051125425, 1.3193532026991521, 7.633491625]}, {"species": [{"element": "S", "occu": 1}], "abc": [0.75, 0.82151135, -0.0], "properties": {"magmom": 0.0}, "label": "S", "xyz": [4.2153376275, 6.072451277300848, 0.0]}, {"species": [{"element": "S", "occu": 1}], "abc": [0.26704476, 0.58766432, 0.40167757], "properties": {"magmom": -0.0}, "label": "S", "xyz": [1.500911766739609, 4.3438997533121535, 6.132404733090702]}, {"species": [{"element": "S", "occu": 1}], "abc": [0.25, 0.17848865, -0.0], "properties": {"magmom": 0.0}, "label": "S", "xyz": [1.4051125425, 1.3193532026991521, 0.0]}, {"species": [{"element": "S", "occu": 1}], "abc": [0.76704476, 0.41233568, 0.09832243], "properties": {"magmom": -0.0}, "label": "S", "xyz": [4.311136851739609, 3.0479047266878463, 1.5010868919092974]}, {"species": [{"element": "S", "occu": 1}], "abc": [0.23295524, 0.58766432, 0.59832243], "properties": {"magmom": -0.0}, "label": "S", "xyz": [1.3093133182603909, 4.3438997533121535, 9.134578516909297]}, {"species": [{"element": "S", "occu": 1}], "abc": [0.73295524, 0.41233568, 0.59832243], "properties": {"magmom": -0.0}, "label": "S", "xyz": [4.119538403260391, 3.0479047266878463, 9.134578516909297]}, {"species": [{"element": "S", "occu": 1}], "abc": [0.23295524, 0.58766432, 0.90167757], "properties": {"magmom": -0.0}, "label": "S", "xyz": [1.3093133182603909, 4.3438997533121535, 13.765896358090702]}, {"species": [{"element": "S", "occu": 1}], "abc": [0.75, 0.82151135, 0.5], "properties": {"magmom": 0.0}, "label": "S", "xyz": [4.2153376275, 6.072451277300848, 7.633491625]}, {"species": [{"element": "S", "occu": 1}], "abc": [0.76704476, 0.41233568, 0.40167757], "properties": {"magmom": -0.0}, "label": "S", "xyz": [4.311136851739609, 3.0479047266878463, 6.132404733090702]}]}, "task_ids": null, "uncorrected_energy_per_atom": null, "energy_per_atom": -10.05674179361111, "formation_energy_per_atom": -0.766003575999996, "energy_above_hull": 0.027611913499999002, "is_stable": false, "equilibrium_reaction_energy_per_atom": null, "decomposes_to": null, "xas": null, "grain_boundaries": null, "band_gap": 0.0, "cbm": null, "vbm": null, "efermi": 6.6425628, "is_gap_direct": null, "is_metal": null, "es_source_calc_id": null, "bandstructure": null, "dos": null, "dos_energy_up": null, "dos_energy_down": null, "is_magnetic": null, "ordering": null, "total_magnetization": 2e-07, "total_magnetization_normalized_vol": null, "total_magnetization_normalized_formula_units": null, "num_magnetic_sites": null, "num_unique_magnetic_sites": null, "types_of_magnetic_species": null, "bulk_modulus": null, "shear_modulus": null, "universal_anisotropy": null, "homogeneous_poisson": null, "e_total": null, "e_ionic": null, "e_electronic": null, "n": null, "e_ij_max": null, "weighted_surface_energy_EV_PER_ANG2": null, "weighted_surface_energy": null, "weighted_work_function": null, "surface_anisotropy": null, "shape_factor": null, "has_reconstructed": null, "possible_species": null, "has_props": null, "theoretical": null, "database_IDs": null, "fields_not_requested": ["builder_meta", "nsites", "elements", "nelements", "composition", "composition_reduced", "chemsys", "symmetry", "property_name", "deprecated", "deprecation_reasons", "last_updated", "origins", "warnings", "task_ids", "uncorrected_energy_per_atom", "equilibrium_reaction_energy_per_atom", "decomposes_to", "xas", "grain_boundaries", "cbm", "vbm", "is_gap_direct", "is_metal", "es_source_calc_id", "bandstructure", "dos", "dos_energy_up", "dos_energy_down", "is_magnetic", "ordering", "total_magnetization_normalized_vol", "total_magnetization_normalized_formula_units", "num_magnetic_sites", "num_unique_magnetic_sites", "types_of_magnetic_species", "bulk_modulus", "shear_modulus", "universal_anisotropy", "homogeneous_poisson", "e_total", "e_ionic", "e_electronic", "n", "e_ij_max", "weighted_surface_energy_EV_PER_ANG2", "weighted_surface_energy", "weighted_work_function", "surface_anisotropy", "shape_factor", "has_reconstructed", "possible_species", "has_props", "theoretical", "database_IDs"]}