{
  "builder_meta": null,
  "nsites": null,
  "elements": null,
  "nelements": null,
  "composition": null,
  "composition_reduced": null,
  "formula_pretty": "Ta2Se3",
  "formula_anonymous": "A2B3",
  "chemsys": null,
  "volume": 203.81465519003655,
  "density": 9.756811066270284,
  "density_atomic": 20.381465519003655,
  "symmetry": null,
  "property_name": null,
  "material_id": "mp-9983",
  "deprecated": null,
  "deprecation_reasons": null,
  "last_updated": null,
  "origins": null,
  "warnings": null,
  "structure": {
    "@module": "pymatgen.core.structure",
    "@class": "Structure",
    "charge": 0,
    "lattice": {
      "matrix": [
        [3.42564383, 0.0, 0.0],
        [0.0, 6.42789774, -1.59911128],
        [0.0, -0.07812566, 9.27545496]
      ],
      "pbc": [true, true, true],
      "a": 3.42564383,
      "b": 6.6238226306054075,
      "c": 9.275783974076747,
      "alpha": 104.45283997959397,
      "beta": 90.0,
      "gamma": 90.0,
      "volume": 203.81465519003655
    },
    "properties": {},
    "sites": [
      {
        "species": [{ "element": "Ta", "occu": 1 }],
        "abc": [0.25, 0.11310352, 0.63297809],
        "properties": { "magmom": -0.0 },
        "label": "Ta",
        "xyz": [0.8564109575, 0.6775660295472553, 5.690294649822121]
      },
      {
        "species": [{ "element": "Ta", "occu": 1 }],
        "abc": [0.75, 0.88689648, 0.36702191],
        "properties": { "magmom": -0.0 },
        "label": "Ta",
        "xyz": [2.5692328724999998, 5.672206050452744, 1.986049030177879]
      },
      {
        "species": [{ "element": "Ta", "occu": 1 }],
        "abc": [0.25, 0.32471343, 0.00098772],
        "properties": { "magmom": 0.0 },
        "label": "Ta",
        "xyz": [0.8564109575, 2.087147556567753, -0.5100913563073992]
      },
      {
        "species": [{ "element": "Ta", "occu": 1 }],
        "abc": [0.75, 0.67528657, 0.99901228],
        "properties": { "magmom": 0.0 },
        "label": "Ta",
        "xyz": [2.5692328724999998, 4.262624523432247, 8.186435036307397]
      },
      {
        "species": [{ "element": "Se", "occu": 1 }],
        "abc": [0.25, 0.72836065, 0.51194436],
        "properties": { "magmom": 0.0 },
        "label": "Se",
        "xyz": [0.8564109575, 4.641831785031654, 3.583787121882893]
      },
      {
        "species": [{ "element": "Se", "occu": 1 }],
        "abc": [0.75, 0.27163935, 0.48805564],
        "properties": { "magmom": 0.0 },
        "label": "Se",
        "xyz": [2.5692328724999998, 1.7079402949683467, 4.092556558117106]
      },
      {
        "species": [{ "element": "Se", "occu": 1 }],
        "abc": [0.25, 0.96733398, 0.15770394000000001],
        "properties": { "magmom": -0.0 },
        "label": "Se",
        "xyz": [0.8564109575, 6.2056031794701045, -0.08409888646075214]
      },
      {
        "species": [{ "element": "Se", "occu": 1 }],
        "abc": [0.75, 0.032666020000000004, 0.84229606],
        "properties": { "magmom": -0.0 },
        "label": "Se",
        "xyz": [2.5692328724999998, 0.14416890052989523, 7.7604425664607515]
      },
      {
        "species": [{ "element": "Se", "occu": 1 }],
        "abc": [0.75, 0.47561913, 0.20496169],
        "properties": { "magmom": -0.0 },
        "label": "Se",
        "xyz": [2.5692328724999998, 3.041218363521801, 1.1405450083536959]
      },
      {
        "species": [{ "element": "Se", "occu": 1 }],
        "abc": [0.25, 0.52438087, 0.79503831],
        "properties": { "magmom": -0.0 },
        "label": "Se",
        "xyz": [0.8564109575, 3.308553716478199, 6.535798671646304]
      }
    ]
  },
  "task_ids": null,
  "uncorrected_energy_per_atom": null,
  "energy_per_atom": -28.866403905,
  "formation_energy_per_atom": -0.8427346813708311,
  "energy_above_hull": 0.005318730666669,
  "is_stable": false,
  "equilibrium_reaction_energy_per_atom": null,
  "decomposes_to": null,
  "xas": null,
  "grain_boundaries": null,
  "band_gap": 0.0,
  "cbm": null,
  "vbm": null,
  "efermi": 5.56852734,
  "is_gap_direct": null,
  "is_metal": null,
  "es_source_calc_id": null,
  "bandstructure": null,
  "dos": null,
  "dos_energy_up": null,
  "dos_energy_down": null,
  "is_magnetic": null,
  "ordering": null,
  "total_magnetization": 0.0,
  "total_magnetization_normalized_vol": null,
  "total_magnetization_normalized_formula_units": null,
  "num_magnetic_sites": null,
  "num_unique_magnetic_sites": null,
  "types_of_magnetic_species": null,
  "bulk_modulus": null,
  "shear_modulus": null,
  "universal_anisotropy": null,
  "homogeneous_poisson": null,
  "e_total": null,
  "e_ionic": null,
  "e_electronic": null,
  "n": null,
  "e_ij_max": null,
  "weighted_surface_energy_EV_PER_ANG2": null,
  "weighted_surface_energy": null,
  "weighted_work_function": null,
  "surface_anisotropy": null,
  "shape_factor": null,
  "has_reconstructed": null,
  "possible_species": null,
  "has_props": null,
  "theoretical": null,
  "database_IDs": null,
  "fields_not_requested": [
    "builder_meta",
    "nsites",
    "elements",
    "nelements",
    "composition",
    "composition_reduced",
    "chemsys",
    "symmetry",
    "property_name",
    "deprecated",
    "deprecation_reasons",
    "last_updated",
    "origins",
    "warnings",
    "task_ids",
    "uncorrected_energy_per_atom",
    "equilibrium_reaction_energy_per_atom",
    "decomposes_to",
    "xas",
    "grain_boundaries",
    "cbm",
    "vbm",
    "is_gap_direct",
    "is_metal",
    "es_source_calc_id",
    "bandstructure",
    "dos",
    "dos_energy_up",
    "dos_energy_down",
    "is_magnetic",
    "ordering",
    "total_magnetization_normalized_vol",
    "total_magnetization_normalized_formula_units",
    "num_magnetic_sites",
    "num_unique_magnetic_sites",
    "types_of_magnetic_species",
    "bulk_modulus",
    "shear_modulus",
    "universal_anisotropy",
    "homogeneous_poisson",
    "e_total",
    "e_ionic",
    "e_electronic",
    "n",
    "e_ij_max",
    "weighted_surface_energy_EV_PER_ANG2",
    "weighted_surface_energy",
    "weighted_work_function",
    "surface_anisotropy",
    "shape_factor",
    "has_reconstructed",
    "possible_species",
    "has_props",
    "theoretical",
    "database_IDs"
  ]
}
