{"builder_meta": null, "nsites": null, "elements": null, "nelements": null, "composition": null, "composition_reduced": null, "formula_pretty": "Ta2Sn3", "formula_anonymous": "A2B3", "chemsys": null, "volume": 252.53699782687374, "density": 9.442654625383181, "density_atomic": 25.253699782687374, "symmetry": null, "property_name": null, "material_id": "mp-1218088", "deprecated": null, "deprecation_reasons": null, "last_updated": null, "origins": null, "warnings": null, "structure": {"@module": "pymatgen.core.structure", "@class": "Structure", "charge": 0, "lattice": {"matrix": [[0.0, 4.968027, 8.902646], [2.854907, 0.0, 8.902646], [2.854907, 4.968027, 0.0]], "pbc": [true, true, true], "a": 10.19501829689604, "b": 9.349203162835055, "c": 5.729902813432179, "alpha": 81.24865781427332, "beta": 65.00711230680673, "gamma": 33.74422987891996, "volume": 252.53699782687374}, "properties": {}, "sites": [{"species": [{"element": "Ta", "occu": 1}], "abc": [0.377797, 0.377797, 0.622203], "properties": {"magmom": -0.001}, "label": "Ta", "xyz": [2.854907, 4.968026999999999, 6.726785901724001]}, {"species": [{"element": "Ta", "occu": 1}], "abc": [0.622203, 0.622203, 0.377797], "properties": {"magmom": -0.001}, "label": "Ta", "xyz": [2.854907, 4.968026999999999, 11.078506098276]}, {"species": [{"element": "Ta", "occu": 1}], "abc": [0.892091, 0.892091, 0.607908999999999], "properties": {"magmom": 0.0}, "label": "Ta", "xyz": [4.282360499999998, 7.452040499999995, 15.883940745572001]}, {"species": [{"element": "Ta", "occu": 1}], "abc": [0.607908999999999, 0.607908999999999, 0.892091], "properties": {"magmom": 0.0}, "label": "Ta", "xyz": [4.282360499999998, 7.452040499999995, 10.823997254427983]}, {"species": [{"element": "Sn", "occu": 1}], "abc": [0.590144999999999, 0.909855, 0.590144999999999], "properties": {"magmom": 0.0}, "label": "Sn", "xyz": [4.282360499999997, 5.8637125878299905, 13.353968999999992]}, {"species": [{"element": "Sn", "occu": 1}], "abc": [0.909855, 0.590144999999999, 0.909855], "properties": {"magmom": 0.0}, "label": "Sn", "xyz": [4.282360499999997, 9.04036841217, 13.353968999999992]}, {"species": [{"element": "Sn", "occu": 1}], "abc": [0.080722, 0.080722, 0.919277999999999], "properties": {"magmom": 0.0}, "label": "Sn", "xyz": [2.854906999999997, 4.968026999999995, 1.4372787808240002]}, {"species": [{"element": "Sn", "occu": 1}], "abc": [0.919277999999999, 0.919277999999999, 0.080722], "properties": {"magmom": 0.0}, "label": "Sn", "xyz": [2.854906999999997, 4.968026999999995, 16.368013219175985]}, {"species": [{"element": "Sn", "occu": 1}], "abc": [0.126177999999999, 0.126177999999999, 0.373822], "properties": {"magmom": -0.0}, "label": "Sn", "xyz": [1.4274534999999973, 2.484013499999995, 2.246636133975983]}, {"species": [{"element": "Sn", "occu": 1}], "abc": [0.373822, 0.373822, 0.126177999999999], "properties": {"magmom": -0.0}, "label": "Sn", "xyz": [1.4274534999999973, 2.484013499999995, 6.656009866024]}]}, "task_ids": null, "uncorrected_energy_per_atom": null, "energy_per_atom": -33.88129728323333, "formation_energy_per_atom": 0.403146069833337, "energy_above_hull": 0.44396166610000104, "is_stable": false, "equilibrium_reaction_energy_per_atom": null, "decomposes_to": null, "xas": null, "grain_boundaries": null, "band_gap": 0.0, "cbm": null, "vbm": null, "efermi": 6.692232, "is_gap_direct": null, "is_metal": null, "es_source_calc_id": null, "bandstructure": null, "dos": null, "dos_energy_up": null, "dos_energy_down": null, "is_magnetic": null, "ordering": null, "total_magnetization": 0.009113099999999002, "total_magnetization_normalized_vol": null, "total_magnetization_normalized_formula_units": null, "num_magnetic_sites": null, "num_unique_magnetic_sites": null, "types_of_magnetic_species": null, "bulk_modulus": null, "shear_modulus": null, "universal_anisotropy": null, "homogeneous_poisson": null, "e_total": null, "e_ionic": null, "e_electronic": null, "n": null, "e_ij_max": null, "weighted_surface_energy_EV_PER_ANG2": null, "weighted_surface_energy": null, "weighted_work_function": null, "surface_anisotropy": null, "shape_factor": null, "has_reconstructed": null, "possible_species": null, "has_props": null, "theoretical": null, "database_IDs": null, "fields_not_requested": ["builder_meta", "nsites", "elements", "nelements", "composition", "composition_reduced", "chemsys", "symmetry", "property_name", "deprecated", "deprecation_reasons", "last_updated", "origins", "warnings", "task_ids", "uncorrected_energy_per_atom", "equilibrium_reaction_energy_per_atom", "decomposes_to", "xas", "grain_boundaries", "cbm", "vbm", "is_gap_direct", "is_metal", "es_source_calc_id", "bandstructure", "dos", "dos_energy_up", "dos_energy_down", "is_magnetic", "ordering", "total_magnetization_normalized_vol", "total_magnetization_normalized_formula_units", "num_magnetic_sites", "num_unique_magnetic_sites", "types_of_magnetic_species", "bulk_modulus", "shear_modulus", "universal_anisotropy", "homogeneous_poisson", "e_total", "e_ionic", "e_electronic", "n", "e_ij_max", "weighted_surface_energy_EV_PER_ANG2", "weighted_surface_energy", "weighted_work_function", "surface_anisotropy", "shape_factor", "has_reconstructed", "possible_species", "has_props", "theoretical", "database_IDs"]}