{"builder_meta": null, "nsites": null, "elements": null, "nelements": null, "composition": null, "composition_reduced": null, "formula_pretty": "Ta2Si", "formula_anonymous": "AB2", "chemsys": null, "volume": 96.24440802015175, "density": 13.456971283698914, "density_atomic": 16.04073467002529, "symmetry": null, "property_name": null, "material_id": "mp-2783", "deprecated": null, "deprecation_reasons": null, "last_updated": null, "origins": null, "warnings": null, "structure": {"@module": "pymatgen.core.structure", "@class": "Structure", "charge": 0, "lattice": {"matrix": [[4.88257147, -0.0026619, -1.26404586], [-2.92616418, 3.90859109, -1.26404585], [0.00133289, 0.00266189, 5.04354187]], "pbc": [true, true, true], "a": 5.043542721297472, "b": 5.0435436974457435, "c": 5.043542748574382, "alpha": 104.49945521243278, "beta": 104.49946550182, "gamma": 119.95094401041915, "volume": 96.24440802015175}, "properties": {}, "sites": [{"species": [{"element": "Ta", "occu": 1}], "abc": [0.8364067900000001, 0.66359321, 0.5], "properties": {"magmom": -0.0}, "label": "Ta", "xyz": [2.1426996939750635, 2.5928190217561977, 0.6257021516359322]}, {"species": [{"element": "Ta", "occu": 1}], "abc": [0.33640679, 0.8364067900000001, 0.17281357], "properties": {"magmom": -0.0}, "label": "Ta", "xyz": [-0.8047030521591837, 3.2687366564890477, -0.6108976659875351]}, {"species": [{"element": "Ta", "occu": 1}], "abc": [0.16359321000000002, 0.33640679, 0.5], "properties": {"magmom": -0.0}, "label": "Ta", "xyz": [-0.1849595139750633, 1.3157720582438022, 1.889748008364068]}, {"species": [{"element": "Ta", "occu": 1}], "abc": [0.66359321, 0.16359321000000002, 0.82718643], "properties": {"magmom": -0.0}, "label": "Ta", "xyz": [2.7624432321591836, 0.6398544235109526, 3.1263478259875352]}, {"species": [{"element": "Si", "occu": 1}], "abc": [0.75, 0.75, -0.0], "properties": {"magmom": 0.0}, "label": "Si", "xyz": [1.4673054675000006, 2.9294468924999997, -1.8960687825]}, {"species": [{"element": "Si", "occu": 1}], "abc": [0.25, 0.25, -0.0], "properties": {"magmom": 0.0}, "label": "Si", "xyz": [0.4891018225000001, 0.9764822974999999, -0.6320229275]}]}, "task_ids": null, "uncorrected_energy_per_atom": null, "energy_per_atom": -35.913347976666664, "formation_energy_per_atom": -0.594204636555555, "energy_above_hull": 0.0, "is_stable": true, "equilibrium_reaction_energy_per_atom": null, "decomposes_to": null, "xas": null, "grain_boundaries": null, "band_gap": 0.0, "cbm": null, "vbm": null, "efermi": 7.4834367, "is_gap_direct": null, "is_metal": null, "es_source_calc_id": null, "bandstructure": null, "dos": null, "dos_energy_up": null, "dos_energy_down": null, "is_magnetic": null, "ordering": null, "total_magnetization": 0.0, "total_magnetization_normalized_vol": null, "total_magnetization_normalized_formula_units": null, "num_magnetic_sites": null, "num_unique_magnetic_sites": null, "types_of_magnetic_species": null, "bulk_modulus": null, "shear_modulus": null, "universal_anisotropy": null, "homogeneous_poisson": null, "e_total": null, "e_ionic": null, "e_electronic": null, "n": null, "e_ij_max": null, "weighted_surface_energy_EV_PER_ANG2": null, "weighted_surface_energy": null, "weighted_work_function": null, "surface_anisotropy": null, "shape_factor": null, "has_reconstructed": null, "possible_species": null, "has_props": null, "theoretical": null, "database_IDs": null, "fields_not_requested": ["builder_meta", "nsites", "elements", "nelements", "composition", "composition_reduced", "chemsys", "symmetry", "property_name", "deprecated", "deprecation_reasons", "last_updated", "origins", "warnings", "task_ids", "uncorrected_energy_per_atom", "equilibrium_reaction_energy_per_atom", "decomposes_to", "xas", "grain_boundaries", "cbm", "vbm", "is_gap_direct", "is_metal", "es_source_calc_id", "bandstructure", "dos", "dos_energy_up", "dos_energy_down", "is_magnetic", "ordering", "total_magnetization_normalized_vol", "total_magnetization_normalized_formula_units", "num_magnetic_sites", "num_unique_magnetic_sites", "types_of_magnetic_species", "bulk_modulus", "shear_modulus", "universal_anisotropy", "homogeneous_poisson", "e_total", "e_ionic", "e_electronic", "n", "e_ij_max", "weighted_surface_energy_EV_PER_ANG2", "weighted_surface_energy", "weighted_work_function", "surface_anisotropy", "shape_factor", "has_reconstructed", "possible_species", "has_props", "theoretical", "database_IDs"]}