{
  "builder_meta": null,
  "nsites": null,
  "elements": null,
  "nelements": null,
  "composition": null,
  "composition_reduced": null,
  "formula_pretty": "Ta2Te3",
  "formula_anonymous": "A2B3",
  "chemsys": null,
  "volume": 277.2236292108384,
  "density": 8.921291491144155,
  "density_atomic": 27.72236292108384,
  "symmetry": null,
  "property_name": null,
  "material_id": "mp-542634",
  "deprecated": null,
  "deprecation_reasons": null,
  "last_updated": null,
  "origins": null,
  "warnings": null,
  "structure": {
    "@module": "pymatgen.core.structure",
    "@class": "Structure",
    "charge": 0,
    "lattice": {
      "matrix": [
        [3.48521186, -0.00052245, 0.59622073],
        [1.66305518, 7.60285429, 0.74222991],
        [0.00992914, 0.08934613, 10.46896768]
      ],
      "pbc": [true, true, true],
      "a": 3.5358423523851283,
      "b": 7.817931384067965,
      "c": 10.469353638293612,
      "alpha": 84.06287957349035,
      "beta": 80.23838336396102,
      "gamma": 76.96522911965842,
      "volume": 277.22362921083845
    },
    "properties": {},
    "sites": [
      {
        "species": [{ "element": "Ta", "occu": 1 }],
        "abc": [0.41664188, 0.02163467, 0.14545641],
        "properties": { "magmom": 0.0 },
        "label": "Ta",
        "xyz": [1.4895091286185749, 0.1772635363892216, 1.7872468801479813]
      },
      {
        "species": [{ "element": "Ta", "occu": 1 }],
        "abc": [0.58335812, 0.97836533, 0.85454359],
        "properties": { "magmom": 0.0 },
        "label": "Ta",
        "xyz": [3.6686870513814256, 7.514414433610778, 10.02017143985202]
      },
      {
        "species": [{ "element": "Ta", "occu": 1 }],
        "abc": [0.22419297, 0.93840682, 0.61293401],
        "properties": { "magmom": -0.0 },
        "label": "Ta",
        "xyz": [2.348068228517003, 7.189216469323962, 7.246968446449052]
      },
      {
        "species": [{ "element": "Ta", "occu": 1 }],
        "abc": [0.7758070300000001, 0.061593180000000004, 0.38706599],
        "properties": { "magmom": -0.0 },
        "label": "Ta",
        "xyz": [2.8101279514829973, 0.5024615006760375, 4.560449873550949]
      },
      {
        "species": [{ "element": "Te", "occu": 1 }],
        "abc": [0.42718246, 0.78257469, 0.36285502000000003],
        "properties": { "magmom": -0.0 },
        "label": "Te",
        "xyz": [2.793889106210653, 5.981997849423766, 4.634262856777127]
      },
      {
        "species": [{ "element": "Te", "occu": 1 }],
        "abc": [0.57281754, 0.21742531, 0.63714498],
        "properties": { "magmom": -0.0 },
        "label": "Te",
        "xyz": [2.3643070737893472, 1.7096801205762344, 7.173155463222873]
      },
      {
        "species": [{ "element": "Te", "occu": 1 }],
        "abc": [0.19767799, 0.32010544, 0.28564095],
        "properties": { "magmom": -0.0 },
        "label": "Te",
        "xyz": [1.2241388543294236, 2.459132654342486, 3.345817421058939]
      },
      {
        "species": [{ "element": "Te", "occu": 1 }],
        "abc": [0.80232201, 0.67989456, 0.71435905],
        "properties": { "magmom": -0.0 },
        "label": "Te",
        "xyz": [3.934057325670577, 5.232545315657514, 8.461600898941061]
      },
      {
        "species": [{ "element": "Te", "occu": 1 }],
        "abc": [0.09715085, 0.77523064, 0.03019967],
        "properties": { "magmom": -0.0 },
        "label": "Te",
        "xyz": [1.62814248292718, 5.89661306424364, 0.9494820880402286]
      },
      {
        "species": [{ "element": "Te", "occu": 1 }],
        "abc": [0.90284915, 0.22476936, 0.96980033],
        "properties": { "magmom": -0.0 },
        "label": "Te",
        "xyz": [3.5300536970728196, 1.7950649057563597, 10.857936231959773]
      }
    ]
  },
  "task_ids": null,
  "uncorrected_energy_per_atom": null,
  "energy_per_atom": -7.239030188999999,
  "formation_energy_per_atom": -0.606275635933332,
  "energy_above_hull": 0.0,
  "is_stable": true,
  "equilibrium_reaction_energy_per_atom": null,
  "decomposes_to": null,
  "xas": null,
  "grain_boundaries": null,
  "band_gap": 0.0,
  "cbm": null,
  "vbm": null,
  "efermi": 5.68345076,
  "is_gap_direct": null,
  "is_metal": null,
  "es_source_calc_id": null,
  "bandstructure": null,
  "dos": null,
  "dos_energy_up": null,
  "dos_energy_down": null,
  "is_magnetic": null,
  "ordering": null,
  "total_magnetization": 0.0,
  "total_magnetization_normalized_vol": null,
  "total_magnetization_normalized_formula_units": null,
  "num_magnetic_sites": null,
  "num_unique_magnetic_sites": null,
  "types_of_magnetic_species": null,
  "bulk_modulus": null,
  "shear_modulus": null,
  "universal_anisotropy": null,
  "homogeneous_poisson": null,
  "e_total": null,
  "e_ionic": null,
  "e_electronic": null,
  "n": null,
  "e_ij_max": null,
  "weighted_surface_energy_EV_PER_ANG2": null,
  "weighted_surface_energy": null,
  "weighted_work_function": null,
  "surface_anisotropy": null,
  "shape_factor": null,
  "has_reconstructed": null,
  "possible_species": null,
  "has_props": null,
  "theoretical": null,
  "database_IDs": null,
  "fields_not_requested": [
    "builder_meta",
    "nsites",
    "elements",
    "nelements",
    "composition",
    "composition_reduced",
    "chemsys",
    "symmetry",
    "property_name",
    "deprecated",
    "deprecation_reasons",
    "last_updated",
    "origins",
    "warnings",
    "task_ids",
    "uncorrected_energy_per_atom",
    "equilibrium_reaction_energy_per_atom",
    "decomposes_to",
    "xas",
    "grain_boundaries",
    "cbm",
    "vbm",
    "is_gap_direct",
    "is_metal",
    "es_source_calc_id",
    "bandstructure",
    "dos",
    "dos_energy_up",
    "dos_energy_down",
    "is_magnetic",
    "ordering",
    "total_magnetization_normalized_vol",
    "total_magnetization_normalized_formula_units",
    "num_magnetic_sites",
    "num_unique_magnetic_sites",
    "types_of_magnetic_species",
    "bulk_modulus",
    "shear_modulus",
    "universal_anisotropy",
    "homogeneous_poisson",
    "e_total",
    "e_ionic",
    "e_electronic",
    "n",
    "e_ij_max",
    "weighted_surface_energy_EV_PER_ANG2",
    "weighted_surface_energy",
    "weighted_work_function",
    "surface_anisotropy",
    "shape_factor",
    "has_reconstructed",
    "possible_species",
    "has_props",
    "theoretical",
    "database_IDs"
  ]
}
