{
  "builder_meta": null,
  "nsites": null,
  "elements": null,
  "nelements": null,
  "composition": null,
  "composition_reduced": null,
  "formula_pretty": "Ta3Au",
  "formula_anonymous": "AB3",
  "chemsys": null,
  "volume": 141.82722226026985,
  "density": 17.323666561833903,
  "density_atomic": 17.72840278253373,
  "symmetry": null,
  "property_name": null,
  "material_id": "mp-569249",
  "deprecated": null,
  "deprecation_reasons": null,
  "last_updated": null,
  "origins": null,
  "warnings": null,
  "structure": {
    "@module": "pymatgen.core.structure",
    "@class": "Structure",
    "charge": 0,
    "lattice": {
      "matrix": [
        [5.21501522, 0.0, 0.0],
        [-0.0, 5.21499071, 2.04e-6],
        [-0.0, 2.04e-6, 5.21495395]
      ],
      "pbc": [true, true, true],
      "a": 5.21501522,
      "b": 5.214990710000399,
      "c": 5.214953950000399,
      "alpha": 89.9999551739174,
      "beta": 90.0,
      "gamma": 90.0,
      "volume": 141.82722226026982
    },
    "properties": {},
    "sites": [
      {
        "species": [{ "element": "Ta", "occu": 1 }],
        "abc": [0.5, 0.25, 0.0],
        "properties": { "magmom": -0.0 },
        "label": "Ta",
        "xyz": [2.60750761, 1.3037476775, 5.1e-7]
      },
      {
        "species": [{ "element": "Ta", "occu": 1 }],
        "abc": [-0.0, 0.5, 0.75],
        "properties": { "magmom": -0.0 },
        "label": "Ta",
        "xyz": [0.0, 2.607496885, 3.9112164825]
      },
      {
        "species": [{ "element": "Ta", "occu": 1 }],
        "abc": [0.75, -0.0, 0.5],
        "properties": { "magmom": -0.0 },
        "label": "Ta",
        "xyz": [3.911261415, 1.02e-6, 2.607476975]
      },
      {
        "species": [{ "element": "Ta", "occu": 1 }],
        "abc": [0.5, 0.75, 0.0],
        "properties": { "magmom": -0.0 },
        "label": "Ta",
        "xyz": [2.60750761, 3.9112430325000003, 1.53e-6]
      },
      {
        "species": [{ "element": "Ta", "occu": 1 }],
        "abc": [-0.0, 0.5, 0.25],
        "properties": { "magmom": -0.0 },
        "label": "Ta",
        "xyz": [0.0, 2.607495865, 1.3037395075]
      },
      {
        "species": [{ "element": "Ta", "occu": 1 }],
        "abc": [0.25, -0.0, 0.5],
        "properties": { "magmom": -0.0 },
        "label": "Ta",
        "xyz": [1.303753805, 1.02e-6, 2.607476975]
      },
      {
        "species": [{ "element": "Au", "occu": 1 }],
        "abc": [-0.0, -0.0, 0.0],
        "properties": { "magmom": -0.0 },
        "label": "Au",
        "xyz": [0.0, 0.0, 0.0]
      },
      {
        "species": [{ "element": "Au", "occu": 1 }],
        "abc": [0.5, 0.5, 0.5],
        "properties": { "magmom": -0.0 },
        "label": "Au",
        "xyz": [2.60750761, 2.607496375, 2.607477995]
      }
    ]
  },
  "task_ids": null,
  "uncorrected_energy_per_atom": null,
  "energy_per_atom": -49.14468519625,
  "formation_energy_per_atom": -0.054570624250004,
  "energy_above_hull": 0.0,
  "is_stable": true,
  "equilibrium_reaction_energy_per_atom": null,
  "decomposes_to": null,
  "xas": null,
  "grain_boundaries": null,
  "band_gap": 0.0,
  "cbm": null,
  "vbm": null,
  "efermi": 6.09191581,
  "is_gap_direct": null,
  "is_metal": null,
  "es_source_calc_id": null,
  "bandstructure": null,
  "dos": null,
  "dos_energy_up": null,
  "dos_energy_down": null,
  "is_magnetic": null,
  "ordering": null,
  "total_magnetization": 0.002916299999999,
  "total_magnetization_normalized_vol": null,
  "total_magnetization_normalized_formula_units": null,
  "num_magnetic_sites": null,
  "num_unique_magnetic_sites": null,
  "types_of_magnetic_species": null,
  "bulk_modulus": null,
  "shear_modulus": null,
  "universal_anisotropy": null,
  "homogeneous_poisson": null,
  "e_total": null,
  "e_ionic": null,
  "e_electronic": null,
  "n": null,
  "e_ij_max": null,
  "weighted_surface_energy_EV_PER_ANG2": null,
  "weighted_surface_energy": null,
  "weighted_work_function": null,
  "surface_anisotropy": null,
  "shape_factor": null,
  "has_reconstructed": null,
  "possible_species": null,
  "has_props": null,
  "theoretical": null,
  "database_IDs": null,
  "fields_not_requested": [
    "builder_meta",
    "nsites",
    "elements",
    "nelements",
    "composition",
    "composition_reduced",
    "chemsys",
    "symmetry",
    "property_name",
    "deprecated",
    "deprecation_reasons",
    "last_updated",
    "origins",
    "warnings",
    "task_ids",
    "uncorrected_energy_per_atom",
    "equilibrium_reaction_energy_per_atom",
    "decomposes_to",
    "xas",
    "grain_boundaries",
    "cbm",
    "vbm",
    "is_gap_direct",
    "is_metal",
    "es_source_calc_id",
    "bandstructure",
    "dos",
    "dos_energy_up",
    "dos_energy_down",
    "is_magnetic",
    "ordering",
    "total_magnetization_normalized_vol",
    "total_magnetization_normalized_formula_units",
    "num_magnetic_sites",
    "num_unique_magnetic_sites",
    "types_of_magnetic_species",
    "bulk_modulus",
    "shear_modulus",
    "universal_anisotropy",
    "homogeneous_poisson",
    "e_total",
    "e_ionic",
    "e_electronic",
    "n",
    "e_ij_max",
    "weighted_surface_energy_EV_PER_ANG2",
    "weighted_surface_energy",
    "weighted_work_function",
    "surface_anisotropy",
    "shape_factor",
    "has_reconstructed",
    "possible_species",
    "has_props",
    "theoretical",
    "database_IDs"
  ]
}
