{"builder_meta": null, "nsites": null, "elements": null, "nelements": null, "composition": null, "composition_reduced": null, "formula_pretty": "Ta3As", "formula_anonymous": "AB3", "chemsys": null, "volume": 549.2737284041405, "density": 14.94079562826282, "density_atomic": 17.16480401262939, "symmetry": null, "property_name": null, "material_id": "mp-1198134", "deprecated": null, "deprecation_reasons": null, "last_updated": null, "origins": null, "warnings": null, "structure": {"@module": "pymatgen.core.structure", "@class": "Structure", "charge": 0, "lattice": {"matrix": [[0.0, 0.0, 5.15299784], [10.32439076, -1.2290000000000003e-05, -0.0], [1.2290000000000003e-05, 10.32439076, -0.0]], "pbc": [true, true, true], "a": 5.15299784, "b": 10.324390760007315, "c": 10.324390760007315, "alpha": 90.0, "beta": 90.0, "gamma": 90.0, "volume": 549.2737284041405}, "properties": {}, "sites": [{"species": [{"element": "Ta", "occu": 1}], "abc": [0.26636216, 0.83778206, 0.15601481], "properties": {"magmom": 0.0}, "label": "Ta", "xyz": [8.64959127657978, 1.6107475664456383, 1.3725636351377346]}, {"species": [{"element": "Ta", "occu": 1}], "abc": [0.26636216, 0.66221794, 0.34398519], "properties": {"magmom": 0.0}, "label": "Ta", "xyz": [6.83700100842022, 3.551429378554362, 1.3725636351377346]}, {"species": [{"element": "Ta", "occu": 1}], "abc": [0.76636216, 0.6560148100000001, 0.16221794], "properties": {"magmom": 0.0}, "label": "Ta", "xyz": [6.772955236445639, 1.6747933384202196, 3.9490625551377345]}, {"species": [{"element": "Ta", "occu": 1}], "abc": [0.76636216, 0.84398519, 0.33778206], "properties": {"magmom": 0.0}, "label": "Ta", "xyz": [8.713637048554363, 3.4873836065797805, 3.9490625551377345]}, {"species": [{"element": "Ta", "occu": 1}], "abc": [0.73363784, 0.16221794, 0.84398519], "properties": {"magmom": 0.0}, "label": "Ta", "xyz": [1.6748117734202197, 8.713630903554362, 3.780434204862266]}, {"species": [{"element": "Ta", "occu": 1}], "abc": [0.73363784, 0.33778206, 0.6560148100000001], "properties": {"magmom": 0.0}, "label": "Ta", "xyz": [3.4874020415797804, 6.772949091445638, 3.780434204862266]}, {"species": [{"element": "Ta", "occu": 1}], "abc": [0.23363784, 0.34398519, 0.83778206], "properties": {"magmom": 0.0}, "label": "Ta", "xyz": [3.551447813554362, 8.64958513157978, 1.2039352848622658]}, {"species": [{"element": "Ta", "occu": 1}], "abc": [0.23363784, 0.15601481, 0.66221794], "properties": {"magmom": 0.0}, "label": "Ta", "xyz": [1.6107660014456384, 6.83699486342022, 1.2039352848622658]}, {"species": [{"element": "Ta", "occu": 1}], "abc": [0.9874664400000001, 0.25756766000000003, 0.10077547], "properties": {"magmom": 0.0}, "label": "Ta", "xyz": [2.659230407509348, 1.0404421657961158, 5.08841243239249]}, {"species": [{"element": "Ta", "occu": 1}], "abc": [0.9874664400000001, 0.24243234, 0.39922453], "properties": {"magmom": 0.0}, "label": "Ta", "xyz": [2.5029711174906524, 4.1217470692038845, 5.08841243239249]}, {"species": [{"element": "Ta", "occu": 1}], "abc": [0.48746644, 0.60077547, 0.74243234], "properties": {"magmom": 0.0}, "label": "Ta", "xyz": [6.202649835796116, 7.6651542074906525, 2.5119135123924896]}, {"species": [{"element": "Ta", "occu": 1}], "abc": [0.48746644, 0.89922453, 0.75756766], "properties": {"magmom": 0.0}, "label": "Ta", "xyz": [9.283954739203885, 7.821413497509347, 2.5119135123924896]}, {"species": [{"element": "Ta", "occu": 1}], "abc": [0.012533560000000001, 0.74243234, 0.89922453], "properties": {"magmom": 0.0}, "label": "Ta", "xyz": [7.665172642490653, 9.283936304203884, 0.06458540760751041]}, {"species": [{"element": "Ta", "occu": 1}], "abc": [0.012533560000000001, 0.75756766, 0.60077547], "properties": {"magmom": 0.0}, "label": "Ta", "xyz": [7.8214319325093475, 6.202631400796116, 0.06458540760751041]}, {"species": [{"element": "Ta", "occu": 1}], "abc": [0.51253356, 0.39922453, 0.25756766000000003], "properties": {"magmom": 0.0}, "label": "Ta", "xyz": [4.121753214203884, 2.659224262509348, 2.6410843276075107]}, {"species": [{"element": "Ta", "occu": 1}], "abc": [0.51253356, 0.10077547, 0.24243234], "properties": {"magmom": 0.0}, "label": "Ta", "xyz": [1.0404483107961158, 2.5029649724906524, 2.6410843276075107]}, {"species": [{"element": "Ta", "occu": 1}], "abc": [0.24325355, 0.44522306, 0.54114451], "properties": {"magmom": -0.0}, "label": "Ta", "xyz": [4.5966634974689535, 5.58698190707732, 1.2534850177223322]}, {"species": [{"element": "Ta", "occu": 1}], "abc": [0.24325355, 0.05477694, 0.95885549], "properties": {"magmom": -0.0}, "label": "Ta", "xyz": [0.5655503175310466, 9.89959808792268, 1.2534850177223322]}, {"species": [{"element": "Ta", "occu": 1}], "abc": [0.74325355, 0.04114451, 0.55477694], "properties": {"magmom": -0.0}, "label": "Ta", "xyz": [0.42479881707732026, 5.727733407531046, 3.8299839377223326]}, {"species": [{"element": "Ta", "occu": 1}], "abc": [0.74325355, 0.45885549000000003, 0.94522306], "properties": {"magmom": -0.0}, "label": "Ta", "xyz": [4.73741499792268, 9.758846587468954, 3.8299839377223326]}, {"species": [{"element": "Ta", "occu": 1}], "abc": [0.7567464500000001, 0.55477694, 0.45885549000000003], "properties": {"magmom": -0.0}, "label": "Ta", "xyz": [5.727739552531046, 4.73739656292268, 3.8995128222776687]}, {"species": [{"element": "Ta", "occu": 1}], "abc": [0.7567464500000001, 0.94522306, 0.04114451], "properties": {"magmom": -0.0}, "label": "Ta", "xyz": [9.758852732468954, 0.4247803820773203, 3.8995128222776687]}, {"species": [{"element": "Ta", "occu": 1}], "abc": [0.25674645, 0.95885549, 0.44522306], "properties": {"magmom": -0.0}, "label": "Ta", "xyz": [9.89960423292268, 4.596645062468954, 1.3230139022776681]}, {"species": [{"element": "Ta", "occu": 1}], "abc": [0.25674645, 0.54114451, 0.05477694], "properties": {"magmom": -0.0}, "label": "Ta", "xyz": [5.58698805207732, 0.5655318825310466, 1.3230139022776681]}, {"species": [{"element": "As", "occu": 1}], "abc": [0.48625692000000004, 0.26477575000000003, 0.043613099999999], "properties": {"magmom": -0.0}, "label": "As", "xyz": [2.7336488427770695, 0.4502754325609782, 2.505680858445053]}, {"species": [{"element": "As", "occu": 1}], "abc": [0.48625692000000004, 0.23522425, 0.4563869], "properties": {"magmom": -0.0}, "label": "As", "xyz": [2.428552682222931, 4.711913802439011, 2.505680858445053]}, {"species": [{"element": "As", "occu": 1}], "abc": [0.98625692, 0.5436131, 0.73522425], "properties": {"magmom": -0.0}, "label": "As", "xyz": [5.612483102560988, 7.590735772222931, 5.082179778445053]}, {"species": [{"element": "As", "occu": 1}], "abc": [0.98625692, 0.956386899999999, 0.76477575], "properties": {"magmom": -0.0}, "label": "As", "xyz": [9.874121472439, 7.895831932777068, 5.082179778445053]}, {"species": [{"element": "As", "occu": 1}], "abc": [0.51374308, 0.73522425, 0.956386899999999], "properties": {"magmom": -0.0}, "label": "As", "xyz": [7.590754207222932, 9.874103037439001, 2.6473169815549475]}, {"species": [{"element": "As", "occu": 1}], "abc": [0.51374308, 0.76477575, 0.5436131], "properties": {"magmom": -0.0}, "label": "As", "xyz": [7.895850367777069, 5.612464667560989, 2.6473169815549475]}, {"species": [{"element": "As", "occu": 1}], "abc": [0.01374308, 0.4563869, 0.26477575000000003], "properties": {"magmom": -0.0}, "label": "As", "xyz": [4.711919947439012, 2.7336426977770696, 0.0708180615549472]}, {"species": [{"element": "As", "occu": 1}], "abc": [0.01374308, 0.043613099999999, 0.23522425], "properties": {"magmom": -0.0}, "label": "As", "xyz": [0.4502815775609782, 2.428546537222931, 0.0708180615549472]}]}, "task_ids": null, "uncorrected_energy_per_atom": null, "energy_per_atom": -40.505142459375, "formation_energy_per_atom": -0.38438517800000205, "energy_above_hull": 0.0, "is_stable": true, "equilibrium_reaction_energy_per_atom": null, "decomposes_to": null, "xas": null, "grain_boundaries": null, "band_gap": 0.0, "cbm": null, "vbm": null, "efermi": 6.85173659, "is_gap_direct": null, "is_metal": null, "es_source_calc_id": null, "bandstructure": null, "dos": null, "dos_energy_up": null, "dos_energy_down": null, "is_magnetic": null, "ordering": null, "total_magnetization": 1.3e-06, "total_magnetization_normalized_vol": null, "total_magnetization_normalized_formula_units": null, "num_magnetic_sites": null, "num_unique_magnetic_sites": null, "types_of_magnetic_species": null, "bulk_modulus": null, "shear_modulus": null, "universal_anisotropy": null, "homogeneous_poisson": null, "e_total": null, "e_ionic": null, "e_electronic": null, "n": null, "e_ij_max": null, "weighted_surface_energy_EV_PER_ANG2": null, "weighted_surface_energy": null, "weighted_work_function": null, "surface_anisotropy": null, "shape_factor": null, "has_reconstructed": null, "possible_species": null, "has_props": null, "theoretical": null, "database_IDs": null, "fields_not_requested": ["builder_meta", "nsites", "elements", "nelements", "composition", "composition_reduced", "chemsys", "symmetry", "property_name", "deprecated", "deprecation_reasons", "last_updated", "origins", "warnings", "task_ids", "uncorrected_energy_per_atom", "equilibrium_reaction_energy_per_atom", "decomposes_to", "xas", "grain_boundaries", "cbm", "vbm", "is_gap_direct", "is_metal", "es_source_calc_id", "bandstructure", "dos", "dos_energy_up", "dos_energy_down", "is_magnetic", "ordering", "total_magnetization_normalized_vol", "total_magnetization_normalized_formula_units", "num_magnetic_sites", "num_unique_magnetic_sites", "types_of_magnetic_species", "bulk_modulus", "shear_modulus", "universal_anisotropy", "homogeneous_poisson", "e_total", "e_ionic", "e_electronic", "n", "e_ij_max", "weighted_surface_energy_EV_PER_ANG2", "weighted_surface_energy", "weighted_work_function", "surface_anisotropy", "shape_factor", "has_reconstructed", "possible_species", "has_props", "theoretical", "database_IDs"]}