{
  "builder_meta": null,
  "nsites": null,
  "elements": null,
  "nelements": null,
  "composition": null,
  "composition_reduced": null,
  "formula_pretty": "Ta3Be2",
  "formula_anonymous": "A2B3",
  "chemsys": null,
  "volume": 141.11979394560782,
  "density": 13.199328114196867,
  "density_atomic": 14.111979394560782,
  "symmetry": null,
  "property_name": null,
  "material_id": "mp-1078957",
  "deprecated": null,
  "deprecation_reasons": null,
  "last_updated": null,
  "origins": null,
  "warnings": null,
  "structure": {
    "@module": "pymatgen.core.structure",
    "@class": "Structure",
    "charge": 0,
    "lattice": {
      "matrix": [
        [-0.0, 0.0, 3.3287549],
        [6.51108039, -0.0, -0.0],
        [0.0, 6.51108039, 0.0]
      ],
      "pbc": [true, true, true],
      "a": 3.3287549,
      "b": 6.51108039,
      "c": 6.51108039,
      "alpha": 90.0,
      "beta": 90.0,
      "gamma": 90.0,
      "volume": 141.11979394560782
    },
    "properties": {},
    "sites": [
      {
        "species": [{ "element": "Ta", "occu": 1 }],
        "abc": [-0.0, 0.5, 0.5],
        "properties": { "magmom": 0.0 },
        "label": "Ta",
        "xyz": [3.255540195, 3.255540195, 0.0]
      },
      {
        "species": [{ "element": "Ta", "occu": 1 }],
        "abc": [-0.0, -0.0, -0.0],
        "properties": { "magmom": 0.0 },
        "label": "Ta",
        "xyz": [0.0, 0.0, 0.0]
      },
      {
        "species": [{ "element": "Ta", "occu": 1 }],
        "abc": [0.5, 0.17887918, 0.67887918],
        "properties": { "magmom": 0.0 },
        "label": "Ta",
        "xyz": [1.1646967210772803, 4.420236916077281, 1.66437745]
      },
      {
        "species": [{ "element": "Ta", "occu": 1 }],
        "abc": [0.5, 0.82112082, 0.32112082000000003],
        "properties": { "magmom": 0.0 },
        "label": "Ta",
        "xyz": [5.346383668922719, 2.09084347392272, 1.66437745]
      },
      {
        "species": [{ "element": "Ta", "occu": 1 }],
        "abc": [0.5, 0.32112082000000003, 0.17887918],
        "properties": { "magmom": 0.0 },
        "label": "Ta",
        "xyz": [2.09084347392272, 1.1646967210772803, 1.66437745]
      },
      {
        "species": [{ "element": "Ta", "occu": 1 }],
        "abc": [0.5, 0.67887918, 0.82112082],
        "properties": { "magmom": 0.0 },
        "label": "Ta",
        "xyz": [4.420236916077281, 5.346383668922719, 1.66437745]
      },
      {
        "species": [{ "element": "Be", "occu": 1 }],
        "abc": [-0.0, 0.61343256, 0.11343256],
        "properties": { "magmom": 0.0 },
        "label": "Be",
        "xyz": [3.9941087120034986, 0.7385685170034985, 0.0]
      },
      {
        "species": [{ "element": "Be", "occu": 1 }],
        "abc": [0.0, 0.38656744, 0.88656744],
        "properties": { "magmom": 0.0 },
        "label": "Be",
        "xyz": [2.5169716779965015, 5.7725118729965015, 0.0]
      },
      {
        "species": [{ "element": "Be", "occu": 1 }],
        "abc": [0.0, 0.88656744, 0.61343256],
        "properties": { "magmom": 0.0 },
        "label": "Be",
        "xyz": [5.7725118729965015, 3.9941087120034986, 0.0]
      },
      {
        "species": [{ "element": "Be", "occu": 1 }],
        "abc": [-0.0, 0.11343256, 0.38656744],
        "properties": { "magmom": 0.0 },
        "label": "Be",
        "xyz": [0.7385685170034985, 2.5169716779965015, 0.0]
      }
    ]
  },
  "task_ids": null,
  "uncorrected_energy_per_atom": null,
  "energy_per_atom": -8.789195627999998,
  "formation_energy_per_atom": -0.173273956399998,
  "energy_above_hull": 0.0,
  "is_stable": true,
  "equilibrium_reaction_energy_per_atom": null,
  "decomposes_to": null,
  "xas": null,
  "grain_boundaries": null,
  "band_gap": 0.0,
  "cbm": null,
  "vbm": null,
  "efermi": 4.68146779,
  "is_gap_direct": null,
  "is_metal": null,
  "es_source_calc_id": null,
  "bandstructure": null,
  "dos": null,
  "dos_energy_up": null,
  "dos_energy_down": null,
  "is_magnetic": null,
  "ordering": null,
  "total_magnetization": 0.0,
  "total_magnetization_normalized_vol": null,
  "total_magnetization_normalized_formula_units": null,
  "num_magnetic_sites": null,
  "num_unique_magnetic_sites": null,
  "types_of_magnetic_species": null,
  "bulk_modulus": null,
  "shear_modulus": null,
  "universal_anisotropy": null,
  "homogeneous_poisson": null,
  "e_total": null,
  "e_ionic": null,
  "e_electronic": null,
  "n": null,
  "e_ij_max": null,
  "weighted_surface_energy_EV_PER_ANG2": null,
  "weighted_surface_energy": null,
  "weighted_work_function": null,
  "surface_anisotropy": null,
  "shape_factor": null,
  "has_reconstructed": null,
  "possible_species": null,
  "has_props": null,
  "theoretical": null,
  "database_IDs": null,
  "fields_not_requested": [
    "builder_meta",
    "nsites",
    "elements",
    "nelements",
    "composition",
    "composition_reduced",
    "chemsys",
    "symmetry",
    "property_name",
    "deprecated",
    "deprecation_reasons",
    "last_updated",
    "origins",
    "warnings",
    "task_ids",
    "uncorrected_energy_per_atom",
    "equilibrium_reaction_energy_per_atom",
    "decomposes_to",
    "xas",
    "grain_boundaries",
    "cbm",
    "vbm",
    "is_gap_direct",
    "is_metal",
    "es_source_calc_id",
    "bandstructure",
    "dos",
    "dos_energy_up",
    "dos_energy_down",
    "is_magnetic",
    "ordering",
    "total_magnetization_normalized_vol",
    "total_magnetization_normalized_formula_units",
    "num_magnetic_sites",
    "num_unique_magnetic_sites",
    "types_of_magnetic_species",
    "bulk_modulus",
    "shear_modulus",
    "universal_anisotropy",
    "homogeneous_poisson",
    "e_total",
    "e_ionic",
    "e_electronic",
    "n",
    "e_ij_max",
    "weighted_surface_energy_EV_PER_ANG2",
    "weighted_surface_energy",
    "weighted_work_function",
    "surface_anisotropy",
    "shape_factor",
    "has_reconstructed",
    "possible_species",
    "has_props",
    "theoretical",
    "database_IDs"
  ]
}
