{"builder_meta": null, "nsites": null, "elements": null, "nelements": null, "composition": null, "composition_reduced": null, "formula_pretty": "Ta3B2", "formula_anonymous": "A2B3", "chemsys": null, "volume": 125.98878846552044, "density": 14.879375512526478, "density_atomic": 12.598878846552044, "symmetry": null, "property_name": null, "material_id": "mp-13415", "deprecated": null, "deprecation_reasons": null, "last_updated": null, "origins": null, "warnings": null, "structure": {"@module": "pymatgen.core.structure", "@class": "Structure", "charge": 0, "lattice": {"matrix": [[3.29059981, 0.0, -0.0], [-0.0, 6.18768812, 0.0], [0.0, 0.0, 6.18768812]], "pbc": [true, true, true], "a": 3.29059981, "b": 6.18768812, "c": 6.18768812, "alpha": 90.0, "beta": 90.0, "gamma": 90.0, "volume": 125.98878846552044}, "properties": {}, "sites": [{"species": [{"element": "Ta", "occu": 1}], "abc": [-0.0, 0.0, -0.0], "properties": {"magmom": 0.0}, "label": "Ta", "xyz": [0.0, 0.0, 0.0]}, {"species": [{"element": "Ta", "occu": 1}], "abc": [0.0, 0.5, 0.5], "properties": {"magmom": 0.0}, "label": "Ta", "xyz": [0.0, 3.09384406, 3.09384406]}, {"species": [{"element": "Ta", "occu": 1}], "abc": [0.5, 0.82267451, 0.32267451], "properties": {"magmom": 0.0}, "label": "Ta", "xyz": [1.645299905, 5.090453292153821, 1.9966092321538214]}, {"species": [{"element": "Ta", "occu": 1}], "abc": [0.5, 0.67732549, 0.82267451], "properties": {"magmom": 0.0}, "label": "Ta", "xyz": [1.645299905, 4.191078887846179, 5.090453292153821]}, {"species": [{"element": "Ta", "occu": 1}], "abc": [0.5, 0.32267451, 0.17732549], "properties": {"magmom": 0.0}, "label": "Ta", "xyz": [1.645299905, 1.9966092321538214, 1.0972348278461788]}, {"species": [{"element": "Ta", "occu": 1}], "abc": [0.5, 0.17732549, 0.67732549], "properties": {"magmom": 0.0}, "label": "Ta", "xyz": [1.645299905, 1.0972348278461788, 4.191078887846179]}, {"species": [{"element": "B", "occu": 1}], "abc": [-0.0, 0.60818776, 0.10818776000000001], "properties": {"magmom": -0.0}, "label": "B", "xyz": [0.0, 3.7632761772814107, 0.6694321172814113]}, {"species": [{"element": "B", "occu": 1}], "abc": [-0.0, 0.89181224, 0.60818776], "properties": {"magmom": -0.0}, "label": "B", "xyz": [0.0, 5.518256002718589, 3.7632761772814107]}, {"species": [{"element": "B", "occu": 1}], "abc": [0.0, 0.10818776000000001, 0.39181224000000003], "properties": {"magmom": -0.0}, "label": "B", "xyz": [0.0, 0.6694321172814113, 2.424411942718589]}, {"species": [{"element": "B", "occu": 1}], "abc": [0.0, 0.39181224000000003, 0.89181224], "properties": {"magmom": -0.0}, "label": "B", "xyz": [0.0, 2.424411942718589, 5.518256002718589]}]}, "task_ids": null, "uncorrected_energy_per_atom": null, "energy_per_atom": -32.815904204, "formation_energy_per_atom": -0.722262897399997, "energy_above_hull": 0.0, "is_stable": true, "equilibrium_reaction_energy_per_atom": null, "decomposes_to": null, "xas": null, "grain_boundaries": null, "band_gap": 0.0, "cbm": null, "vbm": null, "efermi": 6.63103455, "is_gap_direct": null, "is_metal": null, "es_source_calc_id": null, "bandstructure": null, "dos": null, "dos_energy_up": null, "dos_energy_down": null, "is_magnetic": null, "ordering": null, "total_magnetization": 0.0, "total_magnetization_normalized_vol": null, "total_magnetization_normalized_formula_units": null, "num_magnetic_sites": null, "num_unique_magnetic_sites": null, "types_of_magnetic_species": null, "bulk_modulus": null, "shear_modulus": null, "universal_anisotropy": null, "homogeneous_poisson": null, "e_total": null, "e_ionic": null, "e_electronic": null, "n": null, "e_ij_max": null, "weighted_surface_energy_EV_PER_ANG2": null, "weighted_surface_energy": null, "weighted_work_function": null, "surface_anisotropy": null, "shape_factor": null, "has_reconstructed": null, "possible_species": null, "has_props": null, "theoretical": null, "database_IDs": null, "fields_not_requested": ["builder_meta", "nsites", "elements", "nelements", "composition", "composition_reduced", "chemsys", "symmetry", "property_name", "deprecated", "deprecation_reasons", "last_updated", "origins", "warnings", "task_ids", "uncorrected_energy_per_atom", "equilibrium_reaction_energy_per_atom", "decomposes_to", "xas", "grain_boundaries", "cbm", "vbm", "is_gap_direct", "is_metal", "es_source_calc_id", "bandstructure", "dos", "dos_energy_up", "dos_energy_down", "is_magnetic", "ordering", "total_magnetization_normalized_vol", "total_magnetization_normalized_formula_units", "num_magnetic_sites", "num_unique_magnetic_sites", "types_of_magnetic_species", "bulk_modulus", "shear_modulus", "universal_anisotropy", "homogeneous_poisson", "e_total", "e_ionic", "e_electronic", "n", "e_ij_max", "weighted_surface_energy_EV_PER_ANG2", "weighted_surface_energy", "weighted_work_function", "surface_anisotropy", "shape_factor", "has_reconstructed", "possible_species", "has_props", "theoretical", "database_IDs"]}