{"builder_meta": null, "nsites": null, "elements": null, "nelements": null, "composition": null, "composition_reduced": null, "formula_pretty": "Ta3C2", "formula_anonymous": "A2B3", "chemsys": null, "volume": 255.9925521984494, "density": 14.708264538572356, "density_atomic": 12.79962760992247, "symmetry": null, "property_name": null, "material_id": "mp-1218120", "deprecated": null, "deprecation_reasons": null, "last_updated": null, "origins": null, "warnings": null, "structure": {"@module": "pymatgen.core.structure", "@class": "Structure", "charge": 0, "lattice": {"matrix": [[-1.56443675, -2.709688459999999, -1.009999999999998e-06], [3.12887654, -2.029999999999998e-06, 0.0], [1.009999999999998e-06, 6.13e-06, 30.19391157]], "pbc": [true, true, true], "a": 3.128877417702513, "b": 3.1288765400006584, "c": 30.19391157000064, "alpha": 89.99999808343782, "beta": 90.00002952715967, "gamma": 119.99992140727771, "volume": 255.99255219844923}, "properties": {}, "sites": [{"species": [{"element": "Ta", "occu": 1}], "abc": [1e-06, 1e-06, 0.87662922], "properties": {"magmom": -0.0}, "label": "Ta", "xyz": [2.4498353021999982e-06, 2.6640466286000013e-06, 26.468865148357068]}, {"species": [{"element": "Ta", "occu": 1}], "abc": [0.666665, 0.333333999999999, 0.20533188], "properties": {"magmom": 0.0}, "label": "Ta", "xyz": [5.914030805750999e-06, -1.8064538751694947, 6.199771953890202]}, {"species": [{"element": "Ta", "occu": 1}], "abc": [0.333333, 0.666667, 0.5410077], "properties": {"magmom": 0.0}, "label": "Ta", "xyz": [1.5644408875222071, -0.9032266203939886, 16.33513831582276]}, {"species": [{"element": "Ta", "occu": 1}], "abc": [0.333335, 0.666666, 0.79464537], "properties": {"magmom": -0.0}, "label": "Ta", "xyz": [1.5644348859462136, -0.9032304849699615, 23.993451694621584]}, {"species": [{"element": "Ta", "occu": 1}], "abc": [-0.0, 0.999999, 0.12337402], "properties": {"magmom": 0.0}, "label": "Ta", "xyz": [3.12887353573122, -1.273715227399998e-06, 3.7251442499154117]}, {"species": [{"element": "Ta", "occu": 1}], "abc": [0.666667, 0.333333, 0.45901776], "properties": {"magmom": -0.0}, "label": "Ta", "xyz": [-8.749649249098825e-08, -1.8064577394499404, 13.859540981165814]}, {"species": [{"element": "Ta", "occu": 1}], "abc": [0.999999, -0.0, 0.711836799999999], "properties": {"magmom": 0.0}, "label": "Ta", "xyz": [-1.5644344666080818, -2.7096813867519547, 21.49313638147276]}, {"species": [{"element": "Ta", "occu": 1}], "abc": [0.666665, 0.333333, 0.041627080000000004], "properties": {"magmom": 0.0}, "label": "Ta", "xyz": [2.6198124207779752e-06, -1.8064548786778887, 1.2568836991056658]}, {"species": [{"element": "Ta", "occu": 1}], "abc": [0.333333999999999, 0.666667, 0.37653929], "properties": {"magmom": -0.0}, "label": "Ta", "xyz": [1.5644391569723646, -0.9032303382737993, 11.369193688223246]}, {"species": [{"element": "Ta", "occu": 1}], "abc": [0.333335999999999, 0.666667999999999, 0.95839558], "properties": {"magmom": 0.0}, "label": "Ta", "xyz": [1.5644397446502543, -0.9032321908736916, 28.937711054929505]}, {"species": [{"element": "Ta", "occu": 1}], "abc": [0.999999, 0.0, 0.28814089], "properties": {"magmom": -0.0}, "label": "Ta", "xyz": [-1.564434894540951, -2.709683984007883, 8.700099542362107]}, {"species": [{"element": "Ta", "occu": 1}], "abc": [0.666666, 0.333331999999999, 0.62346444], "properties": {"magmom": -0.0}, "label": "Ta", "xyz": [-1.485845138735758e-06, -1.8064540217013019, 18.82482949506691]}, {"species": [{"element": "C", "occu": 1}], "abc": [0.666669, 0.333335, 0.91660037], "properties": {"magmom": -0.0}, "label": "C", "xyz": [3.5035415237033456e-06, -1.806460353849521, 27.675749843473593]}, {"species": [{"element": "C", "occu": 1}], "abc": [0.333333, 0.666666, 0.24546716000000002], "properties": {"magmom": 0.0}, "label": "C", "xyz": [1.5644374601497215, -0.9032284320554689, 7.4116133857127116]}, {"species": [{"element": "C", "occu": 1}], "abc": [-0.0, -0.0, 0.58087961], "properties": {"magmom": -0.0}, "label": "C", "xyz": [5.866884060999988e-07, 3.5607920093e-06, 17.539027577156087]}, {"species": [{"element": "C", "occu": 1}], "abc": [0.666667, 0.333333, 0.75451573], "properties": {"magmom": -0.0}, "label": "C", "xyz": [2.109564572090112e-07, -1.8064559280473842, 22.78178055646033]}, {"species": [{"element": "C", "occu": 1}], "abc": [0.333331999999999, 0.666666, 0.08341346], "properties": {"magmom": -0.0}, "label": "C", "xyz": [1.5644388609122362, -0.9032267157561872, 2.518578298322412]}, {"species": [{"element": "C", "occu": 1}], "abc": [0.0, 0.0, 0.41912527], "properties": {"magmom": 0.0}, "label": "C", "xyz": [4.2331652269999914e-07, 2.5692379051e-06, 12.655031339132375]}, {"species": [{"element": "C", "occu": 1}], "abc": [0.666666, 0.333333, 0.33220742000000003], "properties": {"magmom": -0.0}, "label": "C", "xyz": [1.3488618142545157e-06, -1.8064558071088646, 10.03064078904519]}, {"species": [{"element": "C", "occu": 1}], "abc": [0.333333, 0.666667, 0.66778094], "properties": {"magmom": 0.0}, "label": "C", "xyz": [1.5644410155631794, -0.9032258432740273, 20.16291831382515]}]}, "task_ids": null, "uncorrected_energy_per_atom": null, "energy_per_atom": -11.392409618000006, "formation_energy_per_atom": -0.580786895400004, "energy_above_hull": 0.002118071999996, "is_stable": false, "equilibrium_reaction_energy_per_atom": null, "decomposes_to": null, "xas": null, "grain_boundaries": null, "band_gap": 0.0, "cbm": null, "vbm": null, "efermi": 7.12058766, "is_gap_direct": null, "is_metal": null, "es_source_calc_id": null, "bandstructure": null, "dos": null, "dos_energy_up": null, "dos_energy_down": null, "is_magnetic": null, "ordering": null, "total_magnetization": 0.0, "total_magnetization_normalized_vol": null, "total_magnetization_normalized_formula_units": null, "num_magnetic_sites": null, "num_unique_magnetic_sites": null, "types_of_magnetic_species": null, "bulk_modulus": null, "shear_modulus": null, "universal_anisotropy": null, "homogeneous_poisson": null, "e_total": null, "e_ionic": null, "e_electronic": null, "n": null, "e_ij_max": null, "weighted_surface_energy_EV_PER_ANG2": null, "weighted_surface_energy": null, "weighted_work_function": null, "surface_anisotropy": null, "shape_factor": null, "has_reconstructed": null, "possible_species": null, "has_props": null, "theoretical": null, "database_IDs": null, "fields_not_requested": ["builder_meta", "nsites", "elements", "nelements", "composition", "composition_reduced", "chemsys", "symmetry", "property_name", "deprecated", "deprecation_reasons", "last_updated", "origins", "warnings", "task_ids", "uncorrected_energy_per_atom", "equilibrium_reaction_energy_per_atom", "decomposes_to", "xas", "grain_boundaries", "cbm", "vbm", "is_gap_direct", "is_metal", "es_source_calc_id", "bandstructure", "dos", "dos_energy_up", "dos_energy_down", "is_magnetic", "ordering", "total_magnetization_normalized_vol", "total_magnetization_normalized_formula_units", "num_magnetic_sites", "num_unique_magnetic_sites", "types_of_magnetic_species", "bulk_modulus", "shear_modulus", "universal_anisotropy", "homogeneous_poisson", "e_total", "e_ionic", "e_electronic", "n", "e_ij_max", "weighted_surface_energy_EV_PER_ANG2", "weighted_surface_energy", "weighted_work_function", "surface_anisotropy", "shape_factor", "has_reconstructed", "possible_species", "has_props", "theoretical", "database_IDs"]}