{
  "builder_meta": null,
  "nsites": null,
  "elements": null,
  "nelements": null,
  "composition": null,
  "composition_reduced": null,
  "formula_pretty": "Ta3C",
  "formula_anonymous": "AB3",
  "chemsys": null,
  "volume": 120.89895343687837,
  "density": 15.241774749085847,
  "density_atomic": 15.112369179609797,
  "symmetry": null,
  "property_name": null,
  "material_id": "mp-1187218",
  "deprecated": null,
  "deprecation_reasons": null,
  "last_updated": null,
  "origins": null,
  "warnings": null,
  "structure": {
    "@module": "pymatgen.core.structure",
    "@class": "Structure",
    "charge": 0,
    "lattice": {
      "matrix": [
        [2.724089, -4.71826, 0.0],
        [2.724089, 4.71826, 0.0],
        [0.0, 0.0, 4.703156]
      ],
      "pbc": [true, true, true],
      "a": 5.448177521659972,
      "b": 5.448177521659972,
      "c": 4.703156,
      "alpha": 90.0,
      "beta": 90.0,
      "gamma": 119.99999419131959,
      "volume": 120.89895343687837
    },
    "properties": {},
    "sites": [
      {
        "species": [{ "element": "Ta", "occu": 1 }],
        "abc": [0.167384, 0.334767, 0.25],
        "properties": { "magmom": -0.0 },
        "label": "Ta",
        "xyz": [1.367904015439, 0.7897565135799998, 1.175789]
      },
      {
        "species": [{ "element": "Ta", "occu": 1 }],
        "abc": [0.665233, 0.832615999999999, 0.25],
        "properties": { "magmom": -0.0 },
        "label": "Ta",
        "xyz": [4.080273984560997, 0.7897565135799955, 1.175789]
      },
      {
        "species": [{ "element": "Ta", "occu": 1 }],
        "abc": [0.167384, 0.832615999999999, 0.25],
        "properties": { "magmom": -0.0 },
        "label": "Ta",
        "xyz": [2.7240889999999975, 3.1387375363199954, 1.175789]
      },
      {
        "species": [{ "element": "Ta", "occu": 1 }],
        "abc": [0.832615999999999, 0.665233, 0.75],
        "properties": { "magmom": -0.0 },
        "label": "Ta",
        "xyz": [4.080273984560997, -0.7897565135799955, 3.527367]
      },
      {
        "species": [{ "element": "Ta", "occu": 1 }],
        "abc": [0.334767, 0.167384, 0.75],
        "properties": { "magmom": -0.0 },
        "label": "Ta",
        "xyz": [1.367904015439, -0.7897565135799998, 3.527367]
      },
      {
        "species": [{ "element": "Ta", "occu": 1 }],
        "abc": [0.832615999999999, 0.167384, 0.75],
        "properties": { "magmom": -0.0 },
        "label": "Ta",
        "xyz": [2.7240889999999975, -3.1387375363199954, 3.527367]
      },
      {
        "species": [{ "element": "C", "occu": 1 }],
        "abc": [0.333333, 0.666667, 0.75],
        "properties": { "magmom": -0.0 },
        "label": "C",
        "xyz": [2.724089, 1.57275647884, 3.527367]
      },
      {
        "species": [{ "element": "C", "occu": 1 }],
        "abc": [0.666667, 0.333333, 0.25],
        "properties": { "magmom": -0.0 },
        "label": "C",
        "xyz": [2.724089, -1.57275647884, 1.175789]
      }
    ]
  },
  "task_ids": null,
  "uncorrected_energy_per_atom": null,
  "energy_per_atom": -10.221161295,
  "formation_energy_per_atom": 0.9862007351250011,
  "energy_above_hull": 1.4294546481666681,
  "is_stable": false,
  "equilibrium_reaction_energy_per_atom": null,
  "decomposes_to": null,
  "xas": null,
  "grain_boundaries": null,
  "band_gap": 0.0,
  "cbm": null,
  "vbm": null,
  "efermi": 6.30087663,
  "is_gap_direct": null,
  "is_metal": null,
  "es_source_calc_id": null,
  "bandstructure": null,
  "dos": null,
  "dos_energy_up": null,
  "dos_energy_down": null,
  "is_magnetic": null,
  "ordering": null,
  "total_magnetization": 0.0031359,
  "total_magnetization_normalized_vol": null,
  "total_magnetization_normalized_formula_units": null,
  "num_magnetic_sites": null,
  "num_unique_magnetic_sites": null,
  "types_of_magnetic_species": null,
  "bulk_modulus": null,
  "shear_modulus": null,
  "universal_anisotropy": null,
  "homogeneous_poisson": null,
  "e_total": null,
  "e_ionic": null,
  "e_electronic": null,
  "n": null,
  "e_ij_max": null,
  "weighted_surface_energy_EV_PER_ANG2": null,
  "weighted_surface_energy": null,
  "weighted_work_function": null,
  "surface_anisotropy": null,
  "shape_factor": null,
  "has_reconstructed": null,
  "possible_species": null,
  "has_props": null,
  "theoretical": null,
  "database_IDs": null,
  "fields_not_requested": [
    "builder_meta",
    "nsites",
    "elements",
    "nelements",
    "composition",
    "composition_reduced",
    "chemsys",
    "symmetry",
    "property_name",
    "deprecated",
    "deprecation_reasons",
    "last_updated",
    "origins",
    "warnings",
    "task_ids",
    "uncorrected_energy_per_atom",
    "equilibrium_reaction_energy_per_atom",
    "decomposes_to",
    "xas",
    "grain_boundaries",
    "cbm",
    "vbm",
    "is_gap_direct",
    "is_metal",
    "es_source_calc_id",
    "bandstructure",
    "dos",
    "dos_energy_up",
    "dos_energy_down",
    "is_magnetic",
    "ordering",
    "total_magnetization_normalized_vol",
    "total_magnetization_normalized_formula_units",
    "num_magnetic_sites",
    "num_unique_magnetic_sites",
    "types_of_magnetic_species",
    "bulk_modulus",
    "shear_modulus",
    "universal_anisotropy",
    "homogeneous_poisson",
    "e_total",
    "e_ionic",
    "e_electronic",
    "n",
    "e_ij_max",
    "weighted_surface_energy_EV_PER_ANG2",
    "weighted_surface_energy",
    "weighted_work_function",
    "surface_anisotropy",
    "shape_factor",
    "has_reconstructed",
    "possible_species",
    "has_props",
    "theoretical",
    "database_IDs"
  ]
}
