{
  "builder_meta": null,
  "nsites": null,
  "elements": null,
  "nelements": null,
  "composition": null,
  "composition_reduced": null,
  "formula_pretty": "Ta3Ge",
  "formula_anonymous": "AB3",
  "chemsys": null,
  "volume": 553.2530467983761,
  "density": 14.778548586222376,
  "density_atomic": 17.289157712449253,
  "symmetry": null,
  "property_name": null,
  "material_id": "mp-639805",
  "deprecated": null,
  "deprecation_reasons": null,
  "last_updated": null,
  "origins": null,
  "warnings": null,
  "structure": {
    "@module": "pymatgen.core.structure",
    "@class": "Structure",
    "charge": 0,
    "lattice": {
      "matrix": [
        [5.2535856, -1.1160000000000002e-5, 1.077e-5],
        [-2.0850000000000002e-5, 10.26199362, -0.00015943],
        [2.11e-5, 0.00016957, 10.26210044]
      ],
      "pbc": [true, true, true],
      "a": 5.253585600022893,
      "b": 10.26199362125963,
      "c": 10.262100441422671,
      "alpha": 89.99994339544172,
      "beta": 89.99976473764825,
      "gamma": 90.00023812494221,
      "volume": 553.2530467983762
    },
    "properties": {},
    "sites": [
      {
        "species": [{ "element": "Ta", "occu": 1 }],
        "abc": [0.96978953, 0.89934539, 0.7678989700000001],
        "properties": { "magmom": -0.0 },
        "label": "Ta",
        "xyz": [5.094869761155653, 9.229196044133602, 7.880123419910257]
      },
      {
        "species": [{ "element": "Ta", "occu": 1 }],
        "abc": [0.46978852, 0.23209269000000002, 0.39932661],
        "properties": { "magmom": 0.0 },
        "label": "Ta",
        "xyz": [2.4680777903761966, 2.381796175002013, 4.097897837269502]
      },
      {
        "species": [{ "element": "Ta", "occu": 1 }],
        "abc": [0.78375282, 0.66464511, 0.34901578],
        "properties": { "magmom": -0.0 },
        "label": "Ta",
        "xyz": [4.117506035493807, 6.820634314308541, 3.5815374661529273]
      },
      {
        "species": [{ "element": "Ta", "occu": 1 }],
        "abc": [0.71625534, 0.15097134, 0.66463726],
        "properties": { "magmom": -0.0 },
        "label": "Ta",
        "xyz": [3.762919616240851, 1.5493716370134345, 6.82055796299567]
      },
      {
        "species": [{ "element": "Ta", "occu": 1 }],
        "abc": [0.73457729, 0.06227149, 0.96256701],
        "properties": { "magmom": 0.0 },
        "label": "Ta",
        "xyz": [3.859183684634369, 0.6391846576932232, 9.877957320304247]
      },
      {
        "species": [{ "element": "Ta", "occu": 1 }],
        "abc": [0.23457968, 0.46255221, 0.9377486500000001],
        "properties": { "magmom": -0.0 },
        "label": "Ta",
        "xyz": [1.2323945711835447, 4.746864224066251, 9.623199615498718]
      },
      {
        "species": [{ "element": "Ta", "occu": 1 }],
        "abc": [0.030214750000000002, 0.10068427, 0.23212081],
        "properties": { "magmom": -0.0 },
        "label": "Ta",
        "xyz": [0.1587385739896615, 1.033260359903499, 2.3820313397538477]
      },
      {
        "species": [{ "element": "Ta", "occu": 1 }],
        "abc": [0.76541118, 0.96256591, 0.43774645],
        "properties": { "magmom": 0.0 },
        "label": "Ta",
        "xyz": [4.02114232027788, 9.877910913926252, 4.492052818748815]
      },
      {
        "species": [{ "element": "Ta", "occu": 1 }],
        "abc": [0.28375152, 0.84902918, 0.33534886],
        "properties": { "magmom": -0.0 },
        "label": "Ta",
        "xyz": [1.4907022730526551, 8.71278572679306, 3.4412513790412014]
      },
      {
        "species": [{ "element": "Ta", "occu": 1 }],
        "abc": [0.03021687, 0.39932088, 0.26786318],
        "properties": { "magmom": -0.0 },
        "label": "Ta",
        "xyz": [0.158744239181822, 4.0978734072319485, 2.7487755190455903]
      },
      {
        "species": [{ "element": "Ta", "occu": 1 }],
        "abc": [0.96978856, 0.60065184, 0.73211059],
        "properties": { "magmom": -0.0 },
        "label": "Ta",
        "xyz": [5.094870137803321, 6.163998671073678, 7.512907090467599]
      },
      {
        "species": [{ "element": "Ta", "occu": 1 }],
        "abc": [0.23457956, 0.03744118, 0.56225849],
        "properties": { "magmom": 0.0 },
        "label": "Ta",
        "xyz": [1.232394881475872, 0.3843138745495313, 5.769949654797269]
      },
      {
        "species": [{ "element": "Ta", "occu": 1 }],
        "abc": [0.53021268, 0.73213226, 0.8993283200000001],
        "properties": { "magmom": 0.0 },
        "label": "Ta",
        "xyz": [2.785521411455339, 7.513283163045895, 9.228886534920813]
      },
      {
        "species": [{ "element": "Ta", "occu": 1 }],
        "abc": [0.21624539, 0.33535401, 0.650973199999999],
        "properties": { "magmom": -0.0 },
        "label": "Ta",
        "xyz": [1.1360704103737955, 3.4415086832883874, 6.680301225621234]
      },
      {
        "species": [{ "element": "Ta", "occu": 1 }],
        "abc": [0.2654099, 0.56223546, 0.46255601],
        "properties": { "magmom": 0.0 },
        "label": "Ta",
        "xyz": [1.3943516660599098, 5.7697321771058965, 4.746709455010879]
      },
      {
        "species": [{ "element": "Ta", "occu": 1 }],
        "abc": [0.53021278, 0.76786993, 0.60067661],
        "properties": { "magmom": 0.0 },
        "label": "Ta",
        "xyz": [2.7855148901323985, 7.879972262207979, 6.16408699266741]
      },
      {
        "species": [{ "element": "Ta", "occu": 1 }],
        "abc": [0.46978371, 0.26789984, 0.10065888],
        "properties": { "magmom": 0.0 },
        "label": "Ta",
        "xyz": [2.4680454721612803, 2.7491982748190993, 1.0329338850369727]
      },
      {
        "species": [{ "element": "Ta", "occu": 1 }],
        "abc": [0.28375638000000003, 0.65097105, 0.16465326],
        "properties": { "magmom": -0.0 },
        "label": "Ta",
        "xyz": [1.4907283333135215, 6.680285515436798, 1.6895875636351452]
      },
      {
        "species": [{ "element": "Ta", "occu": 1 }],
        "abc": [0.265409699999999, 0.93776939, 0.03743924],
        "properties": { "magmom": 0.0 },
        "label": "Ta",
        "xyz": [1.3943338154964975, 9.623386883810968, 0.38405859116588686]
      },
      {
        "species": [{ "element": "Ta", "occu": 1 }],
        "abc": [0.21625468, 0.16464993, 0.84904281],
        "properties": { "magmom": -0.0 },
        "label": "Ta",
        "xyz": [1.1361269546328585, 1.6897780899805097, 8.7129386730044]
      },
      {
        "species": [{ "element": "Ta", "occu": 1 }],
        "abc": [0.71624418, 0.34902285, 0.83537329],
        "properties": { "magmom": 0.0 },
        "label": "Ta",
        "xyz": [3.7628604593818045, 3.5818039208979533, 8.57263667611009]
      },
      {
        "species": [{ "element": "Ta", "occu": 1 }],
        "abc": [0.76541917, 0.53742462, 0.06223977],
        "properties": { "magmom": 0.0 },
        "label": "Ta",
        "xyz": [4.021185237431772, 5.515050033590787, 0.6386333330597931]
      },
      {
        "species": [{ "element": "Ta", "occu": 1 }],
        "abc": [0.73457285, 0.43773742, 0.53743697],
        "properties": { "magmom": -0.0 },
        "label": "Ta",
        "xyz": [3.8591435600058204, 4.492141546629258, 5.515170289181991]
      },
      {
        "species": [{ "element": "Ta", "occu": 1 }],
        "abc": [0.78375553, 0.83536113, 0.15097663],
        "properties": { "magmom": -0.0 },
        "label": "Ta",
        "xyz": [4.1175125346557, 8.572487440851425, 1.5492126005748192]
      },
      {
        "species": [{ "element": "Ge", "occu": 1 }],
        "abc": [0.53381187, 0.04638753, 0.22116292],
        "properties": { "magmom": -0.0 },
        "label": "Ge",
        "xyz": [2.804430052698683, 0.4760600821634338, 2.269594452233617]
      },
      {
        "species": [{ "element": "Ge", "occu": 1 }],
        "abc": [0.03379962, 0.77882958, 0.54638533],
        "properties": { "magmom": -0.0 },
        "label": "Ge",
        "xyz": [0.17756448705119204, 7.992436454383928, 5.606937330624513]
      },
      {
        "species": [{ "element": "Ge", "occu": 1 }],
        "abc": [0.96619731, 0.27881614, 0.04641071],
        "properties": { "magmom": 0.0 },
        "label": "Ge",
        "xyz": [5.075995440524198, 2.861206536935142, 0.47623732179954087]
      },
      {
        "species": [{ "element": "Ge", "occu": 1 }],
        "abc": [0.03380113, 0.7211719400000001, 0.95362057],
        "properties": { "magmom": -0.0 },
        "label": "Ge",
        "xyz": [0.177582214790806, 7.400823175422468, 9.786035458585827]
      },
      {
        "species": [{ "element": "Ge", "occu": 1 }],
        "abc": [0.96619568, 0.221181799999999, 0.45358645000000003],
        "properties": { "magmom": -0.0 },
        "label": "Ge",
        "xyz": [5.075996670263773, 2.2698323523706434, 4.654724851036137]
      },
      {
        "species": [{ "element": "Ge", "occu": 1 }],
        "abc": [0.46620392, 0.54640581, 0.72119021],
        "properties": { "magmom": -0.0 },
        "label": "Ge",
        "xyz": [2.4492460253278447, 5.607330025539095, 7.400844278902623]
      },
      {
        "species": [{ "element": "Ge", "occu": 1 }],
        "abc": [0.53380845, 0.45361134000000003, 0.27881895],
        "properties": { "magmom": 0.0 },
        "label": "Ge",
        "xyz": [2.804404811361726, 4.6549979990667, 2.861201499336408]
      },
      {
        "species": [{ "element": "Ge", "occu": 1 }],
        "abc": [0.46619947, 0.9535945, 0.77882818],
        "properties": { "magmom": 0.0 },
        "label": "Ge",
        "xyz": [2.4492153731489053, 9.78590753817549, 7.992265998059556]
      }
    ]
  },
  "task_ids": null,
  "uncorrected_energy_per_atom": null,
  "energy_per_atom": -40.2308757746875,
  "formation_energy_per_atom": -0.319006845187502,
  "energy_above_hull": 0.0,
  "is_stable": true,
  "equilibrium_reaction_energy_per_atom": null,
  "decomposes_to": null,
  "xas": null,
  "grain_boundaries": null,
  "band_gap": 0.0,
  "cbm": null,
  "vbm": null,
  "efermi": 6.39719594,
  "is_gap_direct": null,
  "is_metal": null,
  "es_source_calc_id": null,
  "bandstructure": null,
  "dos": null,
  "dos_energy_up": null,
  "dos_energy_down": null,
  "is_magnetic": null,
  "ordering": null,
  "total_magnetization": 4e-7,
  "total_magnetization_normalized_vol": null,
  "total_magnetization_normalized_formula_units": null,
  "num_magnetic_sites": null,
  "num_unique_magnetic_sites": null,
  "types_of_magnetic_species": null,
  "bulk_modulus": null,
  "shear_modulus": null,
  "universal_anisotropy": null,
  "homogeneous_poisson": null,
  "e_total": null,
  "e_ionic": null,
  "e_electronic": null,
  "n": null,
  "e_ij_max": null,
  "weighted_surface_energy_EV_PER_ANG2": null,
  "weighted_surface_energy": null,
  "weighted_work_function": null,
  "surface_anisotropy": null,
  "shape_factor": null,
  "has_reconstructed": null,
  "possible_species": null,
  "has_props": null,
  "theoretical": null,
  "database_IDs": null,
  "fields_not_requested": [
    "builder_meta",
    "nsites",
    "elements",
    "nelements",
    "composition",
    "composition_reduced",
    "chemsys",
    "symmetry",
    "property_name",
    "deprecated",
    "deprecation_reasons",
    "last_updated",
    "origins",
    "warnings",
    "task_ids",
    "uncorrected_energy_per_atom",
    "equilibrium_reaction_energy_per_atom",
    "decomposes_to",
    "xas",
    "grain_boundaries",
    "cbm",
    "vbm",
    "is_gap_direct",
    "is_metal",
    "es_source_calc_id",
    "bandstructure",
    "dos",
    "dos_energy_up",
    "dos_energy_down",
    "is_magnetic",
    "ordering",
    "total_magnetization_normalized_vol",
    "total_magnetization_normalized_formula_units",
    "num_magnetic_sites",
    "num_unique_magnetic_sites",
    "types_of_magnetic_species",
    "bulk_modulus",
    "shear_modulus",
    "universal_anisotropy",
    "homogeneous_poisson",
    "e_total",
    "e_ionic",
    "e_electronic",
    "n",
    "e_ij_max",
    "weighted_surface_energy_EV_PER_ANG2",
    "weighted_surface_energy",
    "weighted_work_function",
    "surface_anisotropy",
    "shape_factor",
    "has_reconstructed",
    "possible_species",
    "has_props",
    "theoretical",
    "database_IDs"
  ]
}
