{"builder_meta": null, "nsites": null, "elements": null, "nelements": null, "composition": null, "composition_reduced": null, "formula_pretty": "Ta3I7", "formula_anonymous": "A3B7", "chemsys": null, "volume": 1488.6546611890085, "density": 6.385690232563031, "density_atomic": 37.216366529725214, "symmetry": null, "property_name": null, "material_id": "mp-23238", "deprecated": null, "deprecation_reasons": null, "last_updated": null, "origins": null, "warnings": null, "structure": {"@module": "pymatgen.core.structure", "@class": "Structure", "charge": 0, "lattice": {"matrix": [[10.75825376, 0.17725825, 0.0], [-0.22828298, 10.75729194, -0.0], [-0.0, -0.0, 12.85870987]], "pbc": [true, true, true], "a": 10.759713957710364, "b": 10.759713890310776, "c": 12.85870987, "alpha": 90.0, "beta": 90.0, "gamma": 90.27175664634464, "volume": 1488.6546611890085}, "properties": {}, "sites": [{"species": [{"element": "Ta", "occu": 1}], "abc": [0.10223102, 0.10223102, 0.9303691900000001], "properties": {"magmom": 0.0}, "label": "Ta", "xyz": [1.0764896534095956, 1.1178502191648938, 11.963347486196906]}, {"species": [{"element": "Ta", "occu": 1}], "abc": [0.39776898, 0.39776898, 0.43036919], "properties": {"magmom": 0.0}, "label": "Ta", "xyz": [4.188495736590404, 4.349424875835106, 5.5339925511969055]}, {"species": [{"element": "Ta", "occu": 1}], "abc": [0.6022310200000001, 0.6022310200000001, 0.56963081], "properties": {"magmom": 0.0}, "label": "Ta", "xyz": [6.341475043409597, 6.585125314164895, 7.324717318803096]}, {"species": [{"element": "Ta", "occu": 1}], "abc": [0.89776898, 0.89776898, 0.06963081], "properties": {"magmom": 0.0}, "label": "Ta", "xyz": [9.453481126590404, 9.816699970835106, 0.8953623838030947]}, {"species": [{"element": "Ta", "occu": 1}], "abc": [0.94898747, 0.15228627, 0.10417176], "properties": {"magmom": -0.0}, "label": "Ta", "xyz": [10.174683653791703, 1.8064037230477914, 1.3395144384872713]}, {"species": [{"element": "Ta", "occu": 1}], "abc": [0.5510125300000001, 0.34771373, 0.6041717600000001], "properties": {"magmom": -0.0}, "label": "Ta", "xyz": [5.848555496208299, 3.8381296219522087, 7.768869373487272]}, {"species": [{"element": "Ta", "occu": 1}], "abc": [0.6522862700000001, 0.44898747, 0.39582824], "properties": {"magmom": -0.0}, "label": "Ta", "xyz": [6.914965019189616, 4.94551241491122, 5.089840496512729]}, {"species": [{"element": "Ta", "occu": 1}], "abc": [0.84771373, 0.05101253, 0.89582824], "properties": {"magmom": -0.0}, "label": "Ta", "xyz": [9.108274130810386, 0.6990209300887806, 11.51919543151273]}, {"species": [{"element": "Ta", "occu": 1}], "abc": [0.05101253, 0.84771373, 0.89582824], "properties": {"magmom": -0.0}, "label": "Ta", "xyz": [0.3552871262082974, 9.12814646695221, 11.51919543151273]}, {"species": [{"element": "Ta", "occu": 1}], "abc": [0.44898747, 0.6522862700000001, 0.39582824], "properties": {"magmom": -0.0}, "label": "Ta", "xyz": [4.681415283791703, 7.096420568047792, 5.089840496512729]}, {"species": [{"element": "Ta", "occu": 1}], "abc": [0.34771373, 0.5510125300000001, 0.6041717600000001], "properties": {"magmom": -0.0}, "label": "Ta", "xyz": [3.6150057608103854, 5.989037775088781, 7.768869373487272]}, {"species": [{"element": "Ta", "occu": 1}], "abc": [0.15228627, 0.94898747, 0.10417176], "properties": {"magmom": -0.0}, "label": "Ta", "xyz": [1.4216966491896146, 10.23552925991122, 1.3395144384872713]}, {"species": [{"element": "I", "occu": 1}], "abc": [0.88375013, 0.38375013, 0.25], "properties": {"magmom": 0.0}, "label": "I", "xyz": [9.420004535721201, 4.284764181904025, 3.2146774675]}, {"species": [{"element": "I", "occu": 1}], "abc": [0.61624987, 0.11624987, 0.75], "properties": {"magmom": 0.0}, "label": "I", "xyz": [6.603234614278798, 1.3597691630959754, 9.6440324025]}, {"species": [{"element": "I", "occu": 1}], "abc": [0.11624987, 0.61624987, 0.75], "properties": {"magmom": 0.0}, "label": "I", "xyz": [1.1099662442787988, 6.649786008095974, 9.6440324025]}, {"species": [{"element": "I", "occu": 1}], "abc": [0.38375013, 0.88375013, 0.25], "properties": {"magmom": 0.0}, "label": "I", "xyz": [3.926736165721202, 9.574781026904024, 3.2146774675]}, {"species": [{"element": "I", "occu": 1}], "abc": [0.09758396, 0.34308601, 0.01811399], "properties": {"magmom": -0.0}, "label": "I", "xyz": [0.9715123078265798, 3.7079739320774294, 0.2329225419980813]}, {"species": [{"element": "I", "occu": 1}], "abc": [0.40241604000000003, 0.15691399, 0.51811399], "properties": {"magmom": -0.0}, "label": "I", "xyz": [4.293473082173421, 1.7593011629225708, 6.6622774769980815]}, {"species": [{"element": "I", "occu": 1}], "abc": [0.84308601, 0.59758396, 0.48188601000000003], "properties": {"magmom": -0.0}, "label": "I", "xyz": [8.933714989896897, 6.577829067113365, 6.19643239300192]}, {"species": [{"element": "I", "occu": 1}], "abc": [0.6569139900000001, 0.90241604, 0.98188601], "properties": {"magmom": -0.0}, "label": "I", "xyz": [6.861241180103104, 9.823996217886634, 12.625787328001918]}, {"species": [{"element": "I", "occu": 1}], "abc": [0.90241604, 0.6569139900000001, 0.98188601], "properties": {"magmom": -0.0}, "label": "I", "xyz": [9.55845847217342, 7.226576257922571, 12.625787328001918]}, {"species": [{"element": "I", "occu": 1}], "abc": [0.59758396, 0.84308601, 0.48188601000000003], "properties": {"magmom": -0.0}, "label": "I", "xyz": [6.2364976978265805, 9.17524902707743, 6.19643239300192]}, {"species": [{"element": "I", "occu": 1}], "abc": [0.15691399, 0.40241604000000003, 0.51811399], "properties": {"magmom": -0.0}, "label": "I", "xyz": [1.5962557901031034, 4.356721122886635, 6.6622774769980815]}, {"species": [{"element": "I", "occu": 1}], "abc": [0.34308601, 0.09758396, 0.01811399], "properties": {"magmom": -0.0}, "label": "I", "xyz": [3.668729599896897, 1.1105539721133648, 0.2329225419980813]}, {"species": [{"element": "I", "occu": 1}], "abc": [0.25547142, 0.74452858, -0.0], "properties": {"magmom": 0.0}, "label": "I", "xyz": [2.578463161849971, 8.05439570956786, 0.0]}, {"species": [{"element": "I", "occu": 1}], "abc": [0.24452858, 0.75547142, 0.5], "properties": {"magmom": 0.0}, "label": "I", "xyz": [2.4582392481500293, 8.17017132543214, 6.429354935]}, {"species": [{"element": "I", "occu": 1}], "abc": [0.74452858, 0.25547142, -0.0], "properties": {"magmom": 0.0}, "label": "I", "xyz": [7.95150761815003, 2.88015448043214, 0.0]}, {"species": [{"element": "I", "occu": 1}], "abc": [0.75547142, 0.24452858, 0.5], "properties": {"magmom": 0.0}, "label": "I", "xyz": [8.071731531849972, 2.76437886456786, 6.429354935]}, {"species": [{"element": "I", "occu": 1}], "abc": [0.12776255, 0.12776255, 0.26281152], "properties": {"magmom": 0.0}, "label": "I", "xyz": [1.345335918278289, 1.3970260153773846, 3.3794170861737025]}, {"species": [{"element": "I", "occu": 1}], "abc": [0.37223745, 0.37223745, 0.76281152], "properties": {"magmom": 0.0}, "label": "I", "xyz": [3.919649471721711, 4.070249079622616, 9.808772021173702]}, {"species": [{"element": "I", "occu": 1}], "abc": [0.6277635500000001, 0.6277635500000001, 0.23718848], "properties": {"magmom": 0.0}, "label": "I", "xyz": [6.610331838249071, 6.864312044927575, 3.0499378488262976]}, {"species": [{"element": "I", "occu": 1}], "abc": [0.87223645, 0.87223645, 0.73718848], "properties": {"magmom": 0.0}, "label": "I", "xyz": [9.184624331750932, 9.537513240072425, 9.479292783826299]}, {"species": [{"element": "I", "occu": 1}], "abc": [0.52572683, 0.28129833, 0.26554179], "properties": {"magmom": -0.0}, "label": "I", "xyz": [5.591687024538957, 3.1191976759083078, 3.414524835970467]}, {"species": [{"element": "I", "occu": 1}], "abc": [0.97427317, 0.21870167000000001, 0.76554179], "properties": {"magmom": -0.0}, "label": "I", "xyz": [10.431552125461044, 2.5253356690916924, 9.843879770970467]}, {"species": [{"element": "I", "occu": 1}], "abc": [0.78129833, 0.02572683, 0.23445821], "properties": {"magmom": -0.0}, "label": "I", "xyz": [8.399532698985867, 0.41524259570447264, 3.014830099029533]}, {"species": [{"element": "I", "occu": 1}], "abc": [0.7187016700000001, 0.47427317, 0.73445821], "properties": {"magmom": -0.0}, "label": "I", "xyz": [7.623706451014134, 5.229290749295528, 9.444185034029532]}, {"species": [{"element": "I", "occu": 1}], "abc": [0.47427317, 0.7187016700000001, 0.73445821], "properties": {"magmom": -0.0}, "label": "I", "xyz": [4.938283755461043, 7.815352514091693, 9.444185034029532]}, {"species": [{"element": "I", "occu": 1}], "abc": [0.02572683, 0.78129833, 0.23445821], "properties": {"magmom": -0.0}, "label": "I", "xyz": [0.0984186545389574, 8.409214520908307, 3.014830099029533]}, {"species": [{"element": "I", "occu": 1}], "abc": [0.21870167000000001, 0.97427317, 0.76554179], "properties": {"magmom": -0.0}, "label": "I", "xyz": [2.130438081014133, 10.519307594295528, 9.843879770970467]}, {"species": [{"element": "I", "occu": 1}], "abc": [0.28129833, 0.52572683, 0.26554179], "properties": {"magmom": -0.0}, "label": "I", "xyz": [2.906264328985867, 5.705259440704472, 3.414524835970467]}]}, "task_ids": null, "uncorrected_energy_per_atom": null, "energy_per_atom": -5.365516093250005, "formation_energy_per_atom": -0.7386289999500051, "energy_above_hull": 0.0, "is_stable": true, "equilibrium_reaction_energy_per_atom": null, "decomposes_to": null, "xas": null, "grain_boundaries": null, "band_gap": 0.9253, "cbm": null, "vbm": null, "efermi": 2.58605784, "is_gap_direct": null, "is_metal": null, "es_source_calc_id": null, "bandstructure": null, "dos": null, "dos_energy_up": null, "dos_energy_down": null, "is_magnetic": null, "ordering": null, "total_magnetization": 1.2e-06, "total_magnetization_normalized_vol": null, "total_magnetization_normalized_formula_units": null, "num_magnetic_sites": null, "num_unique_magnetic_sites": null, "types_of_magnetic_species": null, "bulk_modulus": null, "shear_modulus": null, "universal_anisotropy": null, "homogeneous_poisson": null, "e_total": null, "e_ionic": null, "e_electronic": null, "n": null, "e_ij_max": null, "weighted_surface_energy_EV_PER_ANG2": null, "weighted_surface_energy": null, "weighted_work_function": null, "surface_anisotropy": null, "shape_factor": null, "has_reconstructed": null, "possible_species": null, "has_props": null, "theoretical": null, "database_IDs": null, "fields_not_requested": ["builder_meta", "nsites", "elements", "nelements", "composition", "composition_reduced", "chemsys", "symmetry", "property_name", "deprecated", "deprecation_reasons", "last_updated", "origins", "warnings", "task_ids", "uncorrected_energy_per_atom", "equilibrium_reaction_energy_per_atom", "decomposes_to", "xas", "grain_boundaries", "cbm", "vbm", "is_gap_direct", "is_metal", "es_source_calc_id", "bandstructure", "dos", "dos_energy_up", "dos_energy_down", "is_magnetic", "ordering", "total_magnetization_normalized_vol", "total_magnetization_normalized_formula_units", "num_magnetic_sites", "num_unique_magnetic_sites", "types_of_magnetic_species", "bulk_modulus", "shear_modulus", "universal_anisotropy", "homogeneous_poisson", "e_total", "e_ionic", "e_electronic", "n", "e_ij_max", "weighted_surface_energy_EV_PER_ANG2", "weighted_surface_energy", "weighted_work_function", "surface_anisotropy", "shape_factor", "has_reconstructed", "possible_species", "has_props", "theoretical", "database_IDs"]}