{
  "builder_meta": null,
  "nsites": null,
  "elements": null,
  "nelements": null,
  "composition": null,
  "composition_reduced": null,
  "formula_pretty": "Ta3N5",
  "formula_anonymous": "A3B5",
  "chemsys": null,
  "volume": 205.6047591845259,
  "density": 9.899638880272295,
  "density_atomic": 12.850297449032869,
  "symmetry": null,
  "property_name": null,
  "material_id": "mp-27488",
  "deprecated": null,
  "deprecation_reasons": null,
  "last_updated": null,
  "origins": null,
  "warnings": null,
  "structure": {
    "@module": "pymatgen.core.structure",
    "@class": "Structure",
    "charge": 0,
    "lattice": {
      "matrix": [
        [3.88114493, 0.0, 0.0],
        [-1.94057247, 5.1385182, 0.0],
        [-0.0, -0.0, 10.30944779]
      ],
      "pbc": [true, true, true],
      "a": 3.88114493,
      "b": 5.492739826630526,
      "c": 10.30944779,
      "alpha": 90.0,
      "beta": 90.0,
      "gamma": 110.68915172981555,
      "volume": 205.6047591845259
    },
    "properties": {},
    "sites": [
      {
        "species": [{ "element": "Ta", "occu": 1 }],
        "abc": [0.8029873200000001, 0.60597564, 0.75],
        "properties": { "magmom": 0.0 },
        "label": "Ta",
        "xyz": [1.940570521397657, 3.113816854896648, 7.7320858425]
      },
      {
        "species": [{ "element": "Ta", "occu": 1 }],
        "abc": [0.13326759999999901, 0.2665362, 0.93993506],
        "properties": { "magmom": -0.0 },
        "label": "Ta",
        "xyz": [-1.9419051497937545e-6, 1.36960111465884, 9.690211427060518]
      },
      {
        "species": [{ "element": "Ta", "occu": 1 }],
        "abc": [0.8667324, 0.7334638, 0.060064940000000004],
        "properties": { "magmom": -0.0 },
        "label": "Ta",
        "xyz": [1.9405744019051459, 3.76891708534116, 0.6192363629394827]
      },
      {
        "species": [{ "element": "Ta", "occu": 1 }],
        "abc": [0.8667324, 0.7334638, 0.43993506],
        "properties": { "magmom": -0.0 },
        "label": "Ta",
        "xyz": [1.9405744019051459, 3.76891708534116, 4.535487532060517]
      },
      {
        "species": [{ "element": "Ta", "occu": 1 }],
        "abc": [0.19701268, 0.39402436, 0.25],
        "properties": { "magmom": 0.0 },
        "label": "Ta",
        "xyz": [1.9386023430989496e-6, 2.024701345103352, 2.5773619475]
      },
      {
        "species": [{ "element": "Ta", "occu": 1 }],
        "abc": [0.13326759999999901, 0.2665362, 0.5600649400000001],
        "properties": { "magmom": -0.0 },
        "label": "Ta",
        "xyz": [-1.9419051497937545e-6, 1.36960111465884, 5.773960257939484]
      },
      {
        "species": [{ "element": "N", "occu": 1 }],
        "abc": [0.95288427, 0.90576954, 0.8811550300000001],
        "properties": { "magmom": 0.0 },
        "label": "N",
        "xyz": [1.9405705198986873, 4.654313266295628, 9.084221776680884]
      },
      {
        "species": [{ "element": "N", "occu": 1 }],
        "abc": [0.30809483, 0.61618866, 0.07408571],
        "properties": { "magmom": -0.0 },
        "label": "N",
        "xyz": [1.937491521664114e-6, 3.166296644043612, 0.7637827592300809]
      },
      {
        "species": [{ "element": "N", "occu": 1 }],
        "abc": [0.6919051700000001, 0.38381134, 0.92591429],
        "properties": { "magmom": -0.0 },
        "label": "N",
        "xyz": [1.9405705225084786, 1.972221555956388, 9.54566503076992]
      },
      {
        "species": [{ "element": "N", "occu": 1 }],
        "abc": [0.30809483, 0.61618866, 0.42591429000000003],
        "properties": { "magmom": -0.0 },
        "label": "N",
        "xyz": [1.937491521664114e-6, 3.166296644043612, 4.3909411357699195]
      },
      {
        "species": [{ "element": "N", "occu": 1 }],
        "abc": [0.76321757, 0.52643514, 0.25],
        "properties": { "magmom": 0.0 },
        "label": "N",
        "xyz": [1.9405724623678242, 2.705096548009548, 2.5773619475]
      },
      {
        "species": [{ "element": "N", "occu": 1 }],
        "abc": [0.6919051700000001, 0.38381134, 0.57408571],
        "properties": { "magmom": -0.0 },
        "label": "N",
        "xyz": [1.9405705225084786, 1.972221555956388, 5.918506654230081]
      },
      {
        "species": [{ "element": "N", "occu": 1 }],
        "abc": [0.95288427, 0.90576954, 0.61884497],
        "properties": { "magmom": 0.0 },
        "label": "N",
        "xyz": [1.9405705198986873, 4.654313266295628, 6.379949908319117]
      },
      {
        "species": [{ "element": "N", "occu": 1 }],
        "abc": [0.04711473, 0.09423046, 0.38115503],
        "properties": { "magmom": 0.0 },
        "label": "N",
        "xyz": [-1.9410436173095125e-6, 0.484204933704372, 3.929497881680884]
      },
      {
        "species": [{ "element": "N", "occu": 1 }],
        "abc": [0.23678243000000002, 0.47356486000000003, 0.75],
        "properties": { "magmom": 0.0 },
        "label": "N",
        "xyz": [-2.3678242699887164e-9, 2.4334216519904524, 7.7320858425]
      },
      {
        "species": [{ "element": "N", "occu": 1 }],
        "abc": [0.04711473, 0.09423046, 0.11884497000000001],
        "properties": { "magmom": 0.0 },
        "label": "N",
        "xyz": [-1.9410436173095125e-6, 0.484204933704372, 1.2252260133191164]
      }
    ]
  },
  "task_ids": null,
  "uncorrected_energy_per_atom": null,
  "energy_per_atom": -25.214140863125,
  "formation_energy_per_atom": -1.286734426343752,
  "energy_above_hull": 0.0,
  "is_stable": true,
  "equilibrium_reaction_energy_per_atom": null,
  "decomposes_to": null,
  "xas": null,
  "grain_boundaries": null,
  "band_gap": 1.214099999999999,
  "cbm": null,
  "vbm": null,
  "efermi": 3.77843521,
  "is_gap_direct": null,
  "is_metal": null,
  "es_source_calc_id": null,
  "bandstructure": null,
  "dos": null,
  "dos_energy_up": null,
  "dos_energy_down": null,
  "is_magnetic": null,
  "ordering": null,
  "total_magnetization": 0.0,
  "total_magnetization_normalized_vol": null,
  "total_magnetization_normalized_formula_units": null,
  "num_magnetic_sites": null,
  "num_unique_magnetic_sites": null,
  "types_of_magnetic_species": null,
  "bulk_modulus": null,
  "shear_modulus": null,
  "universal_anisotropy": null,
  "homogeneous_poisson": null,
  "e_total": null,
  "e_ionic": null,
  "e_electronic": null,
  "n": null,
  "e_ij_max": null,
  "weighted_surface_energy_EV_PER_ANG2": null,
  "weighted_surface_energy": null,
  "weighted_work_function": null,
  "surface_anisotropy": null,
  "shape_factor": null,
  "has_reconstructed": null,
  "possible_species": null,
  "has_props": null,
  "theoretical": null,
  "database_IDs": null,
  "fields_not_requested": [
    "builder_meta",
    "nsites",
    "elements",
    "nelements",
    "composition",
    "composition_reduced",
    "chemsys",
    "symmetry",
    "property_name",
    "deprecated",
    "deprecation_reasons",
    "last_updated",
    "origins",
    "warnings",
    "task_ids",
    "uncorrected_energy_per_atom",
    "equilibrium_reaction_energy_per_atom",
    "decomposes_to",
    "xas",
    "grain_boundaries",
    "cbm",
    "vbm",
    "is_gap_direct",
    "is_metal",
    "es_source_calc_id",
    "bandstructure",
    "dos",
    "dos_energy_up",
    "dos_energy_down",
    "is_magnetic",
    "ordering",
    "total_magnetization_normalized_vol",
    "total_magnetization_normalized_formula_units",
    "num_magnetic_sites",
    "num_unique_magnetic_sites",
    "types_of_magnetic_species",
    "bulk_modulus",
    "shear_modulus",
    "universal_anisotropy",
    "homogeneous_poisson",
    "e_total",
    "e_ionic",
    "e_electronic",
    "n",
    "e_ij_max",
    "weighted_surface_energy_EV_PER_ANG2",
    "weighted_surface_energy",
    "weighted_work_function",
    "surface_anisotropy",
    "shape_factor",
    "has_reconstructed",
    "possible_species",
    "has_props",
    "theoretical",
    "database_IDs"
  ]
}
