{"builder_meta": null, "nsites": null, "elements": null, "nelements": null, "composition": null, "composition_reduced": null, "formula_pretty": "Ta3O8", "formula_anonymous": "A3B8", "chemsys": null, "volume": 608.2714305252761, "density": 7.325375122422999, "density_atomic": 13.824350693756275, "symmetry": null, "property_name": null, "material_id": "mp-727194", "deprecated": null, "deprecation_reasons": null, "last_updated": null, "origins": null, "warnings": null, "structure": {"@module": "pymatgen.core.structure", "@class": "Structure", "charge": 0, "lattice": {"matrix": [[3.922656, 0.0, 0.0], [0.0, 9.108562, 0.0], [0.0, 0.0, 17.024226]], "pbc": [true, true, true], "a": 3.922656, "b": 9.108562, "c": 17.024226, "alpha": 90.0, "beta": 90.0, "gamma": 90.0, "volume": 608.2714305252761}, "properties": {}, "sites": [{"species": [{"element": "Ta", "occu": 1}], "abc": [0.0, 0.689063, 0.25], "properties": {"magmom": 0.006}, "label": "Ta", "xyz": [0.0, 6.2763730574059995, 4.2560565]}, {"species": [{"element": "Ta", "occu": 1}], "abc": [0.0, 0.310936999999999, 0.75], "properties": {"magmom": 0.006}, "label": "Ta", "xyz": [0.0, 2.832188942593991, 12.768169499999999]}, {"species": [{"element": "Ta", "occu": 1}], "abc": [0.0, 0.399161999999999, 0.370127], "properties": {"magmom": 0.01}, "label": "Ta", "xyz": [0.0, 3.6357918250439907, 6.301125696701999]}, {"species": [{"element": "Ta", "occu": 1}], "abc": [0.0, 0.600838, 0.629873], "properties": {"magmom": 0.01}, "label": "Ta", "xyz": [0.0, 5.472770174956, 10.723100303297999]}, {"species": [{"element": "Ta", "occu": 1}], "abc": [0.0, 0.399161999999999, 0.129873], "properties": {"magmom": 0.01}, "label": "Ta", "xyz": [0.0, 3.6357918250439907, 2.210987303298]}, {"species": [{"element": "Ta", "occu": 1}], "abc": [0.0, 0.600838, 0.870127], "properties": {"magmom": 0.01}, "label": "Ta", "xyz": [0.0, 5.472770174956, 14.813238696702]}, {"species": [{"element": "Ta", "occu": 1}], "abc": [0.0, 0.815415999999999, 0.440538999999999], "properties": {"magmom": 0.004}, "label": "Ta", "xyz": [0.0, 7.427267191791991, 7.499835497813983]}, {"species": [{"element": "Ta", "occu": 1}], "abc": [0.0, 0.184584, 0.559461], "properties": {"magmom": 0.004}, "label": "Ta", "xyz": [0.0, 1.681294808208, 9.524390502186]}, {"species": [{"element": "Ta", "occu": 1}], "abc": [0.0, 0.815415999999999, 0.059461], "properties": {"magmom": 0.004}, "label": "Ta", "xyz": [0.0, 7.427267191791991, 1.012277502186]}, {"species": [{"element": "Ta", "occu": 1}], "abc": [0.0, 0.184584, 0.9405389999999991], "properties": {"magmom": 0.004}, "label": "Ta", "xyz": [0.0, 1.681294808208, 16.011948497813982]}, {"species": [{"element": "Ta", "occu": 1}], "abc": [0.0, 0.056818999999999, 0.25], "properties": {"magmom": 0.011}, "label": "Ta", "xyz": [0.0, 0.5175393842779908, 4.2560565]}, {"species": [{"element": "Ta", "occu": 1}], "abc": [0.0, 0.943180999999999, 0.75], "properties": {"magmom": 0.011}, "label": "Ta", "xyz": [0.0, 8.591022615721991, 12.768169499999999]}, {"species": [{"element": "O", "occu": 1}], "abc": [0.0, 0.461094, 0.25], "properties": {"magmom": -0.025}, "label": "O", "xyz": [0.0, 4.1999032868279995, 4.2560565]}, {"species": [{"element": "O", "occu": 1}], "abc": [0.0, 0.538906, 0.75], "properties": {"magmom": -0.025}, "label": "O", "xyz": [0.0, 4.908658713172, 12.768169499999999]}, {"species": [{"element": "O", "occu": 1}], "abc": [0.0, 0.6229300000000001, 0.368052], "properties": {"magmom": -0.017}, "label": "O", "xyz": [0.0, 5.673996526660001, 6.265800427752]}, {"species": [{"element": "O", "occu": 1}], "abc": [0.0, 0.37707, 0.631948], "properties": {"magmom": -0.017}, "label": "O", "xyz": [0.0, 3.4345654733399997, 10.758425572248]}, {"species": [{"element": "O", "occu": 1}], "abc": [0.0, 0.6229300000000001, 0.131947999999999], "properties": {"magmom": -0.017}, "label": "O", "xyz": [0.0, 5.673996526660001, 2.246312572247983]}, {"species": [{"element": "O", "occu": 1}], "abc": [0.0, 0.37707, 0.868051999999999], "properties": {"magmom": -0.017}, "label": "O", "xyz": [0.0, 3.4345654733399997, 14.777913427751983]}, {"species": [{"element": "O", "occu": 1}], "abc": [0.0, 0.877558, 0.324808999999999], "properties": {"magmom": -0.015}, "label": "O", "xyz": [0.0, 7.993291451595999, 5.529621822833983]}, {"species": [{"element": "O", "occu": 1}], "abc": [0.0, 0.122442, 0.675191], "properties": {"magmom": -0.015}, "label": "O", "xyz": [0.0, 1.1152705484039998, 11.494604177165998]}, {"species": [{"element": "O", "occu": 1}], "abc": [0.0, 0.877558, 0.17519099999999901], "properties": {"magmom": -0.015}, "label": "O", "xyz": [0.0, 7.993291451595999, 2.9824911771659828]}, {"species": [{"element": "O", "occu": 1}], "abc": [0.0, 0.122442, 0.824809], "properties": {"magmom": -0.015}, "label": "O", "xyz": [0.0, 1.1152705484039998, 14.041734822834]}, {"species": [{"element": "O", "occu": 1}], "abc": [0.0, 0.19916, 0.33253000000000005], "properties": {"magmom": -0.031}, "label": "O", "xyz": [0.0, 1.8140612079199998, 5.66106587178]}, {"species": [{"element": "O", "occu": 1}], "abc": [0.0, 0.8008400000000001, 0.66747], "properties": {"magmom": -0.031}, "label": "O", "xyz": [0.0, 7.29450079208, 11.363160128219999]}, {"species": [{"element": "O", "occu": 1}], "abc": [0.0, 0.19916, 0.16747], "properties": {"magmom": -0.031}, "label": "O", "xyz": [0.0, 1.8140612079199998, 2.85104712822]}, {"species": [{"element": "O", "occu": 1}], "abc": [0.0, 0.8008400000000001, 0.8325300000000001], "properties": {"magmom": -0.031}, "label": "O", "xyz": [0.0, 7.29450079208, 14.173178871780001]}, {"species": [{"element": "O", "occu": 1}], "abc": [0.5, 0.693781, 0.25], "properties": {"magmom": -0.015}, "label": "O", "xyz": [1.961328, 6.319347252921999, 4.2560565]}, {"species": [{"element": "O", "occu": 1}], "abc": [0.5, 0.306218999999999, 0.75], "properties": {"magmom": -0.015}, "label": "O", "xyz": [1.961328, 2.789214747077991, 12.768169499999999]}, {"species": [{"element": "O", "occu": 1}], "abc": [0.0, 0.331841999999999, 0.477894999999999], "properties": {"magmom": -0.017}, "label": "O", "xyz": [0.0, 3.022603431203991, 8.135792484269983]}, {"species": [{"element": "O", "occu": 1}], "abc": [0.0, 0.668157999999999, 0.522104999999999], "properties": {"magmom": -0.017}, "label": "O", "xyz": [0.0, 6.0859585687959905, 8.888433515729982]}, {"species": [{"element": "O", "occu": 1}], "abc": [0.0, 0.331841999999999, 0.022105], "properties": {"magmom": -0.017}, "label": "O", "xyz": [0.0, 3.022603431203991, 0.37632051572999997]}, {"species": [{"element": "O", "occu": 1}], "abc": [0.0, 0.668157999999999, 0.977895], "properties": {"magmom": -0.017}, "label": "O", "xyz": [0.0, 6.0859585687959905, 16.647905484269998]}, {"species": [{"element": "O", "occu": 1}], "abc": [0.5, 0.4073, 0.371776], "properties": {"magmom": -0.046}, "label": "O", "xyz": [1.961328, 3.7099173025999996, 6.329198645376]}, {"species": [{"element": "O", "occu": 1}], "abc": [0.5, 0.5927, 0.628224], "properties": {"magmom": -0.046}, "label": "O", "xyz": [1.961328, 5.3986446974, 10.695027354624]}, {"species": [{"element": "O", "occu": 1}], "abc": [0.5, 0.4073, 0.128224], "properties": {"magmom": -0.046}, "label": "O", "xyz": [1.961328, 3.7099173025999996, 2.1829143546239997]}, {"species": [{"element": "O", "occu": 1}], "abc": [0.5, 0.5927, 0.871776], "properties": {"magmom": -0.046}, "label": "O", "xyz": [1.961328, 5.3986446974, 14.841311645375999]}, {"species": [{"element": "O", "occu": 1}], "abc": [0.0, 0.0, 0.5], "properties": {"magmom": 0.001}, "label": "O", "xyz": [0.0, 0.0, 8.512113]}, {"species": [{"element": "O", "occu": 1}], "abc": [0.0, 0.0, 0.0], "properties": {"magmom": 0.001}, "label": "O", "xyz": [0.0, 0.0, 0.0]}, {"species": [{"element": "O", "occu": 1}], "abc": [0.5, 0.822048, 0.437768], "properties": {"magmom": -0.013000000000000001}, "label": "O", "xyz": [1.961328, 7.487675174975999, 7.452661367567999]}, {"species": [{"element": "O", "occu": 1}], "abc": [0.5, 0.177952, 0.562232], "properties": {"magmom": -0.013000000000000001}, "label": "O", "xyz": [1.961328, 1.6208868250239998, 9.571564632431999]}, {"species": [{"element": "O", "occu": 1}], "abc": [0.5, 0.822048, 0.062231999999999], "properties": {"magmom": -0.013000000000000001}, "label": "O", "xyz": [1.961328, 7.487675174975999, 1.059451632431983]}, {"species": [{"element": "O", "occu": 1}], "abc": [0.5, 0.177952, 0.937767999999999], "properties": {"magmom": -0.013000000000000001}, "label": "O", "xyz": [1.961328, 1.6208868250239998, 15.964774367567983]}, {"species": [{"element": "O", "occu": 1}], "abc": [0.5, 0.049095, 0.25], "properties": {"magmom": -0.051000000000000004}, "label": "O", "xyz": [1.961328, 0.44718485138999997, 4.2560565]}, {"species": [{"element": "O", "occu": 1}], "abc": [0.5, 0.950905, 0.75], "properties": {"magmom": -0.051000000000000004}, "label": "O", "xyz": [1.961328, 8.661377148609999, 12.768169499999999]}]}, "task_ids": null, "uncorrected_energy_per_atom": null, "energy_per_atom": -9.989777457954546, "formation_energy_per_atom": -3.154825579045454, "energy_above_hull": 0.039621046363636, "is_stable": false, "equilibrium_reaction_energy_per_atom": null, "decomposes_to": null, "xas": null, "grain_boundaries": null, "band_gap": 0.0, "cbm": null, "vbm": null, "efermi": 0.40581463, "is_gap_direct": null, "is_metal": null, "es_source_calc_id": null, "bandstructure": null, "dos": null, "dos_energy_up": null, "dos_energy_down": null, "is_magnetic": null, "ordering": null, "total_magnetization": 0.489809899999999, "total_magnetization_normalized_vol": null, "total_magnetization_normalized_formula_units": null, "num_magnetic_sites": null, "num_unique_magnetic_sites": null, "types_of_magnetic_species": null, "bulk_modulus": null, "shear_modulus": null, "universal_anisotropy": null, "homogeneous_poisson": null, "e_total": null, "e_ionic": null, "e_electronic": null, "n": null, "e_ij_max": null, "weighted_surface_energy_EV_PER_ANG2": null, "weighted_surface_energy": null, "weighted_work_function": null, "surface_anisotropy": null, "shape_factor": null, "has_reconstructed": null, "possible_species": null, "has_props": null, "theoretical": null, "database_IDs": null, "fields_not_requested": ["builder_meta", "nsites", "elements", "nelements", "composition", "composition_reduced", "chemsys", "symmetry", "property_name", "deprecated", "deprecation_reasons", "last_updated", "origins", "warnings", "task_ids", "uncorrected_energy_per_atom", "equilibrium_reaction_energy_per_atom", "decomposes_to", "xas", "grain_boundaries", "cbm", "vbm", "is_gap_direct", "is_metal", "es_source_calc_id", "bandstructure", "dos", "dos_energy_up", "dos_energy_down", "is_magnetic", "ordering", "total_magnetization_normalized_vol", "total_magnetization_normalized_formula_units", "num_magnetic_sites", "num_unique_magnetic_sites", "types_of_magnetic_species", "bulk_modulus", "shear_modulus", "universal_anisotropy", "homogeneous_poisson", "e_total", "e_ionic", "e_electronic", "n", "e_ij_max", "weighted_surface_energy_EV_PER_ANG2", "weighted_surface_energy", "weighted_work_function", "surface_anisotropy", "shape_factor", "has_reconstructed", "possible_species", "has_props", "theoretical", "database_IDs"]}