{
  "builder_meta": null,
  "nsites": null,
  "elements": null,
  "nelements": null,
  "composition": null,
  "composition_reduced": null,
  "formula_pretty": "Ta3Os2",
  "formula_anonymous": "A2B3",
  "chemsys": null,
  "volume": 493.90048917711994,
  "density": 18.6253927438913,
  "density_atomic": 16.463349639237332,
  "symmetry": null,
  "property_name": null,
  "material_id": "mp-1218177",
  "deprecated": null,
  "deprecation_reasons": null,
  "last_updated": null,
  "origins": null,
  "warnings": null,
  "structure": {
    "@module": "pymatgen.core.structure",
    "@class": "Structure",
    "charge": 0,
    "lattice": {
      "matrix": [
        [0.0, 0.0, 5.06308876],
        [9.87670262, -0.00299964, 0.0],
        [-0.00299964, 9.87670262, 0.0]
      ],
      "pbc": [true, true, true],
      "a": 5.06308876,
      "b": 9.876703075508294,
      "c": 9.876703075508294,
      "alpha": 90.03480244640075,
      "beta": 90.0,
      "gamma": 90.0,
      "volume": 493.90048917712
    },
    "properties": {},
    "sites": [
      {
        "species": [{ "element": "Ta", "occu": 1 }],
        "abc": [0.50306863, 0.10265353, 0.89734647],
        "properties": { "magmom": -0.0 },
        "label": "Ta",
        "xyz": [1.0111866723379777, 8.862516307662021, 2.547081126061599]
      },
      {
        "species": [{ "element": "Ta", "occu": 1 }],
        "abc": [0.50306863, 0.89734647, 0.10265353],
        "properties": { "magmom": -0.0 },
        "label": "Ta",
        "xyz": [8.862516307662021, 1.0111866723379777, 2.547081126061599]
      },
      {
        "species": [{ "element": "Ta", "occu": 1 }],
        "abc": [0.99507064, 0.39891946, 0.39891946],
        "properties": { "magmom": 0.0 },
        "label": "Ta",
        "xyz": [3.9388122609819907, 3.9388122609819907, 5.0381309727900065]
      },
      {
        "species": [{ "element": "Ta", "occu": 1 }],
        "abc": [0.99507064, 0.60108054, 0.60108054],
        "properties": { "magmom": 0.0 },
        "label": "Ta",
        "xyz": [5.934890719018009, 5.934890719018009, 5.0381309727900065]
      },
      {
        "species": [{ "element": "Ta", "occu": 1 }],
        "abc": [0.50116593, 0.37042991000000003, 0.9619124],
        "properties": { "magmom": 0.0 },
        "label": "Ta",
        "xyz": [3.655740671711828, 9.499411564915254, 2.537447587077947]
      },
      {
        "species": [{ "element": "Ta", "occu": 1 }],
        "abc": [0.50116593, 0.62957009, 0.0380876],
        "properties": { "magmom": 0.0 },
        "label": "Ta",
        "xyz": [6.217962308288172, 0.37429141508474434, 2.537447587077947]
      },
      {
        "species": [{ "element": "Ta", "occu": 1 }],
        "abc": [0.0028093, 0.13020142, 0.46541633],
        "properties": { "magmom": 0.0 },
        "label": "Ta",
        "xyz": [1.2845646246015991, 4.596388128514296, 0.014223735253468]
      },
      {
        "species": [{ "element": "Ta", "occu": 1 }],
        "abc": [0.0028093, 0.86979858, 0.5345836700000001],
        "properties": { "magmom": 0.0 },
        "label": "Ta",
        "xyz": [8.5891383553984, 5.277314851485705, 0.014223735253468]
      },
      {
        "species": [{ "element": "Ta", "occu": 1 }],
        "abc": [0.50116593, 0.9619124, 0.37042991000000003],
        "properties": { "magmom": 0.0 },
        "label": "Ta",
        "xyz": [9.499411564915254, 3.655740671711828, 2.537447587077947]
      },
      {
        "species": [{ "element": "Ta", "occu": 1 }],
        "abc": [0.50116593, 0.0380876, 0.62957009],
        "properties": { "magmom": 0.0 },
        "label": "Ta",
        "xyz": [0.37429141508474434, 6.217962308288172, 2.537447587077947]
      },
      {
        "species": [{ "element": "Ta", "occu": 1 }],
        "abc": [0.0028093, 0.46541633, 0.13020142],
        "properties": { "magmom": 0.0 },
        "label": "Ta",
        "xyz": [4.596388128514296, 1.2845646246015991, 0.014223735253468]
      },
      {
        "species": [{ "element": "Ta", "occu": 1 }],
        "abc": [0.0028093, 0.5345836700000001, 0.86979858],
        "properties": { "magmom": 0.0 },
        "label": "Ta",
        "xyz": [5.277314851485705, 8.5891383553984, 0.014223735253468]
      },
      {
        "species": [{ "element": "Ta", "occu": 1 }],
        "abc": [0.74976278, 0.18115633, 0.18115633],
        "properties": { "magmom": -0.0 },
        "label": "Ta",
        "xyz": [1.7886837953668633, 1.7886837953668633, 3.796115504084353]
      },
      {
        "species": [{ "element": "Ta", "occu": 1 }],
        "abc": [0.74976278, 0.81884367, 0.81884367],
        "properties": { "magmom": -0.0 },
        "label": "Ta",
        "xyz": [8.085019184633138, 8.085019184633138, 3.796115504084353]
      },
      {
        "species": [{ "element": "Ta", "occu": 1 }],
        "abc": [0.75041147, 0.6813084500000001, 0.31869155],
        "properties": { "magmom": -0.0 },
        "label": "Ta",
        "xyz": [6.728124993222098, 3.145577986777903, 3.799399879132077]
      },
      {
        "species": [{ "element": "Ta", "occu": 1 }],
        "abc": [0.75041147, 0.31869155, 0.6813084500000001],
        "properties": { "magmom": -0.0 },
        "label": "Ta",
        "xyz": [3.145577986777903, 6.728124993222098, 3.799399879132077]
      },
      {
        "species": [{ "element": "Ta", "occu": 1 }],
        "abc": [0.25040349, 0.81829754, 0.81829754],
        "properties": { "magmom": 0.0 },
        "label": "Ta",
        "xyz": [8.07962685922467, 8.07962685922467, 1.2678150956837726]
      },
      {
        "species": [{ "element": "Ta", "occu": 1 }],
        "abc": [0.25040349, 0.18170246, 0.18170246],
        "properties": { "magmom": 0.0 },
        "label": "Ta",
        "xyz": [1.7940761207753309, 1.7940761207753309, 1.2678150956837726]
      },
      {
        "species": [{ "element": "Os", "occu": 1 }],
        "abc": [0.47931862000000003, 0.5, 0.5],
        "properties": { "magmom": 0.0 },
        "label": "Os",
        "xyz": [4.93685149, 4.93685149, 2.4268327173807114]
      },
      {
        "species": [{ "element": "Os", "occu": 1 }],
        "abc": [0.00165325, -0.0, 0.0],
        "properties": { "magmom": 0.0 },
        "label": "Os",
        "xyz": [0.0, 0.0, 0.008370551492470001]
      },
      {
        "species": [{ "element": "Os", "occu": 1 }],
        "abc": [0.5003865200000001, 0.43452085, 0.24260276],
        "properties": { "magmom": -0.0 },
        "label": "Os",
        "xyz": [4.290905496696621, 2.3948119091887374, 2.5335013650675156]
      },
      {
        "species": [{ "element": "Os", "occu": 1 }],
        "abc": [0.5003865200000001, 0.56547915, 0.75739724],
        "properties": { "magmom": -0.0 },
        "label": "Os",
        "xyz": [5.58279748330338, 7.478891070811263, 2.5335013650675156]
      },
      {
        "species": [{ "element": "Os", "occu": 1 }],
        "abc": [0.00124222, 0.06973132, 0.74068509],
        "properties": { "magmom": -0.0 },
        "label": "Os",
        "xyz": [0.6864937223166907, 7.3153172001412115, 0.0062894701194472005]
      },
      {
        "species": [{ "element": "Os", "occu": 1 }],
        "abc": [0.00124222, 0.9302686800000001, 0.25931491],
        "properties": { "magmom": -0.0 },
        "label": "Os",
        "xyz": [9.187209257683309, 2.558385779858789, 0.0062894701194472005]
      },
      {
        "species": [{ "element": "Os", "occu": 1 }],
        "abc": [0.5003865200000001, 0.24260276, 0.43452085],
        "properties": { "magmom": -0.0 },
        "label": "Os",
        "xyz": [2.3948119091887374, 4.290905496696621, 2.5335013650675156]
      },
      {
        "species": [{ "element": "Os", "occu": 1 }],
        "abc": [0.5003865200000001, 0.75739724, 0.56547915],
        "properties": { "magmom": -0.0 },
        "label": "Os",
        "xyz": [7.478891070811263, 5.58279748330338, 2.5335013650675156]
      },
      {
        "species": [{ "element": "Os", "occu": 1 }],
        "abc": [0.00124222, 0.74068509, 0.06973132],
        "properties": { "magmom": -0.0 },
        "label": "Os",
        "xyz": [7.3153172001412115, 0.6864937223166907, 0.0062894701194472005]
      },
      {
        "species": [{ "element": "Os", "occu": 1 }],
        "abc": [0.00124222, 0.25931491, 0.9302686800000001],
        "properties": { "magmom": -0.0 },
        "label": "Os",
        "xyz": [2.558385779858789, 9.187209257683309, 0.0062894701194472005]
      },
      {
        "species": [{ "element": "Os", "occu": 1 }],
        "abc": [0.24959313, 0.31853613000000003, 0.68146387],
        "properties": { "magmom": -0.0 },
        "label": "Os",
        "xyz": [3.144042483452654, 6.729660496547346, 1.263712171076219]
      },
      {
        "species": [{ "element": "Os", "occu": 1 }],
        "abc": [0.24959313, 0.68146387, 0.31853613000000003],
        "properties": { "magmom": -0.0 },
        "label": "Os",
        "xyz": [6.729660496547346, 3.144042483452654, 1.263712171076219]
      }
    ]
  },
  "task_ids": null,
  "uncorrected_energy_per_atom": null,
  "energy_per_atom": -50.71980558366667,
  "formation_energy_per_atom": -0.37061441606667,
  "energy_above_hull": 0.0,
  "is_stable": true,
  "equilibrium_reaction_energy_per_atom": null,
  "decomposes_to": null,
  "xas": null,
  "grain_boundaries": null,
  "band_gap": 0.0,
  "cbm": null,
  "vbm": null,
  "efermi": 6.6687050800000005,
  "is_gap_direct": null,
  "is_metal": null,
  "es_source_calc_id": null,
  "bandstructure": null,
  "dos": null,
  "dos_energy_up": null,
  "dos_energy_down": null,
  "is_magnetic": null,
  "ordering": null,
  "total_magnetization": 3e-7,
  "total_magnetization_normalized_vol": null,
  "total_magnetization_normalized_formula_units": null,
  "num_magnetic_sites": null,
  "num_unique_magnetic_sites": null,
  "types_of_magnetic_species": null,
  "bulk_modulus": null,
  "shear_modulus": null,
  "universal_anisotropy": null,
  "homogeneous_poisson": null,
  "e_total": null,
  "e_ionic": null,
  "e_electronic": null,
  "n": null,
  "e_ij_max": null,
  "weighted_surface_energy_EV_PER_ANG2": null,
  "weighted_surface_energy": null,
  "weighted_work_function": null,
  "surface_anisotropy": null,
  "shape_factor": null,
  "has_reconstructed": null,
  "possible_species": null,
  "has_props": null,
  "theoretical": null,
  "database_IDs": null,
  "fields_not_requested": [
    "builder_meta",
    "nsites",
    "elements",
    "nelements",
    "composition",
    "composition_reduced",
    "chemsys",
    "symmetry",
    "property_name",
    "deprecated",
    "deprecation_reasons",
    "last_updated",
    "origins",
    "warnings",
    "task_ids",
    "uncorrected_energy_per_atom",
    "equilibrium_reaction_energy_per_atom",
    "decomposes_to",
    "xas",
    "grain_boundaries",
    "cbm",
    "vbm",
    "is_gap_direct",
    "is_metal",
    "es_source_calc_id",
    "bandstructure",
    "dos",
    "dos_energy_up",
    "dos_energy_down",
    "is_magnetic",
    "ordering",
    "total_magnetization_normalized_vol",
    "total_magnetization_normalized_formula_units",
    "num_magnetic_sites",
    "num_unique_magnetic_sites",
    "types_of_magnetic_species",
    "bulk_modulus",
    "shear_modulus",
    "universal_anisotropy",
    "homogeneous_poisson",
    "e_total",
    "e_ionic",
    "e_electronic",
    "n",
    "e_ij_max",
    "weighted_surface_energy_EV_PER_ANG2",
    "weighted_surface_energy",
    "weighted_work_function",
    "surface_anisotropy",
    "shape_factor",
    "has_reconstructed",
    "possible_species",
    "has_props",
    "theoretical",
    "database_IDs"
  ]
}
