{
  "builder_meta": null,
  "nsites": null,
  "elements": null,
  "nelements": null,
  "composition": null,
  "composition_reduced": null,
  "formula_pretty": "Ta3P",
  "formula_anonymous": "AB3",
  "chemsys": null,
  "volume": 520.0385155026539,
  "density": 14.658086810280563,
  "density_atomic": 16.251203609457935,
  "symmetry": null,
  "property_name": null,
  "material_id": "mp-504502",
  "deprecated": null,
  "deprecation_reasons": null,
  "last_updated": null,
  "origins": null,
  "warnings": null,
  "structure": {
    "@module": "pymatgen.core.structure",
    "@class": "Structure",
    "charge": 0,
    "lattice": {
      "matrix": [
        [5.04869323, -0.0, 0.0],
        [-0.0, 10.14911707, 0.0008238],
        [0.0, -0.0008238, 10.14911707]
      ],
      "pbc": [true, true, true],
      "a": 5.04869323,
      "b": 10.149117103433769,
      "c": 10.149117103433769,
      "alpha": 90.0,
      "beta": 90.0,
      "gamma": 90.0,
      "volume": 520.0385155026538
    },
    "properties": {},
    "sites": [
      {
        "species": [{ "element": "Ta", "occu": 1 }],
        "abc": [0.7322343, 0.16146606, 0.65343694],
        "properties": { "magmom": -0.0 },
        "label": "Ta",
        "xyz": [3.6968263531837886, 1.6381996444204723, 6.631941017662793]
      },
      {
        "species": [{ "element": "Ta", "occu": 1 }],
        "abc": [0.232234299999999, 0.34656306000000003, 0.66146606],
        "properties": { "magmom": -0.0 },
        "label": "Ta",
        "xyz": [1.172479738183784, 3.5167641523372066, 6.713581979420472]
      },
      {
        "species": [{ "element": "Ta", "occu": 1 }],
        "abc": [0.232234299999999, 0.15343694, 0.83853394],
        "properties": { "magmom": -0.0 },
        "label": "Ta",
        "xyz": [1.172479738183784, 1.5565586826627937, 8.510505525579529]
      },
      {
        "species": [{ "element": "Ta", "occu": 1 }],
        "abc": [0.7322343, 0.33853394000000003, 0.84656306],
        "properties": { "magmom": -0.0 },
        "label": "Ta",
        "xyz": [3.6968263531837886, 3.4351231905795285, 8.592146487337208]
      },
      {
        "species": [{ "element": "Ta", "occu": 1 }],
        "abc": [0.2677657, 0.83853394, 0.34656306000000003],
        "properties": { "magmom": -0.0 },
        "label": "Ta",
        "xyz": [1.3518668768162108, 8.510093625579527, 3.5179998523372067]
      },
      {
        "species": [{ "element": "Ta", "occu": 1 }],
        "abc": [0.7677657, 0.65343694, 0.33853394000000003],
        "properties": { "magmom": -0.0 },
        "label": "Ta",
        "xyz": [3.8762134918162108, 6.631529117662794, 3.4363588905795286]
      },
      {
        "species": [{ "element": "Ta", "occu": 1 }],
        "abc": [0.7677657, 0.84656306, 0.16146606],
        "properties": { "magmom": -0.0 },
        "label": "Ta",
        "xyz": [3.8762134918162108, 8.591734587337207, 1.6394353444204721]
      },
      {
        "species": [{ "element": "Ta", "occu": 1 }],
        "abc": [0.2677657, 0.66146606, 0.15343694],
        "properties": { "magmom": -0.0 },
        "label": "Ta",
        "xyz": [1.3518668768162108, 6.713170079420473, 1.5577943826627938]
      },
      {
        "species": [{ "element": "Ta", "occu": 1 }],
        "abc": [0.51188447, 0.10470819, 0.25934475],
        "properties": { "magmom": -0.0 },
        "label": "Ta",
        "xyz": [2.584347658231138, 1.0624820302927533, 2.6322064878468048]
      },
      {
        "species": [{ "element": "Ta", "occu": 1 }],
        "abc": [0.01188447, 0.74065525, 0.60470819],
        "properties": { "magmom": -0.0 },
        "label": "Ta",
        "xyz": [0.06000104323113809, 7.5164986821531965, 6.137864365292754]
      },
      {
        "species": [{ "element": "Ta", "occu": 1 }],
        "abc": [0.01188447, 0.75934475, 0.89529181],
        "properties": { "magmom": -0.0 },
        "label": "Ta",
        "xyz": [0.06000104323113809, 7.705941222846805, 9.087046939707248]
      },
      {
        "species": [{ "element": "Ta", "occu": 1 }],
        "abc": [0.51188447, 0.39529181, 0.24065525000000001],
        "properties": { "magmom": -0.0 },
        "label": "Ta",
        "xyz": [2.584347658231138, 4.011664604707247, 2.4427639471531957]
      },
      {
        "species": [{ "element": "Ta", "occu": 1 }],
        "abc": [0.48811553, 0.89529181, 0.74065525],
        "properties": { "magmom": -0.0 },
        "label": "Ta",
        "xyz": [2.464345571768862, 9.085811239707247, 7.517734382153196]
      },
      {
        "species": [{ "element": "Ta", "occu": 1 }],
        "abc": [0.9881155300000001, 0.25934475, 0.39529181],
        "properties": { "magmom": -0.0 },
        "label": "Ta",
        "xyz": [4.988692186768862, 2.6317945878468048, 4.012076504707247]
      },
      {
        "species": [{ "element": "Ta", "occu": 1 }],
        "abc": [0.9881155300000001, 0.24065525000000001, 0.10470819],
        "properties": { "magmom": -0.0 },
        "label": "Ta",
        "xyz": [4.988692186768862, 2.4423520471531956, 1.0628939302927534]
      },
      {
        "species": [{ "element": "Ta", "occu": 1 }],
        "abc": [0.48811553, 0.60470819, 0.75934475],
        "properties": { "magmom": -0.0 },
        "label": "Ta",
        "xyz": [2.464345571768862, 6.136628665292754, 7.707176922846805]
      },
      {
        "species": [{ "element": "Ta", "occu": 1 }],
        "abc": [0.24242514, 0.057452960000000004, 0.54035518],
        "properties": { "magmom": 0.0 },
        "label": "Ta",
        "xyz": [1.223930163099802, 0.5826516724607433, 5.484175310949371]
      },
      {
        "species": [{ "element": "Ta", "occu": 1 }],
        "abc": [0.74242514, 0.45964482, 0.55745296],
        "properties": { "magmom": 0.0 },
        "label": "Ta",
        "xyz": [3.748276778099802, 4.66452985905063, 5.658034007460743]
      },
      {
        "species": [{ "element": "Ta", "occu": 1 }],
        "abc": [0.74242514, 0.04035518, 0.94254704],
        "properties": { "magmom": 0.0 },
        "label": "Ta",
        "xyz": [3.748276778099802, 0.40879297594937064, 9.566053497539258]
      },
      {
        "species": [{ "element": "Ta", "occu": 1 }],
        "abc": [0.24242514, 0.44254704, 0.9596448200000001],
        "properties": { "magmom": 0.0 },
        "label": "Ta",
        "xyz": [1.223930163099802, 4.4906711625392575, 9.73991219405063]
      },
      {
        "species": [{ "element": "Ta", "occu": 1 }],
        "abc": [0.75757486, 0.94254704, 0.45964482],
        "properties": { "magmom": 0.0 },
        "label": "Ta",
        "xyz": [3.8247630669001973, 9.565641597539257, 4.665765559050629]
      },
      {
        "species": [{ "element": "Ta", "occu": 1 }],
        "abc": [0.25757486, 0.54035518, 0.44254704],
        "properties": { "magmom": 0.0 },
        "label": "Ta",
        "xyz": [1.3004164519001977, 5.483763410949371, 4.491906862539258]
      },
      {
        "species": [{ "element": "Ta", "occu": 1 }],
        "abc": [0.25757486, 0.9596448200000001, 0.057452960000000004],
        "properties": { "magmom": 0.0 },
        "label": "Ta",
        "xyz": [1.3004164519001977, 9.73950029405063, 0.5838873724607433]
      },
      {
        "species": [{ "element": "Ta", "occu": 1 }],
        "abc": [0.75757486, 0.55745296, 0.04035518],
        "properties": { "magmom": 0.0 },
        "label": "Ta",
        "xyz": [3.8247630669001973, 5.657622107460743, 0.4100286759493706]
      },
      {
        "species": [{ "element": "P", "occu": 1 }],
        "abc": [0.0154658, 0.04259169, 0.26883751],
        "properties": { "magmom": 0.0 },
        "label": "P",
        "xyz": [0.07808207975653399, 0.43204657967841037, 2.728498448831518]
      },
      {
        "species": [{ "element": "P", "occu": 1 }],
        "abc": [0.5154658, 0.73116249, 0.54259169],
        "properties": { "magmom": 0.0 },
        "label": "P",
        "xyz": [2.602428694756534, 7.4202067211684835, 5.50742891467841]
      },
      {
        "species": [{ "element": "P", "occu": 1 }],
        "abc": [0.5154658, 0.76883751, 0.95740831],
        "properties": { "magmom": 0.0 },
        "label": "P",
        "xyz": [2.602428694756534, 7.802233183831518, 9.71748239032159]
      },
      {
        "species": [{ "element": "P", "occu": 1 }],
        "abc": [0.0154658, 0.45740831, 0.23116249],
        "properties": { "magmom": 0.0 },
        "label": "P",
        "xyz": [0.07808207975653399, 4.64210005532159, 2.3464719861684826]
      },
      {
        "species": [{ "element": "P", "occu": 1 }],
        "abc": [0.984534199999999, 0.95740831, 0.73116249],
        "properties": { "magmom": 0.0 },
        "label": "P",
        "xyz": [4.970611150243461, 9.71624669032159, 7.421442421168483]
      },
      {
        "species": [{ "element": "P", "occu": 1 }],
        "abc": [0.484534199999999, 0.26883751, 0.45740831],
        "properties": { "magmom": 0.0 },
        "label": "P",
        "xyz": [2.446264535243461, 2.728086548831518, 4.6425119553215906]
      },
      {
        "species": [{ "element": "P", "occu": 1 }],
        "abc": [0.484534199999999, 0.23116249, 0.04259169],
        "properties": { "magmom": 0.0 },
        "label": "P",
        "xyz": [2.446264535243461, 2.3460600861684826, 0.4324584796784104]
      },
      {
        "species": [{ "element": "P", "occu": 1 }],
        "abc": [0.984534199999999, 0.54259169, 0.76883751],
        "properties": { "magmom": 0.0 },
        "label": "P",
        "xyz": [4.970611150243461, 5.506193214678411, 7.803468883831518]
      }
    ]
  },
  "task_ids": null,
  "uncorrected_energy_per_atom": null,
  "energy_per_atom": -39.33517027875,
  "formation_energy_per_atom": -0.64077666624405,
  "energy_above_hull": 0.0,
  "is_stable": true,
  "equilibrium_reaction_energy_per_atom": null,
  "decomposes_to": null,
  "xas": null,
  "grain_boundaries": null,
  "band_gap": 0.0,
  "cbm": null,
  "vbm": null,
  "efermi": 7.27605668,
  "is_gap_direct": null,
  "is_metal": null,
  "es_source_calc_id": null,
  "bandstructure": null,
  "dos": null,
  "dos_energy_up": null,
  "dos_energy_down": null,
  "is_magnetic": null,
  "ordering": null,
  "total_magnetization": 8e-7,
  "total_magnetization_normalized_vol": null,
  "total_magnetization_normalized_formula_units": null,
  "num_magnetic_sites": null,
  "num_unique_magnetic_sites": null,
  "types_of_magnetic_species": null,
  "bulk_modulus": null,
  "shear_modulus": null,
  "universal_anisotropy": null,
  "homogeneous_poisson": null,
  "e_total": null,
  "e_ionic": null,
  "e_electronic": null,
  "n": null,
  "e_ij_max": null,
  "weighted_surface_energy_EV_PER_ANG2": null,
  "weighted_surface_energy": null,
  "weighted_work_function": null,
  "surface_anisotropy": null,
  "shape_factor": null,
  "has_reconstructed": null,
  "possible_species": null,
  "has_props": null,
  "theoretical": null,
  "database_IDs": null,
  "fields_not_requested": [
    "builder_meta",
    "nsites",
    "elements",
    "nelements",
    "composition",
    "composition_reduced",
    "chemsys",
    "symmetry",
    "property_name",
    "deprecated",
    "deprecation_reasons",
    "last_updated",
    "origins",
    "warnings",
    "task_ids",
    "uncorrected_energy_per_atom",
    "equilibrium_reaction_energy_per_atom",
    "decomposes_to",
    "xas",
    "grain_boundaries",
    "cbm",
    "vbm",
    "is_gap_direct",
    "is_metal",
    "es_source_calc_id",
    "bandstructure",
    "dos",
    "dos_energy_up",
    "dos_energy_down",
    "is_magnetic",
    "ordering",
    "total_magnetization_normalized_vol",
    "total_magnetization_normalized_formula_units",
    "num_magnetic_sites",
    "num_unique_magnetic_sites",
    "types_of_magnetic_species",
    "bulk_modulus",
    "shear_modulus",
    "universal_anisotropy",
    "homogeneous_poisson",
    "e_total",
    "e_ionic",
    "e_electronic",
    "n",
    "e_ij_max",
    "weighted_surface_energy_EV_PER_ANG2",
    "weighted_surface_energy",
    "weighted_work_function",
    "surface_anisotropy",
    "shape_factor",
    "has_reconstructed",
    "possible_species",
    "has_props",
    "theoretical",
    "database_IDs"
  ]
}
