{"builder_meta": null, "nsites": null, "elements": null, "nelements": null, "composition": null, "composition_reduced": null, "formula_pretty": "Ta3Ru2", "formula_anonymous": "A2B3", "chemsys": null, "volume": 162.31340426068232, "density": 15.243034841547352, "density_atomic": 16.231340426068233, "symmetry": null, "property_name": null, "material_id": "mp-1218044", "deprecated": null, "deprecation_reasons": null, "last_updated": null, "origins": null, "warnings": null, "structure": {"@module": "pymatgen.core.structure", "@class": "Structure", "charge": 0, "lattice": {"matrix": [[3.20240408, 0.0, 0.0], [0.0, 3.20240408, 0.0], [0.0, 0.0, 15.8271284]], "pbc": [true, true, true], "a": 3.20240408, "b": 3.20240408, "c": 15.8271284, "alpha": 90.0, "beta": 90.0, "gamma": 90.0, "volume": 162.31340426068232}, "properties": {}, "sites": [{"species": [{"element": "Ta", "occu": 1}], "abc": [-0.0, -0.0, 0.99540883], "properties": {"magmom": 0.002}, "label": "Ta", "xyz": [0.0, 0.0, 15.754463362903772]}, {"species": [{"element": "Ta", "occu": 1}], "abc": [-0.0, -0.0, 0.20459117000000002], "properties": {"magmom": 0.002}, "label": "Ta", "xyz": [0.0, 0.0, 3.2380907170962283]}, {"species": [{"element": "Ta", "occu": 1}], "abc": [-0.0, 0.0, 0.4052438], "properties": {"magmom": 0.036000000000000004}, "label": "Ta", "xyz": [0.0, 0.0, 6.41384565590392]}, {"species": [{"element": "Ta", "occu": 1}], "abc": [-0.0, -0.0, 0.6000000000000001], "properties": {"magmom": 0.059000000000000004}, "label": "Ta", "xyz": [0.0, 0.0, 9.49627704]}, {"species": [{"element": "Ta", "occu": 1}], "abc": [-0.0, -0.0, 0.794756199999999], "properties": {"magmom": 0.036000000000000004}, "label": "Ta", "xyz": [0.0, 0.0, 12.578708424096064]}, {"species": [{"element": "Ta", "occu": 1}], "abc": [0.5, 0.5, 0.1], "properties": {"magmom": -0.01}, "label": "Ta", "xyz": [1.60120204, 1.60120204, 1.5827128400000001]}, {"species": [{"element": "Ru", "occu": 1}], "abc": [0.5, 0.5, 0.30904934], "properties": {"magmom": 0.079}, "label": "Ru", "xyz": [1.60120204, 1.60120204, 4.891363586115256]}, {"species": [{"element": "Ru", "occu": 1}], "abc": [0.5, 0.5, 0.50217079], "properties": {"magmom": 0.466}, "label": "Ru", "xyz": [1.60120204, 1.60120204, 7.947921572059435]}, {"species": [{"element": "Ru", "occu": 1}], "abc": [0.5, 0.5, 0.69782921], "properties": {"magmom": 0.466}, "label": "Ru", "xyz": [1.60120204, 1.60120204, 11.044632507940563]}, {"species": [{"element": "Ru", "occu": 1}], "abc": [0.5, 0.5, 0.89095066], "properties": {"magmom": 0.079}, "label": "Ru", "xyz": [1.60120204, 1.60120204, 14.101190493884744]}]}, "task_ids": null, "uncorrected_energy_per_atom": null, "energy_per_atom": -39.634850254, "formation_energy_per_atom": -0.30993650840000503, "energy_above_hull": 0.0, "is_stable": true, "equilibrium_reaction_energy_per_atom": null, "decomposes_to": null, "xas": null, "grain_boundaries": null, "band_gap": 0.0, "cbm": null, "vbm": null, "efermi": 7.04916522, "is_gap_direct": null, "is_metal": null, "es_source_calc_id": null, "bandstructure": null, "dos": null, "dos_energy_up": null, "dos_energy_down": null, "is_magnetic": null, "ordering": null, "total_magnetization": 1.1679572, "total_magnetization_normalized_vol": null, "total_magnetization_normalized_formula_units": null, "num_magnetic_sites": null, "num_unique_magnetic_sites": null, "types_of_magnetic_species": null, "bulk_modulus": null, "shear_modulus": null, "universal_anisotropy": null, "homogeneous_poisson": null, "e_total": null, "e_ionic": null, "e_electronic": null, "n": null, "e_ij_max": null, "weighted_surface_energy_EV_PER_ANG2": null, "weighted_surface_energy": null, "weighted_work_function": null, "surface_anisotropy": null, "shape_factor": null, "has_reconstructed": null, "possible_species": null, "has_props": null, "theoretical": null, "database_IDs": null, "fields_not_requested": ["builder_meta", "nsites", "elements", "nelements", "composition", "composition_reduced", "chemsys", "symmetry", "property_name", "deprecated", "deprecation_reasons", "last_updated", "origins", "warnings", "task_ids", "uncorrected_energy_per_atom", "equilibrium_reaction_energy_per_atom", "decomposes_to", "xas", "grain_boundaries", "cbm", "vbm", "is_gap_direct", "is_metal", "es_source_calc_id", "bandstructure", "dos", "dos_energy_up", "dos_energy_down", "is_magnetic", "ordering", "total_magnetization_normalized_vol", "total_magnetization_normalized_formula_units", "num_magnetic_sites", "num_unique_magnetic_sites", "types_of_magnetic_species", "bulk_modulus", "shear_modulus", "universal_anisotropy", "homogeneous_poisson", "e_total", "e_ionic", "e_electronic", "n", "e_ij_max", "weighted_surface_energy_EV_PER_ANG2", "weighted_surface_energy", "weighted_work_function", "surface_anisotropy", "shape_factor", "has_reconstructed", "possible_species", "has_props", "theoretical", "database_IDs"]}