{
  "builder_meta": null,
  "nsites": null,
  "elements": null,
  "nelements": null,
  "composition": null,
  "composition_reduced": null,
  "formula_pretty": "Ta3Si",
  "formula_anonymous": "AB3",
  "chemsys": null,
  "volume": 537.8755289470979,
  "density": 14.100662182362793,
  "density_atomic": 16.80861027959681,
  "symmetry": null,
  "property_name": null,
  "material_id": "mp-568646",
  "deprecated": null,
  "deprecation_reasons": null,
  "last_updated": null,
  "origins": null,
  "warnings": null,
  "structure": {
    "@module": "pymatgen.core.structure",
    "@class": "Structure",
    "charge": 0,
    "lattice": {
      "matrix": [
        [5.19595151, -0.0, 0.0],
        [-0.0, 10.17438924, 5.1020000000000016e-5],
        [-0.0, -5.1020000000000016e-5, 10.17438924]
      ],
      "pbc": [true, true, true],
      "a": 5.19595151,
      "b": 10.17438924012792,
      "c": 10.17438924012792,
      "alpha": 90.0,
      "beta": 90.0,
      "gamma": 90.0,
      "volume": 537.8755289470979
    },
    "properties": {},
    "sites": [
      {
        "species": [{ "element": "Ta", "occu": 1 }],
        "abc": [0.52416167, 0.89602046, 0.768616099999999],
        "properties": { "magmom": 0.0 },
        "label": "Ta",
        "xyz": [2.723518620720622, 9.11642171225043, 7.820245092494623]
      },
      {
        "species": [{ "element": "Ta", "occu": 1 }],
        "abc": [0.28127079, 0.33596587, 0.64953393],
        "properties": { "magmom": -0.0 },
        "label": "Ta",
        "xyz": [1.461469386019393, 3.41821439351413, 6.608628169385601]
      },
      {
        "species": [{ "element": "Ta", "occu": 1 }],
        "abc": [0.76447498, 0.06292215, 0.96360889],
        "properties": { "magmom": -0.0 },
        "label": "Ta",
        "xyz": [3.9721749266882203, 0.6401452825920981, 9.804135132272437]
      },
      {
        "species": [{ "element": "Ta", "occu": 1 }],
        "abc": [0.71872921, 0.83596587, 0.14953393],
        "properties": { "magmom": -0.0 },
        "label": "Ta",
        "xyz": [3.7344821239806074, 8.505434523514129, 1.5214590593856008]
      },
      {
        "species": [{ "element": "Ta", "occu": 1 }],
        "abc": [0.02416167, 0.268616099999999, 0.10397954],
        "properties": { "magmom": 0.0 },
        "label": "Ta",
        "xyz": [0.1255428657206217, 2.732999452494623, 1.0579420177495718]
      },
      {
        "species": [{ "element": "Ta", "occu": 1 }],
        "abc": [0.47583833000000003, 0.39602046, 0.268616099999999],
        "properties": { "magmom": 0.0 },
        "label": "Ta",
        "xyz": [2.4724328892793785, 4.029252602250429, 2.733024962494623]
      },
      {
        "species": [{ "element": "Ta", "occu": 1 }],
        "abc": [0.23552502, 0.93707785, 0.03639111],
        "properties": { "magmom": -0.0 },
        "label": "Ta",
        "xyz": [1.2237765833117804, 9.534192937407902, 0.37030512772756335]
      },
      {
        "species": [{ "element": "Ta", "occu": 1 }],
        "abc": [0.76447498, 0.43707785, 0.5363911100000001],
        "properties": { "magmom": -0.0 },
        "label": "Ta",
        "xyz": [3.9721749266882203, 4.446972807407901, 5.457474237727564]
      },
      {
        "species": [{ "element": "Ta", "occu": 1 }],
        "abc": [0.26447498, 0.46360889, 0.93707785],
        "properties": { "magmom": -0.0 },
        "label": "Ta",
        "xyz": [1.37419917168822, 4.716889492272437, 9.534218447407902]
      },
      {
        "species": [{ "element": "Ta", "occu": 1 }],
        "abc": [0.78127079, 0.14953393, 0.66403413],
        "properties": { "magmom": -0.0 },
        "label": "Ta",
        "xyz": [4.059445141019393, 1.5213825293856007, 6.756149336485869]
      },
      {
        "species": [{ "element": "Ta", "occu": 1 }],
        "abc": [0.73552502, 0.5363911100000001, 0.06292215],
        "properties": { "magmom": -0.0 },
        "label": "Ta",
        "xyz": [3.8217523383117804, 5.457448727727564, 0.6402218125920981]
      },
      {
        "species": [{ "element": "Ta", "occu": 1 }],
        "abc": [0.97583833, 0.768616099999999, 0.60397954],
        "properties": { "magmom": 0.0 },
        "label": "Ta",
        "xyz": [5.070408644279379, 7.820168562494623, 6.145162147749572]
      },
      {
        "species": [{ "element": "Ta", "occu": 1 }],
        "abc": [0.97583833, 0.7313839, 0.89602046],
        "properties": { "magmom": 0.0 },
        "label": "Ta",
        "xyz": [5.070408644279379, 7.441338767505366, 9.11649824225043]
      },
      {
        "species": [{ "element": "Ta", "occu": 1 }],
        "abc": [0.02416167, 0.231383899999999, 0.39602046],
        "properties": { "magmom": 0.0 },
        "label": "Ta",
        "xyz": [0.1255428657206217, 2.3541696575053566, 4.029278112250428]
      },
      {
        "species": [{ "element": "Ta", "occu": 1 }],
        "abc": [0.23552502, 0.56292215, 0.46360889],
        "properties": { "magmom": -0.0 },
        "label": "Ta",
        "xyz": [1.2237765833117804, 5.727365412592099, 4.7169660222724366]
      },
      {
        "species": [{ "element": "Ta", "occu": 1 }],
        "abc": [0.21872921, 0.64953393, 0.16403413],
        "properties": { "magmom": -0.0 },
        "label": "Ta",
        "xyz": [1.1365063689806072, 6.6086026593856015, 1.6689802264858697]
      },
      {
        "species": [{ "element": "Ta", "occu": 1 }],
        "abc": [0.26447498, 0.03639111, 0.56292215],
        "properties": { "magmom": -0.0 },
        "label": "Ta",
        "xyz": [1.37419917168822, 0.3702285977275634, 5.7273909225920985]
      },
      {
        "species": [{ "element": "Ta", "occu": 1 }],
        "abc": [0.28127079, 0.16403413, 0.85046607],
        "properties": { "magmom": -0.0 },
        "label": "Ta",
        "xyz": [1.461469386019393, 1.6689036964858697, 8.652981200614398]
      },
      {
        "species": [{ "element": "Ta", "occu": 1 }],
        "abc": [0.21872921, 0.85046607, 0.33596587],
        "properties": { "magmom": -0.0 },
        "label": "Ta",
        "xyz": [1.1365063689806072, 8.652955690614398, 3.41829092351413]
      },
      {
        "species": [{ "element": "Ta", "occu": 1 }],
        "abc": [0.71872921, 0.66403413, 0.35046607],
        "properties": { "magmom": -0.0 },
        "label": "Ta",
        "xyz": [3.7344821239806074, 6.75612382648587, 3.5658120906143997]
      },
      {
        "species": [{ "element": "Ta", "occu": 1 }],
        "abc": [0.47583833000000003, 0.10397954, 0.231383899999999],
        "properties": { "magmom": 0.0 },
        "label": "Ta",
        "xyz": [2.4724328892793785, 1.0579165077495716, 2.3541951675053565]
      },
      {
        "species": [{ "element": "Ta", "occu": 1 }],
        "abc": [0.73552502, 0.96360889, 0.43707785],
        "properties": { "magmom": -0.0 },
        "label": "Ta",
        "xyz": [3.8217523383117804, 9.804109622272438, 4.447049337407901]
      },
      {
        "species": [{ "element": "Ta", "occu": 1 }],
        "abc": [0.52416167, 0.60397954, 0.7313839],
        "properties": { "magmom": 0.0 },
        "label": "Ta",
        "xyz": [2.723518620720622, 6.145085617749571, 7.441415297505366]
      },
      {
        "species": [{ "element": "Ta", "occu": 1 }],
        "abc": [0.78127079, 0.35046607, 0.83596587],
        "properties": { "magmom": -0.0 },
        "label": "Ta",
        "xyz": [4.059445141019393, 3.5657355606143994, 8.50546003351413]
      },
      {
        "species": [{ "element": "Si", "occu": 1 }],
        "abc": [0.96923901, 0.0449747, 0.21978414000000002],
        "properties": { "magmom": 0.0 },
        "label": "Si",
        "xyz": [5.036118897560406, 0.45757889036540517, 2.236171683747848]
      },
      {
        "species": [{ "element": "Si", "occu": 1 }],
        "abc": [0.53076099, 0.21978414000000002, 0.455025299999999],
        "properties": { "magmom": 0.0 },
        "label": "Si",
        "xyz": [2.757808367439595, 2.2361461737478474, 4.629615729634585]
      },
      {
        "species": [{ "element": "Si", "occu": 1 }],
        "abc": [0.53076099, 0.28021586, 0.0449747],
        "properties": { "magmom": 0.0 },
        "label": "Si",
        "xyz": [2.757808367439595, 2.851022936252152, 0.4576044003654052]
      },
      {
        "species": [{ "element": "Si", "occu": 1 }],
        "abc": [0.030760990000000002, 0.544974699999999, 0.71978414],
        "properties": { "magmom": 0.0 },
        "label": "Si",
        "xyz": [0.15983261243959493, 5.544748000365395, 7.323391813747848]
      },
      {
        "species": [{ "element": "Si", "occu": 1 }],
        "abc": [0.46923901, 0.78021586, 0.544974699999999],
        "properties": { "magmom": 0.0 },
        "label": "Si",
        "xyz": [2.4381431425604054, 7.938192046252152, 5.544824530365395]
      },
      {
        "species": [{ "element": "Si", "occu": 1 }],
        "abc": [0.96923901, 0.455025299999999, 0.28021586],
        "properties": { "magmom": 0.0 },
        "label": "Si",
        "xyz": [5.036118897560406, 4.6295902196345855, 2.8510484462521526]
      },
      {
        "species": [{ "element": "Si", "occu": 1 }],
        "abc": [0.46923901, 0.71978414, 0.9550253],
        "properties": { "magmom": 0.0 },
        "label": "Si",
        "xyz": [2.4381431425604054, 7.323315283747848, 9.716835859634594]
      },
      {
        "species": [{ "element": "Si", "occu": 1 }],
        "abc": [0.030760990000000002, 0.9550253, 0.78021586],
        "properties": { "magmom": 0.0 },
        "label": "Si",
        "xyz": [0.15983261243959493, 9.716759329634595, 7.938268576252152]
      }
    ]
  },
  "task_ids": null,
  "uncorrected_energy_per_atom": null,
  "energy_per_atom": -39.1067421175,
  "formation_energy_per_atom": -0.469426434250003,
  "energy_above_hull": 0.0,
  "is_stable": true,
  "equilibrium_reaction_energy_per_atom": null,
  "decomposes_to": null,
  "xas": null,
  "grain_boundaries": null,
  "band_gap": 0.0,
  "cbm": null,
  "vbm": null,
  "efermi": 6.65469426,
  "is_gap_direct": null,
  "is_metal": null,
  "es_source_calc_id": null,
  "bandstructure": null,
  "dos": null,
  "dos_energy_up": null,
  "dos_energy_down": null,
  "is_magnetic": null,
  "ordering": null,
  "total_magnetization": 2e-7,
  "total_magnetization_normalized_vol": null,
  "total_magnetization_normalized_formula_units": null,
  "num_magnetic_sites": null,
  "num_unique_magnetic_sites": null,
  "types_of_magnetic_species": null,
  "bulk_modulus": null,
  "shear_modulus": null,
  "universal_anisotropy": null,
  "homogeneous_poisson": null,
  "e_total": null,
  "e_ionic": null,
  "e_electronic": null,
  "n": null,
  "e_ij_max": null,
  "weighted_surface_energy_EV_PER_ANG2": null,
  "weighted_surface_energy": null,
  "weighted_work_function": null,
  "surface_anisotropy": null,
  "shape_factor": null,
  "has_reconstructed": null,
  "possible_species": null,
  "has_props": null,
  "theoretical": null,
  "database_IDs": null,
  "fields_not_requested": [
    "builder_meta",
    "nsites",
    "elements",
    "nelements",
    "composition",
    "composition_reduced",
    "chemsys",
    "symmetry",
    "property_name",
    "deprecated",
    "deprecation_reasons",
    "last_updated",
    "origins",
    "warnings",
    "task_ids",
    "uncorrected_energy_per_atom",
    "equilibrium_reaction_energy_per_atom",
    "decomposes_to",
    "xas",
    "grain_boundaries",
    "cbm",
    "vbm",
    "is_gap_direct",
    "is_metal",
    "es_source_calc_id",
    "bandstructure",
    "dos",
    "dos_energy_up",
    "dos_energy_down",
    "is_magnetic",
    "ordering",
    "total_magnetization_normalized_vol",
    "total_magnetization_normalized_formula_units",
    "num_magnetic_sites",
    "num_unique_magnetic_sites",
    "types_of_magnetic_species",
    "bulk_modulus",
    "shear_modulus",
    "universal_anisotropy",
    "homogeneous_poisson",
    "e_total",
    "e_ionic",
    "e_electronic",
    "n",
    "e_ij_max",
    "weighted_surface_energy_EV_PER_ANG2",
    "weighted_surface_energy",
    "weighted_work_function",
    "surface_anisotropy",
    "shape_factor",
    "has_reconstructed",
    "possible_species",
    "has_props",
    "theoretical",
    "database_IDs"
  ]
}
