{
  "builder_meta": null,
  "nsites": null,
  "elements": null,
  "nelements": null,
  "composition": null,
  "composition_reduced": null,
  "formula_pretty": "Ta3S2",
  "formula_anonymous": "A2B3",
  "chemsys": null,
  "volume": 367.296648645103,
  "density": 10.976451272663605,
  "density_atomic": 18.36483243225515,
  "symmetry": null,
  "property_name": null,
  "material_id": "mp-1826",
  "deprecated": null,
  "deprecation_reasons": null,
  "last_updated": null,
  "origins": null,
  "warnings": null,
  "structure": {
    "@module": "pymatgen.core.structure",
    "@class": "Structure",
    "charge": 0,
    "lattice": {
      "matrix": [
        [5.37277636, 0.0, -1.7486098],
        [0.0, 7.50008503, 0.0],
        [-0.00393711, 0.0, 9.1161836]
      ],
      "pbc": [true, true, true],
      "a": 5.650164780537899,
      "b": 7.50008503,
      "c": 9.11618445018222,
      "alpha": 90.0,
      "beta": 108.05260657310437,
      "gamma": 90.0,
      "volume": 367.296648645103
    },
    "properties": {},
    "sites": [
      {
        "species": [{ "element": "Ta", "occu": 1 }],
        "abc": [0.72809506, 0.6578457400000001, 0.49998952],
        "properties": { "magmom": -0.0 },
        "label": "Ta",
        "xyz": [3.909923412461694, 4.933898986623273, 3.284842105148284]
      },
      {
        "species": [{ "element": "Ta", "occu": 1 }],
        "abc": [0.22809506000000002, 0.34215426, 0.49998952],
        "properties": { "magmom": -0.0 },
        "label": "Ta",
        "xyz": [1.2235352324616944, 2.5661860433767276, 4.159147005148284]
      },
      {
        "species": [{ "element": "Ta", "occu": 1 }],
        "abc": [0.99569597, 0.994387399999999, 0.49999424000000003],
        "properties": { "magmom": -0.0 },
        "label": "Ta",
        "xyz": [5.347683237041022, 7.457990052760615, 2.8169555598199576]
      },
      {
        "species": [{ "element": "Ta", "occu": 1 }],
        "abc": [0.49569597, 0.0056126, 0.49999424000000003],
        "properties": { "magmom": -0.0 },
        "label": "Ta",
        "xyz": [2.6612950570410225, 0.042094977239377995, 3.691260459819958]
      },
      {
        "species": [{ "element": "Ta", "occu": 1 }],
        "abc": [0.16781564000000002, 0.71971559, 0.33394073],
        "properties": { "magmom": 0.0 },
        "label": "Ta",
        "xyz": [0.9003211420427801, 5.397928122416618, 2.750820933500756]
      },
      {
        "species": [{ "element": "Ta", "occu": 1 }],
        "abc": [0.83408693, 0.28030426, 0.66606739],
        "properties": { "magmom": 0.0 },
        "label": "Ta",
        "xyz": [4.478740159107131, 2.102305784271228, 4.61350003736289]
      },
      {
        "species": [{ "element": "Ta", "occu": 1 }],
        "abc": [0.66781564, 0.28028441, 0.33394073],
        "properties": { "magmom": 0.0 },
        "label": "Ta",
        "xyz": [3.5867093220427804, 2.102156907583382, 1.876516033500756]
      },
      {
        "species": [{ "element": "Ta", "occu": 1 }],
        "abc": [0.33408693, 0.71969574, 0.66606739],
        "properties": { "magmom": 0.0 },
        "label": "Ta",
        "xyz": [1.7923519791071318, 5.397779245728772, 5.48780493736289]
      },
      {
        "species": [{ "element": "Ta", "occu": 1 }],
        "abc": [0.10228094, 0.10449246, 0.21668313],
        "properties": { "magmom": -0.0 },
        "label": "Ta",
        "xyz": [0.548679511192624, 0.7837023349938738, 1.7964737420654557]
      },
      {
        "species": [{ "element": "Ta", "occu": 1 }],
        "abc": [0.8856247700000001, 0.89550889, 0.7833477400000001],
        "properties": { "magmom": -0.0 },
        "label": "Ta",
        "xyz": [4.7551797018658055, 6.716392820120917, 5.592529668540318]
      },
      {
        "species": [{ "element": "Ta", "occu": 1 }],
        "abc": [0.60228094, 0.89550754, 0.21668313],
        "properties": { "magmom": -0.0 },
        "label": "Ta",
        "xyz": [3.235067691192624, 6.716382695006126, 0.9221688420654557]
      },
      {
        "species": [{ "element": "Ta", "occu": 1 }],
        "abc": [0.38562477, 0.10449111, 0.7833477400000001],
        "properties": { "magmom": -0.0 },
        "label": "Ta",
        "xyz": [2.0687915218658053, 0.7836922098790833, 6.466834568540318]
      },
      {
        "species": [{ "element": "S", "occu": 1 }],
        "abc": [0.90946331, 0.82836526, 0.082516899999999],
        "properties": { "magmom": 0.0 },
        "label": "S",
        "xyz": [4.886018094143193, 6.212809885898058, -0.8380572461036073]
      },
      {
        "species": [{ "element": "S", "occu": 1 }],
        "abc": [0.82697971, 0.17165273, 0.91743138],
        "properties": { "magmom": -0.0 },
        "label": "S",
        "xyz": [4.439565007827143, 1.287410070631632, 6.917408075174209]
      },
      {
        "species": [{ "element": "S", "occu": 1 }],
        "abc": [0.40946331, 0.17163474, 0.082516899999999],
        "properties": { "magmom": 0.0 },
        "label": "S",
        "xyz": [2.1996299141431925, 1.2872751441019423, 0.03624765389639273]
      },
      {
        "species": [{ "element": "S", "occu": 1 }],
        "abc": [0.32697971000000003, 0.82834727, 0.91743138],
        "properties": { "magmom": -0.0 },
        "label": "S",
        "xyz": [1.7531768278271438, 6.212674959368368, 7.791712975174209]
      },
      {
        "species": [{ "element": "S", "occu": 1 }],
        "abc": [0.48732025, 0.58468721, 0.23427376],
        "properties": { "magmom": 0.0 },
        "label": "S",
        "xyz": [2.6173403573860563, 4.385203790953467, 1.2835496439338856]
      },
      {
        "species": [{ "element": "S", "occu": 1 }],
        "abc": [0.25324042, 0.41533163, 0.7657552],
        "properties": { "magmom": -0.0 },
        "label": "S",
        "xyz": [1.3575892795169993, 3.115022540648499, 6.537946315686603]
      },
      {
        "species": [{ "element": "S", "occu": 1 }],
        "abc": [0.98732025, 0.41531279, 0.23427376],
        "properties": { "magmom": 0.0 },
        "label": "S",
        "xyz": [5.303728537386056, 3.1148812390465337, 0.40924474393388555]
      },
      {
        "species": [{ "element": "S", "occu": 1 }],
        "abc": [0.75324042, 0.58466837, 0.7657552],
        "properties": { "magmom": -0.0 },
        "label": "S",
        "xyz": [4.0439774595169995, 4.385062489351501, 5.6636414156866035]
      }
    ]
  },
  "task_ids": null,
  "uncorrected_energy_per_atom": null,
  "energy_per_atom": -9.727838939999998,
  "formation_energy_per_atom": -0.9523385873999971,
  "energy_above_hull": 0.0,
  "is_stable": true,
  "equilibrium_reaction_energy_per_atom": null,
  "decomposes_to": null,
  "xas": null,
  "grain_boundaries": null,
  "band_gap": 0.0,
  "cbm": null,
  "vbm": null,
  "efermi": 5.94690126,
  "is_gap_direct": null,
  "is_metal": null,
  "es_source_calc_id": null,
  "bandstructure": null,
  "dos": null,
  "dos_energy_up": null,
  "dos_energy_down": null,
  "is_magnetic": null,
  "ordering": null,
  "total_magnetization": 0.0,
  "total_magnetization_normalized_vol": null,
  "total_magnetization_normalized_formula_units": null,
  "num_magnetic_sites": null,
  "num_unique_magnetic_sites": null,
  "types_of_magnetic_species": null,
  "bulk_modulus": null,
  "shear_modulus": null,
  "universal_anisotropy": null,
  "homogeneous_poisson": null,
  "e_total": null,
  "e_ionic": null,
  "e_electronic": null,
  "n": null,
  "e_ij_max": null,
  "weighted_surface_energy_EV_PER_ANG2": null,
  "weighted_surface_energy": null,
  "weighted_work_function": null,
  "surface_anisotropy": null,
  "shape_factor": null,
  "has_reconstructed": null,
  "possible_species": null,
  "has_props": null,
  "theoretical": null,
  "database_IDs": null,
  "fields_not_requested": [
    "builder_meta",
    "nsites",
    "elements",
    "nelements",
    "composition",
    "composition_reduced",
    "chemsys",
    "symmetry",
    "property_name",
    "deprecated",
    "deprecation_reasons",
    "last_updated",
    "origins",
    "warnings",
    "task_ids",
    "uncorrected_energy_per_atom",
    "equilibrium_reaction_energy_per_atom",
    "decomposes_to",
    "xas",
    "grain_boundaries",
    "cbm",
    "vbm",
    "is_gap_direct",
    "is_metal",
    "es_source_calc_id",
    "bandstructure",
    "dos",
    "dos_energy_up",
    "dos_energy_down",
    "is_magnetic",
    "ordering",
    "total_magnetization_normalized_vol",
    "total_magnetization_normalized_formula_units",
    "num_magnetic_sites",
    "num_unique_magnetic_sites",
    "types_of_magnetic_species",
    "bulk_modulus",
    "shear_modulus",
    "universal_anisotropy",
    "homogeneous_poisson",
    "e_total",
    "e_ionic",
    "e_electronic",
    "n",
    "e_ij_max",
    "weighted_surface_energy_EV_PER_ANG2",
    "weighted_surface_energy",
    "weighted_work_function",
    "surface_anisotropy",
    "shape_factor",
    "has_reconstructed",
    "possible_species",
    "has_props",
    "theoretical",
    "database_IDs"
  ]
}
