{
  "builder_meta": null,
  "nsites": null,
  "elements": null,
  "nelements": null,
  "composition": null,
  "composition_reduced": null,
  "formula_pretty": "Ta4Be",
  "formula_anonymous": "AB4",
  "chemsys": null,
  "volume": 184.11405431981782,
  "density": 13.218427890424488,
  "density_atomic": 18.411405431981784,
  "symmetry": null,
  "property_name": null,
  "material_id": "mp-1208417",
  "deprecated": null,
  "deprecation_reasons": null,
  "last_updated": null,
  "origins": null,
  "warnings": null,
  "structure": {
    "@module": "pymatgen.core.structure",
    "@class": "Structure",
    "charge": 0,
    "lattice": {
      "matrix": [
        [-4.51529, -4.51529, 0.0],
        [-4.51529, 0.0, -4.51529],
        [0.0, -4.51529, -4.51529]
      ],
      "pbc": [true, true, true],
      "a": 6.385584356047612,
      "b": 6.385584356047612,
      "c": 6.385584356047612,
      "alpha": 59.99999999999999,
      "beta": 59.99999999999999,
      "gamma": 59.99999999999999,
      "volume": 184.11405431981782
    },
    "properties": {},
    "sites": [
      {
        "species": [{ "element": "Ta", "occu": 1 }],
        "abc": [0.610792999999999, 0.610792999999999, 0.610792999999999],
        "properties": { "magmom": 0.023 },
        "label": "Ta",
        "xyz": [-5.515815049939992, -5.515815049939992, -5.515815049939992]
      },
      {
        "species": [{ "element": "Ta", "occu": 1 }],
        "abc": [0.16762000000000002, 0.610792999999999, 0.610792999999999],
        "properties": { "magmom": 0.025 },
        "label": "Ta",
        "xyz": [-3.514760434769996, -3.514760434769996, -5.515815049939992]
      },
      {
        "species": [{ "element": "Ta", "occu": 1 }],
        "abc": [0.610792999999999, 0.16762000000000002, 0.610792999999999],
        "properties": { "magmom": 0.023 },
        "label": "Ta",
        "xyz": [-3.514760434769996, -5.515815049939992, -3.514760434769996]
      },
      {
        "species": [{ "element": "Ta", "occu": 1 }],
        "abc": [0.58238, 0.139207, 0.139207],
        "properties": { "magmom": 0.025 },
        "label": "Ta",
        "xyz": [-3.25817456523, -3.25817456523, -1.25711995006]
      },
      {
        "species": [{ "element": "Ta", "occu": 1 }],
        "abc": [0.139207, 0.139207, 0.139207],
        "properties": { "magmom": 0.023 },
        "label": "Ta",
        "xyz": [-1.25711995006, -1.25711995006, -1.25711995006]
      },
      {
        "species": [{ "element": "Ta", "occu": 1 }],
        "abc": [0.610792999999999, 0.610792999999999, 0.16762000000000002],
        "properties": { "magmom": 0.023 },
        "label": "Ta",
        "xyz": [-5.515815049939992, -3.514760434769996, -3.514760434769996]
      },
      {
        "species": [{ "element": "Ta", "occu": 1 }],
        "abc": [0.139207, 0.58238, 0.139207],
        "properties": { "magmom": 0.023 },
        "label": "Ta",
        "xyz": [-3.25817456523, -1.25711995006, -3.25817456523]
      },
      {
        "species": [{ "element": "Ta", "occu": 1 }],
        "abc": [0.139207, 0.139207, 0.58238],
        "properties": { "magmom": 0.023 },
        "label": "Ta",
        "xyz": [-1.25711995006, -3.25817456523, -3.25817456523]
      },
      {
        "species": [{ "element": "Be", "occu": 1 }],
        "abc": [0.0, 0.0, 0.0],
        "properties": { "magmom": 0.01 },
        "label": "Be",
        "xyz": [0.0, 0.0, 0.0]
      },
      {
        "species": [{ "element": "Be", "occu": 1 }],
        "abc": [0.75, 0.75, 0.75],
        "properties": { "magmom": 0.01 },
        "label": "Be",
        "xyz": [-6.772935, -6.772935, -6.772935]
      }
    ]
  },
  "task_ids": null,
  "uncorrected_energy_per_atom": null,
  "energy_per_atom": -9.14895615,
  "formation_energy_per_atom": 1.092468457133334,
  "energy_above_hull": 1.184983584066667,
  "is_stable": false,
  "equilibrium_reaction_energy_per_atom": null,
  "decomposes_to": null,
  "xas": null,
  "grain_boundaries": null,
  "band_gap": 0.0,
  "cbm": null,
  "vbm": null,
  "efermi": 4.60551941,
  "is_gap_direct": null,
  "is_metal": null,
  "es_source_calc_id": null,
  "bandstructure": null,
  "dos": null,
  "dos_energy_up": null,
  "dos_energy_down": null,
  "is_magnetic": null,
  "ordering": null,
  "total_magnetization": 0.2754059,
  "total_magnetization_normalized_vol": null,
  "total_magnetization_normalized_formula_units": null,
  "num_magnetic_sites": null,
  "num_unique_magnetic_sites": null,
  "types_of_magnetic_species": null,
  "bulk_modulus": null,
  "shear_modulus": null,
  "universal_anisotropy": null,
  "homogeneous_poisson": null,
  "e_total": null,
  "e_ionic": null,
  "e_electronic": null,
  "n": null,
  "e_ij_max": null,
  "weighted_surface_energy_EV_PER_ANG2": null,
  "weighted_surface_energy": null,
  "weighted_work_function": null,
  "surface_anisotropy": null,
  "shape_factor": null,
  "has_reconstructed": null,
  "possible_species": null,
  "has_props": null,
  "theoretical": null,
  "database_IDs": null,
  "fields_not_requested": [
    "builder_meta",
    "nsites",
    "elements",
    "nelements",
    "composition",
    "composition_reduced",
    "chemsys",
    "symmetry",
    "property_name",
    "deprecated",
    "deprecation_reasons",
    "last_updated",
    "origins",
    "warnings",
    "task_ids",
    "uncorrected_energy_per_atom",
    "equilibrium_reaction_energy_per_atom",
    "decomposes_to",
    "xas",
    "grain_boundaries",
    "cbm",
    "vbm",
    "is_gap_direct",
    "is_metal",
    "es_source_calc_id",
    "bandstructure",
    "dos",
    "dos_energy_up",
    "dos_energy_down",
    "is_magnetic",
    "ordering",
    "total_magnetization_normalized_vol",
    "total_magnetization_normalized_formula_units",
    "num_magnetic_sites",
    "num_unique_magnetic_sites",
    "types_of_magnetic_species",
    "bulk_modulus",
    "shear_modulus",
    "universal_anisotropy",
    "homogeneous_poisson",
    "e_total",
    "e_ionic",
    "e_electronic",
    "n",
    "e_ij_max",
    "weighted_surface_energy_EV_PER_ANG2",
    "weighted_surface_energy",
    "weighted_work_function",
    "surface_anisotropy",
    "shape_factor",
    "has_reconstructed",
    "possible_species",
    "has_props",
    "theoretical",
    "database_IDs"
  ]
}
