{
  "builder_meta": null,
  "nsites": null,
  "elements": null,
  "nelements": null,
  "composition": null,
  "composition_reduced": null,
  "formula_pretty": "Ta4Co",
  "formula_anonymous": "AB4",
  "chemsys": null,
  "volume": 194.87037886731653,
  "density": 13.339584755832204,
  "density_atomic": 19.487037886731652,
  "symmetry": null,
  "property_name": null,
  "material_id": "mp-1208431",
  "deprecated": null,
  "deprecation_reasons": null,
  "last_updated": null,
  "origins": null,
  "warnings": null,
  "structure": {
    "@module": "pymatgen.core.structure",
    "@class": "Structure",
    "charge": 0,
    "lattice": {
      "matrix": [
        [-4.6015619999999995, -4.6015619999999995, 0.0],
        [-4.6015619999999995, 0.0, -4.6015619999999995],
        [0.0, -4.6015619999999995, -4.6015619999999995]
      ],
      "pbc": [true, true, true],
      "a": 6.507591388500663,
      "b": 6.507591388500663,
      "c": 6.507591388500663,
      "alpha": 59.99999999999999,
      "beta": 59.99999999999999,
      "gamma": 59.99999999999999,
      "volume": 194.87037886731642
    },
    "properties": {},
    "sites": [
      {
        "species": [{ "element": "Ta", "occu": 1 }],
        "abc": [0.608804, 0.608804, 0.608804],
        "properties": { "magmom": 0.005 },
        "label": "Ta",
        "xyz": [-5.602898703696, -5.602898703696, -5.602898703696]
      },
      {
        "species": [{ "element": "Ta", "occu": 1 }],
        "abc": [0.173589, 0.608804, 0.608804],
        "properties": { "magmom": 0.005 },
        "label": "Ta",
        "xyz": [-3.600229897866, -3.600229897866, -5.602898703696]
      },
      {
        "species": [{ "element": "Ta", "occu": 1 }],
        "abc": [0.608804, 0.173589, 0.608804],
        "properties": { "magmom": 0.005 },
        "label": "Ta",
        "xyz": [-3.600229897866, -5.602898703696, -3.600229897866]
      },
      {
        "species": [{ "element": "Ta", "occu": 1 }],
        "abc": [0.576411, 0.141196, 0.141196],
        "properties": { "magmom": 0.005 },
        "label": "Ta",
        "xyz": [-3.3021131021339993, -3.3021131021339993, -1.2994442963039998]
      },
      {
        "species": [{ "element": "Ta", "occu": 1 }],
        "abc": [0.141196, 0.141196, 0.141196],
        "properties": { "magmom": 0.005 },
        "label": "Ta",
        "xyz": [-1.2994442963039998, -1.2994442963039998, -1.2994442963039998]
      },
      {
        "species": [{ "element": "Ta", "occu": 1 }],
        "abc": [0.608804, 0.608804, 0.173589],
        "properties": { "magmom": 0.005 },
        "label": "Ta",
        "xyz": [-5.602898703696, -3.600229897866, -3.600229897866]
      },
      {
        "species": [{ "element": "Ta", "occu": 1 }],
        "abc": [0.141196, 0.576411, 0.141196],
        "properties": { "magmom": 0.005 },
        "label": "Ta",
        "xyz": [-3.3021131021339993, -1.2994442963039998, -3.3021131021339993]
      },
      {
        "species": [{ "element": "Ta", "occu": 1 }],
        "abc": [0.141196, 0.141196, 0.576411],
        "properties": { "magmom": 0.005 },
        "label": "Ta",
        "xyz": [-1.2994442963039998, -3.3021131021339993, -3.3021131021339993]
      },
      {
        "species": [{ "element": "Co", "occu": 1 }],
        "abc": [0.0, 0.0, 0.0],
        "properties": { "magmom": 0.031 },
        "label": "Co",
        "xyz": [0.0, 0.0, 0.0]
      },
      {
        "species": [{ "element": "Co", "occu": 1 }],
        "abc": [0.75, 0.75, 0.75],
        "properties": { "magmom": 0.031 },
        "label": "Co",
        "xyz": [-6.902342999999999, -6.902342999999999, -6.902342999999999]
      }
    ]
  },
  "task_ids": null,
  "uncorrected_energy_per_atom": null,
  "energy_per_atom": -9.870282451,
  "formation_energy_per_atom": 1.049942927133334,
  "energy_above_hull": 1.190820070066665,
  "is_stable": false,
  "equilibrium_reaction_energy_per_atom": null,
  "decomposes_to": null,
  "xas": null,
  "grain_boundaries": null,
  "band_gap": 0.0,
  "cbm": null,
  "vbm": null,
  "efermi": 4.59912348,
  "is_gap_direct": null,
  "is_metal": null,
  "es_source_calc_id": null,
  "bandstructure": null,
  "dos": null,
  "dos_energy_up": null,
  "dos_energy_down": null,
  "is_magnetic": null,
  "ordering": null,
  "total_magnetization": 0.1402331,
  "total_magnetization_normalized_vol": null,
  "total_magnetization_normalized_formula_units": null,
  "num_magnetic_sites": null,
  "num_unique_magnetic_sites": null,
  "types_of_magnetic_species": null,
  "bulk_modulus": null,
  "shear_modulus": null,
  "universal_anisotropy": null,
  "homogeneous_poisson": null,
  "e_total": null,
  "e_ionic": null,
  "e_electronic": null,
  "n": null,
  "e_ij_max": null,
  "weighted_surface_energy_EV_PER_ANG2": null,
  "weighted_surface_energy": null,
  "weighted_work_function": null,
  "surface_anisotropy": null,
  "shape_factor": null,
  "has_reconstructed": null,
  "possible_species": null,
  "has_props": null,
  "theoretical": null,
  "database_IDs": null,
  "fields_not_requested": [
    "builder_meta",
    "nsites",
    "elements",
    "nelements",
    "composition",
    "composition_reduced",
    "chemsys",
    "symmetry",
    "property_name",
    "deprecated",
    "deprecation_reasons",
    "last_updated",
    "origins",
    "warnings",
    "task_ids",
    "uncorrected_energy_per_atom",
    "equilibrium_reaction_energy_per_atom",
    "decomposes_to",
    "xas",
    "grain_boundaries",
    "cbm",
    "vbm",
    "is_gap_direct",
    "is_metal",
    "es_source_calc_id",
    "bandstructure",
    "dos",
    "dos_energy_up",
    "dos_energy_down",
    "is_magnetic",
    "ordering",
    "total_magnetization_normalized_vol",
    "total_magnetization_normalized_formula_units",
    "num_magnetic_sites",
    "num_unique_magnetic_sites",
    "types_of_magnetic_species",
    "bulk_modulus",
    "shear_modulus",
    "universal_anisotropy",
    "homogeneous_poisson",
    "e_total",
    "e_ionic",
    "e_electronic",
    "n",
    "e_ij_max",
    "weighted_surface_energy_EV_PER_ANG2",
    "weighted_surface_energy",
    "weighted_work_function",
    "surface_anisotropy",
    "shape_factor",
    "has_reconstructed",
    "possible_species",
    "has_props",
    "theoretical",
    "database_IDs"
  ]
}
