{
  "builder_meta": null,
  "nsites": null,
  "elements": null,
  "nelements": null,
  "composition": null,
  "composition_reduced": null,
  "formula_pretty": "Ta4C3",
  "formula_anonymous": "A3B4",
  "chemsys": null,
  "volume": 86.28493650099455,
  "density": 14.622677559957294,
  "density_atomic": 12.326419500142078,
  "symmetry": null,
  "property_name": null,
  "material_id": "mp-1218000",
  "deprecated": null,
  "deprecation_reasons": null,
  "last_updated": null,
  "origins": null,
  "warnings": null,
  "structure": {
    "@module": "pymatgen.core.structure",
    "@class": "Structure",
    "charge": 0,
    "lattice": {
      "matrix": [
        [10.267062169999999, -1.56058864, 0.00164931],
        [10.267062169999999, 1.56058864, 0.00164931],
        [10.02942099, -0.0, 2.6942019200000002]
      ],
      "pbc": [true, true, true],
      "a": 10.384989418683373,
      "b": 10.384989418683373,
      "c": 10.384989618694101,
      "alpha": 17.285554249091106,
      "beta": 17.285554249091106,
      "gamma": 17.28555246959082,
      "volume": 86.28493650099456
    },
    "properties": {},
    "sites": [
      {
        "species": [{ "element": "Ta", "occu": 1 }],
        "abc": [0.62655911, 0.62655911, 0.62655911],
        "properties": { "magmom": -0.0 },
        "label": "Ta",
        "xyz": [19.149867760409457, 0.0, 1.6901435375669196]
      },
      {
        "species": [{ "element": "Ta", "occu": 1 }],
        "abc": [0.37552845, 0.37552845, 0.37552845],
        "properties": { "magmom": 0.0 },
        "label": "Ta",
        "xyz": [11.477480804279638, 0.0, 1.012988196660363]
      },
      {
        "species": [{ "element": "Ta", "occu": 1 }],
        "abc": [0.79017499, 0.79017499, 0.79017499],
        "properties": { "magmom": -0.0 },
        "label": "Ta",
        "xyz": [24.150549125497296, 0.0, 2.1314974622194947]
      },
      {
        "species": [{ "element": "Ta", "occu": 1 }],
        "abc": [0.20556752, 0.20556752, 0.20556752],
        "properties": { "magmom": -0.0 },
        "label": "Ta",
        "xyz": [6.282872215895681, 0.0, 0.5545184962064609]
      },
      {
        "species": [{ "element": "C", "occu": 1 }],
        "abc": [0.49763404, 0.49763404, 0.49763405],
        "properties": { "magmom": 0.0 },
        "label": "C",
        "xyz": [15.209460639585242, 0.0, 1.3423681185644007]
      },
      {
        "species": [{ "element": "C", "occu": 1 }],
        "abc": [0.00429503, 0.00429503, 0.00429503],
        "properties": { "magmom": -0.0 },
        "label": "C",
        "xyz": [0.13127134409870989, 0.0, 0.011585845744316202]
      },
      {
        "species": [{ "element": "C", "occu": 1 }],
        "abc": [0.91524085, 0.91524085, 0.91524085],
        "properties": { "magmom": 0.0 },
        "label": "C",
        "xyz": [27.97300520684273, 0.0, 2.468862687105059]
      }
    ]
  },
  "task_ids": null,
  "uncorrected_energy_per_atom": null,
  "energy_per_atom": -11.28264901142857,
  "formation_energy_per_atom": -0.5464052045476171,
  "energy_above_hull": 0.033028227142862,
  "is_stable": false,
  "equilibrium_reaction_energy_per_atom": null,
  "decomposes_to": null,
  "xas": null,
  "grain_boundaries": null,
  "band_gap": 0.0,
  "cbm": null,
  "vbm": null,
  "efermi": 7.21679398,
  "is_gap_direct": null,
  "is_metal": null,
  "es_source_calc_id": null,
  "bandstructure": null,
  "dos": null,
  "dos_energy_up": null,
  "dos_energy_down": null,
  "is_magnetic": null,
  "ordering": null,
  "total_magnetization": 0.0,
  "total_magnetization_normalized_vol": null,
  "total_magnetization_normalized_formula_units": null,
  "num_magnetic_sites": null,
  "num_unique_magnetic_sites": null,
  "types_of_magnetic_species": null,
  "bulk_modulus": null,
  "shear_modulus": null,
  "universal_anisotropy": null,
  "homogeneous_poisson": null,
  "e_total": null,
  "e_ionic": null,
  "e_electronic": null,
  "n": null,
  "e_ij_max": null,
  "weighted_surface_energy_EV_PER_ANG2": null,
  "weighted_surface_energy": null,
  "weighted_work_function": null,
  "surface_anisotropy": null,
  "shape_factor": null,
  "has_reconstructed": null,
  "possible_species": null,
  "has_props": null,
  "theoretical": null,
  "database_IDs": null,
  "fields_not_requested": [
    "builder_meta",
    "nsites",
    "elements",
    "nelements",
    "composition",
    "composition_reduced",
    "chemsys",
    "symmetry",
    "property_name",
    "deprecated",
    "deprecation_reasons",
    "last_updated",
    "origins",
    "warnings",
    "task_ids",
    "uncorrected_energy_per_atom",
    "equilibrium_reaction_energy_per_atom",
    "decomposes_to",
    "xas",
    "grain_boundaries",
    "cbm",
    "vbm",
    "is_gap_direct",
    "is_metal",
    "es_source_calc_id",
    "bandstructure",
    "dos",
    "dos_energy_up",
    "dos_energy_down",
    "is_magnetic",
    "ordering",
    "total_magnetization_normalized_vol",
    "total_magnetization_normalized_formula_units",
    "num_magnetic_sites",
    "num_unique_magnetic_sites",
    "types_of_magnetic_species",
    "bulk_modulus",
    "shear_modulus",
    "universal_anisotropy",
    "homogeneous_poisson",
    "e_total",
    "e_ionic",
    "e_electronic",
    "n",
    "e_ij_max",
    "weighted_surface_energy_EV_PER_ANG2",
    "weighted_surface_energy",
    "weighted_work_function",
    "surface_anisotropy",
    "shape_factor",
    "has_reconstructed",
    "possible_species",
    "has_props",
    "theoretical",
    "database_IDs"
  ]
}
