{"builder_meta": null, "nsites": null, "elements": null, "nelements": null, "composition": null, "composition_reduced": null, "formula_pretty": "Ta4Cr", "formula_anonymous": "AB4", "chemsys": null, "volume": 197.06836023369357, "density": 13.073896275048847, "density_atomic": 19.706836023369355, "symmetry": null, "property_name": null, "material_id": "mp-1208441", "deprecated": null, "deprecation_reasons": null, "last_updated": null, "origins": null, "warnings": null, "structure": {"@module": "pymatgen.core.structure", "@class": "Structure", "charge": 0, "lattice": {"matrix": [[-4.618798, -4.618798, 0.0], [-4.618798, 0.0, -4.618798], [0.0, -4.618798, -4.618798]], "pbc": [true, true, true], "a": 6.531966773461726, "b": 6.531966773461726, "c": 6.531966773461726, "alpha": 59.99999999999999, "beta": 59.99999999999999, "gamma": 59.99999999999999, "volume": 197.06836023369357}, "properties": {}, "sites": [{"species": [{"element": "Ta", "occu": 1}], "abc": [0.606636, 0.606636, 0.606636], "properties": {"magmom": 0.026000000000000002}, "label": "Ta", "xyz": [-5.603858287055999, -5.603858287055999, -5.603858287055999]}, {"species": [{"element": "Ta", "occu": 1}], "abc": [0.180093, 0.606636, 0.606636], "properties": {"magmom": 0.026000000000000002}, "label": "Ta", "xyz": [-3.6337423317419995, -3.6337423317419995, -5.603858287055999]}, {"species": [{"element": "Ta", "occu": 1}], "abc": [0.606636, 0.180093, 0.606636], "properties": {"magmom": 0.027}, "label": "Ta", "xyz": [-3.6337423317419995, -5.603858287055999, -3.6337423317419995]}, {"species": [{"element": "Ta", "occu": 1}], "abc": [0.569906999999999, 0.143364, 0.143364], "properties": {"magmom": 0.026000000000000002}, "label": "Ta", "xyz": [-3.2944546682579956, -3.2944546682579956, -1.3243387129439999]}, {"species": [{"element": "Ta", "occu": 1}], "abc": [0.143364, 0.143364, 0.143364], "properties": {"magmom": 0.026000000000000002}, "label": "Ta", "xyz": [-1.3243387129439999, -1.3243387129439999, -1.3243387129439999]}, {"species": [{"element": "Ta", "occu": 1}], "abc": [0.606636, 0.606636, 0.180093], "properties": {"magmom": 0.027}, "label": "Ta", "xyz": [-5.603858287055999, -3.6337423317419995, -3.6337423317419995]}, {"species": [{"element": "Ta", "occu": 1}], "abc": [0.143364, 0.569906999999999, 0.143364], "properties": {"magmom": 0.027}, "label": "Ta", "xyz": [-3.2944546682579956, -1.3243387129439999, -3.2944546682579956]}, {"species": [{"element": "Ta", "occu": 1}], "abc": [0.143364, 0.143364, 0.569906999999999], "properties": {"magmom": 0.027}, "label": "Ta", "xyz": [-1.3243387129439999, -3.2944546682579956, -3.2944546682579956]}, {"species": [{"element": "Cr", "occu": 1}], "abc": [0.0, 0.0, 0.0], "properties": {"magmom": 0.042}, "label": "Cr", "xyz": [0.0, 0.0, 0.0]}, {"species": [{"element": "Cr", "occu": 1}], "abc": [0.75, 0.75, 0.75], "properties": {"magmom": 0.042}, "label": "Cr", "xyz": [-6.928197, -6.928197, -6.928197]}]}, "task_ids": null, "uncorrected_energy_per_atom": null, "energy_per_atom": -40.47428546963333, "formation_energy_per_atom": 1.413849178499998, "energy_above_hull": 1.413849178500001, "is_stable": false, "equilibrium_reaction_energy_per_atom": null, "decomposes_to": null, "xas": null, "grain_boundaries": null, "band_gap": 0.0, "cbm": null, "vbm": null, "efermi": 4.74669231, "is_gap_direct": null, "is_metal": null, "es_source_calc_id": null, "bandstructure": null, "dos": null, "dos_energy_up": null, "dos_energy_down": null, "is_magnetic": null, "ordering": null, "total_magnetization": 0.3848739, "total_magnetization_normalized_vol": null, "total_magnetization_normalized_formula_units": null, "num_magnetic_sites": null, "num_unique_magnetic_sites": null, "types_of_magnetic_species": null, "bulk_modulus": null, "shear_modulus": null, "universal_anisotropy": null, "homogeneous_poisson": null, "e_total": null, "e_ionic": null, "e_electronic": null, "n": null, "e_ij_max": null, "weighted_surface_energy_EV_PER_ANG2": null, "weighted_surface_energy": null, "weighted_work_function": null, "surface_anisotropy": null, "shape_factor": null, "has_reconstructed": null, "possible_species": null, "has_props": null, "theoretical": null, "database_IDs": null, "fields_not_requested": ["builder_meta", "nsites", "elements", "nelements", "composition", "composition_reduced", "chemsys", "symmetry", "property_name", "deprecated", "deprecation_reasons", "last_updated", "origins", "warnings", "task_ids", "uncorrected_energy_per_atom", "equilibrium_reaction_energy_per_atom", "decomposes_to", "xas", "grain_boundaries", "cbm", "vbm", "is_gap_direct", "is_metal", "es_source_calc_id", "bandstructure", "dos", "dos_energy_up", "dos_energy_down", "is_magnetic", "ordering", "total_magnetization_normalized_vol", "total_magnetization_normalized_formula_units", "num_magnetic_sites", "num_unique_magnetic_sites", "types_of_magnetic_species", "bulk_modulus", "shear_modulus", "universal_anisotropy", "homogeneous_poisson", "e_total", "e_ionic", "e_electronic", "n", "e_ij_max", "weighted_surface_energy_EV_PER_ANG2", "weighted_surface_energy", "weighted_work_function", "surface_anisotropy", "shape_factor", "has_reconstructed", "possible_species", "has_props", "theoretical", "database_IDs"]}