{
  "builder_meta": null,
  "nsites": null,
  "elements": null,
  "nelements": null,
  "composition": null,
  "composition_reduced": null,
  "formula_pretty": "Ta4N5",
  "formula_anonymous": "A4B5",
  "chemsys": null,
  "volume": 100.95688155534287,
  "density": 13.056836120992143,
  "density_atomic": 11.217431283926986,
  "symmetry": null,
  "property_name": null,
  "material_id": "mp-8046",
  "deprecated": null,
  "deprecation_reasons": null,
  "last_updated": null,
  "origins": null,
  "warnings": null,
  "structure": {
    "@module": "pymatgen.core.structure",
    "@class": "Structure",
    "charge": 0,
    "lattice": {
      "matrix": [
        [3.91018027, -0.0, 1.72792072],
        [1.95507216, 4.85962015, 0.86400029],
        [-0.00915055, -4.394e-5, 5.30891973]
      ],
      "pbc": [true, true, true],
      "a": 4.274952603070892,
      "b": 5.308927542754108,
      "c": 5.308927616202665,
      "alpha": 80.67106172932814,
      "beta": 66.25797279242303,
      "gamma": 66.25798213134176,
      "volume": 100.95688155534287
    },
    "properties": {},
    "sites": [
      {
        "species": [{ "element": "Ta", "occu": 1 }],
        "abc": [0.7828242200000001, 0.8225970300000001, 0.61175354],
        "properties": { "magmom": -0.0 },
        "label": "Ta",
        "xyz": [4.663622490818378, 3.9974822218676067, 5.311132700732322]
      },
      {
        "species": [{ "element": "Ta", "occu": 1 }],
        "abc": [0.39457875000000003, 0.38824646, 0.8225970300000001],
        "properties": { "magmom": -0.0 },
        "label": "Ta",
        "xyz": [2.2943966731229497, 1.8866941752686708, 5.384347454234576]
      },
      {
        "species": [{ "element": "Ta", "occu": 1 }],
        "abc": [0.60542125, 0.61175354, 0.17740297],
        "properties": { "magmom": -0.0 },
        "label": "Ta",
        "xyz": [3.5617052068770505, 2.972882034731329, 2.5164932857654247]
      },
      {
        "species": [{ "element": "Ta", "occu": 1 }],
        "abc": [0.21717578, 0.17740297, 0.38824646],
        "properties": { "magmom": -0.0 },
        "label": "Ta",
        "xyz": [1.1924793891816228, 0.862093988132393, 2.5897080392676792]
      },
      {
        "species": [{ "element": "N", "occu": 1 }],
        "abc": [0.5, 0.0, 0.0],
        "properties": { "magmom": -0.0 },
        "label": "N",
        "xyz": [1.955090135, 0.0, 0.86396036]
      },
      {
        "species": [{ "element": "N", "occu": 1 }],
        "abc": [0.90846607, 0.40057291, 0.78249395],
        "properties": { "magmom": 0.0 },
        "label": "N",
        "xyz": [4.328254797255452, 1.9465978021959736, 6.070050025936748]
      },
      {
        "species": [{ "element": "N", "occu": 1 }],
        "abc": [0.69096102, 0.21750605, 0.40057291],
        "properties": { "magmom": 0.0 },
        "label": "N",
        "xyz": [3.1233567082880436, 1.056979182153242, 3.5084605786496033]
      },
      {
        "species": [{ "element": "N", "occu": 1 }],
        "abc": [0.30903898, 0.78249395, 0.59942709],
        "properties": { "magmom": 0.0 },
        "label": "N",
        "xyz": [2.7327451717119575, 3.8025970278467573, 4.392380161350397]
      },
      {
        "species": [{ "element": "N", "occu": 1 }],
        "abc": [0.09153393, 0.59942709, 0.21750605],
        "properties": { "magmom": 0.0 },
        "label": "N",
        "xyz": [1.5278470827445483, 2.9129784078040264, 1.8307907140632524]
      }
    ]
  },
  "task_ids": null,
  "uncorrected_energy_per_atom": null,
  "energy_per_atom": -27.937034756666666,
  "formation_energy_per_atom": -1.269136511453701,
  "energy_above_hull": 0.057582204722219005,
  "is_stable": false,
  "equilibrium_reaction_energy_per_atom": null,
  "decomposes_to": null,
  "xas": null,
  "grain_boundaries": null,
  "band_gap": 0.0,
  "cbm": null,
  "vbm": null,
  "efermi": 7.35492117,
  "is_gap_direct": null,
  "is_metal": null,
  "es_source_calc_id": null,
  "bandstructure": null,
  "dos": null,
  "dos_energy_up": null,
  "dos_energy_down": null,
  "is_magnetic": null,
  "ordering": null,
  "total_magnetization": 0.0,
  "total_magnetization_normalized_vol": null,
  "total_magnetization_normalized_formula_units": null,
  "num_magnetic_sites": null,
  "num_unique_magnetic_sites": null,
  "types_of_magnetic_species": null,
  "bulk_modulus": null,
  "shear_modulus": null,
  "universal_anisotropy": null,
  "homogeneous_poisson": null,
  "e_total": null,
  "e_ionic": null,
  "e_electronic": null,
  "n": null,
  "e_ij_max": null,
  "weighted_surface_energy_EV_PER_ANG2": null,
  "weighted_surface_energy": null,
  "weighted_work_function": null,
  "surface_anisotropy": null,
  "shape_factor": null,
  "has_reconstructed": null,
  "possible_species": null,
  "has_props": null,
  "theoretical": null,
  "database_IDs": null,
  "fields_not_requested": [
    "builder_meta",
    "nsites",
    "elements",
    "nelements",
    "composition",
    "composition_reduced",
    "chemsys",
    "symmetry",
    "property_name",
    "deprecated",
    "deprecation_reasons",
    "last_updated",
    "origins",
    "warnings",
    "task_ids",
    "uncorrected_energy_per_atom",
    "equilibrium_reaction_energy_per_atom",
    "decomposes_to",
    "xas",
    "grain_boundaries",
    "cbm",
    "vbm",
    "is_gap_direct",
    "is_metal",
    "es_source_calc_id",
    "bandstructure",
    "dos",
    "dos_energy_up",
    "dos_energy_down",
    "is_magnetic",
    "ordering",
    "total_magnetization_normalized_vol",
    "total_magnetization_normalized_formula_units",
    "num_magnetic_sites",
    "num_unique_magnetic_sites",
    "types_of_magnetic_species",
    "bulk_modulus",
    "shear_modulus",
    "universal_anisotropy",
    "homogeneous_poisson",
    "e_total",
    "e_ionic",
    "e_electronic",
    "n",
    "e_ij_max",
    "weighted_surface_energy_EV_PER_ANG2",
    "weighted_surface_energy",
    "weighted_work_function",
    "surface_anisotropy",
    "shape_factor",
    "has_reconstructed",
    "possible_species",
    "has_props",
    "theoretical",
    "database_IDs"
  ]
}
