{
  "builder_meta": null,
  "nsites": null,
  "elements": null,
  "nelements": null,
  "composition": null,
  "composition_reduced": null,
  "formula_pretty": "Ta4V",
  "formula_anonymous": "AB4",
  "chemsys": null,
  "volume": 201.8254846658325,
  "density": 12.748384556341305,
  "density_atomic": 20.18254846658325,
  "symmetry": null,
  "property_name": null,
  "material_id": "mp-1208384",
  "deprecated": null,
  "deprecation_reasons": null,
  "last_updated": null,
  "origins": null,
  "warnings": null,
  "structure": {
    "@module": "pymatgen.core.structure",
    "@class": "Structure",
    "charge": 0,
    "lattice": {
      "matrix": [
        [-4.655668, -4.655668, 0.0],
        [-4.655668, 0.0, -4.655668],
        [0.0, -4.655668, -4.655668]
      ],
      "pbc": [true, true, true],
      "a": 6.584108827506423,
      "b": 6.584108827506423,
      "c": 6.584108827506423,
      "alpha": 59.99999999999999,
      "beta": 59.99999999999999,
      "gamma": 59.99999999999999,
      "volume": 201.8254846658325
    },
    "properties": {},
    "sites": [
      {
        "species": [{ "element": "Ta", "occu": 1 }],
        "abc": [0.603548, 0.603548, 0.603548],
        "properties": { "magmom": -0.0 },
        "label": "Ta",
        "xyz": [-5.619838220128, -5.619838220128, -5.619838220128]
      },
      {
        "species": [{ "element": "Ta", "occu": 1 }],
        "abc": [0.189357, 0.603548, 0.603548],
        "properties": { "magmom": -0.0 },
        "label": "Ta",
        "xyz": [-3.69150243554, -3.69150243554, -5.619838220128]
      },
      {
        "species": [{ "element": "Ta", "occu": 1 }],
        "abc": [0.603548, 0.189357, 0.603548],
        "properties": { "magmom": -0.0 },
        "label": "Ta",
        "xyz": [-3.69150243554, -5.619838220128, -3.69150243554]
      },
      {
        "species": [{ "element": "Ta", "occu": 1 }],
        "abc": [0.560643, 0.146452, 0.146452],
        "properties": { "magmom": -0.0 },
        "label": "Ta",
        "xyz": [-3.29199956446, -3.29199956446, -1.3636637798720002]
      },
      {
        "species": [{ "element": "Ta", "occu": 1 }],
        "abc": [0.146452, 0.146452, 0.146452],
        "properties": { "magmom": -0.0 },
        "label": "Ta",
        "xyz": [-1.3636637798720002, -1.3636637798720002, -1.3636637798720002]
      },
      {
        "species": [{ "element": "Ta", "occu": 1 }],
        "abc": [0.603548, 0.603548, 0.189357],
        "properties": { "magmom": -0.0 },
        "label": "Ta",
        "xyz": [-5.619838220128, -3.69150243554, -3.69150243554]
      },
      {
        "species": [{ "element": "Ta", "occu": 1 }],
        "abc": [0.146452, 0.560643, 0.146452],
        "properties": { "magmom": -0.0 },
        "label": "Ta",
        "xyz": [-3.29199956446, -1.3636637798720002, -3.29199956446]
      },
      {
        "species": [{ "element": "Ta", "occu": 1 }],
        "abc": [0.146452, 0.146452, 0.560643],
        "properties": { "magmom": -0.0 },
        "label": "Ta",
        "xyz": [-1.3636637798720002, -3.29199956446, -3.29199956446]
      },
      {
        "species": [{ "element": "V", "occu": 1 }],
        "abc": [0.0, 0.0, 0.0],
        "properties": { "magmom": -0.0 },
        "label": "V",
        "xyz": [0.0, 0.0, 0.0]
      },
      {
        "species": [{ "element": "V", "occu": 1 }],
        "abc": [0.75, 0.75, 0.75],
        "properties": { "magmom": -0.0 },
        "label": "V",
        "xyz": [-6.9835020000000005, -6.9835020000000005, -6.9835020000000005]
      }
    ]
  },
  "task_ids": null,
  "uncorrected_energy_per_atom": null,
  "energy_per_atom": -40.25228989386667,
  "formation_energy_per_atom": 1.439091422266665,
  "energy_above_hull": 1.472371635999998,
  "is_stable": false,
  "equilibrium_reaction_energy_per_atom": null,
  "decomposes_to": null,
  "xas": null,
  "grain_boundaries": null,
  "band_gap": 0.0,
  "cbm": null,
  "vbm": null,
  "efermi": 4.67194919,
  "is_gap_direct": null,
  "is_metal": null,
  "es_source_calc_id": null,
  "bandstructure": null,
  "dos": null,
  "dos_energy_up": null,
  "dos_energy_down": null,
  "is_magnetic": null,
  "ordering": null,
  "total_magnetization": 0.0001701,
  "total_magnetization_normalized_vol": null,
  "total_magnetization_normalized_formula_units": null,
  "num_magnetic_sites": null,
  "num_unique_magnetic_sites": null,
  "types_of_magnetic_species": null,
  "bulk_modulus": null,
  "shear_modulus": null,
  "universal_anisotropy": null,
  "homogeneous_poisson": null,
  "e_total": null,
  "e_ionic": null,
  "e_electronic": null,
  "n": null,
  "e_ij_max": null,
  "weighted_surface_energy_EV_PER_ANG2": null,
  "weighted_surface_energy": null,
  "weighted_work_function": null,
  "surface_anisotropy": null,
  "shape_factor": null,
  "has_reconstructed": null,
  "possible_species": null,
  "has_props": null,
  "theoretical": null,
  "database_IDs": null,
  "fields_not_requested": [
    "builder_meta",
    "nsites",
    "elements",
    "nelements",
    "composition",
    "composition_reduced",
    "chemsys",
    "symmetry",
    "property_name",
    "deprecated",
    "deprecation_reasons",
    "last_updated",
    "origins",
    "warnings",
    "task_ids",
    "uncorrected_energy_per_atom",
    "equilibrium_reaction_energy_per_atom",
    "decomposes_to",
    "xas",
    "grain_boundaries",
    "cbm",
    "vbm",
    "is_gap_direct",
    "is_metal",
    "es_source_calc_id",
    "bandstructure",
    "dos",
    "dos_energy_up",
    "dos_energy_down",
    "is_magnetic",
    "ordering",
    "total_magnetization_normalized_vol",
    "total_magnetization_normalized_formula_units",
    "num_magnetic_sites",
    "num_unique_magnetic_sites",
    "types_of_magnetic_species",
    "bulk_modulus",
    "shear_modulus",
    "universal_anisotropy",
    "homogeneous_poisson",
    "e_total",
    "e_ionic",
    "e_electronic",
    "n",
    "e_ij_max",
    "weighted_surface_energy_EV_PER_ANG2",
    "weighted_surface_energy",
    "weighted_work_function",
    "surface_anisotropy",
    "shape_factor",
    "has_reconstructed",
    "possible_species",
    "has_props",
    "theoretical",
    "database_IDs"
  ]
}
