{"builder_meta": null, "nsites": null, "elements": null, "nelements": null, "composition": null, "composition_reduced": null, "formula_pretty": "Ta5Al3", "formula_anonymous": "A3B5", "chemsys": null, "volume": 277.11937261563844, "density": 11.812720273650802, "density_atomic": 17.319960788477403, "symmetry": null, "property_name": null, "material_id": "mp-1178983", "deprecated": null, "deprecation_reasons": null, "last_updated": null, "origins": null, "warnings": null, "structure": {"@module": "pymatgen.core.structure", "@class": "Structure", "charge": 0, "lattice": {"matrix": [[7.818966, 0.0, 0.0], [-3.909483, 6.771423, 0.0], [0.0, 0.0, 5.234047]], "pbc": [true, true, true], "a": 7.818966, "b": 7.818965837770236, "c": 5.234047, "alpha": 90.0, "beta": 90.0, "gamma": 120.00000068634618, "volume": 277.11937261563844}, "properties": {}, "sites": [{"species": [{"element": "Ta", "occu": 1}], "abc": [0.666667, 0.333333, 0.5], "properties": {"magmom": -0.001}, "label": "Ta", "xyz": [3.9094869094830003, 2.257138742859, 2.6170235]}, {"species": [{"element": "Ta", "occu": 1}], "abc": [0.333333, 0.666667, 0.5], "properties": {"magmom": -0.001}, "label": "Ta", "xyz": [-3.909483000441583e-06, 4.514284257141, 2.6170235]}, {"species": [{"element": "Ta", "occu": 1}], "abc": [0.333333, 0.666667, 0.0], "properties": {"magmom": -0.001}, "label": "Ta", "xyz": [-3.909483000441583e-06, 4.514284257141, 0.0]}, {"species": [{"element": "Ta", "occu": 1}], "abc": [0.666667, 0.333333, 0.0], "properties": {"magmom": -0.001}, "label": "Ta", "xyz": [3.9094869094830003, 2.257138742859, 0.0]}, {"species": [{"element": "Ta", "occu": 1}], "abc": [0.770065, 0.770065, 0.25], "properties": {"magmom": -0.0}, "label": "Ta", "xyz": [3.0105560263949998, 5.214435852495001, 1.30851175]}, {"species": [{"element": "Ta", "occu": 1}], "abc": [0.229935, 0.0, 0.25], "properties": {"magmom": -0.0}, "label": "Ta", "xyz": [1.79785394721, 0.0, 1.30851175]}, {"species": [{"element": "Ta", "occu": 1}], "abc": [0.0, 0.229935, 0.25], "properties": {"magmom": -0.0}, "label": "Ta", "xyz": [-0.898926973605, 1.5569871475050001, 1.30851175]}, {"species": [{"element": "Ta", "occu": 1}], "abc": [0.229935, 0.229935, 0.75], "properties": {"magmom": -0.0}, "label": "Ta", "xyz": [0.898926973605, 1.5569871475050001, 3.9255352500000003]}, {"species": [{"element": "Ta", "occu": 1}], "abc": [0.770065, 0.0, 0.75], "properties": {"magmom": -0.0}, "label": "Ta", "xyz": [6.0211120527899995, 0.0, 3.9255352500000003]}, {"species": [{"element": "Ta", "occu": 1}], "abc": [0.0, 0.770065, 0.75], "properties": {"magmom": -0.0}, "label": "Ta", "xyz": [-3.0105560263949998, 5.214435852495001, 3.9255352500000003]}, {"species": [{"element": "Al", "occu": 1}], "abc": [0.404605999999999, 0.404605999999999, 0.25], "properties": {"magmom": -0.0}, "label": "Al", "xyz": [1.581800278697996, 2.7397583743379936, 1.30851175]}, {"species": [{"element": "Al", "occu": 1}], "abc": [0.595394, 0.0, 0.25], "properties": {"magmom": -0.0}, "label": "Al", "xyz": [4.655365442603999, 0.0, 1.30851175]}, {"species": [{"element": "Al", "occu": 1}], "abc": [0.0, 0.595394, 0.25], "properties": {"magmom": -0.0}, "label": "Al", "xyz": [-2.3276827213019997, 4.031664625662, 1.30851175]}, {"species": [{"element": "Al", "occu": 1}], "abc": [0.595394, 0.595394, 0.75], "properties": {"magmom": -0.0}, "label": "Al", "xyz": [2.3276827213019997, 4.031664625662, 3.9255352500000003]}, {"species": [{"element": "Al", "occu": 1}], "abc": [0.404605999999999, 0.0, 0.75], "properties": {"magmom": -0.0}, "label": "Al", "xyz": [3.163600557395992, 0.0, 3.9255352500000003]}, {"species": [{"element": "Al", "occu": 1}], "abc": [0.0, 0.404605999999999, 0.75], "properties": {"magmom": -0.0}, "label": "Al", "xyz": [-1.581800278697996, 2.7397583743379936, 3.9255352500000003]}]}, "task_ids": null, "uncorrected_energy_per_atom": null, "energy_per_atom": -33.0756956483, "formation_energy_per_atom": -0.18126332913332902, "energy_above_hull": 0.12223127880000101, "is_stable": false, "equilibrium_reaction_energy_per_atom": null, "decomposes_to": null, "xas": null, "grain_boundaries": null, "band_gap": 0.0, "cbm": null, "vbm": null, "efermi": 6.30119868, "is_gap_direct": null, "is_metal": null, "es_source_calc_id": null, "bandstructure": null, "dos": null, "dos_energy_up": null, "dos_energy_down": null, "is_magnetic": null, "ordering": null, "total_magnetization": 0.0064489, "total_magnetization_normalized_vol": null, "total_magnetization_normalized_formula_units": null, "num_magnetic_sites": null, "num_unique_magnetic_sites": null, "types_of_magnetic_species": null, "bulk_modulus": null, "shear_modulus": null, "universal_anisotropy": null, "homogeneous_poisson": null, "e_total": null, "e_ionic": null, "e_electronic": null, "n": null, "e_ij_max": null, "weighted_surface_energy_EV_PER_ANG2": null, "weighted_surface_energy": null, "weighted_work_function": null, "surface_anisotropy": null, "shape_factor": null, "has_reconstructed": null, "possible_species": null, "has_props": null, "theoretical": null, "database_IDs": null, "fields_not_requested": ["builder_meta", "nsites", "elements", "nelements", "composition", "composition_reduced", "chemsys", "symmetry", "property_name", "deprecated", "deprecation_reasons", "last_updated", "origins", "warnings", "task_ids", "uncorrected_energy_per_atom", "equilibrium_reaction_energy_per_atom", "decomposes_to", "xas", "grain_boundaries", "cbm", "vbm", "is_gap_direct", "is_metal", "es_source_calc_id", "bandstructure", "dos", "dos_energy_up", "dos_energy_down", "is_magnetic", "ordering", "total_magnetization_normalized_vol", "total_magnetization_normalized_formula_units", "num_magnetic_sites", "num_unique_magnetic_sites", "types_of_magnetic_species", "bulk_modulus", "shear_modulus", "universal_anisotropy", "homogeneous_poisson", "e_total", "e_ionic", "e_electronic", "n", "e_ij_max", "weighted_surface_energy_EV_PER_ANG2", "weighted_surface_energy", "weighted_work_function", "surface_anisotropy", "shape_factor", "has_reconstructed", "possible_species", "has_props", "theoretical", "database_IDs"]}