{
  "builder_meta": null,
  "nsites": null,
  "elements": null,
  "nelements": null,
  "composition": null,
  "composition_reduced": null,
  "formula_pretty": "Ta5As4",
  "formula_anonymous": "A4B5",
  "chemsys": null,
  "volume": 167.03604348781042,
  "density": 11.973440294441057,
  "density_atomic": 18.55956038753449,
  "symmetry": null,
  "property_name": null,
  "material_id": "mp-8312",
  "deprecated": null,
  "deprecation_reasons": null,
  "last_updated": null,
  "origins": null,
  "warnings": null,
  "structure": {
    "@module": "pymatgen.core.structure",
    "@class": "Structure",
    "charge": 0,
    "lattice": {
      "matrix": [
        [3.34851432, 0.0, 0.82882997],
        [1.67427244, 6.95861522, 0.41435542000000003],
        [0.00230545, 6.1030000000000004e-5, 7.1691849]
      ],
      "pbc": [true, true, true],
      "a": 3.4495662438073667,
      "b": 7.169184360681665,
      "c": 7.169185270950415,
      "alpha": 86.68186060859026,
      "beta": 76.07905242882569,
      "gamma": 76.07904992554143,
      "volume": 167.03604348781045
    },
    "properties": {},
    "sites": [
      {
        "species": [{ "element": "Ta", "occu": 1 }],
        "abc": [0.69458293, 0.93713064, 0.6737015],
        "properties": { "magmom": 0.0 },
        "label": "Ta",
        "xyz": [3.8963860758872944, 6.521172650634886, 5.793886929873831]
      },
      {
        "species": [{ "element": "Ta", "occu": 1 }],
        "abc": [0.36828343, 0.3262985, 0.93713064],
        "properties": { "magmom": 0.0 },
        "label": "Ta",
        "xyz": [1.7816754327710456, 2.2706429014461293, 7.158910729866603]
      },
      {
        "species": [{ "element": "Ta", "occu": 1 }],
        "abc": [0.63171657, 0.6737015, 0.06286936],
        "properties": { "magmom": 0.0 },
        "label": "Ta",
        "xyz": [3.2434167772289544, 4.688033348553871, 1.2534595601333969]
      },
      {
        "species": [{ "element": "Ta", "occu": 1 }],
        "abc": [0.30541707, 0.06286936, 0.3262985],
        "properties": { "magmom": 0.0 },
        "label": "Ta",
        "xyz": [1.1287061341127058, 0.43750359936511424, 2.6184833601261692]
      },
      {
        "species": [{ "element": "Ta", "occu": 1 }],
        "abc": [-0.0, 0.0, -0.0],
        "properties": { "magmom": -0.0 },
        "label": "Ta",
        "xyz": [0.0, 0.0, 0.0]
      },
      {
        "species": [{ "element": "As", "occu": 1 }],
        "abc": [0.9477321, 0.7693366500000001, 0.33519916],
        "properties": { "magmom": 0.0 },
        "label": "As",
        "xyz": [4.462346443454019, 5.353538179198549, 3.5073923351078644]
      },
      {
        "species": [{ "element": "As", "occu": 1 }],
        "abc": [0.28293126, 0.6648008400000001, 0.7693366500000001],
        "properties": { "magmom": 0.0 },
        "label": "As",
        "xyz": [2.0622307673662355, 4.626140196108535, 6.0254824332090005]
      },
      {
        "species": [{ "element": "As", "occu": 1 }],
        "abc": [0.71706874, 0.33519916, 0.23066335000000002],
        "properties": { "magmom": 0.0 },
        "label": "As",
        "xyz": [2.9628614426337645, 2.3325360538914657, 2.386887856791]
      },
      {
        "species": [{ "element": "As", "occu": 1 }],
        "abc": [0.0522679, 0.23066335000000002, 0.6648008400000001],
        "properties": { "magmom": 0.0 },
        "label": "As",
        "xyz": [0.5627457665459801, 1.6051380708014524, 4.904977954892137]
      }
    ]
  },
  "task_ids": null,
  "uncorrected_energy_per_atom": null,
  "energy_per_atom": -34.115708115555556,
  "formation_energy_per_atom": -0.583565058518521,
  "energy_above_hull": 0.0,
  "is_stable": true,
  "equilibrium_reaction_energy_per_atom": null,
  "decomposes_to": null,
  "xas": null,
  "grain_boundaries": null,
  "band_gap": 0.0,
  "cbm": null,
  "vbm": null,
  "efermi": 5.80965337,
  "is_gap_direct": null,
  "is_metal": null,
  "es_source_calc_id": null,
  "bandstructure": null,
  "dos": null,
  "dos_energy_up": null,
  "dos_energy_down": null,
  "is_magnetic": null,
  "ordering": null,
  "total_magnetization": 0.0,
  "total_magnetization_normalized_vol": null,
  "total_magnetization_normalized_formula_units": null,
  "num_magnetic_sites": null,
  "num_unique_magnetic_sites": null,
  "types_of_magnetic_species": null,
  "bulk_modulus": null,
  "shear_modulus": null,
  "universal_anisotropy": null,
  "homogeneous_poisson": null,
  "e_total": null,
  "e_ionic": null,
  "e_electronic": null,
  "n": null,
  "e_ij_max": null,
  "weighted_surface_energy_EV_PER_ANG2": null,
  "weighted_surface_energy": null,
  "weighted_work_function": null,
  "surface_anisotropy": null,
  "shape_factor": null,
  "has_reconstructed": null,
  "possible_species": null,
  "has_props": null,
  "theoretical": null,
  "database_IDs": null,
  "fields_not_requested": [
    "builder_meta",
    "nsites",
    "elements",
    "nelements",
    "composition",
    "composition_reduced",
    "chemsys",
    "symmetry",
    "property_name",
    "deprecated",
    "deprecation_reasons",
    "last_updated",
    "origins",
    "warnings",
    "task_ids",
    "uncorrected_energy_per_atom",
    "equilibrium_reaction_energy_per_atom",
    "decomposes_to",
    "xas",
    "grain_boundaries",
    "cbm",
    "vbm",
    "is_gap_direct",
    "is_metal",
    "es_source_calc_id",
    "bandstructure",
    "dos",
    "dos_energy_up",
    "dos_energy_down",
    "is_magnetic",
    "ordering",
    "total_magnetization_normalized_vol",
    "total_magnetization_normalized_formula_units",
    "num_magnetic_sites",
    "num_unique_magnetic_sites",
    "types_of_magnetic_species",
    "bulk_modulus",
    "shear_modulus",
    "universal_anisotropy",
    "homogeneous_poisson",
    "e_total",
    "e_ionic",
    "e_electronic",
    "n",
    "e_ij_max",
    "weighted_surface_energy_EV_PER_ANG2",
    "weighted_surface_energy",
    "weighted_work_function",
    "surface_anisotropy",
    "shape_factor",
    "has_reconstructed",
    "possible_species",
    "has_props",
    "theoretical",
    "database_IDs"
  ]
}
