{
  "builder_meta": null,
  "nsites": null,
  "elements": null,
  "nelements": null,
  "composition": null,
  "composition_reduced": null,
  "formula_pretty": "Ta5B6",
  "formula_anonymous": "A5B6",
  "chemsys": null,
  "volume": 117.32878927301431,
  "density": 13.722698886288056,
  "density_atomic": 10.666253570274028,
  "symmetry": null,
  "property_name": null,
  "material_id": "mp-28629",
  "deprecated": null,
  "deprecation_reasons": null,
  "last_updated": null,
  "origins": null,
  "warnings": null,
  "structure": {
    "@module": "pymatgen.core.structure",
    "@class": "Structure",
    "charge": 0,
    "lattice": {
      "matrix": [
        [3.1193689, 0.0, -0.4331544],
        [0.0, 3.28700842, 0.0],
        [-0.00078549, 0.0, 11.44303363]
      ],
      "pbc": [true, true, true],
      "a": 3.1492991392572685,
      "b": 3.28700842,
      "c": 11.443033656959395,
      "alpha": 90.0,
      "beta": 97.90945079176241,
      "gamma": 90.0,
      "volume": 117.32878927301432
    },
    "properties": {},
    "sites": [
      {
        "species": [{ "element": "Ta", "occu": 1 }],
        "abc": [0.19434955, 0.5, 0.388699099999999],
        "properties": { "magmom": 0.0 },
        "label": "Ta",
        "xyz": [0.605942622742936, 1.64350421, 4.363713510530202]
      },
      {
        "species": [{ "element": "Ta", "occu": 1 }],
        "abc": [0.80565045, 0.5, 0.611300899999999],
        "properties": { "magmom": 0.0 },
        "label": "Ta",
        "xyz": [2.512640787257064, 1.64350421, 6.646165719469777]
      },
      {
        "species": [{ "element": "Ta", "occu": 1 }],
        "abc": [0.38561586000000003, -0.0, 0.77122871],
        "properties": { "magmom": 0.0 },
        "label": "Ta",
        "xyz": [1.2022723285913364, 0.0, 8.658164858482735]
      },
      {
        "species": [{ "element": "Ta", "occu": 1 }],
        "abc": [0.61438414, 0.0, 0.22877129000000002],
        "properties": { "magmom": 0.0 },
        "label": "Ta",
        "xyz": [1.9163110814086637, 0.0, 2.351714371517267]
      },
      {
        "species": [{ "element": "Ta", "occu": 1 }],
        "abc": [-0.0, -0.0, 0.0],
        "properties": { "magmom": 0.0 },
        "label": "Ta",
        "xyz": [0.0, 0.0, 0.0]
      },
      {
        "species": [{ "element": "B", "occu": 1 }],
        "abc": [0.46038993, 0.5, 0.92077785],
        "properties": { "magmom": -0.0 },
        "label": "B",
        "xyz": [1.4354027677217804, 1.64350421, 10.337071979413905]
      },
      {
        "species": [{ "element": "B", "occu": 1 }],
        "abc": [0.53961007, 0.5, 0.07922215],
        "properties": { "magmom": -0.0 },
        "label": "B",
        "xyz": [1.6831806422782198, 1.64350421, 0.6728072505860966]
      },
      {
        "species": [{ "element": "B", "occu": 1 }],
        "abc": [0.27328549, -0.0, 0.54657198],
        "properties": { "magmom": 0.0 },
        "label": "B",
        "xyz": [0.8520489315026909, 0.0, 6.136066735906031]
      },
      {
        "species": [{ "element": "B", "occu": 1 }],
        "abc": [0.72671451, -0.0, 0.45342802],
        "properties": { "magmom": 0.0 },
        "label": "B",
        "xyz": [2.2665344784973094, 0.0, 4.873812494093968]
      },
      {
        "species": [{ "element": "B", "occu": 1 }],
        "abc": [0.08246733, 0.5, 0.16493566],
        "properties": { "magmom": -0.0 },
        "label": "B",
        "xyz": [0.25711646915646363, 1.64350421, 1.851643217320494]
      },
      {
        "species": [{ "element": "B", "occu": 1 }],
        "abc": [0.91753267, 0.5, 0.8350643400000001],
        "properties": { "magmom": -0.0 },
        "label": "B",
        "xyz": [2.8614669408435365, 1.64350421, 9.158236012679506]
      }
    ]
  },
  "task_ids": null,
  "uncorrected_energy_per_atom": null,
  "energy_per_atom": -26.922030776363638,
  "formation_energy_per_atom": -0.827731799242428,
  "energy_above_hull": 0.0,
  "is_stable": true,
  "equilibrium_reaction_energy_per_atom": null,
  "decomposes_to": null,
  "xas": null,
  "grain_boundaries": null,
  "band_gap": 0.0,
  "cbm": null,
  "vbm": null,
  "efermi": 8.06647133,
  "is_gap_direct": null,
  "is_metal": null,
  "es_source_calc_id": null,
  "bandstructure": null,
  "dos": null,
  "dos_energy_up": null,
  "dos_energy_down": null,
  "is_magnetic": null,
  "ordering": null,
  "total_magnetization": 0.0,
  "total_magnetization_normalized_vol": null,
  "total_magnetization_normalized_formula_units": null,
  "num_magnetic_sites": null,
  "num_unique_magnetic_sites": null,
  "types_of_magnetic_species": null,
  "bulk_modulus": null,
  "shear_modulus": null,
  "universal_anisotropy": null,
  "homogeneous_poisson": null,
  "e_total": null,
  "e_ionic": null,
  "e_electronic": null,
  "n": null,
  "e_ij_max": null,
  "weighted_surface_energy_EV_PER_ANG2": null,
  "weighted_surface_energy": null,
  "weighted_work_function": null,
  "surface_anisotropy": null,
  "shape_factor": null,
  "has_reconstructed": null,
  "possible_species": null,
  "has_props": null,
  "theoretical": null,
  "database_IDs": null,
  "fields_not_requested": [
    "builder_meta",
    "nsites",
    "elements",
    "nelements",
    "composition",
    "composition_reduced",
    "chemsys",
    "symmetry",
    "property_name",
    "deprecated",
    "deprecation_reasons",
    "last_updated",
    "origins",
    "warnings",
    "task_ids",
    "uncorrected_energy_per_atom",
    "equilibrium_reaction_energy_per_atom",
    "decomposes_to",
    "xas",
    "grain_boundaries",
    "cbm",
    "vbm",
    "is_gap_direct",
    "is_metal",
    "es_source_calc_id",
    "bandstructure",
    "dos",
    "dos_energy_up",
    "dos_energy_down",
    "is_magnetic",
    "ordering",
    "total_magnetization_normalized_vol",
    "total_magnetization_normalized_formula_units",
    "num_magnetic_sites",
    "num_unique_magnetic_sites",
    "types_of_magnetic_species",
    "bulk_modulus",
    "shear_modulus",
    "universal_anisotropy",
    "homogeneous_poisson",
    "e_total",
    "e_ionic",
    "e_electronic",
    "n",
    "e_ij_max",
    "weighted_surface_energy_EV_PER_ANG2",
    "weighted_surface_energy",
    "weighted_work_function",
    "surface_anisotropy",
    "shape_factor",
    "has_reconstructed",
    "possible_species",
    "has_props",
    "theoretical",
    "database_IDs"
  ]
}
