{"builder_meta": null, "nsites": null, "elements": null, "nelements": null, "composition": null, "composition_reduced": null, "formula_pretty": "Ta5Ga3", "formula_anonymous": "A3B5", "chemsys": null, "volume": 271.6544628759633, "density": 13.617949767741983, "density_atomic": 16.978403929747707, "symmetry": null, "property_name": null, "material_id": "mp-1188462", "deprecated": null, "deprecation_reasons": null, "last_updated": null, "origins": null, "warnings": null, "structure": {"@module": "pymatgen.core.structure", "@class": "Structure", "charge": 0, "lattice": {"matrix": [[6.779823, 0.0, 0.0], [-3.389911, 3.389911, 5.9099], [0.0, -6.779823, 0.0]], "pbc": [true, true, true], "a": 6.779823, "b": 7.609856186935598, "c": 6.779823, "alpha": 116.45297891198355, "beta": 90.0, "gamma": 116.45297891198355, "volume": 271.6544628759633}, "properties": {}, "sites": [{"species": [{"element": "Ta", "occu": 1}], "abc": [0.0, 0.0, 0.0], "properties": {"magmom": 0.0}, "label": "Ta", "xyz": [0.0, 0.0, 0.0]}, {"species": [{"element": "Ta", "occu": 1}], "abc": [0.5, 0.0, 0.5], "properties": {"magmom": 0.0}, "label": "Ta", "xyz": [3.3899115, -3.3899115, 0.0]}, {"species": [{"element": "Ta", "occu": 1}], "abc": [0.504944, 0.68754, 0.682595], "properties": {"magmom": -0.001}, "label": "Ta", "xyz": [1.0927315359719998, -2.2971738717449997, 4.063292646000001]}, {"species": [{"element": "Ta", "occu": 1}], "abc": [0.182594999999999, 0.68754, 0.004944], "properties": {"magmom": -0.001}, "label": "Ta", "xyz": [-1.0927376282550068, 2.297179964028, 4.063292646000001]}, {"species": [{"element": "Ta", "occu": 1}], "abc": [0.682595, 0.68754, 0.182594999999999], "properties": {"magmom": -0.001}, "label": "Ta", "xyz": [2.2971738717449997, 1.0927376282550068, 4.063292646000001]}, {"species": [{"element": "Ta", "occu": 1}], "abc": [0.004944, 0.68754, 0.504944], "properties": {"magmom": -0.001}, "label": "Ta", "xyz": [-2.297179964028, -1.0927315359719998, 4.063292646000001]}, {"species": [{"element": "Ta", "occu": 1}], "abc": [0.495056, 0.31246, 0.317405], "properties": {"magmom": -0.001}, "label": "Ta", "xyz": [2.297180464028, -1.092738128255, 1.8466073540000003]}, {"species": [{"element": "Ta", "occu": 1}], "abc": [0.817404999999999, 0.31246, 0.995055999999999], "properties": {"magmom": -0.001}, "label": "Ta", "xyz": [4.482649628254993, -5.687091964027993, 1.8466073540000003]}, {"species": [{"element": "Ta", "occu": 1}], "abc": [0.317405, 0.31246, 0.817404999999999], "properties": {"magmom": -0.001}, "label": "Ta", "xyz": [1.092738128255, -4.482649628254993, 1.8466073540000003]}, {"species": [{"element": "Ta", "occu": 1}], "abc": [0.995055999999999, 0.31246, 0.495056], "properties": {"magmom": -0.001}, "label": "Ta", "xyz": [5.687091964027993, -2.297180464028, 1.8466073540000003]}, {"species": [{"element": "Ga", "occu": 1}], "abc": [0.75, 0.5, 0.75], "properties": {"magmom": 0.0}, "label": "Ga", "xyz": [3.3899117500000004, -3.3899117500000004, 2.95495]}, {"species": [{"element": "Ga", "occu": 1}], "abc": [0.25, 0.5, 0.25], "properties": {"magmom": 0.0}, "label": "Ga", "xyz": [2.500000000349445e-07, -2.500000000349445e-07, 2.95495]}, {"species": [{"element": "Ga", "occu": 1}], "abc": [0.866236, 0.0, 0.633764], "properties": {"magmom": 0.0}, "label": "Ga", "xyz": [5.872926756228001, -4.296807743772, 0.0]}, {"species": [{"element": "Ga", "occu": 1}], "abc": [0.133764, 0.0, 0.366236], "properties": {"magmom": 0.0}, "label": "Ga", "xyz": [0.906896243772, -2.483015256228, 0.0]}, {"species": [{"element": "Ga", "occu": 1}], "abc": [0.633764, 0.0, 0.133764], "properties": {"magmom": 0.0}, "label": "Ga", "xyz": [4.296807743772, -0.906896243772, 0.0]}, {"species": [{"element": "Ga", "occu": 1}], "abc": [0.366236, 0.0, 0.866236], "properties": {"magmom": 0.0}, "label": "Ga", "xyz": [2.483015256228, -5.872926756228001, 0.0]}]}, "task_ids": null, "uncorrected_energy_per_atom": null, "energy_per_atom": -34.97964816766667, "formation_energy_per_atom": -0.31871174100000105, "energy_above_hull": 0.014918429062497001, "is_stable": false, "equilibrium_reaction_energy_per_atom": null, "decomposes_to": null, "xas": null, "grain_boundaries": null, "band_gap": 0.0, "cbm": null, "vbm": null, "efermi": 5.32739867, "is_gap_direct": null, "is_metal": null, "es_source_calc_id": null, "bandstructure": null, "dos": null, "dos_energy_up": null, "dos_energy_down": null, "is_magnetic": null, "ordering": null, "total_magnetization": 0.0203938, "total_magnetization_normalized_vol": null, "total_magnetization_normalized_formula_units": null, "num_magnetic_sites": null, "num_unique_magnetic_sites": null, "types_of_magnetic_species": null, "bulk_modulus": null, "shear_modulus": null, "universal_anisotropy": null, "homogeneous_poisson": null, "e_total": null, "e_ionic": null, "e_electronic": null, "n": null, "e_ij_max": null, "weighted_surface_energy_EV_PER_ANG2": null, "weighted_surface_energy": null, "weighted_work_function": null, "surface_anisotropy": null, "shape_factor": null, "has_reconstructed": null, "possible_species": null, "has_props": null, "theoretical": null, "database_IDs": null, "fields_not_requested": ["builder_meta", "nsites", "elements", "nelements", "composition", "composition_reduced", "chemsys", "symmetry", "property_name", "deprecated", "deprecation_reasons", "last_updated", "origins", "warnings", "task_ids", "uncorrected_energy_per_atom", "equilibrium_reaction_energy_per_atom", "decomposes_to", "xas", "grain_boundaries", "cbm", "vbm", "is_gap_direct", "is_metal", "es_source_calc_id", "bandstructure", "dos", "dos_energy_up", "dos_energy_down", "is_magnetic", "ordering", "total_magnetization_normalized_vol", "total_magnetization_normalized_formula_units", "num_magnetic_sites", "num_unique_magnetic_sites", "types_of_magnetic_species", "bulk_modulus", "shear_modulus", "universal_anisotropy", "homogeneous_poisson", "e_total", "e_ionic", "e_electronic", "n", "e_ij_max", "weighted_surface_energy_EV_PER_ANG2", "weighted_surface_energy", "weighted_work_function", "surface_anisotropy", "shape_factor", "has_reconstructed", "possible_species", "has_props", "theoretical", "database_IDs"]}