{"builder_meta": null, "nsites": null, "elements": null, "nelements": null, "composition": null, "composition_reduced": null, "formula_pretty": "Ta5Ge3", "formula_anonymous": "A3B5", "chemsys": null, "volume": 264.497735470197, "density": 14.096300589278746, "density_atomic": 16.53110846688731, "symmetry": null, "property_name": null, "material_id": "mp-17593", "deprecated": null, "deprecation_reasons": null, "last_updated": null, "origins": null, "warnings": null, "structure": {"@module": "pymatgen.core.structure", "@class": "Structure", "charge": 0, "lattice": {"matrix": [[5.97782734, -1e-08, -2.87864946], [-1.38622587, 5.8148797, -2.87864638], [-0.01109628, -0.01404038, 7.62308594]], "pbc": [true, true, true], "a": 6.634835523237164, "b": 6.634836325729252, "c": 7.623106945880142, "alpha": 115.79658048008517, "beta": 115.79670204403132, "gamma": 90.00000665866294, "volume": 264.49773547019703}, "properties": {}, "sites": [{"species": [{"element": "Ta", "occu": 1}], "abc": [0.18541608, 0.00705449, 0.69247296], "properties": {"magmom": -0.0}, "label": "Ta", "xyz": [1.090922321905382, 0.0312984253425674, 4.724725604537619]}, {"species": [{"element": "Ta", "occu": 1}], "abc": [0.00705688, 0.50705449, 0.69247296], "properties": {"magmom": -0.0}, "label": "Ta", "xyz": [-0.6683911151951458, 2.938738277126159, 3.798836029303651]}, {"species": [{"element": "Ta", "occu": 1}], "abc": [0.68546222, 0.18545972, 0.69244352], "properties": {"magmom": 0.0}, "label": "Ta", "xyz": [3.8328021903640326, 1.0687037839917242, 2.771478060488894]}, {"species": [{"element": "Ta", "occu": 1}], "abc": [0.9929431200000001, 0.49294551000000003, 0.30752704000000003], "properties": {"magmom": -0.0}, "label": "Ta", "xyz": [5.248896305195147, 2.862101032873841, -1.9330459293036517]}, {"species": [{"element": "Ta", "occu": 1}], "abc": [0.506980299999999, 0.68545972, 0.69244352], "properties": {"magmom": 0.0}, "label": "Ta", "xyz": [2.0727551542923344, 3.9761436357765434, 1.8459417531166595]}, {"species": [{"element": "Ta", "occu": 1}], "abc": [0.81458392, 0.99294551, 0.30752704000000003], "properties": {"magmom": -0.0}, "label": "Ta", "xyz": [3.489582868094618, 5.769540884657432, -2.8589355045376195]}, {"species": [{"element": "Ta", "occu": 1}], "abc": [0.4930197, 0.31454028, 0.30755648], "properties": {"magmom": 0.0}, "label": "Ta", "xyz": [2.50775003570766, 1.8246956742234566, 0.019848346883343027]}, {"species": [{"element": "Ta", "occu": 1}], "abc": [0.31453778, 0.81454028, 0.30755648], "properties": {"magmom": 0.0}, "label": "Ta", "xyz": [0.7477029996359671, 4.732135526008275, -0.9056879604888941]}, {"species": [{"element": "Ta", "occu": 1}], "abc": [0.5, 0.5, 0.0], "properties": {"magmom": 0.0}, "label": "Ta", "xyz": [2.2958007350000003, 2.907439845, -2.87864792]}, {"species": [{"element": "Ta", "occu": 1}], "abc": [-0.0, -0.0, 0.0], "properties": {"magmom": 0.0}, "label": "Ta", "xyz": [0.0, 0.0, 0.0]}, {"species": [{"element": "Ge", "occu": 1}], "abc": [0.63589881, 0.13589887, 0.999956699999999], "properties": {"magmom": -0.0}, "label": "Ge", "xyz": [3.601810963062623, 0.776195802005405, 5.401021304186058]}, {"species": [{"element": "Ge", "occu": 1}], "abc": [0.86405789, 0.63589887, 0.999956699999999], "properties": {"magmom": -0.0}, "label": "Ge", "xyz": [4.27259361435587, 3.6836356497238136, 3.3049081017499606]}, {"species": [{"element": "Ge", "occu": 1}], "abc": [0.13594211, 0.36410113, 4.33e-05], "properties": {"magmom": -0.0}, "label": "Ge", "xyz": [0.3079115756441303, 2.117203660276186, -1.439118001749968]}, {"species": [{"element": "Ge", "occu": 1}], "abc": [0.36410119, 0.86410113, 4.33e-05], "properties": {"magmom": -0.0}, "label": "Ge", "xyz": [0.9786942269373775, 5.024643507994594, -3.535231204186065]}, {"species": [{"element": "Ge", "occu": 1}], "abc": [0.74998829, 0.75, 0.5], "properties": {"magmom": 0.0}, "label": "Ge", "xyz": [3.438082962141849, 4.354139577500117, -0.5063952010148234]}, {"species": [{"element": "Ge", "occu": 1}], "abc": [0.25001171, 0.25, 0.5], "properties": {"magmom": 0.0}, "label": "Ge", "xyz": [1.1424222278581515, 1.446699732499883, 2.3721853010148233]}]}, "task_ids": null, "uncorrected_energy_per_atom": null, "energy_per_atom": -35.981821405, "formation_energy_per_atom": -0.40993436708333003, "energy_above_hull": 0.0, "is_stable": true, "equilibrium_reaction_energy_per_atom": null, "decomposes_to": null, "xas": null, "grain_boundaries": null, "band_gap": 0.0, "cbm": null, "vbm": null, "efermi": 7.33310116, "is_gap_direct": null, "is_metal": null, "es_source_calc_id": null, "bandstructure": null, "dos": null, "dos_energy_up": null, "dos_energy_down": null, "is_magnetic": null, "ordering": null, "total_magnetization": 1.8e-06, "total_magnetization_normalized_vol": null, "total_magnetization_normalized_formula_units": null, "num_magnetic_sites": null, "num_unique_magnetic_sites": null, "types_of_magnetic_species": null, "bulk_modulus": null, "shear_modulus": null, "universal_anisotropy": null, "homogeneous_poisson": null, "e_total": null, "e_ionic": null, "e_electronic": null, "n": null, "e_ij_max": null, "weighted_surface_energy_EV_PER_ANG2": null, "weighted_surface_energy": null, "weighted_work_function": null, "surface_anisotropy": null, "shape_factor": null, "has_reconstructed": null, "possible_species": null, "has_props": null, "theoretical": null, "database_IDs": null, "fields_not_requested": ["builder_meta", "nsites", "elements", "nelements", "composition", "composition_reduced", "chemsys", "symmetry", "property_name", "deprecated", "deprecation_reasons", "last_updated", "origins", "warnings", "task_ids", "uncorrected_energy_per_atom", "equilibrium_reaction_energy_per_atom", "decomposes_to", "xas", "grain_boundaries", "cbm", "vbm", "is_gap_direct", "is_metal", "es_source_calc_id", "bandstructure", "dos", "dos_energy_up", "dos_energy_down", "is_magnetic", "ordering", "total_magnetization_normalized_vol", "total_magnetization_normalized_formula_units", "num_magnetic_sites", "num_unique_magnetic_sites", "types_of_magnetic_species", "bulk_modulus", "shear_modulus", "universal_anisotropy", "homogeneous_poisson", "e_total", "e_ionic", "e_electronic", "n", "e_ij_max", "weighted_surface_energy_EV_PER_ANG2", "weighted_surface_energy", "weighted_work_function", "surface_anisotropy", "shape_factor", "has_reconstructed", "possible_species", "has_props", "theoretical", "database_IDs"]}