{"builder_meta": null, "nsites": null, "elements": null, "nelements": null, "composition": null, "composition_reduced": null, "formula_pretty": "Ta5N6", "formula_anonymous": "A5B6", "chemsys": null, "volume": 243.60767327019863, "density": 13.479929692001054, "density_atomic": 11.073076057736301, "symmetry": null, "property_name": null, "material_id": "mp-1642", "deprecated": null, "deprecation_reasons": null, "last_updated": null, "origins": null, "warnings": null, "structure": {"@module": "pymatgen.core.structure", "@class": "Structure", "charge": 0, "lattice": {"matrix": [[5.19125827, -0.0, 0.0], [-2.59562914, 4.4957614, -0.0], [0.0, 0.0, 10.43794667]], "pbc": [true, true, true], "a": 5.19125827, "b": 5.191258151753494, "c": 10.43794667, "alpha": 90.0, "beta": 90.0, "gamma": 120.00000081721237, "volume": 243.60767327019863}, "properties": {}, "sites": [{"species": [{"element": "Ta", "occu": 1}], "abc": [0.6761988600000001, 0.0, 0.75], "properties": {"magmom": -0.0}, "label": "Ta", "xyz": [3.5103229241395724, 0.0, 7.8284600025]}, {"species": [{"element": "Ta", "occu": 1}], "abc": [0.6761988600000001, 0.6761988600000001, 0.25], "properties": {"magmom": -0.0}, "label": "Ta", "xyz": [1.755161458688792, 3.0400287335120044, 2.6094866675]}, {"species": [{"element": "Ta", "occu": 1}], "abc": [-0.0, 0.32380114, 0.25], "properties": {"magmom": -0.0}, "label": "Ta", "xyz": [-0.8404676745492194, 1.455732666487996, 2.6094866675]}, {"species": [{"element": "Ta", "occu": 1}], "abc": [0.0, 0.6761988600000001, 0.75], "properties": {"magmom": -0.0}, "label": "Ta", "xyz": [-1.7551614654507803, 3.0400287335120044, 7.8284600025]}, {"species": [{"element": "Ta", "occu": 1}], "abc": [0.32380114, 0.32380114, 0.75], "properties": {"magmom": -0.0}, "label": "Ta", "xyz": [0.8404676713112083, 1.455732666487996, 7.8284600025]}, {"species": [{"element": "Ta", "occu": 1}], "abc": [0.32380114, 0.0, 0.25], "properties": {"magmom": -0.0}, "label": "Ta", "xyz": [1.6809353458604277, 0.0, 2.6094866675]}, {"species": [{"element": "Ta", "occu": 1}], "abc": [0.333333, 0.666667, 0.5], "properties": {"magmom": 0.0}, "label": "Ta", "xyz": [-2.5989624699018776e-06, 2.9971757652538003, 5.218973335]}, {"species": [{"element": "Ta", "occu": 1}], "abc": [0.666667, 0.333333, -0.0], "properties": {"magmom": 0.0}, "label": "Ta", "xyz": [2.59563172896247, 1.4985856347462, 0.0]}, {"species": [{"element": "Ta", "occu": 1}], "abc": [0.666667, 0.333333, 0.5], "properties": {"magmom": 0.0}, "label": "Ta", "xyz": [2.59563172896247, 1.4985856347462, 5.218973335]}, {"species": [{"element": "Ta", "occu": 1}], "abc": [0.333333, 0.666667, -0.0], "properties": {"magmom": 0.0}, "label": "Ta", "xyz": [-2.5989624699018776e-06, 2.9971757652538003, 0.0]}, {"species": [{"element": "N", "occu": 1}], "abc": [0.34129929000000003, 0.34129929000000003, 0.37859569], "properties": {"magmom": -0.0}, "label": "N", "xyz": [0.8858863791723178, 1.5344001738294062, 3.9517616217118525]}, {"species": [{"element": "N", "occu": 1}], "abc": [0.65870071, 0.0, 0.37859569], "properties": {"magmom": -0.0}, "label": "N", "xyz": [3.419485508242371, 0.0, 3.9517616217118525]}, {"species": [{"element": "N", "occu": 1}], "abc": [0.0, 0.65870071, 0.37859569], "properties": {"magmom": -0.0}, "label": "N", "xyz": [-1.709742757414689, 2.961361226170594, 3.9517616217118525]}, {"species": [{"element": "N", "occu": 1}], "abc": [-0.0, 0.34129929000000003, 0.87859569], "properties": {"magmom": -0.0}, "label": "N", "xyz": [-0.8858863825853106, 1.5344001738294062, 9.170734956711852]}, {"species": [{"element": "N", "occu": 1}], "abc": [0.65870071, 0.0, 0.12140431], "properties": {"magmom": -0.0}, "label": "N", "xyz": [3.419485508242371, 0.0, 1.2672117132881477]}, {"species": [{"element": "N", "occu": 1}], "abc": [0.65870071, 0.65870071, 0.87859569], "properties": {"magmom": -0.0}, "label": "N", "xyz": [1.7097427508276821, 2.961361226170594, 9.170734956711852]}, {"species": [{"element": "N", "occu": 1}], "abc": [0.34129929000000003, 0.0, 0.87859569], "properties": {"magmom": -0.0}, "label": "N", "xyz": [1.7717727617576284, 0.0, 9.170734956711852]}, {"species": [{"element": "N", "occu": 1}], "abc": [0.65870071, 0.65870071, 0.62140431], "properties": {"magmom": -0.0}, "label": "N", "xyz": [1.7097427508276821, 2.961361226170594, 6.486185048288148]}, {"species": [{"element": "N", "occu": 1}], "abc": [-0.0, 0.34129929000000003, 0.62140431], "properties": {"magmom": -0.0}, "label": "N", "xyz": [-0.8858863825853106, 1.5344001738294062, 6.486185048288148]}, {"species": [{"element": "N", "occu": 1}], "abc": [0.0, 0.65870071, 0.12140431], "properties": {"magmom": -0.0}, "label": "N", "xyz": [-1.709742757414689, 2.961361226170594, 1.2672117132881477]}, {"species": [{"element": "N", "occu": 1}], "abc": [0.34129929000000003, 0.0, 0.62140431], "properties": {"magmom": -0.0}, "label": "N", "xyz": [1.7717727617576284, 0.0, 6.486185048288148]}, {"species": [{"element": "N", "occu": 1}], "abc": [0.34129929000000003, 0.34129929000000003, 0.12140431], "properties": {"magmom": -0.0}, "label": "N", "xyz": [0.8858863791723178, 1.5344001738294062, 1.2672117132881477]}]}, "task_ids": null, "uncorrected_energy_per_atom": null, "energy_per_atom": -28.377582505454544, "formation_energy_per_atom": -1.311067269924241, "energy_above_hull": 0.021467342954547, "is_stable": false, "equilibrium_reaction_energy_per_atom": null, "decomposes_to": null, "xas": null, "grain_boundaries": null, "band_gap": 0.0, "cbm": null, "vbm": null, "efermi": 7.84743247, "is_gap_direct": null, "is_metal": null, "es_source_calc_id": null, "bandstructure": null, "dos": null, "dos_energy_up": null, "dos_energy_down": null, "is_magnetic": null, "ordering": null, "total_magnetization": 0.0, "total_magnetization_normalized_vol": null, "total_magnetization_normalized_formula_units": null, "num_magnetic_sites": null, "num_unique_magnetic_sites": null, "types_of_magnetic_species": null, "bulk_modulus": null, "shear_modulus": null, "universal_anisotropy": null, "homogeneous_poisson": null, "e_total": null, "e_ionic": null, "e_electronic": null, "n": null, "e_ij_max": null, "weighted_surface_energy_EV_PER_ANG2": null, "weighted_surface_energy": null, "weighted_work_function": null, "surface_anisotropy": null, "shape_factor": null, "has_reconstructed": null, "possible_species": null, "has_props": null, "theoretical": null, "database_IDs": null, "fields_not_requested": ["builder_meta", "nsites", "elements", "nelements", "composition", "composition_reduced", "chemsys", "symmetry", "property_name", "deprecated", "deprecation_reasons", "last_updated", "origins", "warnings", "task_ids", "uncorrected_energy_per_atom", "equilibrium_reaction_energy_per_atom", "decomposes_to", "xas", "grain_boundaries", "cbm", "vbm", "is_gap_direct", "is_metal", "es_source_calc_id", "bandstructure", "dos", "dos_energy_up", "dos_energy_down", "is_magnetic", "ordering", "total_magnetization_normalized_vol", "total_magnetization_normalized_formula_units", "num_magnetic_sites", "num_unique_magnetic_sites", "types_of_magnetic_species", "bulk_modulus", "shear_modulus", "universal_anisotropy", "homogeneous_poisson", "e_total", "e_ionic", "e_electronic", "n", "e_ij_max", "weighted_surface_energy_EV_PER_ANG2", "weighted_surface_energy", "weighted_work_function", "surface_anisotropy", "shape_factor", "has_reconstructed", "possible_species", "has_props", "theoretical", "database_IDs"]}