{"builder_meta": null, "nsites": null, "elements": null, "nelements": null, "composition": null, "composition_reduced": null, "formula_pretty": "Ta5Ni", "formula_anonymous": "AB5", "chemsys": null, "volume": 420.31891049530356, "density": 15.224799669932526, "density_atomic": 17.513287937304316, "symmetry": null, "property_name": null, "material_id": "mp-1191664", "deprecated": null, "deprecation_reasons": null, "last_updated": null, "origins": null, "warnings": null, "structure": {"@module": "pymatgen.core.structure", "@class": "Structure", "charge": 0, "lattice": {"matrix": [[0.0, 5.945426, 5.945426], [5.945426, 0.0, 5.945426], [5.945426, 5.945426, 0.0]], "pbc": [true, true, true], "a": 8.408102083285621, "b": 8.408102083285621, "c": 8.408102083285621, "alpha": 59.99999999999999, "beta": 59.99999999999999, "gamma": 59.99999999999999, "volume": 420.31891049530356}, "properties": {}, "sites": [{"species": [{"element": "Ta", "occu": 1}], "abc": [0.758853, 0.413716, 0.413716], "properties": {"magmom": 0.002}, "label": "Ta", "xyz": [4.919435726032, 6.971422219394, 6.971422219394]}, {"species": [{"element": "Ta", "occu": 1}], "abc": [0.413716, 0.758853, 0.413716], "properties": {"magmom": 0.002}, "label": "Ta", "xyz": [6.971422219394, 4.919435726032, 6.971422219394]}, {"species": [{"element": "Ta", "occu": 1}], "abc": [0.413716, 0.413716, 0.758853], "properties": {"magmom": 0.002}, "label": "Ta", "xyz": [6.971422219394, 6.971422219394, 4.919435726032]}, {"species": [{"element": "Ta", "occu": 1}], "abc": [0.413716, 0.413716, 0.413716], "properties": {"magmom": 0.002}, "label": "Ta", "xyz": [4.919435726032, 4.919435726032, 4.919435726032]}, {"species": [{"element": "Ta", "occu": 1}], "abc": [0.491147, 0.836283999999999, 0.836283999999999], "properties": {"magmom": 0.002}, "label": "Ta", "xyz": [9.94412927396799, 7.892142780605996, 7.892142780605996]}, {"species": [{"element": "Ta", "occu": 1}], "abc": [0.836283999999999, 0.491147, 0.836283999999999], "properties": {"magmom": 0.002}, "label": "Ta", "xyz": [7.892142780605996, 9.94412927396799, 7.892142780605996]}, {"species": [{"element": "Ta", "occu": 1}], "abc": [0.836283999999999, 0.836283999999999, 0.491147], "properties": {"magmom": 0.002}, "label": "Ta", "xyz": [7.892142780605996, 7.892142780605996, 9.94412927396799]}, {"species": [{"element": "Ta", "occu": 1}], "abc": [0.836283999999999, 0.836283999999999, 0.836283999999999], "properties": {"magmom": 0.002}, "label": "Ta", "xyz": [9.94412927396799, 9.94412927396799, 9.94412927396799]}, {"species": [{"element": "Ta", "occu": 1}], "abc": [0.813215999999999, 0.813215999999999, 0.186783999999999], "properties": {"magmom": 0.002}, "label": "Ta", "xyz": [5.945425999999989, 5.945425999999989, 9.66983110003199]}, {"species": [{"element": "Ta", "occu": 1}], "abc": [0.186783999999999, 0.186783999999999, 0.813215999999999], "properties": {"magmom": 0.003}, "label": "Ta", "xyz": [5.945425999999989, 5.945425999999989, 2.2210208999679883]}, {"species": [{"element": "Ta", "occu": 1}], "abc": [0.813215999999999, 0.186783999999999, 0.813215999999999], "properties": {"magmom": 0.004}, "label": "Ta", "xyz": [5.945425999999989, 9.66983110003199, 5.945425999999989]}, {"species": [{"element": "Ta", "occu": 1}], "abc": [0.186783999999999, 0.813215999999999, 0.186783999999999], "properties": {"magmom": 0.003}, "label": "Ta", "xyz": [5.945425999999989, 2.2210208999679883, 5.945425999999989]}, {"species": [{"element": "Ta", "occu": 1}], "abc": [0.186783999999999, 0.813215999999999, 0.813215999999999], "properties": {"magmom": 0.003}, "label": "Ta", "xyz": [9.66983110003199, 5.945425999999989, 5.945425999999989]}, {"species": [{"element": "Ta", "occu": 1}], "abc": [0.813215999999999, 0.186783999999999, 0.186783999999999], "properties": {"magmom": 0.004}, "label": "Ta", "xyz": [2.2210208999679883, 5.945425999999989, 5.945425999999989]}, {"species": [{"element": "Ta", "occu": 1}], "abc": [0.436784, 0.436784, 0.063216], "properties": {"magmom": 0.002}, "label": "Ta", "xyz": [2.972713, 2.972713, 5.1937338999680005]}, {"species": [{"element": "Ta", "occu": 1}], "abc": [0.063216, 0.063216, 0.436784], "properties": {"magmom": 0.003}, "label": "Ta", "xyz": [2.972713, 2.972713, 0.7516921000319999]}, {"species": [{"element": "Ta", "occu": 1}], "abc": [0.436784, 0.063216, 0.436784], "properties": {"magmom": 0.004}, "label": "Ta", "xyz": [2.972713, 5.1937338999680005, 2.972713]}, {"species": [{"element": "Ta", "occu": 1}], "abc": [0.063216, 0.436784, 0.063216], "properties": {"magmom": 0.003}, "label": "Ta", "xyz": [2.972713, 0.7516921000319999, 2.972713]}, {"species": [{"element": "Ta", "occu": 1}], "abc": [0.063216, 0.436784, 0.436784], "properties": {"magmom": 0.003}, "label": "Ta", "xyz": [5.1937338999680005, 2.972713, 2.972713]}, {"species": [{"element": "Ta", "occu": 1}], "abc": [0.436784, 0.063216, 0.063216], "properties": {"magmom": 0.004}, "label": "Ta", "xyz": [0.7516921000319999, 2.972713, 2.972713]}, {"species": [{"element": "Ni", "occu": 1}], "abc": [0.125, 0.625, 0.625], "properties": {"magmom": 0.002}, "label": "Ni", "xyz": [7.431782500000001, 4.4590695, 4.4590695]}, {"species": [{"element": "Ni", "occu": 1}], "abc": [0.625, 0.125, 0.625], "properties": {"magmom": 0.002}, "label": "Ni", "xyz": [4.4590695, 7.431782500000001, 4.4590695]}, {"species": [{"element": "Ni", "occu": 1}], "abc": [0.625, 0.625, 0.125], "properties": {"magmom": 0.003}, "label": "Ni", "xyz": [4.4590695, 4.4590695, 7.431782500000001]}, {"species": [{"element": "Ni", "occu": 1}], "abc": [0.625, 0.625, 0.625], "properties": {"magmom": 0.003}, "label": "Ni", "xyz": [7.431782500000001, 7.431782500000001, 7.431782500000001]}]}, "task_ids": null, "uncorrected_energy_per_atom": null, "energy_per_atom": -42.38381017091666, "formation_energy_per_atom": 0.106336616305559, "energy_above_hull": 0.225578236250001, "is_stable": false, "equilibrium_reaction_energy_per_atom": null, "decomposes_to": null, "xas": null, "grain_boundaries": null, "band_gap": 0.0, "cbm": null, "vbm": null, "efermi": 5.7716028999999995, "is_gap_direct": null, "is_metal": null, "es_source_calc_id": null, "bandstructure": null, "dos": null, "dos_energy_up": null, "dos_energy_down": null, "is_magnetic": null, "ordering": null, "total_magnetization": 0.1294388, "total_magnetization_normalized_vol": null, "total_magnetization_normalized_formula_units": null, "num_magnetic_sites": null, "num_unique_magnetic_sites": null, "types_of_magnetic_species": null, "bulk_modulus": null, "shear_modulus": null, "universal_anisotropy": null, "homogeneous_poisson": null, "e_total": null, "e_ionic": null, "e_electronic": null, "n": null, "e_ij_max": null, "weighted_surface_energy_EV_PER_ANG2": null, "weighted_surface_energy": null, "weighted_work_function": null, "surface_anisotropy": null, "shape_factor": null, "has_reconstructed": null, "possible_species": null, "has_props": null, "theoretical": null, "database_IDs": null, "fields_not_requested": ["builder_meta", "nsites", "elements", "nelements", "composition", "composition_reduced", "chemsys", "symmetry", "property_name", "deprecated", "deprecation_reasons", "last_updated", "origins", "warnings", "task_ids", "uncorrected_energy_per_atom", "equilibrium_reaction_energy_per_atom", "decomposes_to", "xas", "grain_boundaries", "cbm", "vbm", "is_gap_direct", "is_metal", "es_source_calc_id", "bandstructure", "dos", "dos_energy_up", "dos_energy_down", "is_magnetic", "ordering", "total_magnetization_normalized_vol", "total_magnetization_normalized_formula_units", "num_magnetic_sites", "num_unique_magnetic_sites", "types_of_magnetic_species", "bulk_modulus", "shear_modulus", "universal_anisotropy", "homogeneous_poisson", "e_total", "e_ionic", "e_electronic", "n", "e_ij_max", "weighted_surface_energy_EV_PER_ANG2", "weighted_surface_energy", "weighted_work_function", "surface_anisotropy", "shape_factor", "has_reconstructed", "possible_species", "has_props", "theoretical", "database_IDs"]}