{"builder_meta": null, "nsites": null, "elements": null, "nelements": null, "composition": null, "composition_reduced": null, "formula_pretty": "Ta5P3", "formula_anonymous": "A3B5", "chemsys": null, "volume": 1007.965971955596, "density": 13.14849580566544, "density_atomic": 15.749468311806188, "symmetry": null, "property_name": null, "material_id": "mp-21799", "deprecated": null, "deprecation_reasons": null, "last_updated": null, "origins": null, "warnings": null, "structure": {"@module": "pymatgen.core.structure", "@class": "Structure", "charge": 0, "lattice": {"matrix": [[3.417567, 0.0, 0.0], [0.0, 11.552805, 0.0], [0.0, 0.0, 25.529446]], "pbc": [true, true, true], "a": 3.417567, "b": 11.552805, "c": 25.529446, "alpha": 90.0, "beta": 90.0, "gamma": 90.0, "volume": 1007.965971955596}, "properties": {}, "sites": [{"species": [{"element": "Ta", "occu": 1}], "abc": [0.25, 0.878543, 0.724564], "properties": {"magmom": -0.0}, "label": "Ta", "xyz": [0.85439175, 10.149635963115, 18.497717511544]}, {"species": [{"element": "Ta", "occu": 1}], "abc": [0.75, 0.443639, 0.652594999999999], "properties": {"magmom": -0.0}, "label": "Ta", "xyz": [2.56317525, 5.1252748573949996, 16.660388812369977]}, {"species": [{"element": "Ta", "occu": 1}], "abc": [0.75, 0.056360999999999, 0.152594999999999], "properties": {"magmom": -0.0}, "label": "Ta", "xyz": [2.56317525, 0.6511276426049885, 3.8956658123699746]}, {"species": [{"element": "Ta", "occu": 1}], "abc": [0.25, 0.943639, 0.847405], "properties": {"magmom": 0.0}, "label": "Ta", "xyz": [0.85439175, 10.901677357395, 21.63378018763]}, {"species": [{"element": "Ta", "occu": 1}], "abc": [0.25, 0.691091999999999, 0.455069], "properties": {"magmom": -0.0}, "label": "Ta", "xyz": [0.85439175, 7.984051113059988, 11.617659461774]}, {"species": [{"element": "Ta", "occu": 1}], "abc": [0.75, 0.308907999999999, 0.544930999999999], "properties": {"magmom": -0.0}, "label": "Ta", "xyz": [2.56317525, 3.5687538869399886, 13.911786538225975]}, {"species": [{"element": "Ta", "occu": 1}], "abc": [0.75, 0.191091999999999, 0.044931], "properties": {"magmom": 0.0}, "label": "Ta", "xyz": [2.56317525, 2.2076486130599884, 1.147063538226]}, {"species": [{"element": "Ta", "occu": 1}], "abc": [0.25, 0.808908, 0.955069], "properties": {"magmom": 0.0}, "label": "Ta", "xyz": [0.85439175, 9.34515638694, 24.382382461774]}, {"species": [{"element": "Ta", "occu": 1}], "abc": [0.25, 0.556361, 0.347404999999999], "properties": {"magmom": 0.0}, "label": "Ta", "xyz": [0.85439175, 6.427530142605, 8.869057187629975]}, {"species": [{"element": "Ta", "occu": 1}], "abc": [0.75, 0.584274, 0.536924], "properties": {"magmom": -0.0}, "label": "Ta", "xyz": [2.56317525, 6.750003588569999, 13.707372264103999]}, {"species": [{"element": "Ta", "occu": 1}], "abc": [0.75, 0.915725999999999, 0.036924], "properties": {"magmom": 0.001}, "label": "Ta", "xyz": [2.56317525, 10.579203911429989, 0.942649264104]}, {"species": [{"element": "Ta", "occu": 1}], "abc": [0.25, 0.084274, 0.963075999999999], "properties": {"magmom": 0.0}, "label": "Ta", "xyz": [0.85439175, 0.9736010885699999, 24.586796735895977]}, {"species": [{"element": "Ta", "occu": 1}], "abc": [0.25, 0.108116999999999, 0.499940999999999], "properties": {"magmom": -0.0}, "label": "Ta", "xyz": [0.85439175, 1.2490546181849884, 12.763216762685975]}, {"species": [{"element": "Ta", "occu": 1}], "abc": [0.75, 0.891883, 0.500059], "properties": {"magmom": -0.0}, "label": "Ta", "xyz": [2.56317525, 10.303750381815, 12.766229237314]}, {"species": [{"element": "Ta", "occu": 1}], "abc": [0.75, 0.608117, 5.9000000000000025e-05], "properties": {"magmom": 0.0}, "label": "Ta", "xyz": [2.56317525, 7.025457118185, 0.0015062373140000006]}, {"species": [{"element": "Ta", "occu": 1}], "abc": [0.25, 0.391883, 0.999941], "properties": {"magmom": 0.0}, "label": "Ta", "xyz": [0.85439175, 4.5273478818149995, 25.527939762686]}, {"species": [{"element": "Ta", "occu": 1}], "abc": [0.25, 0.543692, 0.823260999999999], "properties": {"magmom": -0.0}, "label": "Ta", "xyz": [0.85439175, 6.281167656059999, 21.017397243405973]}, {"species": [{"element": "Ta", "occu": 1}], "abc": [0.75, 0.456308, 0.176738999999999], "properties": {"magmom": 0.0}, "label": "Ta", "xyz": [2.56317525, 5.271637343939999, 4.512048756593975]}, {"species": [{"element": "Ta", "occu": 1}], "abc": [0.75, 0.043691999999999, 0.676739], "properties": {"magmom": 0.0}, "label": "Ta", "xyz": [2.56317525, 0.5047651560599884, 17.276771756593998]}, {"species": [{"element": "Ta", "occu": 1}], "abc": [0.25, 0.956307999999999, 0.323260999999999], "properties": {"magmom": -0.0}, "label": "Ta", "xyz": [0.85439175, 11.04803984393999, 8.252674243405975]}, {"species": [{"element": "Ta", "occu": 1}], "abc": [0.25, 0.155595999999999, 0.760732], "properties": {"magmom": 0.0}, "label": "Ta", "xyz": [0.85439175, 1.7975702467799886, 19.421066514472]}, {"species": [{"element": "Ta", "occu": 1}], "abc": [0.75, 0.844403999999999, 0.239267999999999], "properties": {"magmom": 0.0}, "label": "Ta", "xyz": [2.56317525, 9.75523475321999, 6.1083794855279745]}, {"species": [{"element": "Ta", "occu": 1}], "abc": [0.75, 0.655596, 0.739267999999999], "properties": {"magmom": -0.0}, "label": "Ta", "xyz": [2.56317525, 7.573972746779999, 18.873102485527976]}, {"species": [{"element": "Ta", "occu": 1}], "abc": [0.25, 0.344404, 0.260731999999999], "properties": {"magmom": -0.0}, "label": "Ta", "xyz": [0.85439175, 3.97883225322, 6.656343514471975]}, {"species": [{"element": "Ta", "occu": 1}], "abc": [0.25, 0.415726, 0.463076], "properties": {"magmom": -0.001}, "label": "Ta", "xyz": [0.85439175, 4.80280141143, 11.822073735896]}, {"species": [{"element": "Ta", "occu": 1}], "abc": [0.75, 0.121457, 0.275436], "properties": {"magmom": -0.0}, "label": "Ta", "xyz": [2.56317525, 1.4031690368849998, 7.031728488456]}, {"species": [{"element": "Ta", "occu": 1}], "abc": [0.75, 0.378542999999999, 0.775436], "properties": {"magmom": 0.0}, "label": "Ta", "xyz": [2.56317525, 4.373233463114988, 19.796451488456]}, {"species": [{"element": "Ta", "occu": 1}], "abc": [0.25, 0.621456999999999, 0.22456399999999901], "properties": {"magmom": 0.0}, "label": "Ta", "xyz": [0.85439175, 7.179571536884988, 5.732994511543975]}, {"species": [{"element": "Ta", "occu": 1}], "abc": [0.25, 0.65842, 0.638088], "properties": {"magmom": -0.0}, "label": "Ta", "xyz": [0.85439175, 7.6065978681, 16.290033139248]}, {"species": [{"element": "Ta", "occu": 1}], "abc": [0.75, 0.34158000000000005, 0.361911999999999], "properties": {"magmom": -0.0}, "label": "Ta", "xyz": [2.56317525, 3.9462071319000005, 9.239412860751974]}, {"species": [{"element": "Ta", "occu": 1}], "abc": [0.75, 0.15842, 0.861912], "properties": {"magmom": 0.0}, "label": "Ta", "xyz": [2.56317525, 1.8301953681, 22.004135860752]}, {"species": [{"element": "Ta", "occu": 1}], "abc": [0.25, 0.8415800000000001, 0.138088], "properties": {"magmom": 0.0}, "label": "Ta", "xyz": [0.85439175, 9.722609631900001, 3.5253101392479995]}, {"species": [{"element": "Ta", "occu": 1}], "abc": [0.25, 0.215787999999999, 0.624582], "properties": {"magmom": -0.0}, "label": "Ta", "xyz": [0.85439175, 2.4929566853399883, 15.945232441572]}, {"species": [{"element": "Ta", "occu": 1}], "abc": [0.75, 0.784211999999999, 0.375418], "properties": {"magmom": -0.0}, "label": "Ta", "xyz": [2.56317525, 9.059848314659988, 9.584213558427999]}, {"species": [{"element": "Ta", "occu": 1}], "abc": [0.75, 0.715788, 0.875417999999999], "properties": {"magmom": 0.0}, "label": "Ta", "xyz": [2.56317525, 8.269359185339999, 22.348936558427976]}, {"species": [{"element": "Ta", "occu": 1}], "abc": [0.25, 0.284211999999999, 0.124582], "properties": {"magmom": 0.0}, "label": "Ta", "xyz": [0.85439175, 3.2834458146599883, 3.180509441572]}, {"species": [{"element": "Ta", "occu": 1}], "abc": [0.25, 0.9352800000000001, 0.599403], "properties": {"magmom": -0.0}, "label": "Ta", "xyz": [0.85439175, 10.8051074604, 15.302426520738]}, {"species": [{"element": "Ta", "occu": 1}], "abc": [0.75, 0.06472, 0.400597], "properties": {"magmom": 0.0}, "label": "Ta", "xyz": [2.56317525, 0.7476975396, 10.227019479262]}, {"species": [{"element": "Ta", "occu": 1}], "abc": [0.75, 0.43528000000000006, 0.900597], "properties": {"magmom": 0.0}, "label": "Ta", "xyz": [2.56317525, 5.028704960400001, 22.991742479262]}, {"species": [{"element": "Ta", "occu": 1}], "abc": [0.25, 0.56472, 0.099402999999999], "properties": {"magmom": 0.0}, "label": "Ta", "xyz": [0.85439175, 6.5241000395999995, 2.5377035207379746]}, {"species": [{"element": "P", "occu": 1}], "abc": [0.25, 0.586372999999999, 0.9266700000000001], "properties": {"magmom": 0.0}, "label": "P", "xyz": [0.85439175, 6.774252926264989, 23.657371724820003]}, {"species": [{"element": "P", "occu": 1}], "abc": [0.75, 0.413626999999999, 0.07333], "properties": {"magmom": -0.0}, "label": "P", "xyz": [2.56317525, 4.778552073734988, 1.8720742751800001]}, {"species": [{"element": "P", "occu": 1}], "abc": [0.75, 0.086372999999999, 0.57333], "properties": {"magmom": -0.0}, "label": "P", "xyz": [2.56317525, 0.9978504262649884, 14.636797275180001]}, {"species": [{"element": "P", "occu": 1}], "abc": [0.25, 0.913627, 0.42667000000000005], "properties": {"magmom": 0.0}, "label": "P", "xyz": [0.85439175, 10.554954573735, 10.89264872482]}, {"species": [{"element": "P", "occu": 1}], "abc": [0.25, 0.316025, 0.843892], "properties": {"magmom": 0.0}, "label": "P", "xyz": [0.85439175, 3.650975200125, 21.544095243832]}, {"species": [{"element": "P", "occu": 1}], "abc": [0.75, 0.683975, 0.156108], "properties": {"magmom": -0.0}, "label": "P", "xyz": [2.56317525, 7.901829799874999, 3.9853507561679997]}, {"species": [{"element": "P", "occu": 1}], "abc": [0.75, 0.816025, 0.656108], "properties": {"magmom": -0.0}, "label": "P", "xyz": [2.56317525, 9.427377700125, 16.750073756168]}, {"species": [{"element": "P", "occu": 1}], "abc": [0.25, 0.183975, 0.343892], "properties": {"magmom": 0.0}, "label": "P", "xyz": [0.85439175, 2.1254272998749997, 8.779372243831999]}, {"species": [{"element": "P", "occu": 1}], "abc": [0.25, 0.755197999999999, 0.802076999999999], "properties": {"magmom": -0.0}, "label": "P", "xyz": [0.85439175, 8.724655230389988, 20.476581459341975]}, {"species": [{"element": "P", "occu": 1}], "abc": [0.75, 0.244802, 0.197923], "properties": {"magmom": 0.0}, "label": "P", "xyz": [2.56317525, 2.8281497696099995, 5.052864540658]}, {"species": [{"element": "P", "occu": 1}], "abc": [0.75, 0.255198, 0.697923], "properties": {"magmom": 0.0}, "label": "P", "xyz": [2.56317525, 2.9482527303899997, 17.817587540658]}, {"species": [{"element": "P", "occu": 1}], "abc": [0.25, 0.744802, 0.302077], "properties": {"magmom": -0.0}, "label": "P", "xyz": [0.85439175, 8.604552269609998, 7.711858459341999]}, {"species": [{"element": "P", "occu": 1}], "abc": [0.25, 0.49785, 0.721066], "properties": {"magmom": -0.0}, "label": "P", "xyz": [0.85439175, 5.75156396925, 18.408415509436]}, {"species": [{"element": "P", "occu": 1}], "abc": [0.75, 0.5021500000000001, 0.278933999999999], "properties": {"magmom": 0.0}, "label": "P", "xyz": [2.56317525, 5.801241030750001, 7.1210304905639745]}, {"species": [{"element": "P", "occu": 1}], "abc": [0.75, 0.9978500000000001, 0.778934], "properties": {"magmom": 0.0}, "label": "P", "xyz": [2.56317525, 11.52796646925, 19.885753490564]}, {"species": [{"element": "P", "occu": 1}], "abc": [0.25, 0.00215, 0.221065999999999], "properties": {"magmom": -0.0}, "label": "P", "xyz": [0.85439175, 0.024838530749999997, 5.643692509435975]}, {"species": [{"element": "P", "occu": 1}], "abc": [0.25, 0.449739, 0.577898], "properties": {"magmom": -0.0}, "label": "P", "xyz": [0.85439175, 5.1957469678949995, 14.753415784508]}, {"species": [{"element": "P", "occu": 1}], "abc": [0.75, 0.550261, 0.422102], "properties": {"magmom": 0.0}, "label": "P", "xyz": [2.56317525, 6.357058032105, 10.776030215492]}, {"species": [{"element": "P", "occu": 1}], "abc": [0.75, 0.949739, 0.922102], "properties": {"magmom": 0.0}, "label": "P", "xyz": [2.56317525, 10.972149467895, 23.540753215492]}, {"species": [{"element": "P", "occu": 1}], "abc": [0.25, 0.050261, 0.077898], "properties": {"magmom": -0.0}, "label": "P", "xyz": [0.85439175, 0.580655532105, 1.9886927845079998]}, {"species": [{"element": "P", "occu": 1}], "abc": [0.25, 0.7510500000000001, 0.549192999999999], "properties": {"magmom": -0.0}, "label": "P", "xyz": [0.85439175, 8.67673419525, 14.020593037077976]}, {"species": [{"element": "P", "occu": 1}], "abc": [0.75, 0.24895000000000003, 0.450806999999999], "properties": {"magmom": -0.0}, "label": "P", "xyz": [2.56317525, 2.8760708047500003, 11.508852962921974]}, {"species": [{"element": "P", "occu": 1}], "abc": [0.75, 0.25105, 0.950807], "properties": {"magmom": 0.0}, "label": "P", "xyz": [2.56317525, 2.90033169525, 24.273575962922]}, {"species": [{"element": "P", "occu": 1}], "abc": [0.25, 0.7489500000000001, 0.049193], "properties": {"magmom": 0.0}, "label": "P", "xyz": [0.85439175, 8.65247330475, 1.255870037078]}]}, "task_ids": null, "uncorrected_energy_per_atom": null, "energy_per_atom": -34.55533865364583, "formation_energy_per_atom": -0.80966459122024, "energy_above_hull": 0.029597869479168003, "is_stable": false, "equilibrium_reaction_energy_per_atom": null, "decomposes_to": null, "xas": null, "grain_boundaries": null, "band_gap": 0.0, "cbm": null, "vbm": null, "efermi": 8.28234719, "is_gap_direct": null, "is_metal": null, "es_source_calc_id": null, "bandstructure": null, "dos": null, "dos_energy_up": null, "dos_energy_down": null, "is_magnetic": null, "ordering": null, "total_magnetization": 0.0037592999999990005, "total_magnetization_normalized_vol": null, "total_magnetization_normalized_formula_units": null, "num_magnetic_sites": null, "num_unique_magnetic_sites": null, "types_of_magnetic_species": null, "bulk_modulus": null, "shear_modulus": null, "universal_anisotropy": null, "homogeneous_poisson": null, "e_total": null, "e_ionic": null, "e_electronic": null, "n": null, "e_ij_max": null, "weighted_surface_energy_EV_PER_ANG2": null, "weighted_surface_energy": null, "weighted_work_function": null, "surface_anisotropy": null, "shape_factor": null, "has_reconstructed": null, "possible_species": null, "has_props": null, "theoretical": null, "database_IDs": null, "fields_not_requested": ["builder_meta", "nsites", "elements", "nelements", "composition", "composition_reduced", "chemsys", "symmetry", "property_name", "deprecated", "deprecation_reasons", "last_updated", "origins", "warnings", "task_ids", "uncorrected_energy_per_atom", "equilibrium_reaction_energy_per_atom", "decomposes_to", "xas", "grain_boundaries", "cbm", "vbm", "is_gap_direct", "is_metal", "es_source_calc_id", "bandstructure", "dos", "dos_energy_up", "dos_energy_down", "is_magnetic", "ordering", "total_magnetization_normalized_vol", "total_magnetization_normalized_formula_units", "num_magnetic_sites", "num_unique_magnetic_sites", "types_of_magnetic_species", "bulk_modulus", "shear_modulus", "universal_anisotropy", "homogeneous_poisson", "e_total", "e_ionic", "e_electronic", "n", "e_ij_max", "weighted_surface_energy_EV_PER_ANG2", "weighted_surface_energy", "weighted_work_function", "surface_anisotropy", "shape_factor", "has_reconstructed", "possible_species", "has_props", "theoretical", "database_IDs"]}