{
  "builder_meta": null,
  "nsites": null,
  "elements": null,
  "nelements": null,
  "composition": null,
  "composition_reduced": null,
  "formula_pretty": "Ta5S8",
  "formula_anonymous": "A5B8",
  "chemsys": null,
  "volume": 239.96619916700968,
  "density": 8.035784234822264,
  "density_atomic": 18.458938397462283,
  "symmetry": null,
  "property_name": null,
  "material_id": "mp-1545240",
  "deprecated": null,
  "deprecation_reasons": null,
  "last_updated": null,
  "origins": null,
  "warnings": null,
  "structure": {
    "@module": "pymatgen.core.structure",
    "@class": "Structure",
    "charge": 0,
    "lattice": {
      "matrix": [
        [-1.6340893200000002, -2.8308572400000003, -0.00407365],
        [3.19161045, 0.02551476, -12.68487758],
        [4.99953466, -2.8869127800000003, 0.06214579]
      ],
      "pbc": [true, true, true],
      "a": 3.2686414935906942,
      "b": 13.080257928921498,
      "c": 5.7735149012610485,
      "alpha": 78.47017746097616,
      "beta": 89.99241404432861,
      "gamma": 97.03435959496456,
      "volume": 239.96619916700973
    },
    "properties": {},
    "sites": [
      {
        "species": [{ "element": "Ta", "occu": 1 }],
        "abc": [0.87339484, 0.7521764200000001, 0.11666672],
        "properties": { "magmom": 0.0 },
        "label": "Ta",
        "xyz": [1.5567282524369956, -2.7900711503273645, -9.537573365671522]
      },
      {
        "species": [{ "element": "Ta", "occu": 1 }],
        "abc": [0.37463066, 0.75427354, 0.62376479],
        "properties": { "magmom": 0.0 },
        "label": "Ta",
        "xyz": [4.913701039264563, -2.8420353518045447, -9.53062927527261]
      },
      {
        "species": [{ "element": "Ta", "occu": 1 }],
        "abc": [0.62660516, 0.24782358000000002, 0.38333328],
        "properties": { "magmom": 0.0 },
        "label": "Ta",
        "xyz": [1.6835155475630048, -2.874156339672636, -3.1223417943284795]
      },
      {
        "species": [{ "element": "Ta", "occu": 1 }],
        "abc": [0.12536934, 0.24572646, 0.87623521],
        "properties": { "magmom": 0.0 },
        "label": "Ta",
        "xyz": [4.9601667407354375, -2.8782476781954562, -3.063066444727392]
      },
      {
        "species": [{ "element": "Ta", "occu": 1 }],
        "abc": [0.25, 0.5, 0.75],
        "properties": { "magmom": 0.0 },
        "label": "Ta",
        "xyz": [4.936933890000001, -2.8601415150000005, -6.29684786]
      },
      {
        "species": [{ "element": "S", "occu": 1 }],
        "abc": [0.31126286000000003, 0.62552918, 0.01097393],
        "properties": { "magmom": -0.0 },
        "label": "S",
        "xyz": [1.54267869582069, -0.8968612726372351, -7.935347063418169]
      },
      {
        "species": [{ "element": "S", "occu": 1 }],
        "abc": [0.81082887, 0.62400356, 0.50714278],
        "properties": { "magmom": 0.0 },
        "label": "S",
        "xyz": [3.2020873922972886, -3.7434964488347022, -7.887195012404565]
      },
      {
        "species": [{ "element": "S", "occu": 1 }],
        "abc": [0.68917113, 0.37599644, 0.99285722],
        "properties": { "magmom": 0.0 },
        "label": "S",
        "xyz": [5.037691067702712, -4.807643821165299, -4.710574357595435]
      },
      {
        "species": [{ "element": "S", "occu": 1 }],
        "abc": [0.18873714, 0.37447082, 0.48902607000000003],
        "properties": { "magmom": -0.0 },
        "label": "S",
        "xyz": [3.3316544241793107, -1.9365089773627653, -4.720494446581831]
      },
      {
        "species": [{ "element": "S", "occu": 1 }],
        "abc": [0.5662309, 0.12544129, 0.10317394],
        "properties": { "magmom": 0.0 },
        "label": "S",
        "xyz": [-0.009090445279747006, -1.8975724043172288, -1.5871022076243506]
      },
      {
        "species": [{ "element": "S", "occu": 1 }],
        "abc": [0.06585055000000001, 0.12383546000000001, 0.60269165],
        "properties": { "magmom": 0.0 },
        "label": "S",
        "xyz": [3.30080666121302, -1.9231721009683795, -1.5336511535403408]
      },
      {
        "species": [{ "element": "S", "occu": 1 }],
        "abc": [0.43414945, 0.87616454, 0.89730835],
        "properties": { "magmom": 0.0 },
        "label": "S",
        "xyz": [6.57306111878698, -3.7971109290316205, -11.06004456645966]
      },
      {
        "species": [{ "element": "S", "occu": 1 }],
        "abc": [0.933769099999999, 0.8745587100000001, 0.39682606000000004],
        "properties": { "magmom": 0.0 },
        "label": "S",
        "xyz": [3.2493342452797496, -3.7666550856827685, -11.072812952375651]
      }
    ]
  },
  "task_ids": null,
  "uncorrected_energy_per_atom": null,
  "energy_per_atom": -8.465104400769231,
  "formation_energy_per_atom": -1.354218688974358,
  "energy_above_hull": 0.0,
  "is_stable": true,
  "equilibrium_reaction_energy_per_atom": null,
  "decomposes_to": null,
  "xas": null,
  "grain_boundaries": null,
  "band_gap": 0.0,
  "cbm": null,
  "vbm": null,
  "efermi": 5.82063104,
  "is_gap_direct": null,
  "is_metal": null,
  "es_source_calc_id": null,
  "bandstructure": null,
  "dos": null,
  "dos_energy_up": null,
  "dos_energy_down": null,
  "is_magnetic": null,
  "ordering": null,
  "total_magnetization": 6e-7,
  "total_magnetization_normalized_vol": null,
  "total_magnetization_normalized_formula_units": null,
  "num_magnetic_sites": null,
  "num_unique_magnetic_sites": null,
  "types_of_magnetic_species": null,
  "bulk_modulus": null,
  "shear_modulus": null,
  "universal_anisotropy": null,
  "homogeneous_poisson": null,
  "e_total": null,
  "e_ionic": null,
  "e_electronic": null,
  "n": null,
  "e_ij_max": null,
  "weighted_surface_energy_EV_PER_ANG2": null,
  "weighted_surface_energy": null,
  "weighted_work_function": null,
  "surface_anisotropy": null,
  "shape_factor": null,
  "has_reconstructed": null,
  "possible_species": null,
  "has_props": null,
  "theoretical": null,
  "database_IDs": null,
  "fields_not_requested": [
    "builder_meta",
    "nsites",
    "elements",
    "nelements",
    "composition",
    "composition_reduced",
    "chemsys",
    "symmetry",
    "property_name",
    "deprecated",
    "deprecation_reasons",
    "last_updated",
    "origins",
    "warnings",
    "task_ids",
    "uncorrected_energy_per_atom",
    "equilibrium_reaction_energy_per_atom",
    "decomposes_to",
    "xas",
    "grain_boundaries",
    "cbm",
    "vbm",
    "is_gap_direct",
    "is_metal",
    "es_source_calc_id",
    "bandstructure",
    "dos",
    "dos_energy_up",
    "dos_energy_down",
    "is_magnetic",
    "ordering",
    "total_magnetization_normalized_vol",
    "total_magnetization_normalized_formula_units",
    "num_magnetic_sites",
    "num_unique_magnetic_sites",
    "types_of_magnetic_species",
    "bulk_modulus",
    "shear_modulus",
    "universal_anisotropy",
    "homogeneous_poisson",
    "e_total",
    "e_ionic",
    "e_electronic",
    "n",
    "e_ij_max",
    "weighted_surface_energy_EV_PER_ANG2",
    "weighted_surface_energy",
    "weighted_work_function",
    "surface_anisotropy",
    "shape_factor",
    "has_reconstructed",
    "possible_species",
    "has_props",
    "theoretical",
    "database_IDs"
  ]
}
