{
  "builder_meta": null,
  "nsites": null,
  "elements": null,
  "nelements": null,
  "composition": null,
  "composition_reduced": null,
  "formula_pretty": "Ta5Si3",
  "formula_anonymous": "A3B5",
  "chemsys": null,
  "volume": 253.09367414149278,
  "density": 12.977537540026486,
  "density_atomic": 15.818354633843299,
  "symmetry": null,
  "property_name": null,
  "material_id": "mp-1989",
  "deprecated": null,
  "deprecation_reasons": null,
  "last_updated": null,
  "origins": null,
  "warnings": null,
  "structure": {
    "@module": "pymatgen.core.structure",
    "@class": "Structure",
    "charge": 0,
    "lattice": {
      "matrix": [
        [5.88440569, -1e-8, -2.83108485],
        [-1.362207, 5.72446848, -2.83134222],
        [-0.0051597100000000005, -0.00686912, 7.52018753]
      ],
      "pbc": [true, true, true],
      "a": 6.5300284648999725,
      "b": 6.5300571250270885,
      "c": 7.52019243728406,
      "alpha": 115.73716389588373,
      "beta": 115.7322763592515,
      "gamma": 90.00001157538733,
      "volume": 253.09367414149278
    },
    "properties": {},
    "sites": [
      {
        "species": [{ "element": "Ta", "occu": 1 }],
        "abc": [0.18515594, 0.01517108, 0.70020426],
        "properties": { "magmom": 0.0 },
        "label": "Ta",
        "xyz": [1.065253664577374, 0.08203658032954779, 4.6985206485563715]
      },
      {
        "species": [{ "element": "Ta", "occu": 1 }],
        "abc": [0.01504932, 0.51517108, 0.70020426],
        "properties": { "magmom": 0.0 },
        "label": "Ta",
        "xyz": [-0.6168261980572938, 2.9442708220306133, 3.764435813323079]
      },
      {
        "species": [{ "element": "Ta", "occu": 1 }],
        "abc": [0.6851422500000001, 0.18526178000000001, 0.7004601500000001],
        "properties": { "magmom": -0.0 },
        "label": "Ta",
        "xyz": [3.775675889570386, 1.055713668481704, 2.803356341755666]
      },
      {
        "species": [{ "element": "Ta", "occu": 1 }],
        "abc": [0.98495068, 0.48482992, 0.29979574000000003],
        "properties": { "magmom": 0.0 },
        "label": "Ta",
        "xyz": [5.133863815850294, 2.773334252437866, -1.9066781846652976]
      },
      {
        "species": [{ "element": "Ta", "occu": 1 }],
        "abc": [0.5153189, 0.68526178, 0.7004601500000001],
        "properties": { "magmom": -0.0 },
        "label": "Ta",
        "xyz": [2.0952629025355245, 3.9179479101799375, 1.8684695451169135]
      },
      {
        "species": [{ "element": "Ta", "occu": 1 }],
        "abc": [0.81484406, 0.98482892, 0.29979574000000003],
        "properties": { "magmom": 0.0 },
        "label": "Ta",
        "xyz": [3.451785315422626, 5.635562769670451, -2.84076018855637]
      },
      {
        "species": [{ "element": "Ta", "occu": 1 }],
        "abc": [0.4846811, 0.31473822, 0.29953985],
        "properties": { "magmom": -0.0 },
        "label": "Ta",
        "xyz": [2.4217760774644757, 1.7996514398200625, -0.010709085116912487]
      },
      {
        "species": [{ "element": "Ta", "occu": 1 }],
        "abc": [0.31485775, 0.8147382200000001, 0.29953985],
        "properties": { "magmom": -0.0 },
        "label": "Ta",
        "xyz": [0.7413630904296141, 4.661885681518296, -0.9455958817556653]
      },
      {
        "species": [{ "element": "Ta", "occu": 1 }],
        "abc": [0.5, 0.5, 0.0],
        "properties": { "magmom": -0.0 },
        "label": "Ta",
        "xyz": [2.2610993450000003, 2.862234235, -2.831213535]
      },
      {
        "species": [{ "element": "Ta", "occu": 1 }],
        "abc": [-0.0, 0.0, 0.0],
        "properties": { "magmom": -0.0 },
        "label": "Ta",
        "xyz": [0.0, 0.0, 0.0]
      },
      {
        "species": [{ "element": "Si", "occu": 1 }],
        "abc": [0.62967509, 0.12967632, 9.593000000000004e-5],
        "properties": { "magmom": -0.0 },
        "label": "Si",
        "xyz": [3.528617196638042, 0.7423273411909611, -2.149100235881864]
      },
      {
        "species": [{ "element": "Si", "occu": 1 }],
        "abc": [0.87041985, 0.6296763200000001, 9.593000000000004e-5],
        "properties": { "magmom": -0.0 },
        "label": "Si",
        "xyz": [4.2641535322197255, 3.6045615787835135, -4.2463401886347505]
      },
      {
        "species": [{ "element": "Si", "occu": 1 }],
        "abc": [0.12958015, 0.37032368, 0.99990407],
        "properties": { "magmom": -0.0 },
        "label": "Si",
        "xyz": [0.2528854477802739, 2.113037771216486, 6.10410064863475]
      },
      {
        "species": [{ "element": "Si", "occu": 1 }],
        "abc": [0.37032491, 0.87032368, 0.99990407],
        "properties": { "magmom": -0.0 },
        "label": "Si",
        "xyz": [0.9884217833619583, 4.975272008809039, 4.006860695881864]
      },
      {
        "species": [{ "element": "Si", "occu": 1 }],
        "abc": [0.74996419, 0.75, 0.5],
        "properties": { "magmom": -0.0 },
        "label": "Si",
        "xyz": [3.3888584419322414, 4.2899167925003585, -0.4866251563515207]
      },
      {
        "species": [{ "element": "Si", "occu": 1 }],
        "abc": [0.25003581, 0.25, 0.5],
        "properties": { "magmom": -0.0 },
        "label": "Si",
        "xyz": [1.1281805380677592, 1.4276825574996417, 2.3443856163515218]
      }
    ]
  },
  "task_ids": null,
  "uncorrected_energy_per_atom": null,
  "energy_per_atom": -34.315064675625,
  "formation_energy_per_atom": -0.655007507083333,
  "energy_above_hull": 0.0,
  "is_stable": true,
  "equilibrium_reaction_energy_per_atom": null,
  "decomposes_to": null,
  "xas": null,
  "grain_boundaries": null,
  "band_gap": 0.0,
  "cbm": null,
  "vbm": null,
  "efermi": 7.76619222,
  "is_gap_direct": null,
  "is_metal": null,
  "es_source_calc_id": null,
  "bandstructure": null,
  "dos": null,
  "dos_energy_up": null,
  "dos_energy_down": null,
  "is_magnetic": null,
  "ordering": null,
  "total_magnetization": 0.0,
  "total_magnetization_normalized_vol": null,
  "total_magnetization_normalized_formula_units": null,
  "num_magnetic_sites": null,
  "num_unique_magnetic_sites": null,
  "types_of_magnetic_species": null,
  "bulk_modulus": null,
  "shear_modulus": null,
  "universal_anisotropy": null,
  "homogeneous_poisson": null,
  "e_total": null,
  "e_ionic": null,
  "e_electronic": null,
  "n": null,
  "e_ij_max": null,
  "weighted_surface_energy_EV_PER_ANG2": null,
  "weighted_surface_energy": null,
  "weighted_work_function": null,
  "surface_anisotropy": null,
  "shape_factor": null,
  "has_reconstructed": null,
  "possible_species": null,
  "has_props": null,
  "theoretical": null,
  "database_IDs": null,
  "fields_not_requested": [
    "builder_meta",
    "nsites",
    "elements",
    "nelements",
    "composition",
    "composition_reduced",
    "chemsys",
    "symmetry",
    "property_name",
    "deprecated",
    "deprecation_reasons",
    "last_updated",
    "origins",
    "warnings",
    "task_ids",
    "uncorrected_energy_per_atom",
    "equilibrium_reaction_energy_per_atom",
    "decomposes_to",
    "xas",
    "grain_boundaries",
    "cbm",
    "vbm",
    "is_gap_direct",
    "is_metal",
    "es_source_calc_id",
    "bandstructure",
    "dos",
    "dos_energy_up",
    "dos_energy_down",
    "is_magnetic",
    "ordering",
    "total_magnetization_normalized_vol",
    "total_magnetization_normalized_formula_units",
    "num_magnetic_sites",
    "num_unique_magnetic_sites",
    "types_of_magnetic_species",
    "bulk_modulus",
    "shear_modulus",
    "universal_anisotropy",
    "homogeneous_poisson",
    "e_total",
    "e_ionic",
    "e_electronic",
    "n",
    "e_ij_max",
    "weighted_surface_energy_EV_PER_ANG2",
    "weighted_surface_energy",
    "weighted_work_function",
    "surface_anisotropy",
    "shape_factor",
    "has_reconstructed",
    "possible_species",
    "has_props",
    "theoretical",
    "database_IDs"
  ]
}
