{
  "builder_meta": null,
  "nsites": null,
  "elements": null,
  "nelements": null,
  "composition": null,
  "composition_reduced": null,
  "formula_pretty": "Ta6Fe7",
  "formula_anonymous": "A6B7",
  "chemsys": null,
  "volume": 178.96896501762257,
  "density": 13.700452318809546,
  "density_atomic": 13.766843462894043,
  "symmetry": null,
  "property_name": null,
  "material_id": "mp-1104956",
  "deprecated": null,
  "deprecation_reasons": null,
  "last_updated": null,
  "origins": null,
  "warnings": null,
  "structure": {
    "@module": "pymatgen.core.structure",
    "@class": "Structure",
    "charge": 0,
    "lattice": {
      "matrix": [
        [-2.43117, -4.210911, 0.0],
        [-4.862341, 0.0, 0.0],
        [-2.43117, -1.403637, -8.740902]
      ],
      "pbc": [true, true, true],
      "a": 4.862340899075362,
      "b": 4.862341,
      "c": 9.180640074105563,
      "alpha": 74.64404741344944,
      "beta": 74.64404644364815,
      "gamma": 60.00000611663667,
      "volume": 178.96896501762257
    },
    "properties": {},
    "sites": [
      {
        "species": [{ "element": "Ta", "occu": 1 }],
        "abc": [0.833575, 0.833575, 0.499276],
        "properties": { "magmom": -0.056 },
        "label": "Ta",
        "xyz": [-7.293513264745, -4.210912403637, -4.364122586952]
      },
      {
        "species": [{ "element": "Ta", "occu": 1 }],
        "abc": [0.166425, 0.166425, 0.500724],
        "properties": { "magmom": -0.056 },
        "label": "Ta",
        "xyz": [-2.4311677352549994, -1.4036355963629998, -4.376779413047999]
      },
      {
        "species": [{ "element": "Ta", "occu": 1 }],
        "abc": [0.654663, 0.654663, 0.03601],
        "properties": { "magmom": -0.185 },
        "label": "Ta",
        "xyz": [-4.8623382234929995, -2.807272596363, -0.31475988102]
      },
      {
        "species": [{ "element": "Ta", "occu": 1 }],
        "abc": [0.345337, 0.345337, 0.9639900000000001],
        "properties": { "magmom": -0.185 },
        "label": "Ta",
        "xyz": [-4.862342776507, -2.807275403637, -8.426142118980001]
      },
      {
        "species": [{ "element": "Ta", "occu": 1 }],
        "abc": [0.550624999999999, 0.550624999999999, 0.348126],
        "properties": { "magmom": -0.161 },
        "label": "Ta",
        "xyz": [-4.862342981794993, -2.807275403636996, -3.042935249652]
      },
      {
        "species": [{ "element": "Ta", "occu": 1 }],
        "abc": [0.449374999999999, 0.449374999999999, 0.651874],
        "properties": { "magmom": -0.161 },
        "label": "Ta",
        "xyz": [-4.8623380182049925, -2.807272596362996, -5.697966750348]
      },
      {
        "species": [{ "element": "Fe", "occu": 1 }],
        "abc": [0.0, 0.0, 0.0],
        "properties": { "magmom": 1.361 },
        "label": "Fe",
        "xyz": [0.0, 0.0, 0.0]
      },
      {
        "species": [{ "element": "Fe", "occu": 1 }],
        "abc": [0.910103, 0.910103, 0.775061],
        "properties": { "magmom": 1.355 },
        "label": "Fe",
        "xyz": [-8.522151293002999, -4.920267030690001, -6.774732245022]
      },
      {
        "species": [{ "element": "Fe", "occu": 1 }],
        "abc": [0.404733, 0.910103, 0.775061],
        "properties": { "magmom": 1.355 },
        "label": "Fe",
        "xyz": [-7.293510910103, -2.7921989386200003, -6.774732245022]
      },
      {
        "species": [{ "element": "Fe", "occu": 1 }],
        "abc": [0.910103, 0.404733, 0.775061],
        "properties": { "magmom": 1.355 },
        "label": "Fe",
        "xyz": [-6.064870021832999, -4.920267030690001, -6.774732245022]
      },
      {
        "species": [{ "element": "Fe", "occu": 1 }],
        "abc": [0.089896999999999, 0.089896999999999, 0.224939],
        "properties": { "magmom": 1.355 },
        "label": "Fe",
        "xyz": [-1.2025297069969927, -0.6942809693099958, -1.966169754978]
      },
      {
        "species": [{ "element": "Fe", "occu": 1 }],
        "abc": [0.595267, 0.089896999999999, 0.224939],
        "properties": { "magmom": 1.355 },
        "label": "Fe",
        "xyz": [-2.431170089896995, -2.82234906138, -1.966169754978]
      },
      {
        "species": [{ "element": "Fe", "occu": 1 }],
        "abc": [0.089896999999999, 0.595267, 0.224939],
        "properties": { "magmom": 1.355 },
        "label": "Fe",
        "xyz": [-3.659810978166998, -0.6942809693099958, -1.966169754978]
      }
    ]
  },
  "task_ids": null,
  "uncorrected_energy_per_atom": null,
  "energy_per_atom": -10.227223766153847,
  "formation_energy_per_atom": -0.18939963338461502,
  "energy_above_hull": 0.0,
  "is_stable": true,
  "equilibrium_reaction_energy_per_atom": null,
  "decomposes_to": null,
  "xas": null,
  "grain_boundaries": null,
  "band_gap": 0.0,
  "cbm": null,
  "vbm": null,
  "efermi": 6.08418714,
  "is_gap_direct": null,
  "is_metal": null,
  "es_source_calc_id": null,
  "bandstructure": null,
  "dos": null,
  "dos_energy_up": null,
  "dos_energy_down": null,
  "is_magnetic": null,
  "ordering": null,
  "total_magnetization": 8.4500574,
  "total_magnetization_normalized_vol": null,
  "total_magnetization_normalized_formula_units": null,
  "num_magnetic_sites": null,
  "num_unique_magnetic_sites": null,
  "types_of_magnetic_species": null,
  "bulk_modulus": null,
  "shear_modulus": null,
  "universal_anisotropy": null,
  "homogeneous_poisson": null,
  "e_total": null,
  "e_ionic": null,
  "e_electronic": null,
  "n": null,
  "e_ij_max": null,
  "weighted_surface_energy_EV_PER_ANG2": null,
  "weighted_surface_energy": null,
  "weighted_work_function": null,
  "surface_anisotropy": null,
  "shape_factor": null,
  "has_reconstructed": null,
  "possible_species": null,
  "has_props": null,
  "theoretical": null,
  "database_IDs": null,
  "fields_not_requested": [
    "builder_meta",
    "nsites",
    "elements",
    "nelements",
    "composition",
    "composition_reduced",
    "chemsys",
    "symmetry",
    "property_name",
    "deprecated",
    "deprecation_reasons",
    "last_updated",
    "origins",
    "warnings",
    "task_ids",
    "uncorrected_energy_per_atom",
    "equilibrium_reaction_energy_per_atom",
    "decomposes_to",
    "xas",
    "grain_boundaries",
    "cbm",
    "vbm",
    "is_gap_direct",
    "is_metal",
    "es_source_calc_id",
    "bandstructure",
    "dos",
    "dos_energy_up",
    "dos_energy_down",
    "is_magnetic",
    "ordering",
    "total_magnetization_normalized_vol",
    "total_magnetization_normalized_formula_units",
    "num_magnetic_sites",
    "num_unique_magnetic_sites",
    "types_of_magnetic_species",
    "bulk_modulus",
    "shear_modulus",
    "universal_anisotropy",
    "homogeneous_poisson",
    "e_total",
    "e_ionic",
    "e_electronic",
    "n",
    "e_ij_max",
    "weighted_surface_energy_EV_PER_ANG2",
    "weighted_surface_energy",
    "weighted_work_function",
    "surface_anisotropy",
    "shape_factor",
    "has_reconstructed",
    "possible_species",
    "has_props",
    "theoretical",
    "database_IDs"
  ]
}
