{"builder_meta": null, "nsites": null, "elements": null, "nelements": null, "composition": null, "composition_reduced": null, "formula_pretty": "Ta6Ga5", "formula_anonymous": "A5B6", "chemsys": null, "volume": 378.7375590916585, "density": 12.577125833337545, "density_atomic": 17.215343595075385, "symmetry": null, "property_name": null, "material_id": "mp-1190774", "deprecated": null, "deprecation_reasons": null, "last_updated": null, "origins": null, "warnings": null, "structure": {"@module": "pymatgen.core.structure", "@class": "Structure", "charge": 0, "lattice": {"matrix": [[4.4702210000000004, -7.742649, 0.0], [4.4702210000000004, 7.742649, 0.0], [0.0, 0.0, 5.471291]], "pbc": [true, true, true], "a": 8.940441226586191, "b": 8.940441226586191, "c": 5.471291, "alpha": 90.0, "beta": 90.0, "gamma": 119.99999427672024, "volume": 378.7375590916586}, "properties": {}, "sites": [{"species": [{"element": "Ta", "occu": 1}], "abc": [0.5, 0.5, 0.5], "properties": {"magmom": 0.001}, "label": "Ta", "xyz": [4.4702210000000004, 0.0, 2.7356455]}, {"species": [{"element": "Ta", "occu": 1}], "abc": [0.5, 0.0, 0.5], "properties": {"magmom": -0.002}, "label": "Ta", "xyz": [2.2351105000000002, -3.8713245, 2.7356455]}, {"species": [{"element": "Ta", "occu": 1}], "abc": [0.0, 0.5, 0.5], "properties": {"magmom": 0.001}, "label": "Ta", "xyz": [2.2351105000000002, 3.8713245, 2.7356455]}, {"species": [{"element": "Ta", "occu": 1}], "abc": [0.5, 0.5, 0.0], "properties": {"magmom": -0.001}, "label": "Ta", "xyz": [4.4702210000000004, 0.0, 0.0]}, {"species": [{"element": "Ta", "occu": 1}], "abc": [0.5, 0.0, 0.0], "properties": {"magmom": 0.002}, "label": "Ta", "xyz": [2.2351105000000002, -3.8713245, 0.0]}, {"species": [{"element": "Ta", "occu": 1}], "abc": [0.0, 0.5, 0.0], "properties": {"magmom": -0.001}, "label": "Ta", "xyz": [2.2351105000000002, 3.8713245, 0.0]}, {"species": [{"element": "Ta", "occu": 1}], "abc": [0.153165, 0.846835, 0.25], "properties": {"magmom": 0.001}, "label": "Ta", "xyz": [4.4702210000000004, 5.370843331830001, 1.36782275]}, {"species": [{"element": "Ta", "occu": 1}], "abc": [0.153165, 0.30633000000000005, 0.25], "properties": {"magmom": -0.001}, "label": "Ta", "xyz": [2.054044198395, 1.1859028340850004, 1.36782275]}, {"species": [{"element": "Ta", "occu": 1}], "abc": [0.69367, 0.846835, 0.25], "properties": {"magmom": 0.001}, "label": "Ta", "xyz": [6.886397801605001, 1.1859028340850006, 1.36782275]}, {"species": [{"element": "Ta", "occu": 1}], "abc": [0.846835, 0.153165, 0.75], "properties": {"magmom": 0.001}, "label": "Ta", "xyz": [4.4702210000000004, -5.370843331830001, 4.10346825]}, {"species": [{"element": "Ta", "occu": 1}], "abc": [0.846835, 0.69367, 0.75], "properties": {"magmom": -0.001}, "label": "Ta", "xyz": [6.886397801605001, -1.1859028340850006, 4.10346825]}, {"species": [{"element": "Ta", "occu": 1}], "abc": [0.30633000000000005, 0.153165, 0.75], "properties": {"magmom": 0.001}, "label": "Ta", "xyz": [2.054044198395, -1.1859028340850004, 4.10346825]}, {"species": [{"element": "Ga", "occu": 1}], "abc": [0.0, 0.0, 0.5], "properties": {"magmom": 0.0}, "label": "Ga", "xyz": [0.0, 0.0, 2.7356455]}, {"species": [{"element": "Ga", "occu": 1}], "abc": [0.0, 0.0, 0.0], "properties": {"magmom": -0.0}, "label": "Ga", "xyz": [0.0, 0.0, 0.0]}, {"species": [{"element": "Ga", "occu": 1}], "abc": [0.333333, 0.666667, 0.25], "properties": {"magmom": -0.0}, "label": "Ga", "xyz": [4.4702210000000004, 2.580888161766, 1.36782275]}, {"species": [{"element": "Ga", "occu": 1}], "abc": [0.666667, 0.333333, 0.75], "properties": {"magmom": -0.0}, "label": "Ga", "xyz": [4.4702210000000004, -2.580888161766, 4.10346825]}, {"species": [{"element": "Ga", "occu": 1}], "abc": [0.794416, 0.205584, 0.25], "properties": {"magmom": -0.0}, "label": "Ga", "xyz": [4.4702210000000004, -4.559119495968, 1.36782275]}, {"species": [{"element": "Ga", "occu": 1}], "abc": [0.794416, 0.588832, 0.25], "properties": {"magmom": 0.001}, "label": "Ga", "xyz": [6.183424257808001, -1.591764752016, 1.36782275]}, {"species": [{"element": "Ga", "occu": 1}], "abc": [0.411168, 0.205584, 0.25], "properties": {"magmom": -0.0}, "label": "Ga", "xyz": [2.757017742192, -1.5917647520159999, 1.36782275]}, {"species": [{"element": "Ga", "occu": 1}], "abc": [0.205584, 0.794416, 0.75], "properties": {"magmom": -0.0}, "label": "Ga", "xyz": [4.4702210000000004, 4.559119495968, 4.10346825]}, {"species": [{"element": "Ga", "occu": 1}], "abc": [0.205584, 0.411168, 0.75], "properties": {"magmom": 0.0}, "label": "Ga", "xyz": [2.757017742192, 1.5917647520159999, 4.10346825]}, {"species": [{"element": "Ga", "occu": 1}], "abc": [0.588832, 0.794416, 0.75], "properties": {"magmom": -0.0}, "label": "Ga", "xyz": [6.183424257808001, 1.591764752016, 4.10346825]}]}, "task_ids": null, "uncorrected_energy_per_atom": null, "energy_per_atom": -31.982289460649348, "formation_energy_per_atom": -0.276391640103895, "energy_above_hull": 0.055313402792208005, "is_stable": false, "equilibrium_reaction_energy_per_atom": null, "decomposes_to": null, "xas": null, "grain_boundaries": null, "band_gap": 0.0, "cbm": null, "vbm": null, "efermi": 5.20642555, "is_gap_direct": null, "is_metal": null, "es_source_calc_id": null, "bandstructure": null, "dos": null, "dos_energy_up": null, "dos_energy_down": null, "is_magnetic": null, "ordering": null, "total_magnetization": 0.0006483999999990001, "total_magnetization_normalized_vol": null, "total_magnetization_normalized_formula_units": null, "num_magnetic_sites": null, "num_unique_magnetic_sites": null, "types_of_magnetic_species": null, "bulk_modulus": null, "shear_modulus": null, "universal_anisotropy": null, "homogeneous_poisson": null, "e_total": null, "e_ionic": null, "e_electronic": null, "n": null, "e_ij_max": null, "weighted_surface_energy_EV_PER_ANG2": null, "weighted_surface_energy": null, "weighted_work_function": null, "surface_anisotropy": null, "shape_factor": null, "has_reconstructed": null, "possible_species": null, "has_props": null, "theoretical": null, "database_IDs": null, "fields_not_requested": ["builder_meta", "nsites", "elements", "nelements", "composition", "composition_reduced", "chemsys", "symmetry", "property_name", "deprecated", "deprecation_reasons", "last_updated", "origins", "warnings", "task_ids", "uncorrected_energy_per_atom", "equilibrium_reaction_energy_per_atom", "decomposes_to", "xas", "grain_boundaries", "cbm", "vbm", "is_gap_direct", "is_metal", "es_source_calc_id", "bandstructure", "dos", "dos_energy_up", "dos_energy_down", "is_magnetic", "ordering", "total_magnetization_normalized_vol", "total_magnetization_normalized_formula_units", "num_magnetic_sites", "num_unique_magnetic_sites", "types_of_magnetic_species", "bulk_modulus", "shear_modulus", "universal_anisotropy", "homogeneous_poisson", "e_total", "e_ionic", "e_electronic", "n", "e_ij_max", "weighted_surface_energy_EV_PER_ANG2", "weighted_surface_energy", "weighted_work_function", "surface_anisotropy", "shape_factor", "has_reconstructed", "possible_species", "has_props", "theoretical", "database_IDs"]}