{"builder_meta": null, "nsites": null, "elements": null, "nelements": null, "composition": null, "composition_reduced": null, "formula_pretty": "Ta6O", "formula_anonymous": "AB6", "chemsys": null, "volume": 231.7876400252598, "density": 15.785084753384506, "density_atomic": 16.556260001804272, "symmetry": null, "property_name": null, "material_id": "mp-1218065", "deprecated": null, "deprecation_reasons": null, "last_updated": null, "origins": null, "warnings": null, "structure": {"@module": "pymatgen.core.structure", "@class": "Structure", "charge": 0, "lattice": {"matrix": [[3.628965, 3.276877, 0.0], [-3.635416, 3.284668, 0.0], [0.0, 0.0, 9.725591]], "pbc": [true, true, true], "a": 4.889510184502534, "b": 4.899519707408064, "c": 9.725591, "alpha": 90.0, "beta": 90.0, "gamma": 95.82022833489798, "volume": 231.7876400252598}, "properties": {}, "sites": [{"species": [{"element": "Ta", "occu": 1}], "abc": [0.282862, 0.713622, 0.0], "properties": {"magmom": 0.0}, "label": "Ta", "xyz": [-1.567816538922, 3.27091532947, 0.0]}, {"species": [{"element": "Ta", "occu": 1}], "abc": [0.717137999999999, 0.286377999999999, 0.0], "properties": {"magmom": 0.0}, "label": "Ta", "xyz": [1.5613655389219998, 3.2906296705299933, 0.0]}, {"species": [{"element": "Ta", "occu": 1}], "abc": [0.246426999999999, 0.740077, 0.332007999999999], "properties": {"magmom": 0.0}, "label": "Ta", "xyz": [-1.7962128089770037, 3.2384182079149966, 3.2289740167279906]}, {"species": [{"element": "Ta", "occu": 1}], "abc": [0.753572999999999, 0.259923, 0.332007999999999], "properties": {"magmom": 0.0}, "label": "Ta", "xyz": [1.7897618089769964, 3.323126792084997, 3.2289740167279906]}, {"species": [{"element": "Ta", "occu": 1}], "abc": [0.246426999999999, 0.740077, 0.667991999999999], "properties": {"magmom": 0.0}, "label": "Ta", "xyz": [-1.7962128089770037, 3.2384182079149966, 6.49661698327199]}, {"species": [{"element": "Ta", "occu": 1}], "abc": [0.753572999999999, 0.259923, 0.667991999999999], "properties": {"magmom": 0.0}, "label": "Ta", "xyz": [1.7897618089769964, 3.323126792084997, 6.49661698327199]}, {"species": [{"element": "Ta", "occu": 1}], "abc": [0.754688999999999, 0.758736, 0.167959], "properties": {"magmom": 0.0}, "label": "Ta", "xyz": [-0.019581027291003306, 4.965218885900996, 1.6335005387689998]}, {"species": [{"element": "Ta", "occu": 1}], "abc": [0.245311, 0.241263999999999, 0.167959], "properties": {"magmom": 0.0}, "label": "Ta", "xyz": [0.013130027291003543, 1.5963261140989968, 1.6335005387689998]}, {"species": [{"element": "Ta", "occu": 1}], "abc": [0.245311, 0.241263999999999, 0.832040999999999], "properties": {"magmom": 0.0}, "label": "Ta", "xyz": [0.013130027291003543, 1.5963261140989968, 8.09209046123099]}, {"species": [{"element": "Ta", "occu": 1}], "abc": [0.754688999999999, 0.758736, 0.832040999999999], "properties": {"magmom": 0.0}, "label": "Ta", "xyz": [-0.019581027291003306, 4.965218885900996, 8.09209046123099]}, {"species": [{"element": "Ta", "occu": 1}], "abc": [0.71904, 0.788134999999999, 0.5], "properties": {"magmom": 0.0}, "label": "Ta", "xyz": [-0.25582759555999646, 4.944967452259997, 4.8627955]}, {"species": [{"element": "Ta", "occu": 1}], "abc": [0.28096000000000004, 0.211865, 0.5], "properties": {"magmom": 0.0}, "label": "Ta", "xyz": [0.24937659556000014, 1.61657754774, 4.8627955]}, {"species": [{"element": "O", "occu": 1}], "abc": [0.0, 0.0, 0.0], "properties": {"magmom": 0.0}, "label": "O", "xyz": [0.0, 0.0, 0.0]}, {"species": [{"element": "O", "occu": 1}], "abc": [0.0, 0.5, 0.5], "properties": {"magmom": 0.0}, "label": "O", "xyz": [-1.817708, 1.642334, 4.8627955]}]}, "task_ids": null, "uncorrected_energy_per_atom": null, "energy_per_atom": -11.516556623571429, "formation_energy_per_atom": -0.638052871999998, "energy_above_hull": 0.03125975427619, "is_stable": false, "equilibrium_reaction_energy_per_atom": null, "decomposes_to": null, "xas": null, "grain_boundaries": null, "band_gap": 0.0, "cbm": null, "vbm": null, "efermi": 5.94104232, "is_gap_direct": null, "is_metal": null, "es_source_calc_id": null, "bandstructure": null, "dos": null, "dos_energy_up": null, "dos_energy_down": null, "is_magnetic": null, "ordering": null, "total_magnetization": 0.0053602, "total_magnetization_normalized_vol": null, "total_magnetization_normalized_formula_units": null, "num_magnetic_sites": null, "num_unique_magnetic_sites": null, "types_of_magnetic_species": null, "bulk_modulus": null, "shear_modulus": null, "universal_anisotropy": null, "homogeneous_poisson": null, "e_total": null, "e_ionic": null, "e_electronic": null, "n": null, "e_ij_max": null, "weighted_surface_energy_EV_PER_ANG2": null, "weighted_surface_energy": null, "weighted_work_function": null, "surface_anisotropy": null, "shape_factor": null, "has_reconstructed": null, "possible_species": null, "has_props": null, "theoretical": null, "database_IDs": null, "fields_not_requested": ["builder_meta", "nsites", "elements", "nelements", "composition", "composition_reduced", "chemsys", "symmetry", "property_name", "deprecated", "deprecation_reasons", "last_updated", "origins", "warnings", "task_ids", "uncorrected_energy_per_atom", "equilibrium_reaction_energy_per_atom", "decomposes_to", "xas", "grain_boundaries", "cbm", "vbm", "is_gap_direct", "is_metal", "es_source_calc_id", "bandstructure", "dos", "dos_energy_up", "dos_energy_down", "is_magnetic", "ordering", "total_magnetization_normalized_vol", "total_magnetization_normalized_formula_units", "num_magnetic_sites", "num_unique_magnetic_sites", "types_of_magnetic_species", "bulk_modulus", "shear_modulus", "universal_anisotropy", "homogeneous_poisson", "e_total", "e_ionic", "e_electronic", "n", "e_ij_max", "weighted_surface_energy_EV_PER_ANG2", "weighted_surface_energy", "weighted_work_function", "surface_anisotropy", "shape_factor", "has_reconstructed", "possible_species", "has_props", "theoretical", "database_IDs"]}