{
  "builder_meta": null,
  "nsites": null,
  "elements": null,
  "nelements": null,
  "composition": null,
  "composition_reduced": null,
  "formula_pretty": "Ta6S",
  "formula_anonymous": "AB6",
  "chemsys": null,
  "volume": 491.52498270507493,
  "density": 15.104594012751559,
  "density_atomic": 17.55446366803839,
  "symmetry": null,
  "property_name": null,
  "material_id": "mp-27467",
  "deprecated": null,
  "deprecation_reasons": null,
  "last_updated": null,
  "origins": null,
  "warnings": null,
  "structure": {
    "@module": "pymatgen.core.structure",
    "@class": "Structure",
    "charge": 0,
    "lattice": {
      "matrix": [
        [5.17684606, 0.00010226, 1.04756848],
        [2.57466309, 7.10647772, 0.59250522],
        [-0.00806982, -0.0050462400000000004, 13.3590114]
      ],
      "pbc": [true, true, true],
      "a": 5.281773836476164,
      "b": 7.581687018572581,
      "c": 13.359014790465011,
      "alpha": 85.54993046391468,
      "beta": 78.59491380059576,
      "gamma": 69.61287067674098,
      "volume": 491.52498270507493
    },
    "properties": {},
    "sites": [
      {
        "species": [{ "element": "Ta", "occu": 1 }],
        "abc": [0.00153879, 0.22417179, 0.45403801],
        "properties": { "magmom": -0.0 },
        "label": "Ta",
        "xyz": [0.5814689074670403, 1.590780803676602, 6.199933895276398]
      },
      {
        "species": [{ "element": "Ta", "occu": 1 }],
        "abc": [0.67970577, 0.275884099999999, 0.04592202],
        "properties": { "magmom": 0.0 },
        "label": "Ta",
        "xyz": [4.228670164336196, 1.9604019831300805, 1.488973898382159]
      },
      {
        "species": [{ "element": "Ta", "occu": 1 }],
        "abc": [0.99846121, 0.77582821, 0.54596199],
        "properties": { "magmom": -0.0 },
        "label": "Ta",
        "xyz": [7.161970422532959, 5.5107529363233985, 8.799151204723604]
      },
      {
        "species": [{ "element": "Ta", "occu": 1 }],
        "abc": [0.32029423, 0.724115899999999, 0.95407798],
        "properties": { "magmom": 0.0 },
        "label": "Ta",
        "xyz": [3.514769165663799, 5.141131756869906, 13.510111201617839]
      },
      {
        "species": [{ "element": "Ta", "occu": 1 }],
        "abc": [0.40073633000000003, 0.46790562, 0.40559148],
        "properties": { "magmom": 0.0 },
        "label": "Ta",
        "xyz": [3.2759765702397923, 3.323155130939857, 6.115336475479086]
      },
      {
        "species": [{ "element": "Ta", "occu": 1 }],
        "abc": [0.27439443, 0.03202779, 0.09435849],
        "properties": { "magmom": -0.0 },
        "label": "Ta",
        "xyz": [1.5021970365689452, 0.227156680043673, 1.5669597323124163]
      },
      {
        "species": [{ "element": "Ta", "occu": 1 }],
        "abc": [0.59926367, 0.53209438, 0.59440852],
        "properties": { "magmom": 0.0 },
        "label": "Ta",
        "xyz": [4.467462759760208, 3.7783786090601432, 8.883748624520914]
      },
      {
        "species": [{ "element": "Ta", "occu": 1 }],
        "abc": [0.72560557, 0.96797221, 0.90564151],
        "properties": { "magmom": -0.0 },
        "label": "Ta",
        "xyz": [6.241242293431055, 6.874377059956327, 13.432125367687584]
      },
      {
        "species": [{ "element": "Ta", "occu": 1 }],
        "abc": [0.81638292, 0.8984011, 0.17430335],
        "properties": { "magmom": 0.0 },
        "label": "Ta",
        "xyz": [6.537962258378797, 6.383671307553987, 3.7160447957142937]
      },
      {
        "species": [{ "element": "Ta", "occu": 1 }],
        "abc": [0.889123, 0.60154251, 0.32561672],
        "properties": { "magmom": 0.0 },
        "label": "Ta",
        "xyz": [6.148994528648945, 4.273296226548725, 5.63775178138055]
      },
      {
        "species": [{ "element": "Ta", "occu": 1 }],
        "abc": [0.18361708000000002, 0.101598899999999, 0.82569665],
        "properties": { "magmom": 0.0 },
        "label": "Ta",
        "xyz": [1.2054770716212004, 0.7178624324460057, 11.283040304285707]
      },
      {
        "species": [{ "element": "Ta", "occu": 1 }],
        "abc": [0.110876999999999, 0.39845749, 0.67438328],
        "properties": { "magmom": 0.0 },
        "label": "Ta",
        "xyz": [1.5944448013510495, 2.8282375134512754, 9.36133331861945]
      },
      {
        "species": [{ "element": "Ta", "occu": 1 }],
        "abc": [0.64168566, 0.025192, 0.39678825],
        "properties": { "magmom": -0.0 },
        "label": "Ta",
        "xyz": [3.383566783537165, 0.1770897167591516, 5.987834818122288]
      },
      {
        "species": [{ "element": "Ta", "occu": 1 }],
        "abc": [0.06382385, 0.47485847000000003, 0.10320961000000001],
        "properties": { "magmom": 0.0 },
        "label": "Ta",
        "xyz": [1.5521739391144331, 3.3740568433728235, 1.7269943323480157]
      },
      {
        "species": [{ "element": "Ta", "occu": 1 }],
        "abc": [0.35831434, 0.974808, 0.60321175],
        "properties": { "magmom": -0.0 },
        "label": "Ta",
        "xyz": [4.359872546462835, 6.924444023240848, 9.011250281877714]
      },
      {
        "species": [{ "element": "Ta", "occu": 1 }],
        "abc": [0.93617615, 0.52514153, 0.89679039],
        "properties": { "magmom": 0.0 },
        "label": "Ta",
        "xyz": [6.191265390885567, 3.7274768966271767, 13.272090767651985]
      },
      {
        "species": [{ "element": "Ta", "occu": 1 }],
        "abc": [0.21346437000000001, 0.8947441500000001, 0.31735571],
        "properties": { "magmom": -0.0 },
        "label": "Ta",
        "xyz": [3.4061759173276336, 6.356899742863784, 4.993317672799615]
      },
      {
        "species": [{ "element": "Ta", "occu": 1 }],
        "abc": [0.42554958, 0.60523526, 0.18254842000000002],
        "properties": { "magmom": 0.0 },
        "label": "Ta",
        "xyz": [3.7598084183555236, 4.300213224109518, 3.2430638013952837]
      },
      {
        "species": [{ "element": "Ta", "occu": 1 }],
        "abc": [0.78653563, 0.10525585, 0.68264429],
        "properties": { "magmom": -0.0 },
        "label": "Ta",
        "xyz": [4.337263412672367, 0.7446339971362163, 10.005767427200388]
      },
      {
        "species": [{ "element": "Ta", "occu": 1 }],
        "abc": [0.57445042, 0.39476474, 0.8174515800000001],
        "properties": { "magmom": 0.0 },
        "label": "Ta",
        "xyz": [3.9836309116444757, 2.801320515890483, 11.756021298604717]
      },
      {
        "species": [{ "element": "Ta", "occu": 1 }],
        "abc": [0.15910467, 0.7436511, 0.75182118],
        "properties": { "magmom": -0.0 },
        "label": "Ta",
        "xyz": [2.7322443614302117, 5.280962373535683, 10.650877910302995]
      },
      {
        "species": [{ "element": "Ta", "occu": 1 }],
        "abc": [0.65449376, 0.7564358600000001, 0.74827352],
        "properties": { "magmom": -0.0 },
        "label": "Ta",
        "xyz": [5.3297424988278275, 5.371885546463373, 11.130013712976002]
      },
      {
        "species": [{ "element": "Ta", "occu": 1 }],
        "abc": [0.84089533, 0.2563489, 0.24817882],
        "properties": { "magmom": -0.0 },
        "label": "Ta",
        "xyz": [5.0111949685697885, 1.8205713664643168, 4.348207189697004]
      },
      {
        "species": [{ "element": "Ta", "occu": 1 }],
        "abc": [0.34550624, 0.24356414, 0.25172648000000003],
        "properties": { "magmom": -0.0 },
        "label": "Ta",
        "xyz": [2.4136968311721736, 1.7296481935366281, 3.8690713870239986]
      },
      {
        "species": [{ "element": "S", "occu": 1 }],
        "abc": [0.5224271500000001, 0.23870399, 0.5435706100000001],
        "properties": { "magmom": 0.0 },
        "label": "S",
        "xyz": [3.3147207686232685, 1.6936550222554554, 7.950277551241015]
      },
      {
        "species": [{ "element": "S", "occu": 1 }],
        "abc": [0.30451583, 0.26125122, 0.95645907],
        "properties": { "magmom": 0.0 },
        "label": "S",
        "xyz": [2.241346995562332, 1.8517805920241974, 13.251141516513803]
      },
      {
        "species": [{ "element": "S", "occu": 1 }],
        "abc": [0.47757285, 0.76129601, 0.45642939],
        "properties": { "magmom": 0.0 },
        "label": "S",
        "xyz": [4.428718561376733, 5.407878717744545, 7.048807548758986]
      },
      {
        "species": [{ "element": "S", "occu": 1 }],
        "abc": [0.6954841700000001, 0.73874878, 0.04354093],
        "properties": { "magmom": 0.0 },
        "label": "S",
        "xyz": [5.502092334437668, 5.249753147975802, 1.7479435834861954]
      }
    ]
  },
  "task_ids": null,
  "uncorrected_energy_per_atom": null,
  "energy_per_atom": -11.091491731785712,
  "formation_energy_per_atom": -0.32864532842856803,
  "energy_above_hull": 0.011475595642860001,
  "is_stable": false,
  "equilibrium_reaction_energy_per_atom": null,
  "decomposes_to": null,
  "xas": null,
  "grain_boundaries": null,
  "band_gap": 0.0,
  "cbm": null,
  "vbm": null,
  "efermi": 6.25531829,
  "is_gap_direct": null,
  "is_metal": null,
  "es_source_calc_id": null,
  "bandstructure": null,
  "dos": null,
  "dos_energy_up": null,
  "dos_energy_down": null,
  "is_magnetic": null,
  "ordering": null,
  "total_magnetization": 0.0,
  "total_magnetization_normalized_vol": null,
  "total_magnetization_normalized_formula_units": null,
  "num_magnetic_sites": null,
  "num_unique_magnetic_sites": null,
  "types_of_magnetic_species": null,
  "bulk_modulus": null,
  "shear_modulus": null,
  "universal_anisotropy": null,
  "homogeneous_poisson": null,
  "e_total": null,
  "e_ionic": null,
  "e_electronic": null,
  "n": null,
  "e_ij_max": null,
  "weighted_surface_energy_EV_PER_ANG2": null,
  "weighted_surface_energy": null,
  "weighted_work_function": null,
  "surface_anisotropy": null,
  "shape_factor": null,
  "has_reconstructed": null,
  "possible_species": null,
  "has_props": null,
  "theoretical": null,
  "database_IDs": null,
  "fields_not_requested": [
    "builder_meta",
    "nsites",
    "elements",
    "nelements",
    "composition",
    "composition_reduced",
    "chemsys",
    "symmetry",
    "property_name",
    "deprecated",
    "deprecation_reasons",
    "last_updated",
    "origins",
    "warnings",
    "task_ids",
    "uncorrected_energy_per_atom",
    "equilibrium_reaction_energy_per_atom",
    "decomposes_to",
    "xas",
    "grain_boundaries",
    "cbm",
    "vbm",
    "is_gap_direct",
    "is_metal",
    "es_source_calc_id",
    "bandstructure",
    "dos",
    "dos_energy_up",
    "dos_energy_down",
    "is_magnetic",
    "ordering",
    "total_magnetization_normalized_vol",
    "total_magnetization_normalized_formula_units",
    "num_magnetic_sites",
    "num_unique_magnetic_sites",
    "types_of_magnetic_species",
    "bulk_modulus",
    "shear_modulus",
    "universal_anisotropy",
    "homogeneous_poisson",
    "e_total",
    "e_ionic",
    "e_electronic",
    "n",
    "e_ij_max",
    "weighted_surface_energy_EV_PER_ANG2",
    "weighted_surface_energy",
    "weighted_work_function",
    "surface_anisotropy",
    "shape_factor",
    "has_reconstructed",
    "possible_species",
    "has_props",
    "theoretical",
    "database_IDs"
  ]
}
