{
  "builder_meta": null,
  "nsites": null,
  "elements": null,
  "nelements": null,
  "composition": null,
  "composition_reduced": null,
  "formula_pretty": "Ta6Zn7",
  "formula_anonymous": "A6B7",
  "chemsys": null,
  "volume": 199.08744274692552,
  "density": 12.874370707847925,
  "density_atomic": 15.314418672840425,
  "symmetry": null,
  "property_name": null,
  "material_id": "mp-1105040",
  "deprecated": null,
  "deprecation_reasons": null,
  "last_updated": null,
  "origins": null,
  "warnings": null,
  "structure": {
    "@module": "pymatgen.core.structure",
    "@class": "Structure",
    "charge": 0,
    "lattice": {
      "matrix": [
        [-2.51130023, -4.34969744, 0.0],
        [2.51130023, -4.34969744, 0.0],
        [-0.0, -2.89979897, 9.11289124]
      ],
      "pbc": [true, true, true],
      "a": 5.0225985968162545,
      "b": 5.0225985968162545,
      "c": 9.56313864892075,
      "alpha": 74.77548864194584,
      "beta": 74.77548864194584,
      "gamma": 60.000024542525075,
      "volume": 199.08744274692552
    },
    "properties": {},
    "sites": [
      {
        "species": [{ "element": "Ta", "occu": 1 }],
        "abc": [0.16470429, 0.16470429, 0.50588812],
        "properties": { "magmom": 0.0 },
        "label": "Ta",
        "xyz": [0.0, -2.8998015064512717, 4.6101034171680695]
      },
      {
        "species": [{ "element": "Ta", "occu": 1 }],
        "abc": [0.83529571, 0.83529571, 0.49411188],
        "properties": { "magmom": 0.0 },
        "label": "Ta",
        "xyz": [0.0, -8.699392343548729, 4.502787822831931]
      },
      {
        "species": [{ "element": "Ta", "occu": 1 }],
        "abc": [0.35067452, 0.35067452, 0.94797944],
        "properties": { "magmom": 0.0 },
        "label": "Ta",
        "xyz": [0.0, -5.799605927527635, 8.638833534476106]
      },
      {
        "species": [{ "element": "Ta", "occu": 1 }],
        "abc": [0.64932548, 0.64932548, 0.05202056],
        "properties": { "magmom": 0.0 },
        "label": "Ta",
        "xyz": [0.0, -5.799587922472366, 0.47405770552389437]
      },
      {
        "species": [{ "element": "Ta", "occu": 1 }],
        "abc": [0.45447874, 0.45447874, 0.63656577],
        "properties": { "magmom": -0.0 },
        "label": "Ta",
        "xyz": [0.0, -5.799602788008108, 5.8009546291168546]
      },
      {
        "species": [{ "element": "Ta", "occu": 1 }],
        "abc": [0.54552126, 0.54552126, 0.36343423],
        "properties": { "magmom": -0.0 },
        "label": "Ta",
        "xyz": [0.0, -5.799591061991892, 3.311936610883145]
      },
      {
        "species": [{ "element": "Zn", "occu": 1 }],
        "abc": [0.0, -0.0, -0.0],
        "properties": { "magmom": 0.0 },
        "label": "Zn",
        "xyz": [0.0, 0.0, 0.0]
      },
      {
        "species": [{ "element": "Zn", "occu": 1 }],
        "abc": [0.58629293, 0.09410151, 0.22550305],
        "properties": { "magmom": 0.0 },
        "label": "Zn",
        "xyz": [-1.2360404262500264, -3.6134234659800923, 2.054984768938282]
      },
      {
        "species": [{ "element": "Zn", "occu": 1 }],
        "abc": [0.09410151, 0.09410151, 0.22550305],
        "properties": { "magmom": 0.0 },
        "label": "Zn",
        "xyz": [0.0, -1.4725397064161272, 2.054984768938282]
      },
      {
        "species": [{ "element": "Zn", "occu": 1 }],
        "abc": [0.09410151, 0.58629293, 0.22550305],
        "properties": { "magmom": 0.0 },
        "label": "Zn",
        "xyz": [1.2360404262500264, -3.6134234659800923, 2.054984768938282]
      },
      {
        "species": [{ "element": "Zn", "occu": 1 }],
        "abc": [0.41370707, 0.90589849, 0.77449695],
        "properties": { "magmom": 0.0 },
        "label": "Zn",
        "xyz": [1.2360404262500264, -7.985770384019908, 7.057906471061718]
      },
      {
        "species": [{ "element": "Zn", "occu": 1 }],
        "abc": [0.90589849, 0.90589849, 0.77449695],
        "properties": { "magmom": 0.0 },
        "label": "Zn",
        "xyz": [0.0, -10.126654143583872, 7.057906471061718]
      },
      {
        "species": [{ "element": "Zn", "occu": 1 }],
        "abc": [0.90589849, 0.41370707, 0.77449695],
        "properties": { "magmom": 0.0 },
        "label": "Zn",
        "xyz": [-1.2360404262500264, -7.985770384019908, 7.057906471061718]
      }
    ]
  },
  "task_ids": null,
  "uncorrected_energy_per_atom": null,
  "energy_per_atom": -27.36341487923077,
  "formation_energy_per_atom": -0.13839837838461802,
  "energy_above_hull": 0.0,
  "is_stable": true,
  "equilibrium_reaction_energy_per_atom": null,
  "decomposes_to": null,
  "xas": null,
  "grain_boundaries": null,
  "band_gap": 0.0,
  "cbm": null,
  "vbm": null,
  "efermi": 4.50271461,
  "is_gap_direct": null,
  "is_metal": null,
  "es_source_calc_id": null,
  "bandstructure": null,
  "dos": null,
  "dos_energy_up": null,
  "dos_energy_down": null,
  "is_magnetic": null,
  "ordering": null,
  "total_magnetization": 5.47e-5,
  "total_magnetization_normalized_vol": null,
  "total_magnetization_normalized_formula_units": null,
  "num_magnetic_sites": null,
  "num_unique_magnetic_sites": null,
  "types_of_magnetic_species": null,
  "bulk_modulus": null,
  "shear_modulus": null,
  "universal_anisotropy": null,
  "homogeneous_poisson": null,
  "e_total": null,
  "e_ionic": null,
  "e_electronic": null,
  "n": null,
  "e_ij_max": null,
  "weighted_surface_energy_EV_PER_ANG2": null,
  "weighted_surface_energy": null,
  "weighted_work_function": null,
  "surface_anisotropy": null,
  "shape_factor": null,
  "has_reconstructed": null,
  "possible_species": null,
  "has_props": null,
  "theoretical": null,
  "database_IDs": null,
  "fields_not_requested": [
    "builder_meta",
    "nsites",
    "elements",
    "nelements",
    "composition",
    "composition_reduced",
    "chemsys",
    "symmetry",
    "property_name",
    "deprecated",
    "deprecation_reasons",
    "last_updated",
    "origins",
    "warnings",
    "task_ids",
    "uncorrected_energy_per_atom",
    "equilibrium_reaction_energy_per_atom",
    "decomposes_to",
    "xas",
    "grain_boundaries",
    "cbm",
    "vbm",
    "is_gap_direct",
    "is_metal",
    "es_source_calc_id",
    "bandstructure",
    "dos",
    "dos_energy_up",
    "dos_energy_down",
    "is_magnetic",
    "ordering",
    "total_magnetization_normalized_vol",
    "total_magnetization_normalized_formula_units",
    "num_magnetic_sites",
    "num_unique_magnetic_sites",
    "types_of_magnetic_species",
    "bulk_modulus",
    "shear_modulus",
    "universal_anisotropy",
    "homogeneous_poisson",
    "e_total",
    "e_ionic",
    "e_electronic",
    "n",
    "e_ij_max",
    "weighted_surface_energy_EV_PER_ANG2",
    "weighted_surface_energy",
    "weighted_work_function",
    "surface_anisotropy",
    "shape_factor",
    "has_reconstructed",
    "possible_species",
    "has_props",
    "theoretical",
    "database_IDs"
  ]
}
