{"builder_meta": null, "nsites": null, "elements": null, "nelements": null, "composition": null, "composition_reduced": null, "formula_pretty": "Ta7Co6", "formula_anonymous": "A6B7", "chemsys": null, "volume": 185.3035738938156, "density": 14.519214850940708, "density_atomic": 14.254121068755047, "symmetry": null, "property_name": null, "material_id": "mp-1104548", "deprecated": null, "deprecation_reasons": null, "last_updated": null, "origins": null, "warnings": null, "structure": {"@module": "pymatgen.core.structure", "@class": "Structure", "charge": 0, "lattice": {"matrix": [[-2.476079, -4.288695, 0.0], [2.476079, -4.288695, 0.0], [0.0, -2.85913, 8.724974]], "pbc": [true, true, true], "a": 4.952158319083306, "b": 4.952158319083306, "c": 9.181492016964127, "alpha": 74.35468016101653, "beta": 74.35468016101653, "gamma": 59.9999957371352, "volume": 185.3035738938156}, "properties": {}, "sites": [{"species": [{"element": "Ta", "occu": 1}], "abc": [0.0, 0.0, 0.0], "properties": {"magmom": 0.0}, "label": "Ta", "xyz": [0.0, 0.0, 0.0]}, {"species": [{"element": "Ta", "occu": 1}], "abc": [0.166835999999999, 0.166835999999999, 0.499492], "properties": {"magmom": -0.0}, "label": "Ta", "xyz": [0.0, -2.8591299999999915, 4.358054713207999]}, {"species": [{"element": "Ta", "occu": 1}], "abc": [0.833164, 0.833164, 0.500508], "properties": {"magmom": -0.0}, "label": "Ta", "xyz": [0.0, -8.57739, 4.366919286791999]}, {"species": [{"element": "Ta", "occu": 1}], "abc": [0.345698, 0.345698, 0.962905999999999], "properties": {"magmom": 0.0}, "label": "Ta", "xyz": [0.0, -5.718259999999997, 8.401329814443992]}, {"species": [{"element": "Ta", "occu": 1}], "abc": [0.654301999999999, 0.654301999999999, 0.037093999999999], "properties": {"magmom": 0.0}, "label": "Ta", "xyz": [0.0, -5.718259999999988, 0.3236441855559913]}, {"species": [{"element": "Ta", "occu": 1}], "abc": [0.450860999999999, 0.450860999999999, 0.647416], "properties": {"magmom": -0.0}, "label": "Ta", "xyz": [0.0, -5.718257140869991, 5.648687767184]}, {"species": [{"element": "Ta", "occu": 1}], "abc": [0.549138999999999, 0.549138999999999, 0.352584], "properties": {"magmom": -0.0}, "label": "Ta", "xyz": [0.0, -5.718262859129991, 3.076286232816]}, {"species": [{"element": "Co", "occu": 1}], "abc": [0.581303, 0.092989, 0.232717999999999], "properties": {"magmom": -0.0}, "label": "Co", "xyz": [-1.2091040408059999, -3.557203744279997, 2.030458499331991]}, {"species": [{"element": "Co", "occu": 1}], "abc": [0.092989, 0.092989, 0.232717999999999], "properties": {"magmom": -0.0}, "label": "Co", "xyz": [0.0, -1.4629739340499972, 2.030458499331991]}, {"species": [{"element": "Co", "occu": 1}], "abc": [0.092989, 0.581303, 0.232717999999999], "properties": {"magmom": -0.0}, "label": "Co", "xyz": [1.2091040408059999, -3.557203744279997, 2.030458499331991]}, {"species": [{"element": "Co", "occu": 1}], "abc": [0.418697, 0.907011, 0.767282], "properties": {"magmom": -0.0}, "label": "Co", "xyz": [1.209104040806, -7.879316255719999, 6.6945155006679995]}, {"species": [{"element": "Co", "occu": 1}], "abc": [0.907011, 0.907011, 0.767282], "properties": {"magmom": -0.0}, "label": "Co", "xyz": [0.0, -9.97354606595, 6.6945155006679995]}, {"species": [{"element": "Co", "occu": 1}], "abc": [0.907011, 0.418697, 0.767282], "properties": {"magmom": -0.0}, "label": "Co", "xyz": [-1.209104040806, -7.879316255719999, 6.6945155006679995]}]}, "task_ids": null, "uncorrected_energy_per_atom": null, "energy_per_atom": -9.917214803846154, "formation_energy_per_atom": -0.23498456394871803, "energy_above_hull": 0.0014632612820470001, "is_stable": false, "equilibrium_reaction_energy_per_atom": null, "decomposes_to": null, "xas": null, "grain_boundaries": null, "band_gap": 0.0, "cbm": null, "vbm": null, "efermi": 5.9263447, "is_gap_direct": null, "is_metal": null, "es_source_calc_id": null, "bandstructure": null, "dos": null, "dos_energy_up": null, "dos_energy_down": null, "is_magnetic": null, "ordering": null, "total_magnetization": 0.002072999999999, "total_magnetization_normalized_vol": null, "total_magnetization_normalized_formula_units": null, "num_magnetic_sites": null, "num_unique_magnetic_sites": null, "types_of_magnetic_species": null, "bulk_modulus": null, "shear_modulus": null, "universal_anisotropy": null, "homogeneous_poisson": null, "e_total": null, "e_ionic": null, "e_electronic": null, "n": null, "e_ij_max": null, "weighted_surface_energy_EV_PER_ANG2": null, "weighted_surface_energy": null, "weighted_work_function": null, "surface_anisotropy": null, "shape_factor": null, "has_reconstructed": null, "possible_species": null, "has_props": null, "theoretical": null, "database_IDs": null, "fields_not_requested": ["builder_meta", "nsites", "elements", "nelements", "composition", "composition_reduced", "chemsys", "symmetry", "property_name", "deprecated", "deprecation_reasons", "last_updated", "origins", "warnings", "task_ids", "uncorrected_energy_per_atom", "equilibrium_reaction_energy_per_atom", "decomposes_to", "xas", "grain_boundaries", "cbm", "vbm", "is_gap_direct", "is_metal", "es_source_calc_id", "bandstructure", "dos", "dos_energy_up", "dos_energy_down", "is_magnetic", "ordering", "total_magnetization_normalized_vol", "total_magnetization_normalized_formula_units", "num_magnetic_sites", "num_unique_magnetic_sites", "types_of_magnetic_species", "bulk_modulus", "shear_modulus", "universal_anisotropy", "homogeneous_poisson", "e_total", "e_ionic", "e_electronic", "n", "e_ij_max", "weighted_surface_energy_EV_PER_ANG2", "weighted_surface_energy", "weighted_work_function", "surface_anisotropy", "shape_factor", "has_reconstructed", "possible_species", "has_props", "theoretical", "database_IDs"]}