{
  "builder_meta": null,
  "nsites": null,
  "elements": null,
  "nelements": null,
  "composition": null,
  "composition_reduced": null,
  "formula_pretty": "Ta7Fe6",
  "formula_anonymous": "A6B7",
  "chemsys": null,
  "volume": 190.4808703777867,
  "density": 13.963050389678232,
  "density_atomic": 14.65237464444513,
  "symmetry": null,
  "property_name": null,
  "material_id": "mp-1103826",
  "deprecated": null,
  "deprecation_reasons": null,
  "last_updated": null,
  "origins": null,
  "warnings": null,
  "structure": {
    "@module": "pymatgen.core.structure",
    "@class": "Structure",
    "charge": 0,
    "lattice": {
      "matrix": [
        [-2.4693300000000002, -4.277004, 0.0],
        [-4.9386589999999995, 0.0, 0.0],
        [-2.4693300000000002, -1.425668, -9.017843]
      ],
      "pbc": [true, true, true],
      "a": 4.938659116087686,
      "b": 4.9386589999999995,
      "c": 9.457886247347924,
      "alpha": 74.86543654717171,
      "beta": 74.86543747169362,
      "gamma": 59.99999407944865,
      "volume": 190.48087037778666
    },
    "properties": {},
    "sites": [
      {
        "species": [{ "element": "Ta", "occu": 1 }],
        "abc": [0.0, 0.0, 0.0],
        "properties": { "magmom": -0.179 },
        "label": "Ta",
        "xyz": [0.0, 0.0, 0.0]
      },
      {
        "species": [{ "element": "Ta", "occu": 1 }],
        "abc": [0.833125999999999, 0.833125999999999, 0.500621],
        "properties": { "magmom": -0.084 },
        "label": "Ta",
        "xyz": [-7.4079866975439925, -4.277002574331996, -4.514521580503]
      },
      {
        "species": [{ "element": "Ta", "occu": 1 }],
        "abc": [0.166874, 0.166874, 0.499378999999999],
        "properties": { "magmom": -0.084 },
        "label": "Ta",
        "xyz": [-2.4693323024559977, -1.4256694256679985, -4.503321419496991]
      },
      {
        "species": [{ "element": "Ta", "occu": 1 }],
        "abc": [0.652413999999999, 0.652413999999999, 0.042759],
        "properties": { "magmom": -0.013000000000000001 },
        "label": "Ta",
        "xyz": [-4.938661816915993, -2.851337425667996, -0.38559394883699993]
      },
      {
        "species": [{ "element": "Ta", "occu": 1 }],
        "abc": [0.347586, 0.347586, 0.957241],
        "properties": { "magmom": -0.013000000000000001 },
        "label": "Ta",
        "xyz": [-4.9386571830840005, -2.851334574332, -8.632249051162999]
      },
      {
        "species": [{ "element": "Ta", "occu": 1 }],
        "abc": [0.549092999999999, 0.549092999999999, 0.352721],
        "properties": { "magmom": -0.137 },
        "label": "Ta",
        "xyz": [-4.938659450906993, -2.851335999999996, -3.1807826008029996]
      },
      {
        "species": [{ "element": "Ta", "occu": 1 }],
        "abc": [0.450907, 0.450907, 0.647278999999999],
        "properties": { "magmom": -0.137 },
        "label": "Ta",
        "xyz": [-4.938659549092997, -2.8513359999999985, -5.837060399196991]
      },
      {
        "species": [{ "element": "Fe", "occu": 1 }],
        "abc": [0.908127999999999, 0.908127999999999, 0.765776999999999],
        "properties": { "magmom": 1.379 },
        "label": "Fe",
        "xyz": [-8.618358354001991, -4.975810852547994, -6.9056567590109905]
      },
      {
        "species": [{ "element": "Fe", "occu": 1 }],
        "abc": [0.417966, 0.908127999999999, 0.765776999999999],
        "properties": { "magmom": 1.379 },
        "label": "Fe",
        "xyz": [-7.407986622541992, -2.8793860178999986, -6.9056567590109905]
      },
      {
        "species": [{ "element": "Fe", "occu": 1 }],
        "abc": [0.908127999999999, 0.417966, 0.765776999999999],
        "properties": { "magmom": 1.379 },
        "label": "Fe",
        "xyz": [-6.197615381243995, -4.975810852547994, -6.9056567590109905]
      },
      {
        "species": [{ "element": "Fe", "occu": 1 }],
        "abc": [0.091872, 0.091872, 0.234223],
        "properties": { "magmom": 1.379 },
        "label": "Fe",
        "xyz": [-1.258960645998, -0.7268611474519999, -2.1121862409889998]
      },
      {
        "species": [{ "element": "Fe", "occu": 1 }],
        "abc": [0.582033999999999, 0.091872, 0.234223],
        "properties": { "magmom": 1.379 },
        "label": "Fe",
        "xyz": [-2.469332377457998, -2.823285982099996, -2.1121862409889998]
      },
      {
        "species": [{ "element": "Fe", "occu": 1 }],
        "abc": [0.091872, 0.582033999999999, 0.234223],
        "properties": { "magmom": 1.379 },
        "label": "Fe",
        "xyz": [-3.679703618755995, -0.7268611474519999, -2.1121862409889998]
      }
    ]
  },
  "task_ids": null,
  "uncorrected_energy_per_atom": null,
  "energy_per_atom": -10.476867466923077,
  "formation_energy_per_atom": -0.177742847025639,
  "energy_above_hull": 0.0,
  "is_stable": true,
  "equilibrium_reaction_energy_per_atom": null,
  "decomposes_to": null,
  "xas": null,
  "grain_boundaries": null,
  "band_gap": 0.0,
  "cbm": null,
  "vbm": null,
  "efermi": 5.81945407,
  "is_gap_direct": null,
  "is_metal": null,
  "es_source_calc_id": null,
  "bandstructure": null,
  "dos": null,
  "dos_energy_up": null,
  "dos_energy_down": null,
  "is_magnetic": null,
  "ordering": null,
  "total_magnetization": 7.3425323,
  "total_magnetization_normalized_vol": null,
  "total_magnetization_normalized_formula_units": null,
  "num_magnetic_sites": null,
  "num_unique_magnetic_sites": null,
  "types_of_magnetic_species": null,
  "bulk_modulus": null,
  "shear_modulus": null,
  "universal_anisotropy": null,
  "homogeneous_poisson": null,
  "e_total": null,
  "e_ionic": null,
  "e_electronic": null,
  "n": null,
  "e_ij_max": null,
  "weighted_surface_energy_EV_PER_ANG2": null,
  "weighted_surface_energy": null,
  "weighted_work_function": null,
  "surface_anisotropy": null,
  "shape_factor": null,
  "has_reconstructed": null,
  "possible_species": null,
  "has_props": null,
  "theoretical": null,
  "database_IDs": null,
  "fields_not_requested": [
    "builder_meta",
    "nsites",
    "elements",
    "nelements",
    "composition",
    "composition_reduced",
    "chemsys",
    "symmetry",
    "property_name",
    "deprecated",
    "deprecation_reasons",
    "last_updated",
    "origins",
    "warnings",
    "task_ids",
    "uncorrected_energy_per_atom",
    "equilibrium_reaction_energy_per_atom",
    "decomposes_to",
    "xas",
    "grain_boundaries",
    "cbm",
    "vbm",
    "is_gap_direct",
    "is_metal",
    "es_source_calc_id",
    "bandstructure",
    "dos",
    "dos_energy_up",
    "dos_energy_down",
    "is_magnetic",
    "ordering",
    "total_magnetization_normalized_vol",
    "total_magnetization_normalized_formula_units",
    "num_magnetic_sites",
    "num_unique_magnetic_sites",
    "types_of_magnetic_species",
    "bulk_modulus",
    "shear_modulus",
    "universal_anisotropy",
    "homogeneous_poisson",
    "e_total",
    "e_ionic",
    "e_electronic",
    "n",
    "e_ij_max",
    "weighted_surface_energy_EV_PER_ANG2",
    "weighted_surface_energy",
    "weighted_work_function",
    "surface_anisotropy",
    "shape_factor",
    "has_reconstructed",
    "possible_species",
    "has_props",
    "theoretical",
    "database_IDs"
  ]
}
