{
  "builder_meta": null,
  "nsites": null,
  "elements": null,
  "nelements": null,
  "composition": null,
  "composition_reduced": null,
  "formula_pretty": "TaAs2",
  "formula_anonymous": "AB2",
  "chemsys": null,
  "volume": 108.44605450043026,
  "density": 10.130225829850296,
  "density_atomic": 18.07434241673838,
  "symmetry": null,
  "property_name": null,
  "material_id": "mp-12561",
  "deprecated": null,
  "deprecation_reasons": null,
  "last_updated": null,
  "origins": null,
  "warnings": null,
  "structure": {
    "@module": "pymatgen.core.structure",
    "@class": "Structure",
    "charge": 0,
    "lattice": {
      "matrix": [
        [3.3182388, -0.00093718, 0.82767234],
        [1.52177008, 4.6493633899999995, 0.95946221],
        [0.00973474, -0.010439760000000001, 7.02978566]
      ],
      "pbc": [true, true, true],
      "a": 3.419905132387866,
      "b": 4.985271491210241,
      "c": 7.029800152158905,
      "alpha": 78.95985869521152,
      "beta": 75.91508262412874,
      "gamma": 69.97065394243121,
      "volume": 108.44605450043024
    },
    "properties": {},
    "sites": [
      {
        "species": [{ "element": "Ta", "occu": 1 }],
        "abc": [0.1573347, 0.88133865, 0.80383671],
        "properties": { "magmom": -0.0 },
        "label": "Ta",
        "xyz": [1.8710940354182573, 4.089124340236287, 6.626632485139194]
      },
      {
        "species": [{ "element": "Ta", "occu": 1 }],
        "abc": [0.8426653, 0.11866135, 0.19616329000000002],
        "properties": { "magmom": -0.0 },
        "label": "Ta",
        "xyz": [2.978649584581743, 0.5488621097637121, 2.190287724860807]
      },
      {
        "species": [{ "element": "As", "occu": 1 }],
        "abc": [0.85963079, 0.7518240900000001, 0.52783753],
        "properties": { "magmom": 0.0 },
        "label": "As",
        "xyz": [4.001702007754671, 3.4891872738500997, 5.143424129621807]
      },
      {
        "species": [{ "element": "As", "occu": 1 }],
        "abc": [0.14036921, 0.24817591, 0.47216247],
        "properties": { "magmom": 0.0 },
        "label": "As",
        "xyz": [0.8480416122453286, 1.1487991761498997, 3.6734960803781926]
      },
      {
        "species": [{ "element": "As", "occu": 1 }],
        "abc": [0.40614563000000004, 0.29476358, 0.89408287],
        "properties": { "magmom": -0.0 },
        "label": "As",
        "xyz": [1.8049542489120343, 1.3607483554129016, 6.90418095823483]
      },
      {
        "species": [{ "element": "As", "occu": 1 }],
        "abc": [0.59385437, 0.70523642, 0.10591713],
        "properties": { "magmom": -0.0 },
        "label": "As",
        "xyz": [3.044789371087966, 3.2772380945870982, 1.9127392517651698]
      }
    ]
  },
  "task_ids": null,
  "uncorrected_energy_per_atom": null,
  "energy_per_atom": -26.534199060000002,
  "formation_energy_per_atom": -0.531900830777781,
  "energy_above_hull": 0.0,
  "is_stable": true,
  "equilibrium_reaction_energy_per_atom": null,
  "decomposes_to": null,
  "xas": null,
  "grain_boundaries": null,
  "band_gap": 0.013399999999999001,
  "cbm": null,
  "vbm": null,
  "efermi": 6.17619941,
  "is_gap_direct": null,
  "is_metal": null,
  "es_source_calc_id": null,
  "bandstructure": null,
  "dos": null,
  "dos_energy_up": null,
  "dos_energy_down": null,
  "is_magnetic": null,
  "ordering": null,
  "total_magnetization": 0.0,
  "total_magnetization_normalized_vol": null,
  "total_magnetization_normalized_formula_units": null,
  "num_magnetic_sites": null,
  "num_unique_magnetic_sites": null,
  "types_of_magnetic_species": null,
  "bulk_modulus": null,
  "shear_modulus": null,
  "universal_anisotropy": null,
  "homogeneous_poisson": null,
  "e_total": null,
  "e_ionic": null,
  "e_electronic": null,
  "n": null,
  "e_ij_max": null,
  "weighted_surface_energy_EV_PER_ANG2": null,
  "weighted_surface_energy": null,
  "weighted_work_function": null,
  "surface_anisotropy": null,
  "shape_factor": null,
  "has_reconstructed": null,
  "possible_species": null,
  "has_props": null,
  "theoretical": null,
  "database_IDs": null,
  "fields_not_requested": [
    "builder_meta",
    "nsites",
    "elements",
    "nelements",
    "composition",
    "composition_reduced",
    "chemsys",
    "symmetry",
    "property_name",
    "deprecated",
    "deprecation_reasons",
    "last_updated",
    "origins",
    "warnings",
    "task_ids",
    "uncorrected_energy_per_atom",
    "equilibrium_reaction_energy_per_atom",
    "decomposes_to",
    "xas",
    "grain_boundaries",
    "cbm",
    "vbm",
    "is_gap_direct",
    "is_metal",
    "es_source_calc_id",
    "bandstructure",
    "dos",
    "dos_energy_up",
    "dos_energy_down",
    "is_magnetic",
    "ordering",
    "total_magnetization_normalized_vol",
    "total_magnetization_normalized_formula_units",
    "num_magnetic_sites",
    "num_unique_magnetic_sites",
    "types_of_magnetic_species",
    "bulk_modulus",
    "shear_modulus",
    "universal_anisotropy",
    "homogeneous_poisson",
    "e_total",
    "e_ionic",
    "e_electronic",
    "n",
    "e_ij_max",
    "weighted_surface_energy_EV_PER_ANG2",
    "weighted_surface_energy",
    "weighted_work_function",
    "surface_anisotropy",
    "shape_factor",
    "has_reconstructed",
    "possible_species",
    "has_props",
    "theoretical",
    "database_IDs"
  ]
}
