{"builder_meta": null, "nsites": null, "elements": null, "nelements": null, "composition": null, "composition_reduced": null, "formula_pretty": "TaBe2", "formula_anonymous": "AB2", "chemsys": null, "volume": 69.02866224423686, "density": 9.572869402047619, "density_atomic": 11.504777040706143, "symmetry": null, "property_name": null, "material_id": "mp-2676", "deprecated": null, "deprecation_reasons": null, "last_updated": null, "origins": null, "warnings": null, "structure": {"@module": "pymatgen.core.structure", "@class": "Structure", "charge": 0, "lattice": {"matrix": [[3.98760462, -1e-08, 2.30224429], [1.32920086, 3.75955004, 2.30224429], [-0.0, -0.0, 4.6044896]], "pbc": [true, true, true], "a": 4.604489046168201, "b": 4.604489135650811, "c": 4.6044896, "alpha": 60.000003991926135, "beta": 60.00000334906209, "gamma": 60.00001145444304, "volume": 69.02866224423686}, "properties": {}, "sites": [{"species": [{"element": "Ta", "occu": 1}], "abc": [0.875, 0.875, 0.875], "properties": {"magmom": 0.0}, "label": "Ta", "xyz": [4.652204795, 3.2896062762500002, 8.057855907499999]}, {"species": [{"element": "Ta", "occu": 1}], "abc": [0.125, 0.125, 0.125], "properties": {"magmom": 0.0}, "label": "Ta", "xyz": [0.664600685, 0.46994375375, 1.1511222724999999]}, {"species": [{"element": "Be", "occu": 1}], "abc": [0.5, 0.5, 0.5], "properties": {"magmom": -0.0}, "label": "Be", "xyz": [2.65840274, 1.879775015, 4.6044890899999995]}, {"species": [{"element": "Be", "occu": 1}], "abc": [0.5, 0.5, -0.0], "properties": {"magmom": -0.0}, "label": "Be", "xyz": [2.65840274, 1.879775015, 2.30224429]}, {"species": [{"element": "Be", "occu": 1}], "abc": [0.0, 0.5, 0.5], "properties": {"magmom": -0.0}, "label": "Be", "xyz": [0.66460043, 1.87977502, 3.453366945]}, {"species": [{"element": "Be", "occu": 1}], "abc": [0.5, -0.0, 0.5], "properties": {"magmom": -0.0}, "label": "Be", "xyz": [1.99380231, -5e-09, 3.453366945]}]}, "task_ids": null, "uncorrected_energy_per_atom": null, "energy_per_atom": -6.634425328333333, "formation_energy_per_atom": -0.185840904111111, "energy_above_hull": 0.035414196428571, "is_stable": false, "equilibrium_reaction_energy_per_atom": null, "decomposes_to": null, "xas": null, "grain_boundaries": null, "band_gap": 0.0, "cbm": null, "vbm": null, "efermi": 4.46407521, "is_gap_direct": null, "is_metal": null, "es_source_calc_id": null, "bandstructure": null, "dos": null, "dos_energy_up": null, "dos_energy_down": null, "is_magnetic": null, "ordering": null, "total_magnetization": 0.0, "total_magnetization_normalized_vol": null, "total_magnetization_normalized_formula_units": null, "num_magnetic_sites": null, "num_unique_magnetic_sites": null, "types_of_magnetic_species": null, "bulk_modulus": null, "shear_modulus": null, "universal_anisotropy": null, "homogeneous_poisson": null, "e_total": null, "e_ionic": null, "e_electronic": null, "n": null, "e_ij_max": null, "weighted_surface_energy_EV_PER_ANG2": null, "weighted_surface_energy": null, "weighted_work_function": null, "surface_anisotropy": null, "shape_factor": null, "has_reconstructed": null, "possible_species": null, "has_props": null, "theoretical": null, "database_IDs": null, "fields_not_requested": ["builder_meta", "nsites", "elements", "nelements", "composition", "composition_reduced", "chemsys", "symmetry", "property_name", "deprecated", "deprecation_reasons", "last_updated", "origins", "warnings", "task_ids", "uncorrected_energy_per_atom", "equilibrium_reaction_energy_per_atom", "decomposes_to", "xas", "grain_boundaries", "cbm", "vbm", "is_gap_direct", "is_metal", "es_source_calc_id", "bandstructure", "dos", "dos_energy_up", "dos_energy_down", "is_magnetic", "ordering", "total_magnetization_normalized_vol", "total_magnetization_normalized_formula_units", "num_magnetic_sites", "num_unique_magnetic_sites", "types_of_magnetic_species", "bulk_modulus", "shear_modulus", "universal_anisotropy", "homogeneous_poisson", "e_total", "e_ionic", "e_electronic", "n", "e_ij_max", "weighted_surface_energy_EV_PER_ANG2", "weighted_surface_energy", "weighted_work_function", "surface_anisotropy", "shape_factor", "has_reconstructed", "possible_species", "has_props", "theoretical", "database_IDs"]}