{
  "builder_meta": null,
  "nsites": null,
  "elements": null,
  "nelements": null,
  "composition": null,
  "composition_reduced": null,
  "formula_pretty": "TaBe3",
  "formula_anonymous": "AB3",
  "chemsys": null,
  "volume": 124.89790464134929,
  "density": 8.29556586099135,
  "density_atomic": 10.408158720112441,
  "symmetry": null,
  "property_name": null,
  "material_id": "mp-1102049",
  "deprecated": null,
  "deprecation_reasons": null,
  "last_updated": null,
  "origins": null,
  "warnings": null,
  "structure": {
    "@module": "pymatgen.core.structure",
    "@class": "Structure",
    "charge": 0,
    "lattice": {
      "matrix": [
        [-2.27486035, -3.94017173, 0.0],
        [2.27486035, -3.94017173, 0.0],
        [0.0, -2.6267811500000002, 6.96715167]
      ],
      "pbc": [true, true, true],
      "a": 4.549718988453387,
      "b": 4.549718988453387,
      "c": 7.445883534059549,
      "alpha": 72.21060885641342,
      "beta": 72.21060885641342,
      "gamma": 60.0000248883546,
      "volume": 124.89790464134929
    },
    "properties": {},
    "sites": [
      {
        "species": [{ "element": "Ta", "occu": 1 }],
        "abc": [0.14009633, 0.14009633, 0.579715],
        "properties": { "magmom": -0.0 },
        "label": "Ta",
        "xyz": [0.0, -2.626791632257752, 4.03896233037405]
      },
      {
        "species": [{ "element": "Ta", "occu": 1 }],
        "abc": [0.85990367, 0.85990367, 0.420284999999999],
        "properties": { "magmom": -0.0 },
        "label": "Ta",
        "xyz": [0.0, -7.8803329777422455, 2.928189339625943]
      },
      {
        "species": [{ "element": "Ta", "occu": 1 }],
        "abc": [0.0, -0.0, -0.0],
        "properties": { "magmom": -0.0 },
        "label": "Ta",
        "xyz": [0.0, 0.0, 0.0]
      },
      {
        "species": [{ "element": "Be", "occu": 1 }],
        "abc": [0.07546352, 0.58382722, 0.75688004],
        "properties": { "magmom": 0.0 },
        "label": "Be",
        "xyz": [1.156456424509295, -4.585876957482026, 5.273298034675666]
      },
      {
        "species": [{ "element": "Be", "occu": 1 }],
        "abc": [0.58382722, 0.58382722, 0.75688004],
        "properties": { "magmom": 0.0 },
        "label": "Be",
        "xyz": [0.0, -6.588917236780227, 5.273298034675666]
      },
      {
        "species": [{ "element": "Be", "occu": 1 }],
        "abc": [0.58382722, 0.07546352, 0.75688004],
        "properties": { "magmom": 0.0 },
        "label": "Be",
        "xyz": [-1.156456424509295, -4.585876957482026, 5.273298034675666]
      },
      {
        "species": [{ "element": "Be", "occu": 1 }],
        "abc": [0.92453648, 0.41617278, 0.24311996],
        "properties": { "magmom": 0.0 },
        "label": "Be",
        "xyz": [-1.1564564245092948, -5.921247652517973, 1.6938536353243332]
      },
      {
        "species": [{ "element": "Be", "occu": 1 }],
        "abc": [0.41617278, 0.41617278, 0.24311996],
        "properties": { "magmom": 0.0 },
        "label": "Be",
        "xyz": [0.0, -3.9182073732197726, 1.6938536353243332]
      },
      {
        "species": [{ "element": "Be", "occu": 1 }],
        "abc": [0.41617278, 0.92453648, 0.24311996],
        "properties": { "magmom": 0.0 },
        "label": "Be",
        "xyz": [1.1564564245092948, -5.921247652517973, 1.6938536353243332]
      },
      {
        "species": [{ "element": "Be", "occu": 1 }],
        "abc": [0.33442467, 0.33442467, 0.99672399],
        "properties": { "magmom": 0.0 },
        "label": "Be",
        "xyz": [0.0, -5.253557049781946, 6.944327211457563]
      },
      {
        "species": [{ "element": "Be", "occu": 1 }],
        "abc": [0.66557533, 0.66557533, 0.00327601],
        "properties": { "magmom": 0.0 },
        "label": "Be",
        "xyz": [0.0, -5.253567560218054, 0.022824458542436702]
      },
      {
        "species": [{ "element": "Be", "occu": 1 }],
        "abc": [0.5, 0.5, 0.5],
        "properties": { "magmom": 0.0 },
        "label": "Be",
        "xyz": [0.0, -5.253562305, 3.483575835]
      }
    ]
  },
  "task_ids": null,
  "uncorrected_energy_per_atom": null,
  "energy_per_atom": -6.007540742499999,
  "formation_energy_per_atom": -0.23624920808333202,
  "energy_above_hull": 0.0,
  "is_stable": true,
  "equilibrium_reaction_energy_per_atom": null,
  "decomposes_to": null,
  "xas": null,
  "grain_boundaries": null,
  "band_gap": 0.0,
  "cbm": null,
  "vbm": null,
  "efermi": 4.32187473,
  "is_gap_direct": null,
  "is_metal": null,
  "es_source_calc_id": null,
  "bandstructure": null,
  "dos": null,
  "dos_energy_up": null,
  "dos_energy_down": null,
  "is_magnetic": null,
  "ordering": null,
  "total_magnetization": 0.0,
  "total_magnetization_normalized_vol": null,
  "total_magnetization_normalized_formula_units": null,
  "num_magnetic_sites": null,
  "num_unique_magnetic_sites": null,
  "types_of_magnetic_species": null,
  "bulk_modulus": null,
  "shear_modulus": null,
  "universal_anisotropy": null,
  "homogeneous_poisson": null,
  "e_total": null,
  "e_ionic": null,
  "e_electronic": null,
  "n": null,
  "e_ij_max": null,
  "weighted_surface_energy_EV_PER_ANG2": null,
  "weighted_surface_energy": null,
  "weighted_work_function": null,
  "surface_anisotropy": null,
  "shape_factor": null,
  "has_reconstructed": null,
  "possible_species": null,
  "has_props": null,
  "theoretical": null,
  "database_IDs": null,
  "fields_not_requested": [
    "builder_meta",
    "nsites",
    "elements",
    "nelements",
    "composition",
    "composition_reduced",
    "chemsys",
    "symmetry",
    "property_name",
    "deprecated",
    "deprecation_reasons",
    "last_updated",
    "origins",
    "warnings",
    "task_ids",
    "uncorrected_energy_per_atom",
    "equilibrium_reaction_energy_per_atom",
    "decomposes_to",
    "xas",
    "grain_boundaries",
    "cbm",
    "vbm",
    "is_gap_direct",
    "is_metal",
    "es_source_calc_id",
    "bandstructure",
    "dos",
    "dos_energy_up",
    "dos_energy_down",
    "is_magnetic",
    "ordering",
    "total_magnetization_normalized_vol",
    "total_magnetization_normalized_formula_units",
    "num_magnetic_sites",
    "num_unique_magnetic_sites",
    "types_of_magnetic_species",
    "bulk_modulus",
    "shear_modulus",
    "universal_anisotropy",
    "homogeneous_poisson",
    "e_total",
    "e_ionic",
    "e_electronic",
    "n",
    "e_ij_max",
    "weighted_surface_energy_EV_PER_ANG2",
    "weighted_surface_energy",
    "weighted_work_function",
    "surface_anisotropy",
    "shape_factor",
    "has_reconstructed",
    "possible_species",
    "has_props",
    "theoretical",
    "database_IDs"
  ]
}
