{
  "builder_meta": null,
  "nsites": null,
  "elements": null,
  "nelements": null,
  "composition": null,
  "composition_reduced": null,
  "formula_pretty": "TaBr5",
  "formula_anonymous": "AB5",
  "chemsys": null,
  "volume": 1611.2908590761622,
  "density": 4.785676459179465,
  "density_atomic": 33.56855956408671,
  "symmetry": null,
  "property_name": null,
  "material_id": "mp-568846",
  "deprecated": null,
  "deprecation_reasons": null,
  "last_updated": null,
  "origins": null,
  "warnings": null,
  "structure": {
    "@module": "pymatgen.core.structure",
    "@class": "Structure",
    "charge": 0,
    "lattice": {
      "matrix": [
        [6.33747618, -0.0, 0.0],
        [-0.0, 13.31327513, 0.0],
        [0.0, 0.0, 19.09733191]
      ],
      "pbc": [true, true, true],
      "a": 6.33747618,
      "b": 13.31327513,
      "c": 19.09733191,
      "alpha": 90.0,
      "beta": 90.0,
      "gamma": 90.0,
      "volume": 1611.2908590761622
    },
    "properties": {},
    "sites": [
      {
        "species": [{ "element": "Ta", "occu": 1 }],
        "abc": [0.99296191, 0.12483863, 0.14055669],
        "properties": { "magmom": 0.0 },
        "label": "Ta",
        "xyz": [6.292872452272304, 1.662011028042272, 2.6842577611009784]
      },
      {
        "species": [{ "element": "Ta", "occu": 1 }],
        "abc": [0.99296191, 0.12483863, 0.35944331],
        "properties": { "magmom": 0.0 },
        "label": "Ta",
        "xyz": [6.292872452272304, 1.662011028042272, 6.864408193899023]
      },
      {
        "species": [{ "element": "Ta", "occu": 1 }],
        "abc": [0.50703809, 0.62483763, 0.14055669],
        "properties": { "magmom": 0.0 },
        "label": "Ta",
        "xyz": [3.2133418177276964, 8.318635279767141, 2.6842577611009784]
      },
      {
        "species": [{ "element": "Ta", "occu": 1 }],
        "abc": [0.49296191, 0.37516137, 0.8594433100000001],
        "properties": { "magmom": 0.0 },
        "label": "Ta",
        "xyz": [3.124134362272304, 4.994626536957727, 16.413074148899025]
      },
      {
        "species": [{ "element": "Ta", "occu": 1 }],
        "abc": [0.49296191, 0.37516137, 0.64055669],
        "properties": { "magmom": 0.0 },
        "label": "Ta",
        "xyz": [3.124134362272304, 4.994626536957727, 12.232923716100979]
      },
      {
        "species": [{ "element": "Ta", "occu": 1 }],
        "abc": [0.50703809, 0.62483763, 0.35944331],
        "properties": { "magmom": 0.0 },
        "label": "Ta",
        "xyz": [3.2133418177276964, 8.318635279767141, 6.864408193899023]
      },
      {
        "species": [{ "element": "Ta", "occu": 1 }],
        "abc": [0.00703809, 0.87516237, 0.64055669],
        "properties": { "magmom": 0.0 },
        "label": "Ta",
        "xyz": [0.044603727727696205, 11.651277415232856, 12.232923716100979]
      },
      {
        "species": [{ "element": "Ta", "occu": 1 }],
        "abc": [0.00703809, 0.87516237, 0.8594433100000001],
        "properties": { "magmom": 0.0 },
        "label": "Ta",
        "xyz": [0.044603727727696205, 11.651277415232856, 16.413074148899025]
      },
      {
        "species": [{ "element": "Br", "occu": 1 }],
        "abc": [0.23332749, 0.72448567, 0.8479510100000001],
        "properties": { "magmom": 0.0 },
        "label": "Br",
        "xyz": [1.4787074100141884, 9.645277052452386, 16.193601881389732]
      },
      {
        "species": [{ "element": "Br", "occu": 1 }],
        "abc": [0.23223607000000002, 0.20712908, 0.43999548],
        "properties": { "magmom": -0.0 },
        "label": "Br",
        "xyz": [1.4717905617618128, 2.7575664294637803, 8.402739720459767]
      },
      {
        "species": [{ "element": "Br", "occu": 1 }],
        "abc": [0.7470319400000001, 0.54244212, 0.43955641],
        "properties": { "magmom": 0.0 },
        "label": "Br",
        "xyz": [4.7342971254491895, 7.221681185660476, 8.394354654938043]
      },
      {
        "species": [{ "element": "Br", "occu": 1 }],
        "abc": [0.71574837, 0.29933637, 0.75],
        "properties": { "magmom": 0.0 },
        "label": "Br",
        "xyz": [4.536038245748827, 3.9851474502254782, 14.322998932500001]
      },
      {
        "species": [{ "element": "Br", "occu": 1 }],
        "abc": [0.77922609, 0.0255327, 0.84811413],
        "properties": { "magmom": 0.0 },
        "label": "Br",
        "xyz": [4.938326784209536, 0.33992385991175095, 16.19671703817089]
      },
      {
        "species": [{ "element": "Br", "occu": 1 }],
        "abc": [0.73332749, 0.77551433, 0.34795101],
        "properties": { "magmom": 0.0 },
        "label": "Br",
        "xyz": [4.6474455000141885, 10.324635642547612, 6.64493592638973]
      },
      {
        "species": [{ "element": "Br", "occu": 1 }],
        "abc": [0.22869653, 0.95145341, 0.75],
        "properties": { "magmom": -0.0 },
        "label": "Br",
        "xyz": [1.4493588113236555, 12.666961020706694, 14.322998932500001]
      },
      {
        "species": [{ "element": "Br", "occu": 1 }],
        "abc": [0.21574837, 0.20066363, 0.25],
        "properties": { "magmom": 0.0 },
        "label": "Br",
        "xyz": [1.3673001557488267, 2.671490114774522, 4.7743329775]
      },
      {
        "species": [{ "element": "Br", "occu": 1 }],
        "abc": [0.26667251000000003, 0.22448567, 0.8479510100000001],
        "properties": { "magmom": 0.0 },
        "label": "Br",
        "xyz": [1.690030679985812, 2.988639487452387, 16.193601881389732]
      },
      {
        "species": [{ "element": "Br", "occu": 1 }],
        "abc": [0.23223607000000002, 0.20712908, 0.06000452],
        "properties": { "magmom": -0.0 },
        "label": "Br",
        "xyz": [1.4717905617618128, 2.7575664294637803, 1.1459262345402332]
      },
      {
        "species": [{ "element": "Br", "occu": 1 }],
        "abc": [0.22077391000000002, 0.974467299999999, 0.15188587],
        "properties": { "magmom": 0.0 },
        "label": "Br",
        "xyz": [1.399149395790464, 12.973351270088235, 2.900614871829112]
      },
      {
        "species": [{ "element": "Br", "occu": 1 }],
        "abc": [0.24703194, 0.95755788, 0.56044359],
        "properties": { "magmom": 0.0 },
        "label": "Br",
        "xyz": [1.5655590354491893, 12.748231509339524, 10.702977255061958]
      },
      {
        "species": [{ "element": "Br", "occu": 1 }],
        "abc": [0.73223607, 0.29287092, 0.93999548],
        "properties": { "magmom": -0.0 },
        "label": "Br",
        "xyz": [4.640528651761813, 3.899071135536219, 17.951405675459768]
      },
      {
        "species": [{ "element": "Br", "occu": 1 }],
        "abc": [0.25296806, 0.45755788000000003, 0.56044359],
        "properties": { "magmom": 0.0 },
        "label": "Br",
        "xyz": [1.603179054550811, 6.091593944339524, 10.702977255061958]
      },
      {
        "species": [{ "element": "Br", "occu": 1 }],
        "abc": [0.26776393, 0.70712908, 0.06000452],
        "properties": { "magmom": -0.0 },
        "label": "Br",
        "xyz": [1.6969475282381874, 9.41420399446378, 1.1459262345402332]
      },
      {
        "species": [{ "element": "Br", "occu": 1 }],
        "abc": [0.73223607, 0.29287092, 0.56000452],
        "properties": { "magmom": -0.0 },
        "label": "Br",
        "xyz": [4.640528651761813, 3.899071135536219, 10.694592189540234]
      },
      {
        "species": [{ "element": "Br", "occu": 1 }],
        "abc": [0.72077391, 0.5255327, 0.84811413],
        "properties": { "magmom": 0.0 },
        "label": "Br",
        "xyz": [4.5678874857904646, 6.99656142491175, 16.19671703817089]
      },
      {
        "species": [{ "element": "Br", "occu": 1 }],
        "abc": [0.76776393, 0.79287092, 0.93999548],
        "properties": { "magmom": -0.0 },
        "label": "Br",
        "xyz": [4.865685618238188, 10.55570870053622, 17.951405675459768]
      },
      {
        "species": [{ "element": "Br", "occu": 1 }],
        "abc": [0.72077391, 0.5255327, 0.65188587],
        "properties": { "magmom": 0.0 },
        "label": "Br",
        "xyz": [4.5678874857904646, 6.99656142491175, 12.449280826829112]
      },
      {
        "species": [{ "element": "Br", "occu": 1 }],
        "abc": [0.7470319400000001, 0.54244212, 0.06044359],
        "properties": { "magmom": 0.0 },
        "label": "Br",
        "xyz": [4.7342971254491895, 7.221681185660476, 1.154311300061957]
      },
      {
        "species": [{ "element": "Br", "occu": 1 }],
        "abc": [0.28425163000000003, 0.70066363, 0.25],
        "properties": { "magmom": 0.0 },
        "label": "Br",
        "xyz": [1.8014379342511737, 9.328127679774521, 4.7743329775]
      },
      {
        "species": [{ "element": "Br", "occu": 1 }],
        "abc": [0.76776393, 0.79287092, 0.56000452],
        "properties": { "magmom": -0.0 },
        "label": "Br",
        "xyz": [4.865685618238188, 10.55570870053622, 10.694592189540234]
      },
      {
        "species": [{ "element": "Br", "occu": 1 }],
        "abc": [0.75296806, 0.04244212, 0.43955641],
        "properties": { "magmom": 0.0 },
        "label": "Br",
        "xyz": [4.7719171445508115, 0.5650436206604755, 8.394354654938043]
      },
      {
        "species": [{ "element": "Br", "occu": 1 }],
        "abc": [0.78425163, 0.79933637, 0.75],
        "properties": { "magmom": 0.0 },
        "label": "Br",
        "xyz": [4.970176024251174, 10.641785015225478, 14.322998932500001]
      },
      {
        "species": [{ "element": "Br", "occu": 1 }],
        "abc": [0.25296806, 0.45755788000000003, 0.93955641],
        "properties": { "magmom": 0.0 },
        "label": "Br",
        "xyz": [1.603179054550811, 6.091593944339524, 17.943020609938046]
      },
      {
        "species": [{ "element": "Br", "occu": 1 }],
        "abc": [0.73332749, 0.77551433, 0.15204899],
        "properties": { "magmom": 0.0 },
        "label": "Br",
        "xyz": [4.6474455000141885, 10.324635642547612, 2.903730028610271]
      },
      {
        "species": [{ "element": "Br", "occu": 1 }],
        "abc": [0.75296806, 0.04244212, 0.06044359],
        "properties": { "magmom": 0.0 },
        "label": "Br",
        "xyz": [4.7719171445508115, 0.5650436206604755, 1.154311300061957]
      },
      {
        "species": [{ "element": "Br", "occu": 1 }],
        "abc": [0.27922609, 0.4744673, 0.15188587],
        "properties": { "magmom": 0.0 },
        "label": "Br",
        "xyz": [1.7695886942095362, 6.316713705088248, 2.900614871829112]
      },
      {
        "species": [{ "element": "Br", "occu": 1 }],
        "abc": [0.76667251, 0.27551433000000003, 0.34795101],
        "properties": { "magmom": 0.0 },
        "label": "Br",
        "xyz": [4.858768769985812, 3.667998077547613, 6.64493592638973]
      },
      {
        "species": [{ "element": "Br", "occu": 1 }],
        "abc": [0.24703194, 0.95755788, 0.93955641],
        "properties": { "magmom": 0.0 },
        "label": "Br",
        "xyz": [1.5655590354491893, 12.748231509339524, 17.943020609938046]
      },
      {
        "species": [{ "element": "Br", "occu": 1 }],
        "abc": [0.27130347, 0.45145341, 0.75],
        "properties": { "magmom": -0.0 },
        "label": "Br",
        "xyz": [1.7193792786763447, 6.010323455706693, 14.322998932500001]
      },
      {
        "species": [{ "element": "Br", "occu": 1 }],
        "abc": [0.72869653, 0.5485465900000001, 0.25],
        "properties": { "magmom": -0.0 },
        "label": "Br",
        "xyz": [4.618096901323656, 7.302951674293307, 4.7743329775]
      },
      {
        "species": [{ "element": "Br", "occu": 1 }],
        "abc": [0.26667251000000003, 0.22448567, 0.65204899],
        "properties": { "magmom": 0.0 },
        "label": "Br",
        "xyz": [1.690030679985812, 2.988639487452387, 12.452395983610273]
      },
      {
        "species": [{ "element": "Br", "occu": 1 }],
        "abc": [0.22077391000000002, 0.974467299999999, 0.34811413],
        "properties": { "magmom": 0.0 },
        "label": "Br",
        "xyz": [1.399149395790464, 12.973351270088235, 6.648051083170889]
      },
      {
        "species": [{ "element": "Br", "occu": 1 }],
        "abc": [0.77922609, 0.0255327, 0.65188587],
        "properties": { "magmom": 0.0 },
        "label": "Br",
        "xyz": [4.938326784209536, 0.33992385991175095, 12.449280826829112]
      },
      {
        "species": [{ "element": "Br", "occu": 1 }],
        "abc": [0.27922609, 0.4744673, 0.34811413],
        "properties": { "magmom": 0.0 },
        "label": "Br",
        "xyz": [1.7695886942095362, 6.316713705088248, 6.648051083170889]
      },
      {
        "species": [{ "element": "Br", "occu": 1 }],
        "abc": [0.77130347, 0.04854659, 0.25],
        "properties": { "magmom": -0.0 },
        "label": "Br",
        "xyz": [4.888117368676345, 0.6463141092933067, 4.7743329775]
      },
      {
        "species": [{ "element": "Br", "occu": 1 }],
        "abc": [0.76667251, 0.27551433000000003, 0.15204899],
        "properties": { "magmom": 0.0 },
        "label": "Br",
        "xyz": [4.858768769985812, 3.667998077547613, 2.903730028610271]
      },
      {
        "species": [{ "element": "Br", "occu": 1 }],
        "abc": [0.26776393, 0.70712908, 0.43999548],
        "properties": { "magmom": -0.0 },
        "label": "Br",
        "xyz": [1.6969475282381874, 9.41420399446378, 8.402739720459767]
      },
      {
        "species": [{ "element": "Br", "occu": 1 }],
        "abc": [0.23332749, 0.72448567, 0.65204899],
        "properties": { "magmom": 0.0 },
        "label": "Br",
        "xyz": [1.4787074100141884, 9.645277052452386, 12.452395983610273]
      }
    ]
  },
  "task_ids": null,
  "uncorrected_energy_per_atom": null,
  "energy_per_atom": -4.728633343125,
  "formation_energy_per_atom": -1.386689973513888,
  "energy_above_hull": 0.0,
  "is_stable": true,
  "equilibrium_reaction_energy_per_atom": null,
  "decomposes_to": null,
  "xas": null,
  "grain_boundaries": null,
  "band_gap": 2.0361,
  "cbm": null,
  "vbm": null,
  "efermi": -0.47161876,
  "is_gap_direct": null,
  "is_metal": null,
  "es_source_calc_id": null,
  "bandstructure": null,
  "dos": null,
  "dos_energy_up": null,
  "dos_energy_down": null,
  "is_magnetic": null,
  "ordering": null,
  "total_magnetization": 0.0,
  "total_magnetization_normalized_vol": null,
  "total_magnetization_normalized_formula_units": null,
  "num_magnetic_sites": null,
  "num_unique_magnetic_sites": null,
  "types_of_magnetic_species": null,
  "bulk_modulus": null,
  "shear_modulus": null,
  "universal_anisotropy": null,
  "homogeneous_poisson": null,
  "e_total": null,
  "e_ionic": null,
  "e_electronic": null,
  "n": null,
  "e_ij_max": null,
  "weighted_surface_energy_EV_PER_ANG2": null,
  "weighted_surface_energy": null,
  "weighted_work_function": null,
  "surface_anisotropy": null,
  "shape_factor": null,
  "has_reconstructed": null,
  "possible_species": null,
  "has_props": null,
  "theoretical": null,
  "database_IDs": null,
  "fields_not_requested": [
    "builder_meta",
    "nsites",
    "elements",
    "nelements",
    "composition",
    "composition_reduced",
    "chemsys",
    "symmetry",
    "property_name",
    "deprecated",
    "deprecation_reasons",
    "last_updated",
    "origins",
    "warnings",
    "task_ids",
    "uncorrected_energy_per_atom",
    "equilibrium_reaction_energy_per_atom",
    "decomposes_to",
    "xas",
    "grain_boundaries",
    "cbm",
    "vbm",
    "is_gap_direct",
    "is_metal",
    "es_source_calc_id",
    "bandstructure",
    "dos",
    "dos_energy_up",
    "dos_energy_down",
    "is_magnetic",
    "ordering",
    "total_magnetization_normalized_vol",
    "total_magnetization_normalized_formula_units",
    "num_magnetic_sites",
    "num_unique_magnetic_sites",
    "types_of_magnetic_species",
    "bulk_modulus",
    "shear_modulus",
    "universal_anisotropy",
    "homogeneous_poisson",
    "e_total",
    "e_ionic",
    "e_electronic",
    "n",
    "e_ij_max",
    "weighted_surface_energy_EV_PER_ANG2",
    "weighted_surface_energy",
    "weighted_work_function",
    "surface_anisotropy",
    "shape_factor",
    "has_reconstructed",
    "possible_species",
    "has_props",
    "theoretical",
    "database_IDs"
  ]
}
