{"builder_meta": null, "nsites": null, "elements": null, "nelements": null, "composition": null, "composition_reduced": null, "formula_pretty": "TaCl4", "formula_anonymous": "AB4", "chemsys": null, "volume": 261.12955796013097, "density": 4.104900219322986, "density_atomic": 26.112955796013097, "symmetry": null, "property_name": null, "material_id": "mp-29465", "deprecated": null, "deprecation_reasons": null, "last_updated": null, "origins": null, "warnings": null, "structure": {"@module": "pymatgen.core.structure", "@class": "Structure", "charge": 0, "lattice": {"matrix": [[5.93966721, 0.0, 3.28672422], [2.6731584, 6.08675834, 2.17950506], [-0.09308709, 0.06304914, 7.17858198]], "pbc": [true, true, true], "a": 6.788387338969676, "b": 6.996044970382603, "c": 7.179462350619309, "alpha": 71.68856056448804, "beta": 61.78609957002005, "gamma": 60.97711181452408, "volume": 261.129557960131}, "properties": {}, "sites": [{"species": [{"element": "Ta", "occu": 1}], "abc": [0.28174836000000003, 0.0, 0.0], "properties": {"magmom": 0.0}, "label": "Ta", "xyz": [1.6734914953632758, 0.0, 0.9260291587572793]}, {"species": [{"element": "Ta", "occu": 1}], "abc": [0.71825164, -0.0, -0.0], "properties": {"magmom": 0.0}, "label": "Ta", "xyz": [4.266175714636724, 0.0, 2.360695061242721]}, {"species": [{"element": "Cl", "occu": 1}], "abc": [0.23406949999999901, 0.74663424, 0.29657977], "properties": {"magmom": 0.0}, "label": "Cl", "xyz": [3.358558776652536, 4.56328128668946, 4.525637191417086]}, {"species": [{"element": "Cl", "occu": 1}], "abc": [0.27728351, 0.25336576, 0.70342023], "properties": {"magmom": 0.0}, "label": "Cl", "xyz": [2.25877923957926, 1.5865261933105408, 6.513126171519813]}, {"species": [{"element": "Cl", "occu": 1}], "abc": [0.82145576, 0.20259069000000002, 0.1544988], "properties": {"magmom": -0.0}, "label": "Cl", "xyz": [5.4063490031724335, 1.2428615884348868, 4.250528277626023]}, {"species": [{"element": "Cl", "occu": 1}], "abc": [0.17854424, 0.79740931, 0.8455012], "properties": {"magmom": -0.0}, "label": "Cl", "xyz": [3.1133895168275663, 4.906945891565114, 8.394282982373976]}, {"species": [{"element": "Cl", "occu": 1}], "abc": [0.70644366, 0.7655955600000001, 0.82151713], "properties": {"magmom": -0.0}, "label": "Cl", "xyz": [6.16612580621424, 4.711791108438739, 9.887832950000297]}, {"species": [{"element": "Cl", "occu": 1}], "abc": [0.29355634, 0.23440444, 0.17848287000000002], "properties": {"magmom": -0.0}, "label": "Cl", "xyz": [2.3536127137857594, 1.4380163715612615, 2.756978309999704]}, {"species": [{"element": "Cl", "occu": 1}], "abc": [0.72271649, 0.74663424, 0.29657977], "properties": {"magmom": 0.0}, "label": "Cl", "xyz": [6.26095928042074, 4.56328128668946, 6.131685088480187]}, {"species": [{"element": "Cl", "occu": 1}], "abc": [0.7659305, 0.25336576, 0.70342023], "properties": {"magmom": 0.0}, "label": "Cl", "xyz": [5.161179743347458, 1.5865261933105408, 8.119174068582911]}]}, "task_ids": null, "uncorrected_energy_per_atom": null, "energy_per_atom": -5.644236834, "formation_energy_per_atom": -1.792021997466666, "energy_above_hull": 0.025107994299999003, "is_stable": false, "equilibrium_reaction_energy_per_atom": null, "decomposes_to": null, "xas": null, "grain_boundaries": null, "band_gap": 1.2245, "cbm": null, "vbm": null, "efermi": 0.56969197, "is_gap_direct": null, "is_metal": null, "es_source_calc_id": null, "bandstructure": null, "dos": null, "dos_energy_up": null, "dos_energy_down": null, "is_magnetic": null, "ordering": null, "total_magnetization": 0.0, "total_magnetization_normalized_vol": null, "total_magnetization_normalized_formula_units": null, "num_magnetic_sites": null, "num_unique_magnetic_sites": null, "types_of_magnetic_species": null, "bulk_modulus": null, "shear_modulus": null, "universal_anisotropy": null, "homogeneous_poisson": null, "e_total": null, "e_ionic": null, "e_electronic": null, "n": null, "e_ij_max": null, "weighted_surface_energy_EV_PER_ANG2": null, "weighted_surface_energy": null, "weighted_work_function": null, "surface_anisotropy": null, "shape_factor": null, "has_reconstructed": null, "possible_species": null, "has_props": null, "theoretical": null, "database_IDs": null, "fields_not_requested": ["builder_meta", "nsites", "elements", "nelements", "composition", "composition_reduced", "chemsys", "symmetry", "property_name", "deprecated", "deprecation_reasons", "last_updated", "origins", "warnings", "task_ids", "uncorrected_energy_per_atom", "equilibrium_reaction_energy_per_atom", "decomposes_to", "xas", "grain_boundaries", "cbm", "vbm", "is_gap_direct", "is_metal", "es_source_calc_id", "bandstructure", "dos", "dos_energy_up", "dos_energy_down", "is_magnetic", "ordering", "total_magnetization_normalized_vol", "total_magnetization_normalized_formula_units", "num_magnetic_sites", "num_unique_magnetic_sites", "types_of_magnetic_species", "bulk_modulus", "shear_modulus", "universal_anisotropy", "homogeneous_poisson", "e_total", "e_ionic", "e_electronic", "n", "e_ij_max", "weighted_surface_energy_EV_PER_ANG2", "weighted_surface_energy", "weighted_work_function", "surface_anisotropy", "shape_factor", "has_reconstructed", "possible_species", "has_props", "theoretical", "database_IDs"]}