{"builder_meta": null, "nsites": null, "elements": null, "nelements": null, "composition": null, "composition_reduced": null, "formula_pretty": "TaCl3", "formula_anonymous": "AB3", "chemsys": null, "volume": 2029.2722608648553, "density": 2.821214132043354, "density_atomic": 42.27650543468449, "symmetry": null, "property_name": null, "material_id": "mp-727406", "deprecated": null, "deprecation_reasons": null, "last_updated": null, "origins": null, "warnings": null, "structure": {"@module": "pymatgen.core.structure", "@class": "Structure", "charge": 0, "lattice": {"matrix": [[0.0, 10.048551, 10.048551], [10.048551, 0.0, 10.048551], [10.048551, 10.048551, 0.0]], "pbc": [true, true, true], "a": 14.210797106397726, "b": 14.210797106397726, "c": 14.210797106397726, "alpha": 59.99999999999999, "beta": 59.99999999999999, "gamma": 59.99999999999999, "volume": 2029.2722608648553}, "properties": {}, "sites": [{"species": [{"element": "Ta", "occu": 1}], "abc": [0.60884, 0.60884, 0.39116], "properties": {"magmom": 0.159}, "label": "Ta", "xyz": [10.048551, 10.048551, 12.235919581680001]}, {"species": [{"element": "Ta", "occu": 1}], "abc": [0.39116, 0.39116, 0.60884], "properties": {"magmom": 0.16}, "label": "Ta", "xyz": [10.048551, 10.048551, 7.86118241832]}, {"species": [{"element": "Ta", "occu": 1}], "abc": [0.60884, 0.39116, 0.60884], "properties": {"magmom": 0.15}, "label": "Ta", "xyz": [10.048551, 12.235919581680001, 10.048551]}, {"species": [{"element": "Ta", "occu": 1}], "abc": [0.39116, 0.60884, 0.39116], "properties": {"magmom": 0.152}, "label": "Ta", "xyz": [10.048551, 7.86118241832, 10.048551]}, {"species": [{"element": "Ta", "occu": 1}], "abc": [0.39116, 0.60884, 0.60884], "properties": {"magmom": 0.152}, "label": "Ta", "xyz": [12.235919581680001, 10.048551, 10.048551]}, {"species": [{"element": "Ta", "occu": 1}], "abc": [0.60884, 0.39116, 0.39116], "properties": {"magmom": 0.151}, "label": "Ta", "xyz": [7.86118241832, 10.048551, 10.048551]}, {"species": [{"element": "Ta", "occu": 1}], "abc": [0.6411600000000001, 0.6411600000000001, 0.85884], "properties": {"magmom": 0.159}, "label": "Ta", "xyz": [15.0728265, 15.0728265, 12.88545791832]}, {"species": [{"element": "Ta", "occu": 1}], "abc": [0.85884, 0.85884, 0.6411600000000001], "properties": {"magmom": 0.16}, "label": "Ta", "xyz": [15.0728265, 15.0728265, 17.26019508168]}, {"species": [{"element": "Ta", "occu": 1}], "abc": [0.6411600000000001, 0.85884, 0.6411600000000001], "properties": {"magmom": 0.15}, "label": "Ta", "xyz": [15.0728265, 12.88545791832, 15.0728265]}, {"species": [{"element": "Ta", "occu": 1}], "abc": [0.85884, 0.6411600000000001, 0.85884], "properties": {"magmom": 0.152}, "label": "Ta", "xyz": [15.0728265, 17.26019508168, 15.0728265]}, {"species": [{"element": "Ta", "occu": 1}], "abc": [0.85884, 0.6411600000000001, 0.6411600000000001], "properties": {"magmom": 0.152}, "label": "Ta", "xyz": [12.88545791832, 15.0728265, 15.0728265]}, {"species": [{"element": "Ta", "occu": 1}], "abc": [0.6411600000000001, 0.85884, 0.85884], "properties": {"magmom": 0.151}, "label": "Ta", "xyz": [17.26019508168, 15.0728265, 15.0728265]}, {"species": [{"element": "Cl", "occu": 1}], "abc": [0.7281500000000001, 0.7281500000000001, 0.27185000000000004], "properties": {"magmom": 0.061}, "label": "Cl", "xyz": [10.048551000000002, 10.048551000000002, 14.633704821300002]}, {"species": [{"element": "Cl", "occu": 1}], "abc": [0.27185000000000004, 0.27185000000000004, 0.7281500000000001], "properties": {"magmom": 0.059000000000000004}, "label": "Cl", "xyz": [10.048551000000002, 10.048551000000002, 5.4633971787]}, {"species": [{"element": "Cl", "occu": 1}], "abc": [0.7281500000000001, 0.27185000000000004, 0.7281500000000001], "properties": {"magmom": 0.056}, "label": "Cl", "xyz": [10.048551000000002, 14.633704821300002, 10.048551000000002]}, {"species": [{"element": "Cl", "occu": 1}], "abc": [0.27185000000000004, 0.7281500000000001, 0.27185000000000004], "properties": {"magmom": 0.055}, "label": "Cl", "xyz": [10.048551000000002, 5.4633971787, 10.048551000000002]}, {"species": [{"element": "Cl", "occu": 1}], "abc": [0.27185000000000004, 0.7281500000000001, 0.7281500000000001], "properties": {"magmom": 0.055}, "label": "Cl", "xyz": [14.633704821300002, 10.048551000000002, 10.048551000000002]}, {"species": [{"element": "Cl", "occu": 1}], "abc": [0.7281500000000001, 0.27185000000000004, 0.27185000000000004], "properties": {"magmom": 0.056}, "label": "Cl", "xyz": [5.4633971787, 10.048551000000002, 10.048551000000002]}, {"species": [{"element": "Cl", "occu": 1}], "abc": [0.52185, 0.52185, 0.9781500000000001], "properties": {"magmom": 0.061}, "label": "Cl", "xyz": [15.072826500000001, 15.072826500000001, 10.487672678700001]}, {"species": [{"element": "Cl", "occu": 1}], "abc": [0.9781500000000001, 0.9781500000000001, 0.52185], "properties": {"magmom": 0.059000000000000004}, "label": "Cl", "xyz": [15.072826500000001, 15.072826500000001, 19.657980321300002]}, {"species": [{"element": "Cl", "occu": 1}], "abc": [0.52185, 0.9781500000000001, 0.52185], "properties": {"magmom": 0.056}, "label": "Cl", "xyz": [15.072826500000001, 10.487672678700001, 15.072826500000001]}, {"species": [{"element": "Cl", "occu": 1}], "abc": [0.9781500000000001, 0.52185, 0.9781500000000001], "properties": {"magmom": 0.055}, "label": "Cl", "xyz": [15.072826500000001, 19.657980321300002, 15.072826500000001]}, {"species": [{"element": "Cl", "occu": 1}], "abc": [0.9781500000000001, 0.52185, 0.52185], "properties": {"magmom": 0.055}, "label": "Cl", "xyz": [10.487672678700001, 15.072826500000001, 15.072826500000001]}, {"species": [{"element": "Cl", "occu": 1}], "abc": [0.52185, 0.9781500000000001, 0.9781500000000001], "properties": {"magmom": 0.056}, "label": "Cl", "xyz": [19.657980321300002, 15.072826500000001, 15.072826500000001]}, {"species": [{"element": "Cl", "occu": 1}], "abc": [0.742342, 0.258613, 0.499523], "properties": {"magmom": 0.006}, "label": "Cl", "xyz": [7.618168260936, 12.478943787614998, 10.058147366204999]}, {"species": [{"element": "Cl", "occu": 1}], "abc": [0.258613, 0.742342, 0.499523], "properties": {"magmom": 0.006}, "label": "Cl", "xyz": [12.478943787614998, 7.618168260936, 10.058147366204999]}, {"species": [{"element": "Cl", "occu": 1}], "abc": [0.499523, 0.499523, 0.742342], "properties": {"magmom": 0.006}, "label": "Cl", "xyz": [12.478943787614998, 12.478943787614998, 10.038964682346]}, {"species": [{"element": "Cl", "occu": 1}], "abc": [0.499523, 0.499523, 0.258613], "properties": {"magmom": 0.006}, "label": "Cl", "xyz": [7.618168260936, 7.618168260936, 10.038964682346]}, {"species": [{"element": "Cl", "occu": 1}], "abc": [0.258613, 0.499523, 0.742342], "properties": {"magmom": 0.006}, "label": "Cl", "xyz": [12.478943787614998, 10.058147366204999, 7.618168260936]}, {"species": [{"element": "Cl", "occu": 1}], "abc": [0.742342, 0.499523, 0.258613], "properties": {"magmom": 0.007}, "label": "Cl", "xyz": [7.618168260936, 10.058147366204999, 12.478943787614998]}, {"species": [{"element": "Cl", "occu": 1}], "abc": [0.499523, 0.742342, 0.499523], "properties": {"magmom": 0.006}, "label": "Cl", "xyz": [12.478943787614998, 10.038964682346, 12.478943787614998]}, {"species": [{"element": "Cl", "occu": 1}], "abc": [0.499523, 0.258613, 0.499523], "properties": {"magmom": 0.006}, "label": "Cl", "xyz": [7.618168260936, 10.038964682346, 7.618168260936]}, {"species": [{"element": "Cl", "occu": 1}], "abc": [0.499523, 0.742342, 0.258613], "properties": {"magmom": 0.006}, "label": "Cl", "xyz": [10.058147366204999, 7.618168260936, 12.478943787614998]}, {"species": [{"element": "Cl", "occu": 1}], "abc": [0.499523, 0.258613, 0.742342], "properties": {"magmom": 0.006}, "label": "Cl", "xyz": [10.058147366204999, 12.478943787614998, 7.618168260936]}, {"species": [{"element": "Cl", "occu": 1}], "abc": [0.742342, 0.499523, 0.499523], "properties": {"magmom": 0.007}, "label": "Cl", "xyz": [10.038964682346, 12.478943787614998, 12.478943787614998]}, {"species": [{"element": "Cl", "occu": 1}], "abc": [0.258613, 0.499523, 0.499523], "properties": {"magmom": 0.006}, "label": "Cl", "xyz": [10.038964682346, 7.618168260936, 7.618168260936]}, {"species": [{"element": "Cl", "occu": 1}], "abc": [0.507657999999999, 0.9913869999999991, 0.750477], "properties": {"magmom": 0.006}, "label": "Cl", "xyz": [17.50320923906399, 12.642433712384989, 15.063230133794981]}, {"species": [{"element": "Cl", "occu": 1}], "abc": [0.9913869999999991, 0.507657999999999, 0.750477], "properties": {"magmom": 0.006}, "label": "Cl", "xyz": [12.642433712384989, 17.50320923906399, 15.063230133794981]}, {"species": [{"element": "Cl", "occu": 1}], "abc": [0.750477, 0.750477, 0.507657999999999], "properties": {"magmom": 0.006}, "label": "Cl", "xyz": [12.642433712384989, 12.642433712384989, 15.082412817654]}, {"species": [{"element": "Cl", "occu": 1}], "abc": [0.750477, 0.750477, 0.9913869999999991], "properties": {"magmom": 0.006}, "label": "Cl", "xyz": [17.50320923906399, 17.50320923906399, 15.082412817654]}, {"species": [{"element": "Cl", "occu": 1}], "abc": [0.9913869999999991, 0.750477, 0.507657999999999], "properties": {"magmom": 0.006}, "label": "Cl", "xyz": [12.642433712384989, 15.063230133794981, 17.50320923906399]}, {"species": [{"element": "Cl", "occu": 1}], "abc": [0.507657999999999, 0.750477, 0.9913869999999991], "properties": {"magmom": 0.007}, "label": "Cl", "xyz": [17.50320923906399, 15.063230133794981, 12.642433712384989]}, {"species": [{"element": "Cl", "occu": 1}], "abc": [0.750477, 0.507657999999999, 0.750477], "properties": {"magmom": 0.006}, "label": "Cl", "xyz": [12.642433712384989, 15.082412817654, 12.642433712384989]}, {"species": [{"element": "Cl", "occu": 1}], "abc": [0.750477, 0.9913869999999991, 0.750477], "properties": {"magmom": 0.006}, "label": "Cl", "xyz": [17.50320923906399, 15.082412817654, 17.50320923906399]}, {"species": [{"element": "Cl", "occu": 1}], "abc": [0.750477, 0.507657999999999, 0.9913869999999991], "properties": {"magmom": 0.006}, "label": "Cl", "xyz": [15.063230133794981, 17.50320923906399, 12.642433712384989]}, {"species": [{"element": "Cl", "occu": 1}], "abc": [0.750477, 0.9913869999999991, 0.507657999999999], "properties": {"magmom": 0.006}, "label": "Cl", "xyz": [15.063230133794981, 12.642433712384989, 17.50320923906399]}, {"species": [{"element": "Cl", "occu": 1}], "abc": [0.507657999999999, 0.750477, 0.750477], "properties": {"magmom": 0.007}, "label": "Cl", "xyz": [15.082412817654, 12.642433712384989, 12.642433712384989]}, {"species": [{"element": "Cl", "occu": 1}], "abc": [0.9913869999999991, 0.750477, 0.750477], "properties": {"magmom": 0.006}, "label": "Cl", "xyz": [15.082412817654, 17.50320923906399, 17.50320923906399]}]}, "task_ids": null, "uncorrected_energy_per_atom": null, "energy_per_atom": -5.990710608333333, "formation_energy_per_atom": -1.637576227666665, "energy_above_hull": 0.12349492741666701, "is_stable": false, "equilibrium_reaction_energy_per_atom": null, "decomposes_to": null, "xas": null, "grain_boundaries": null, "band_gap": 0.0, "cbm": null, "vbm": null, "efermi": -1.58275008, "is_gap_direct": null, "is_metal": null, "es_source_calc_id": null, "bandstructure": null, "dos": null, "dos_energy_up": null, "dos_energy_down": null, "is_magnetic": null, "ordering": null, "total_magnetization": 4.0561204, "total_magnetization_normalized_vol": null, "total_magnetization_normalized_formula_units": null, "num_magnetic_sites": null, "num_unique_magnetic_sites": null, "types_of_magnetic_species": null, "bulk_modulus": null, "shear_modulus": null, "universal_anisotropy": null, "homogeneous_poisson": null, "e_total": null, "e_ionic": null, "e_electronic": null, "n": null, "e_ij_max": null, "weighted_surface_energy_EV_PER_ANG2": null, "weighted_surface_energy": null, "weighted_work_function": null, "surface_anisotropy": null, "shape_factor": null, "has_reconstructed": null, "possible_species": null, "has_props": null, "theoretical": null, "database_IDs": null, "fields_not_requested": ["builder_meta", "nsites", "elements", "nelements", "composition", "composition_reduced", "chemsys", "symmetry", "property_name", "deprecated", "deprecation_reasons", "last_updated", "origins", "warnings", "task_ids", "uncorrected_energy_per_atom", "equilibrium_reaction_energy_per_atom", "decomposes_to", "xas", "grain_boundaries", "cbm", "vbm", "is_gap_direct", "is_metal", "es_source_calc_id", "bandstructure", "dos", "dos_energy_up", "dos_energy_down", "is_magnetic", "ordering", "total_magnetization_normalized_vol", "total_magnetization_normalized_formula_units", "num_magnetic_sites", "num_unique_magnetic_sites", "types_of_magnetic_species", "bulk_modulus", "shear_modulus", "universal_anisotropy", "homogeneous_poisson", "e_total", "e_ionic", "e_electronic", "n", "e_ij_max", "weighted_surface_energy_EV_PER_ANG2", "weighted_surface_energy", "weighted_work_function", "surface_anisotropy", "shape_factor", "has_reconstructed", "possible_species", "has_props", "theoretical", "database_IDs"]}