{
  "builder_meta": null,
  "nsites": null,
  "elements": null,
  "nelements": null,
  "composition": null,
  "composition_reduced": null,
  "formula_pretty": "TaCo",
  "formula_anonymous": "AB",
  "chemsys": null,
  "volume": 358.54275970257396,
  "density": 14.442669703265478,
  "density_atomic": 13.79010614240669,
  "symmetry": null,
  "property_name": null,
  "material_id": "mp-1218179",
  "deprecated": null,
  "deprecation_reasons": null,
  "last_updated": null,
  "origins": null,
  "warnings": null,
  "structure": {
    "@module": "pymatgen.core.structure",
    "@class": "Structure",
    "charge": 0,
    "lattice": {
      "matrix": [
        [-2.44735005, -4.23894124, 4.42e-6],
        [4.89494357, -0.0001422, -0.00018231],
        [2.44684134, -1.41270562, 17.27927713]
      ],
      "pbc": [true, true, true],
      "a": 4.89470582399262,
      "b": 4.894943575460509,
      "c": 17.508746038687455,
      "alpha": 81.96863070717457,
      "beta": 89.99988286062934,
      "gamma": 119.99829683050592,
      "volume": 358.5427597025739
    },
    "properties": {},
    "sites": [
      {
        "species": [{ "element": "Ta", "occu": 1 }],
        "abc": [0.17328526, 0.34656847, 0.48020317],
        "properties": { "magmom": -0.009000000000000001 },
        "label": "Ta",
        "xyz": [2.447324382021023, -1.4129810339353719, 8.297501236157586]
      },
      {
        "species": [{ "element": "Ta", "occu": 1 }],
        "abc": [0.67118718, 0.34237447, 0.98627012],
        "properties": { "magmom": -0.021 },
        "label": "Ta",
        "xyz": [2.44652023394906, -4.238481044073012, 17.041975276876066]
      },
      {
        "species": [{ "element": "Ta", "occu": 1 }],
        "abc": [0.32881282, 0.65762553, 0.01372988],
        "properties": { "magmom": -0.021 },
        "label": "Ta",
        "xyz": [2.4479146260509403, -1.4133080159269884, 0.23712396312393452]
      },
      {
        "species": [{ "element": "Ta", "occu": 1 }],
        "abc": [0.82671474, 0.65343153, 0.51979683],
        "properties": { "magmom": -0.009000000000000001 },
        "label": "Ta",
        "xyz": [2.4471104779789776, -4.238808026064628, 8.981598003842414]
      },
      {
        "species": [{ "element": "Ta", "occu": 1 }],
        "abc": [0.22588978, 0.45177604, 0.3228078],
        "properties": { "magmom": 0.001 },
        "label": "Ta",
        "xyz": [2.448446327615026, -1.4136301399292512, 5.57780407106859]
      },
      {
        "species": [{ "element": "Ta", "occu": 1 }],
        "abc": [0.72391787, 0.44783647, 0.82834598],
        "properties": { "magmom": -0.08700000000000001 },
        "label": "Ta",
        "xyz": [2.447285001584418, -4.2389180171124, 14.313141302591578]
      },
      {
        "species": [{ "element": "Ta", "occu": 1 }],
        "abc": [0.27608213, 0.55216353, 0.17165402],
        "properties": { "magmom": -0.08700000000000001 },
        "label": "Ta",
        "xyz": [2.447149858415582, -1.4128710428875995, 2.965957937408423]
      },
      {
        "species": [{ "element": "Ta", "occu": 1 }],
        "abc": [0.7741102200000001, 0.54822496, 0.6771922],
        "properties": { "magmom": 0.001 },
        "label": "Ta",
        "xyz": [2.4459934273285437, -4.238158920212949, 11.701295168749102]
      },
      {
        "species": [{ "element": "Ta", "occu": 1 }],
        "abc": [0.58354857, 0.16710516, 0.24934799],
        "properties": { "magmom": 0.013000000000000001 },
        "label": "Ta",
        "xyz": [-6.232353320068107e-5, -2.8259071680784826, 4.308525135361428]
      },
      {
        "species": [{ "element": "Ta", "occu": 1 }],
        "abc": [0.08229482, 0.16460068, 0.75313926],
        "properties": { "magmom": -0.053 },
        "label": "Ta",
        "xyz": [2.447119084486895, -1.412830377797714, 13.013672346416257]
      },
      {
        "species": [{ "element": "Ta", "occu": 1 }],
        "abc": [0.91770518, 0.8353993200000001, 0.24686074],
        "properties": { "magmom": -0.053 },
        "label": "Ta",
        "xyz": [2.447315775513105, -4.238958682202286, 4.265426893583743]
      },
      {
        "species": [{ "element": "Ta", "occu": 1 }],
        "abc": [0.41645143, 0.83289484, 0.75065201],
        "properties": { "magmom": 0.013000000000000001 },
        "label": "Ta",
        "xyz": [4.894497183533201, -2.825881891921518, 12.970574104638573]
      },
      {
        "species": [{ "element": "Ta", "occu": 1 }],
        "abc": [0.5, -0.0, 0.5],
        "properties": { "magmom": 0.008 },
        "label": "Ta",
        "xyz": [-0.00025435499999981737, -2.82582343, 8.639640775]
      },
      {
        "species": [{ "element": "Co", "occu": 1 }],
        "abc": [0.79725667, 0.09016103, 0.11261292],
        "properties": { "magmom": 0.34700000000000003 },
        "label": "Co",
        "xyz": [-1.2342870490501432, -3.5386259031951472, 1.9458569397156218]
      },
      {
        "species": [{ "element": "Co", "occu": 1 }],
        "abc": [0.28941672, 0.09156497, 0.61851398],
        "properties": { "magmom": -0.007 },
        "label": "Co",
        "xyz": [1.2533069126078402, -2.1006116660868344, 10.6874590552115]
      },
      {
        "species": [{ "element": "Co", "occu": 1 }],
        "abc": [0.29291017, 0.09016045, 0.11261277],
        "properties": { "magmom": 0.34600000000000003 },
        "label": "Co",
        "xyz": [2.2176848709809516e-5, -1.4007305131071681, 1.945852118718262]
      },
      {
        "species": [{ "element": "Co", "occu": 1 }],
        "abc": [0.8021442400000001, 0.09156536, 0.61851349],
        "properties": { "magmom": -0.007 },
        "label": "Co",
        "xyz": [-0.0015160990247999884, -4.274032803327463, 10.687452854550243]
      },
      {
        "species": [{ "element": "Co", "occu": 1 }],
        "abc": [0.79725364, 0.5944999400000001, 0.11260398],
        "properties": { "magmom": 0.331 },
        "label": "Co",
        "xyz": [1.2344089962642375, -3.538672146607949, 1.945610516938005]
      },
      {
        "species": [{ "element": "Co", "occu": 1 }],
        "abc": [0.28937388, 0.57874699, 0.61851183],
        "properties": { "magmom": -0.039 },
        "label": "Co",
        "xyz": [3.6381349925937125, -2.100496309810274, 10.68733308642225]
      },
      {
        "species": [{ "element": "Co", "occu": 1 }],
        "abc": [0.71058328, 0.90843503, 0.38148602],
        "properties": { "magmom": -0.007 },
        "label": "Co",
        "xyz": [3.64112794739216, -3.551177393913166, 6.5916401847885]
      },
      {
        "species": [{ "element": "Co", "occu": 1 }],
        "abc": [0.20274333, 0.90983897, 0.88738708],
        "properties": { "magmom": 0.34700000000000003 },
        "label": "Co",
        "xyz": [6.128721909050144, -2.113163156804853, 15.333242300284379]
      },
      {
        "species": [{ "element": "Co", "occu": 1 }],
        "abc": [0.19785576, 0.9084346400000001, 0.38148651],
        "properties": { "magmom": -0.007 },
        "label": "Co",
        "xyz": [4.8959509590248, -1.3777562566725368, 6.591646385449757]
      },
      {
        "species": [{ "element": "Co", "occu": 1 }],
        "abc": [0.70708983, 0.90983955, 0.88738723],
        "properties": { "magmom": 0.34600000000000003 },
        "label": "Co",
        "xyz": [4.894412683151291, -4.251058546892832, 15.333247121281739]
      },
      {
        "species": [{ "element": "Co", "occu": 1 }],
        "abc": [0.71062612, 0.42125301, 0.38148817],
        "properties": { "magmom": -0.039 },
        "label": "Co",
        "xyz": [1.2562998674062875, -3.551292750189726, 6.59176615357775]
      },
      {
        "species": [{ "element": "Co", "occu": 1 }],
        "abc": [0.20274636000000001, 0.40550006, 0.8873960200000001],
        "properties": { "magmom": 0.331 },
        "label": "Co",
        "xyz": [3.660025863735763, -2.1131169133920507, 15.333488723061997]
      },
      {
        "species": [{ "element": "Co", "occu": 1 }],
        "abc": [-0.0, -0.0, -0.0],
        "properties": { "magmom": 1.748 },
        "label": "Co",
        "xyz": [0.0, 0.0, 0.0]
      }
    ]
  },
  "task_ids": null,
  "uncorrected_energy_per_atom": null,
  "energy_per_atom": -9.730920314999995,
  "formation_energy_per_atom": -0.23074818366666203,
  "energy_above_hull": 0.006195417666669,
  "is_stable": false,
  "equilibrium_reaction_energy_per_atom": null,
  "decomposes_to": null,
  "xas": null,
  "grain_boundaries": null,
  "band_gap": 0.0,
  "cbm": null,
  "vbm": null,
  "efermi": 5.80578288,
  "is_gap_direct": null,
  "is_metal": null,
  "es_source_calc_id": null,
  "bandstructure": null,
  "dos": null,
  "dos_energy_up": null,
  "dos_energy_down": null,
  "is_magnetic": null,
  "ordering": null,
  "total_magnetization": 3.1321671,
  "total_magnetization_normalized_vol": null,
  "total_magnetization_normalized_formula_units": null,
  "num_magnetic_sites": null,
  "num_unique_magnetic_sites": null,
  "types_of_magnetic_species": null,
  "bulk_modulus": null,
  "shear_modulus": null,
  "universal_anisotropy": null,
  "homogeneous_poisson": null,
  "e_total": null,
  "e_ionic": null,
  "e_electronic": null,
  "n": null,
  "e_ij_max": null,
  "weighted_surface_energy_EV_PER_ANG2": null,
  "weighted_surface_energy": null,
  "weighted_work_function": null,
  "surface_anisotropy": null,
  "shape_factor": null,
  "has_reconstructed": null,
  "possible_species": null,
  "has_props": null,
  "theoretical": null,
  "database_IDs": null,
  "fields_not_requested": [
    "builder_meta",
    "nsites",
    "elements",
    "nelements",
    "composition",
    "composition_reduced",
    "chemsys",
    "symmetry",
    "property_name",
    "deprecated",
    "deprecation_reasons",
    "last_updated",
    "origins",
    "warnings",
    "task_ids",
    "uncorrected_energy_per_atom",
    "equilibrium_reaction_energy_per_atom",
    "decomposes_to",
    "xas",
    "grain_boundaries",
    "cbm",
    "vbm",
    "is_gap_direct",
    "is_metal",
    "es_source_calc_id",
    "bandstructure",
    "dos",
    "dos_energy_up",
    "dos_energy_down",
    "is_magnetic",
    "ordering",
    "total_magnetization_normalized_vol",
    "total_magnetization_normalized_formula_units",
    "num_magnetic_sites",
    "num_unique_magnetic_sites",
    "types_of_magnetic_species",
    "bulk_modulus",
    "shear_modulus",
    "universal_anisotropy",
    "homogeneous_poisson",
    "e_total",
    "e_ionic",
    "e_electronic",
    "n",
    "e_ij_max",
    "weighted_surface_energy_EV_PER_ANG2",
    "weighted_surface_energy",
    "weighted_work_function",
    "surface_anisotropy",
    "shape_factor",
    "has_reconstructed",
    "possible_species",
    "has_props",
    "theoretical",
    "database_IDs"
  ]
}
