{"builder_meta": null, "nsites": null, "elements": null, "nelements": null, "composition": null, "composition_reduced": null, "formula_pretty": "TaCo2", "formula_anonymous": "AB2", "chemsys": null, "volume": 302.69075586319286, "density": 13.114183618262185, "density_atomic": 12.612114827633036, "symmetry": null, "property_name": null, "material_id": "mp-570463", "deprecated": null, "deprecation_reasons": null, "last_updated": null, "origins": null, "warnings": null, "structure": {"@module": "pymatgen.core.structure", "@class": "Structure", "charge": 0, "lattice": {"matrix": [[2.376202, -4.115702, 0.0], [2.376202, 4.115702, 0.0], [0.0, 0.0, 15.4754]], "pbc": [true, true, true], "a": 4.752403486406431, "b": 4.752403486406431, "c": 15.4754, "alpha": 90.0, "beta": 90.0, "gamma": 119.9999928501278, "volume": 302.69075586319286}, "properties": {}, "sites": [{"species": [{"element": "Ta", "occu": 1}], "abc": [0.333333, 0.666667, 0.844178], "properties": {"magmom": -0.0}, "label": "Ta", "xyz": [2.376202, 1.371903410468, 13.0639922212]}, {"species": [{"element": "Ta", "occu": 1}], "abc": [0.0, 0.0, 0.092365999999999], "properties": {"magmom": 0.0}, "label": "Ta", "xyz": [0.0, 0.0, 1.4294007963999846]}, {"species": [{"element": "Ta", "occu": 1}], "abc": [0.666667, 0.333333, 0.155822], "properties": {"magmom": -0.0}, "label": "Ta", "xyz": [2.376202, -1.371903410468, 2.4114077787999997]}, {"species": [{"element": "Ta", "occu": 1}], "abc": [0.0, 0.0, 0.907633999999999], "properties": {"magmom": 0.0}, "label": "Ta", "xyz": [0.0, 0.0, 14.045999203599985]}, {"species": [{"element": "Ta", "occu": 1}], "abc": [0.0, 0.0, 0.592366], "properties": {"magmom": 0.0}, "label": "Ta", "xyz": [0.0, 0.0, 9.1671007964]}, {"species": [{"element": "Ta", "occu": 1}], "abc": [0.0, 0.0, 0.407634], "properties": {"magmom": 0.0}, "label": "Ta", "xyz": [0.0, 0.0, 6.3082992036]}, {"species": [{"element": "Ta", "occu": 1}], "abc": [0.666667, 0.333333, 0.344178], "properties": {"magmom": -0.0}, "label": "Ta", "xyz": [2.376202, -1.371903410468, 5.3262922212]}, {"species": [{"element": "Ta", "occu": 1}], "abc": [0.333333, 0.666667, 0.655822], "properties": {"magmom": -0.0}, "label": "Ta", "xyz": [2.376202, 1.371903410468, 10.149107778800001]}, {"species": [{"element": "Co", "occu": 1}], "abc": [0.5, 0.0, 0.0], "properties": {"magmom": -0.024}, "label": "Co", "xyz": [1.188101, -2.057851, 0.0]}, {"species": [{"element": "Co", "occu": 1}], "abc": [0.834855999999999, 0.165143999999999, 0.75], "properties": {"magmom": 0.007}, "label": "Co", "xyz": [2.3762019999999957, -2.756335017824, 11.60655]}, {"species": [{"element": "Co", "occu": 1}], "abc": [0.666667, 0.333333, 0.874123], "properties": {"magmom": -0.006}, "label": "Co", "xyz": [2.376202, -1.371903410468, 13.5274030742]}, {"species": [{"element": "Co", "occu": 1}], "abc": [0.165143999999999, 0.330287999999999, 0.25], "properties": {"magmom": 0.006}, "label": "Co", "xyz": [1.1772465092639954, 0.6796834910880001, 3.86885]}, {"species": [{"element": "Co", "occu": 1}], "abc": [0.330287999999999, 0.165143999999999, 0.75], "properties": {"magmom": 0.005}, "label": "Co", "xyz": [1.1772465092639954, -0.6796834910880001, 11.60655]}, {"species": [{"element": "Co", "occu": 1}], "abc": [0.834855999999999, 0.669712, 0.75], "properties": {"magmom": 0.004}, "label": "Co", "xyz": [3.5751574907359975, -0.6796834910879963, 11.60655]}, {"species": [{"element": "Co", "occu": 1}], "abc": [0.0, 0.5, 0.0], "properties": {"magmom": -0.026000000000000002}, "label": "Co", "xyz": [1.188101, 2.057851, 0.0]}, {"species": [{"element": "Co", "occu": 1}], "abc": [0.669712, 0.834855999999999, 0.25], "properties": {"magmom": 0.007}, "label": "Co", "xyz": [3.5751574907359975, 0.6796834910879963, 3.86885]}, {"species": [{"element": "Co", "occu": 1}], "abc": [0.5, 0.0, 0.5], "properties": {"magmom": -0.024}, "label": "Co", "xyz": [1.188101, -2.057851, 7.7377]}, {"species": [{"element": "Co", "occu": 1}], "abc": [0.165143999999999, 0.834855999999999, 0.25], "properties": {"magmom": 0.008}, "label": "Co", "xyz": [2.3762019999999957, 2.756335017824, 3.86885]}, {"species": [{"element": "Co", "occu": 1}], "abc": [0.333333, 0.666667, 0.125877], "properties": {"magmom": -0.006}, "label": "Co", "xyz": [2.376202, 1.371903410468, 1.9479969257999998]}, {"species": [{"element": "Co", "occu": 1}], "abc": [0.5, 0.5, 0.0], "properties": {"magmom": -0.025}, "label": "Co", "xyz": [2.376202, 0.0, 0.0]}, {"species": [{"element": "Co", "occu": 1}], "abc": [0.666667, 0.333333, 0.625877], "properties": {"magmom": -0.006}, "label": "Co", "xyz": [2.376202, -1.371903410468, 9.6856969258]}, {"species": [{"element": "Co", "occu": 1}], "abc": [0.0, 0.5, 0.5], "properties": {"magmom": -0.026000000000000002}, "label": "Co", "xyz": [1.188101, 2.057851, 7.7377]}, {"species": [{"element": "Co", "occu": 1}], "abc": [0.333333, 0.666667, 0.374123], "properties": {"magmom": -0.006}, "label": "Co", "xyz": [2.376202, 1.371903410468, 5.7897030742]}, {"species": [{"element": "Co", "occu": 1}], "abc": [0.5, 0.5, 0.5], "properties": {"magmom": -0.025}, "label": "Co", "xyz": [2.376202, 0.0, 7.7377]}]}, "task_ids": null, "uncorrected_energy_per_atom": null, "energy_per_atom": -8.910839267083334, "formation_energy_per_atom": -0.19958560619444501, "energy_above_hull": 0.039506358249997, "is_stable": false, "equilibrium_reaction_energy_per_atom": null, "decomposes_to": null, "xas": null, "grain_boundaries": null, "band_gap": 0.0, "cbm": null, "vbm": null, "efermi": 6.13239192, "is_gap_direct": null, "is_metal": null, "es_source_calc_id": null, "bandstructure": null, "dos": null, "dos_energy_up": null, "dos_energy_down": null, "is_magnetic": null, "ordering": null, "total_magnetization": 0.070671, "total_magnetization_normalized_vol": null, "total_magnetization_normalized_formula_units": null, "num_magnetic_sites": null, "num_unique_magnetic_sites": null, "types_of_magnetic_species": null, "bulk_modulus": null, "shear_modulus": null, "universal_anisotropy": null, "homogeneous_poisson": null, "e_total": null, "e_ionic": null, "e_electronic": null, "n": null, "e_ij_max": null, "weighted_surface_energy_EV_PER_ANG2": null, "weighted_surface_energy": null, "weighted_work_function": null, "surface_anisotropy": null, "shape_factor": null, "has_reconstructed": null, "possible_species": null, "has_props": null, "theoretical": null, "database_IDs": null, "fields_not_requested": ["builder_meta", "nsites", "elements", "nelements", "composition", "composition_reduced", "chemsys", "symmetry", "property_name", "deprecated", "deprecation_reasons", "last_updated", "origins", "warnings", "task_ids", "uncorrected_energy_per_atom", "equilibrium_reaction_energy_per_atom", "decomposes_to", "xas", "grain_boundaries", "cbm", "vbm", "is_gap_direct", "is_metal", "es_source_calc_id", "bandstructure", "dos", "dos_energy_up", "dos_energy_down", "is_magnetic", "ordering", "total_magnetization_normalized_vol", "total_magnetization_normalized_formula_units", "num_magnetic_sites", "num_unique_magnetic_sites", "types_of_magnetic_species", "bulk_modulus", "shear_modulus", "universal_anisotropy", "homogeneous_poisson", "e_total", "e_ionic", "e_electronic", "n", "e_ij_max", "weighted_surface_energy_EV_PER_ANG2", "weighted_surface_energy", "weighted_work_function", "surface_anisotropy", "shape_factor", "has_reconstructed", "possible_species", "has_props", "theoretical", "database_IDs"]}