{"builder_meta": null, "nsites": null, "elements": null, "nelements": null, "composition": null, "composition_reduced": null, "formula_pretty": "TaF5", "formula_anonymous": "AB5", "chemsys": null, "volume": 329.82042593635856, "density": 5.557072167870597, "density_atomic": 13.742517747348273, "symmetry": null, "property_name": null, "material_id": "mp-561197", "deprecated": null, "deprecation_reasons": null, "last_updated": null, "origins": null, "warnings": null, "structure": {"@module": "pymatgen.core.structure", "@class": "Structure", "charge": 0, "lattice": {"matrix": [[4.91167746, -0.05074616, -0.36962654], [-0.87413175, 7.85182594, -3.33656187], [-0.05900807, -0.02084199, 8.5757791]], "pbc": [true, true, true], "a": 4.925827283096634, "b": 8.576008513332578, "c": 8.576007434282523, "alpha": 112.99003552130611, "beta": 94.69619195110964, "gamma": 94.69621163123556, "volume": 329.8204259363586}, "properties": {}, "sites": [{"species": [{"element": "Ta", "occu": 1}], "abc": [0.5, 0.79567544, 0.20432456000000002], "properties": {"magmom": -0.0}, "label": "Ta", "xyz": [1.7482567672615807, 6.21787344917664, -1.0873913127347765]}, {"species": [{"element": "Ta", "occu": 1}], "abc": [0.7569403100000001, 0.73896028, 0.73896028], "properties": {"magmom": -0.0}, "label": "Ta", "xyz": [3.028293396526063, 5.748374278285797, 3.5917882034897968]}, {"species": [{"element": "Ta", "occu": 1}], "abc": [0.24305969, 0.26103972000000003, 0.26103972000000003], "properties": {"magmom": -0.0}, "label": "Ta", "xyz": [0.9502442434739369, 2.0318635117142034, 1.2778024865102031]}, {"species": [{"element": "Ta", "occu": 1}], "abc": [0.5, 0.20432456000000002, 0.79567544], "properties": {"magmom": -0.0}, "label": "Ta", "xyz": [2.230280872738419, 1.562364340823361, 5.956982002734777]}, {"species": [{"element": "F", "occu": 1}], "abc": [0.14544836, 0.27342517, 0.46776262], "properties": {"magmom": -0.0}, "label": "F", "xyz": [0.4477840396354747, 2.1297567928581986, 3.0453673297815]}, {"species": [{"element": "F", "occu": 1}], "abc": [0.6132187100000001, 0.34671201, 0.34671201], "properties": {"magmom": 0.0}, "label": "F", "xyz": [2.688401733354038, 2.683977690809586, 1.589837626599369]}, {"species": [{"element": "F", "occu": 1}], "abc": [0.14544836, 0.46776262, 0.27342517], "properties": {"magmom": -0.0}, "label": "F", "xyz": [0.28937498222965874, 3.6597110030711777, 0.7303533621411731]}, {"species": [{"element": "F", "occu": 1}], "abc": [0.38001711, 0.02659785, 0.21844495], "properties": {"magmom": 0.0}, "label": "F", "xyz": [1.8303814335338564, 0.18500445204798088, 1.644125855066466]}, {"species": [{"element": "F", "occu": 1}], "abc": [0.38678129, 0.65328799, 0.65328799], "properties": {"magmom": 0.0}, "label": "F", "xyz": [1.2901359066459614, 5.096260099190414, 3.2797530634006313]}, {"species": [{"element": "F", "occu": 1}], "abc": [0.8545516400000001, 0.53223738, 0.72657483], "properties": {"magmom": -0.0}, "label": "F", "xyz": [3.6891626577703414, 4.120526786928823, 4.139237327858827]}, {"species": [{"element": "F", "occu": 1}], "abc": [0.07759528, 0.8723859700000001, 0.8723859700000001], "properties": {"magmom": -0.0}, "label": "F", "xyz": [-0.4329350992379366, 6.827702866781058, 4.5419383303675325]}, {"species": [{"element": "F", "occu": 1}], "abc": [0.6199828900000001, 0.97340115, 0.78155505], "properties": {"magmom": 0.0}, "label": "F", "xyz": [2.1481570805978936, 7.595225486126081, 3.225468171495404]}, {"species": [{"element": "F", "occu": 1}], "abc": [0.6254771100000001, 0.16855003000000002, 0.5891413], "properties": {"magmom": 0.0}, "label": "F", "xyz": [2.8900427991761974, 1.2794060591581937, 4.258775104182975]}, {"species": [{"element": "F", "occu": 1}], "abc": [0.84246221, 0.9259367, 0.29943262], "properties": {"magmom": 0.0}, "label": "F", "xyz": [3.310843038797318, 7.221301306083671, -0.8329734745624404]}, {"species": [{"element": "F", "occu": 1}], "abc": [0.6254771100000001, 0.5891413, 0.16855003000000002], "properties": {"magmom": 0.0}, "label": "F", "xyz": [2.5472088953979237, 4.590581462125165, -0.7514515130623576]}, {"species": [{"element": "F", "occu": 1}], "abc": [0.37452289, 0.83144997, 0.410858699999999], "properties": {"magmom": 0.0}, "label": "F", "xyz": [1.088494840823803, 6.5008317308418055, 0.6108155858170172]}, {"species": [{"element": "F", "occu": 1}], "abc": [0.6199828900000001, 0.78155505, 0.97340115], "properties": {"magmom": 0.0}, "label": "F", "xyz": [2.3045353796235415, 6.084884847160507, 5.510804328460122]}, {"species": [{"element": "F", "occu": 1}], "abc": [0.15753779, 0.70056738, 0.0740633], "properties": {"magmom": 0.0}, "label": "F", "xyz": [0.15701628997806755, 5.491195062546484, -1.7605660554937175]}, {"species": [{"element": "F", "occu": 1}], "abc": [0.38001711, 0.21844495, 0.02659785], "properties": {"magmom": 0.0}, "label": "F", "xyz": [1.6740023193845284, 1.695352963681484, -0.641222214239221]}, {"species": [{"element": "F", "occu": 1}], "abc": [0.37452289, 0.410858699999999, 0.83144997], "properties": {"magmom": 0.0}, "label": "F", "xyz": [1.4313287446020775, 3.189656327874828, 5.621042203062361]}, {"species": [{"element": "F", "occu": 1}], "abc": [0.9224047200000001, 0.12761403, 0.12761403], "properties": {"magmom": -0.0}, "label": "F", "xyz": [4.4114727392379365, 0.9525349232189433, 0.32765235963246797]}, {"species": [{"element": "F", "occu": 1}], "abc": [0.8545516400000001, 0.72657483, 0.53223738], "properties": {"magmom": -0.0}, "label": "F", "xyz": [3.5307536003645255, 5.650480997141802, 1.8242233602184998]}, {"species": [{"element": "F", "occu": 1}], "abc": [0.84246221, 0.29943262, 0.9259367], "properties": {"magmom": 0.0}, "label": "F", "xyz": [3.821521350021933, 2.2890427274535163, 6.630156745493716]}, {"species": [{"element": "F", "occu": 1}], "abc": [0.15753779, 0.0740633, 0.70056738], "properties": {"magmom": 0.0}, "label": "F", "xyz": [0.6676946012026819, 0.5589364839163294, 5.702564164562441]}]}, "task_ids": null, "uncorrected_energy_per_atom": null, "energy_per_atom": -14.108128735416665, "formation_energy_per_atom": -3.404466658305554, "energy_above_hull": 0.0, "is_stable": true, "equilibrium_reaction_energy_per_atom": null, "decomposes_to": null, "xas": null, "grain_boundaries": null, "band_gap": 5.5366, "cbm": null, "vbm": null, "efermi": -4.12219827, "is_gap_direct": null, "is_metal": null, "es_source_calc_id": null, "bandstructure": null, "dos": null, "dos_energy_up": null, "dos_energy_down": null, "is_magnetic": null, "ordering": null, "total_magnetization": 0.0, "total_magnetization_normalized_vol": null, "total_magnetization_normalized_formula_units": null, "num_magnetic_sites": null, "num_unique_magnetic_sites": null, "types_of_magnetic_species": null, "bulk_modulus": null, "shear_modulus": null, "universal_anisotropy": null, "homogeneous_poisson": null, "e_total": null, "e_ionic": null, "e_electronic": null, "n": null, "e_ij_max": null, "weighted_surface_energy_EV_PER_ANG2": null, "weighted_surface_energy": null, "weighted_work_function": null, "surface_anisotropy": null, "shape_factor": null, "has_reconstructed": null, "possible_species": null, "has_props": null, "theoretical": null, "database_IDs": null, "fields_not_requested": ["builder_meta", "nsites", "elements", "nelements", "composition", "composition_reduced", "chemsys", "symmetry", "property_name", "deprecated", "deprecation_reasons", "last_updated", "origins", "warnings", "task_ids", "uncorrected_energy_per_atom", "equilibrium_reaction_energy_per_atom", "decomposes_to", "xas", "grain_boundaries", "cbm", "vbm", "is_gap_direct", "is_metal", "es_source_calc_id", "bandstructure", "dos", "dos_energy_up", "dos_energy_down", "is_magnetic", "ordering", "total_magnetization_normalized_vol", "total_magnetization_normalized_formula_units", "num_magnetic_sites", "num_unique_magnetic_sites", "types_of_magnetic_species", "bulk_modulus", "shear_modulus", "universal_anisotropy", "homogeneous_poisson", "e_total", "e_ionic", "e_electronic", "n", "e_ij_max", "weighted_surface_energy_EV_PER_ANG2", "weighted_surface_energy", "weighted_work_function", "surface_anisotropy", "shape_factor", "has_reconstructed", "possible_species", "has_props", "theoretical", "database_IDs"]}