{
  "builder_meta": null,
  "nsites": null,
  "elements": null,
  "nelements": null,
  "composition": null,
  "composition_reduced": null,
  "formula_pretty": "TaFe",
  "formula_anonymous": "AB",
  "chemsys": null,
  "volume": 363.9606732971811,
  "density": 14.044511229243913,
  "density_atomic": 13.998487434506965,
  "symmetry": null,
  "property_name": null,
  "material_id": "mp-1218218",
  "deprecated": null,
  "deprecation_reasons": null,
  "last_updated": null,
  "origins": null,
  "warnings": null,
  "structure": {
    "@module": "pymatgen.core.structure",
    "@class": "Structure",
    "charge": 0,
    "lattice": {
      "matrix": [
        [-2.42363509, -4.19786652, 1.95e-6],
        [4.84722401, 2.6340000000000002e-5, -0.0005754],
        [2.42147402, -1.39805101, 17.88647733]
      ],
      "pbc": [true, true, true],
      "a": 4.847276593017982,
      "b": 4.847224044223604,
      "c": 18.10370554148241,
      "alpha": 82.32013010808193,
      "beta": 89.99993666559669,
      "gamma": 120.00026735257386,
      "volume": 363.9606732971811
    },
    "properties": {},
    "sites": [
      {
        "species": [{ "element": "Ta", "occu": 1 }],
        "abc": [0.22645137, 0.45290473000000003, 0.32057942],
        "properties": { "magmom": -0.256 },
        "label": "Ta",
        "xyz": [2.422769931864662, -1.3987870769367585, 5.7337763684930785]
      },
      {
        "species": [{ "element": "Ta", "occu": 1 }],
        "abc": [0.7247624500000001, 0.44952791000000003, 0.82600746],
        "properties": { "magmom": -0.328 },
        "label": "Ta",
        "xyz": [2.4225583774989374, -4.19724474696356, 14.774106462628247]
      },
      {
        "species": [{ "element": "Ta", "occu": 1 }],
        "abc": [0.27523755, 0.55047209, 0.17399254],
        "properties": { "magmom": -0.328 },
        "label": "Ta",
        "xyz": [2.4225045625010617, -1.3986464430364407, 3.111797417371755]
      },
      {
        "species": [{ "element": "Ta", "occu": 1 }],
        "abc": [0.7735486300000001, 0.54709527, 0.67942058],
        "properties": { "magmom": -0.256 },
        "label": "Ta",
        "xyz": [2.4222930081353375, -4.197104113063242, 12.152127511506924]
      },
      {
        "species": [{ "element": "Ta", "occu": 1 }],
        "abc": [0.17401096, 0.34802292, 0.47809308],
        "properties": { "magmom": -0.097 },
        "label": "Ta",
        "xyz": [2.4228959575155042, -1.3988641295413573, 8.551201123983082]
      },
      {
        "species": [{ "element": "Ta", "occu": 1 }],
        "abc": [0.67329651, 0.34659203, 0.9802457],
        "properties": { "magmom": -0.454 },
        "label": "Ta",
        "xyz": [2.421823657646818, -4.196833239060933, 17.532944374754113]
      },
      {
        "species": [{ "element": "Ta", "occu": 1 }],
        "abc": [0.32670349, 0.6534079700000001, 0.0197543],
        "properties": { "magmom": -0.454 },
        "label": "Ta",
        "xyz": [2.4232392823531814, -1.399057950939068, 0.3529595052458865]
      },
      {
        "species": [{ "element": "Ta", "occu": 1 }],
        "abc": [0.8259890400000001, 0.65197708, 0.52190692],
        "properties": { "magmom": -0.097 },
        "label": "Ta",
        "xyz": [2.4221669824844954, -4.197027060458643, 9.334702756016922]
      },
      {
        "species": [{ "element": "Ta", "occu": 1 }],
        "abc": [0.58434118, 0.16868036, 0.24700796],
        "properties": { "magmom": -0.145 },
        "label": "Ta",
        "xyz": [-0.0004749394993633915, -2.7983115606946507, 4.418006357655704]
      },
      {
        "species": [{ "element": "Ta", "occu": 1 }],
        "abc": [0.08234444, 0.16468687, 0.75299094],
        "properties": { "magmom": -0.244 },
        "label": "Ta",
        "xyz": [2.422049274650728, -1.3983863741198426, 13.468260777752052]
      },
      {
        "species": [{ "element": "Ta", "occu": 1 }],
        "abc": [0.91765556, 0.8353131300000001, 0.24700906],
        "properties": { "magmom": -0.244 },
        "label": "Ta",
        "xyz": [2.4230136653492718, -4.197504815880158, 4.4176431022479505]
      },
      {
        "species": [{ "element": "Ta", "occu": 1 }],
        "abc": [0.41565882, 0.83131964, 0.75299204],
        "properties": { "magmom": -0.145 },
        "label": "Ta",
        "xyz": [4.845537879499363, -2.797579629305349, 13.467897522344298]
      },
      {
        "species": [{ "element": "Ta", "occu": 1 }],
        "abc": [0.5, -0.0, 0.5],
        "properties": { "magmom": -0.319 },
        "label": "Ta",
        "xyz": [-0.001080535000000049, -2.7979587649999997, 8.943239640000002]
      },
      {
        "species": [{ "element": "Fe", "occu": 1 }],
        "abc": [0.79584469, 0.09168621, 0.11117642],
        "properties": { "magmom": 1.855 },
        "label": "Fe",
        "xyz": [-1.2152027057096615, -3.4962776705251914, 1.9885033116124702]
      },
      {
        "species": [{ "element": "Fe", "occu": 1 }],
        "abc": [0.29029682, 0.09183723, 0.6178858700000001],
        "properties": { "magmom": 1.764 },
        "label": "Fe",
        "xyz": [1.2377766483305759, -2.082460847166057, 11.051749329218985]
      },
      {
        "species": [{ "element": "Fe", "occu": 1 }],
        "abc": [0.29584252, 0.09168521, 0.11117542],
        "properties": { "magmom": 1.855 },
        "label": "Fe",
        "xyz": [-0.003387170119546312, -1.397333903130173, 1.9884844507063086]
      },
      {
        "species": [{ "element": "Fe", "occu": 1 }],
        "abc": [0.80154141, 0.09183623, 0.6178858700000001],
        "properties": { "magmom": 1.764 },
        "label": "Fe",
        "xyz": [-0.001298526790097121, -4.228597395084524, 11.051750326721336]
      },
      {
        "species": [{ "element": "Fe", "occu": 1 }],
        "abc": [0.79591895, 0.5918369, 0.11108224],
        "properties": { "magmom": 1.853 },
        "label": "Fe",
        "xyz": [1.208731693911418, -3.49644456167967, 1.9865309766153119]
      },
      {
        "species": [{ "element": "Fe", "occu": 1 }],
        "abc": [0.29019483, 0.58038667, 0.61793105],
        "properties": { "magmom": 1.7690000000000001 },
        "label": "Fe",
        "xyz": [3.606241812709683, -2.0820830023120647, 11.052276328718099]
      },
      {
        "species": [{ "element": "Fe", "occu": 1 }],
        "abc": [0.70970318, 0.90816277, 0.38211413],
        "properties": { "magmom": 1.764 },
        "label": "Fe",
        "xyz": [3.6072862916694235, -3.513430342833943, 6.834154550781016]
      },
      {
        "species": [{ "element": "Fe", "occu": 1 }],
        "abc": [0.20415531, 0.90831379, 0.8888235800000001],
        "properties": { "magmom": 1.855 },
        "label": "Fe",
        "xyz": [6.060265645709661, -2.0996135194748087, 15.897400568387532]
      },
      {
        "species": [{ "element": "Fe", "occu": 1 }],
        "abc": [0.19845759000000002, 0.90816377, 0.38211413],
        "properties": { "magmom": 1.764 },
        "label": "Fe",
        "xyz": [4.846363890425187, -1.3672895970489565, 6.834153553276716]
      },
      {
        "species": [{ "element": "Fe", "occu": 1 }],
        "abc": [0.70415748, 0.90831479, 0.88882458],
        "properties": { "magmom": 1.855 },
        "label": "Fe",
        "xyz": [4.848450110119546, -4.198557286869827, 15.897419429293691]
      },
      {
        "species": [{ "element": "Fe", "occu": 1 }],
        "abc": [0.70980517, 0.41961333, 0.38206895],
        "properties": { "magmom": 1.7690000000000001 },
        "label": "Fe",
        "xyz": [1.238821127290317, -3.5138081876879355, 6.8336275512819045]
      },
      {
        "species": [{ "element": "Fe", "occu": 1 }],
        "abc": [0.20408105, 0.4081631, 0.88891776],
        "properties": { "magmom": 1.853 },
        "label": "Fe",
        "xyz": [3.6363312460885817, -2.0994466283203295, 15.89937290338469]
      },
      {
        "species": [{ "element": "Fe", "occu": 1 }],
        "abc": [0.0, -0.0, 0.0],
        "properties": { "magmom": 2.132 },
        "label": "Fe",
        "xyz": [0.0, 0.0, 0.0]
      }
    ]
  },
  "task_ids": null,
  "uncorrected_energy_per_atom": null,
  "energy_per_atom": -10.354736045769231,
  "formation_energy_per_atom": -0.186261669435894,
  "energy_above_hull": 0.0,
  "is_stable": true,
  "equilibrium_reaction_energy_per_atom": null,
  "decomposes_to": null,
  "xas": null,
  "grain_boundaries": null,
  "band_gap": 0.0,
  "cbm": null,
  "vbm": null,
  "efermi": 5.97413092,
  "is_gap_direct": null,
  "is_metal": null,
  "es_source_calc_id": null,
  "bandstructure": null,
  "dos": null,
  "dos_energy_up": null,
  "dos_energy_down": null,
  "is_magnetic": null,
  "ordering": null,
  "total_magnetization": 16.6361871,
  "total_magnetization_normalized_vol": null,
  "total_magnetization_normalized_formula_units": null,
  "num_magnetic_sites": null,
  "num_unique_magnetic_sites": null,
  "types_of_magnetic_species": null,
  "bulk_modulus": null,
  "shear_modulus": null,
  "universal_anisotropy": null,
  "homogeneous_poisson": null,
  "e_total": null,
  "e_ionic": null,
  "e_electronic": null,
  "n": null,
  "e_ij_max": null,
  "weighted_surface_energy_EV_PER_ANG2": null,
  "weighted_surface_energy": null,
  "weighted_work_function": null,
  "surface_anisotropy": null,
  "shape_factor": null,
  "has_reconstructed": null,
  "possible_species": null,
  "has_props": null,
  "theoretical": null,
  "database_IDs": null,
  "fields_not_requested": [
    "builder_meta",
    "nsites",
    "elements",
    "nelements",
    "composition",
    "composition_reduced",
    "chemsys",
    "symmetry",
    "property_name",
    "deprecated",
    "deprecation_reasons",
    "last_updated",
    "origins",
    "warnings",
    "task_ids",
    "uncorrected_energy_per_atom",
    "equilibrium_reaction_energy_per_atom",
    "decomposes_to",
    "xas",
    "grain_boundaries",
    "cbm",
    "vbm",
    "is_gap_direct",
    "is_metal",
    "es_source_calc_id",
    "bandstructure",
    "dos",
    "dos_energy_up",
    "dos_energy_down",
    "is_magnetic",
    "ordering",
    "total_magnetization_normalized_vol",
    "total_magnetization_normalized_formula_units",
    "num_magnetic_sites",
    "num_unique_magnetic_sites",
    "types_of_magnetic_species",
    "bulk_modulus",
    "shear_modulus",
    "universal_anisotropy",
    "homogeneous_poisson",
    "e_total",
    "e_ionic",
    "e_electronic",
    "n",
    "e_ij_max",
    "weighted_surface_energy_EV_PER_ANG2",
    "weighted_surface_energy",
    "weighted_work_function",
    "surface_anisotropy",
    "shape_factor",
    "has_reconstructed",
    "possible_species",
    "has_props",
    "theoretical",
    "database_IDs"
  ]
}
