{
  "builder_meta": null,
  "nsites": null,
  "elements": null,
  "nelements": null,
  "composition": null,
  "composition_reduced": null,
  "formula_pretty": "TaFe2",
  "formula_anonymous": "AB2",
  "chemsys": null,
  "volume": 162.030553874825,
  "density": 11.996172832499433,
  "density_atomic": 13.502546156235416,
  "symmetry": null,
  "property_name": null,
  "material_id": "mp-568077",
  "deprecated": null,
  "deprecation_reasons": null,
  "last_updated": null,
  "origins": null,
  "warnings": null,
  "structure": {
    "@module": "pymatgen.core.structure",
    "@class": "Structure",
    "charge": 0,
    "lattice": {
      "matrix": [
        [4.86479389, 6.503e-5, -1e-6],
        [-2.43234012, 4.21306369, 2.509999999999999e-6],
        [-2.94e-6, 3.629999999999998e-6, 7.9055319]
      ],
      "pbc": [true, true, true],
      "a": 4.864793890434745,
      "b": 4.864790243717023,
      "c": 7.90553190000138,
      "alpha": 89.99993700033214,
      "beta": 90.00003308509848,
      "gamma": 119.99848609676815,
      "volume": 162.03055387482496
    },
    "properties": {},
    "sites": [
      {
        "species": [{ "element": "Ta", "occu": 1 }],
        "abc": [0.6666703700000001, 0.33332849999999903, 0.44233399],
        "properties": { "magmom": -0.292 },
        "label": "Ta",
        "xyz": [2.432444358468691, 1.4043791594387058, 3.496885638383446]
      },
      {
        "species": [{ "element": "Ta", "occu": 1 }],
        "abc": [0.33333073, 0.66666713, 0.94235091],
        "properties": { "magmom": -0.292 },
        "label": "Ta",
        "xyz": [2.1321157308583184e-5, 2.808736175950685, 7.449786520002796]
      },
      {
        "species": [{ "element": "Ta", "occu": 1 }],
        "abc": [0.33333076, 0.66666968, 0.55767281],
        "properties": { "magmom": -0.292 },
        "label": "Ta",
        "xyz": [1.6395587433188178e-5, 2.8087455228835427, 4.408701529227776]
      },
      {
        "species": [{ "element": "Ta", "occu": 1 }],
        "abc": [0.66667038, 0.33332862, 0.05764412],
        "properties": { "magmom": -0.292 },
        "label": "Ta",
        "xyz": [2.4324452462240305, 1.404378268582775, 0.45570759949188416]
      },
      {
        "species": [{ "element": "Fe", "occu": 1 }],
        "abc": [0.33863517, 0.16931223, 0.75003887],
        "properties": { "magmom": 2.44 },
        "label": "Fe",
        "xyz": [1.2355631710051656, 0.713347952572132, 5.929456299363481]
      },
      {
        "species": [{ "element": "Fe", "occu": 1 }],
        "abc": [0.16932569, 0.83067459, 0.249960699999999],
        "properties": { "magmom": 2.44 },
        "label": "Fe",
        "xyz": [-1.196749284673975, 3.4996968719415986, 1.976074203263853]
      },
      {
        "species": [{ "element": "Fe", "occu": 1 }],
        "abc": [0.16931658, 0.33864316, 0.24996079000000002],
        "properties": { "magmom": 2.44 },
        "label": "Fe",
        "xyz": [-5.8154566056870814e-6, 1.4267371192777254, 1.9760736797719525]
      },
      {
        "species": [{ "element": "Fe", "occu": 1 }],
        "abc": [0.8306882, 0.66136478, 0.75003877],
        "properties": { "magmom": 2.44 },
        "label": "Fe",
        "xyz": [2.43246058639214, 2.786428682757219, 5.92945625180916]
      },
      {
        "species": [{ "element": "Fe", "occu": 1 }],
        "abc": [-1.57e-6, 3.5e-6, 9.78e-6],
        "properties": { "magmom": 2.532 },
        "label": "Fe",
        "xyz": [-1.6150945580499998e-5, 1.4745656319300001e-5, 7.7316112337e-5]
      },
      {
        "species": [{ "element": "Fe", "occu": 1 }],
        "abc": [0.66135714, 0.8306842, 0.24996068000000002],
        "properties": { "magmom": 2.44 },
        "label": "Fe",
        "xyz": [1.1968589321853709, 3.499769356288781, 1.976073553145894]
      },
      {
        "species": [{ "element": "Fe", "occu": 1 }],
        "abc": [0.83067914, 0.1693201, 0.75003884],
        "properties": { "magmom": 2.44 },
        "label": "Fe",
        "xyz": [3.629236527355853, 0.7134131070026325, 5.929455570173307]
      },
      {
        "species": [{ "element": "Fe", "occu": 1 }],
        "abc": [-1.589999999999999e-6, 3.519999999999999e-6, 0.49998975],
        "properties": { "magmom": 2.534 },
        "label": "Fe",
        "xyz": [-1.776682937249999e-5, 1.6644843583599996e-5, 3.95268491830845]
      }
    ]
  },
  "task_ids": null,
  "uncorrected_energy_per_atom": null,
  "energy_per_atom": -9.79526093666667,
  "formation_energy_per_atom": -0.19293761577777901,
  "energy_above_hull": 0.0,
  "is_stable": true,
  "equilibrium_reaction_energy_per_atom": null,
  "decomposes_to": null,
  "xas": null,
  "grain_boundaries": null,
  "band_gap": 0.0,
  "cbm": null,
  "vbm": null,
  "efermi": 6.05097251,
  "is_gap_direct": null,
  "is_metal": null,
  "es_source_calc_id": null,
  "bandstructure": null,
  "dos": null,
  "dos_energy_up": null,
  "dos_energy_down": null,
  "is_magnetic": null,
  "ordering": null,
  "total_magnetization": 17.3293859,
  "total_magnetization_normalized_vol": null,
  "total_magnetization_normalized_formula_units": null,
  "num_magnetic_sites": null,
  "num_unique_magnetic_sites": null,
  "types_of_magnetic_species": null,
  "bulk_modulus": null,
  "shear_modulus": null,
  "universal_anisotropy": null,
  "homogeneous_poisson": null,
  "e_total": null,
  "e_ionic": null,
  "e_electronic": null,
  "n": null,
  "e_ij_max": null,
  "weighted_surface_energy_EV_PER_ANG2": null,
  "weighted_surface_energy": null,
  "weighted_work_function": null,
  "surface_anisotropy": null,
  "shape_factor": null,
  "has_reconstructed": null,
  "possible_species": null,
  "has_props": null,
  "theoretical": null,
  "database_IDs": null,
  "fields_not_requested": [
    "builder_meta",
    "nsites",
    "elements",
    "nelements",
    "composition",
    "composition_reduced",
    "chemsys",
    "symmetry",
    "property_name",
    "deprecated",
    "deprecation_reasons",
    "last_updated",
    "origins",
    "warnings",
    "task_ids",
    "uncorrected_energy_per_atom",
    "equilibrium_reaction_energy_per_atom",
    "decomposes_to",
    "xas",
    "grain_boundaries",
    "cbm",
    "vbm",
    "is_gap_direct",
    "is_metal",
    "es_source_calc_id",
    "bandstructure",
    "dos",
    "dos_energy_up",
    "dos_energy_down",
    "is_magnetic",
    "ordering",
    "total_magnetization_normalized_vol",
    "total_magnetization_normalized_formula_units",
    "num_magnetic_sites",
    "num_unique_magnetic_sites",
    "types_of_magnetic_species",
    "bulk_modulus",
    "shear_modulus",
    "universal_anisotropy",
    "homogeneous_poisson",
    "e_total",
    "e_ionic",
    "e_electronic",
    "n",
    "e_ij_max",
    "weighted_surface_energy_EV_PER_ANG2",
    "weighted_surface_energy",
    "weighted_work_function",
    "surface_anisotropy",
    "shape_factor",
    "has_reconstructed",
    "possible_species",
    "has_props",
    "theoretical",
    "database_IDs"
  ]
}
