{"builder_meta": null, "nsites": null, "elements": null, "nelements": null, "composition": null, "composition_reduced": null, "formula_pretty": "TaGe2", "formula_anonymous": "AB2", "chemsys": null, "volume": 144.49365679054156, "density": 11.247154056168027, "density_atomic": 16.054850754504617, "symmetry": null, "property_name": null, "material_id": "mp-7558", "deprecated": null, "deprecation_reasons": null, "last_updated": null, "origins": null, "warnings": null, "structure": {"@module": "pymatgen.core.structure", "@class": "Structure", "charge": 0, "lattice": {"matrix": [[4.97481538, -0.0, 0.0], [-2.4874082, 4.30831706, -0.0], [-0.0, 0.0, 6.74161826]], "pbc": [true, true, true], "a": 4.97481538, "b": 4.974816121517889, "c": 6.74161826, "alpha": 90.0, "beta": 90.0, "gamma": 120.00000185174969, "volume": 144.49365679054156}, "properties": {}, "sites": [{"species": [{"element": "Ta", "occu": 1}], "abc": [0.5, -0.0, 0.5], "properties": {"magmom": -0.0}, "label": "Ta", "xyz": [2.48740769, 0.0, 3.37080913]}, {"species": [{"element": "Ta", "occu": 1}], "abc": [0.5, 0.5, 0.833333], "properties": {"magmom": -0.0}, "label": "Ta", "xyz": [1.24370359, 2.15415853, 5.61801296946058]}, {"species": [{"element": "Ta", "occu": 1}], "abc": [-0.0, 0.5, 0.166666999999999], "properties": {"magmom": -0.0}, "label": "Ta", "xyz": [-1.2437041, 2.15415853, 1.1236052905394134]}, {"species": [{"element": "Ge", "occu": 1}], "abc": [0.16378735, 0.32757471, 0.5], "properties": {"magmom": 0.0}, "label": "Ge", "xyz": [-1.919371790393143e-07, 1.4112957115175526, 3.37080913]}, {"species": [{"element": "Ge", "occu": 1}], "abc": [0.83621265, 0.16378735, 0.833333], "properties": {"magmom": 0.0}, "label": "Ge", "xyz": [3.752597554724287, 0.705647834217191, 5.61801296946058]}, {"species": [{"element": "Ge", "occu": 1}], "abc": [0.32757471, 0.16378735, 0.166666999999999], "properties": {"magmom": 0.0}, "label": "Ge", "xyz": [1.2222177079607697, 0.705647834217191, 1.1236052905394134]}, {"species": [{"element": "Ge", "occu": 1}], "abc": [0.6724252900000001, 0.83621265, 0.166666999999999], "properties": {"magmom": 0.0}, "label": "Ge", "xyz": [1.2651894720392303, 3.602669225782809, 1.1236052905394134]}, {"species": [{"element": "Ge", "occu": 1}], "abc": [0.16378735, 0.83621265, 0.833333], "properties": {"magmom": 0.0}, "label": "Ge", "xyz": [-1.2651903747242872, 3.602669225782809, 5.61801296946058]}, {"species": [{"element": "Ge", "occu": 1}], "abc": [0.83621265, 0.6724252900000001, 0.5], "properties": {"magmom": 0.0}, "label": "Ge", "xyz": [2.487407371937179, 2.897021348482448, 3.37080913]}]}, "task_ids": null, "uncorrected_energy_per_atom": null, "energy_per_atom": -25.63845963, "formation_energy_per_atom": -0.19319700577777701, "energy_above_hull": 0.025434656666668002, "is_stable": false, "equilibrium_reaction_energy_per_atom": null, "decomposes_to": null, "xas": null, "grain_boundaries": null, "band_gap": 0.0, "cbm": null, "vbm": null, "efermi": 8.05169098, "is_gap_direct": null, "is_metal": null, "es_source_calc_id": null, "bandstructure": null, "dos": null, "dos_energy_up": null, "dos_energy_down": null, "is_magnetic": null, "ordering": null, "total_magnetization": 0.0, "total_magnetization_normalized_vol": null, "total_magnetization_normalized_formula_units": null, "num_magnetic_sites": null, "num_unique_magnetic_sites": null, "types_of_magnetic_species": null, "bulk_modulus": null, "shear_modulus": null, "universal_anisotropy": null, "homogeneous_poisson": null, "e_total": null, "e_ionic": null, "e_electronic": null, "n": null, "e_ij_max": null, "weighted_surface_energy_EV_PER_ANG2": null, "weighted_surface_energy": null, "weighted_work_function": null, "surface_anisotropy": null, "shape_factor": null, "has_reconstructed": null, "possible_species": null, "has_props": null, "theoretical": null, "database_IDs": null, "fields_not_requested": ["builder_meta", "nsites", "elements", "nelements", "composition", "composition_reduced", "chemsys", "symmetry", "property_name", "deprecated", "deprecation_reasons", "last_updated", "origins", "warnings", "task_ids", "uncorrected_energy_per_atom", "equilibrium_reaction_energy_per_atom", "decomposes_to", "xas", "grain_boundaries", "cbm", "vbm", "is_gap_direct", "is_metal", "es_source_calc_id", "bandstructure", "dos", "dos_energy_up", "dos_energy_down", "is_magnetic", "ordering", "total_magnetization_normalized_vol", "total_magnetization_normalized_formula_units", "num_magnetic_sites", "num_unique_magnetic_sites", "types_of_magnetic_species", "bulk_modulus", "shear_modulus", "universal_anisotropy", "homogeneous_poisson", "e_total", "e_ionic", "e_electronic", "n", "e_ij_max", "weighted_surface_energy_EV_PER_ANG2", "weighted_surface_energy", "weighted_work_function", "surface_anisotropy", "shape_factor", "has_reconstructed", "possible_species", "has_props", "theoretical", "database_IDs"]}