{
  "builder_meta": null,
  "nsites": null,
  "elements": null,
  "nelements": null,
  "composition": null,
  "composition_reduced": null,
  "formula_pretty": "TaI4",
  "formula_anonymous": "AB4",
  "chemsys": null,
  "volume": 836.3002751272397,
  "density": 5.468802909238106,
  "density_atomic": 41.815013756361985,
  "symmetry": null,
  "property_name": null,
  "material_id": "mp-567537",
  "deprecated": null,
  "deprecation_reasons": null,
  "last_updated": null,
  "origins": null,
  "warnings": null,
  "structure": {
    "@module": "pymatgen.core.structure",
    "@class": "Structure",
    "charge": 0,
    "lattice": {
      "matrix": [
        [7.3311458, 0.01877343, 0.08291965],
        [2.77662181, 10.33876384, 1.8798633900000001],
        [0.07694655, -0.12672778, 11.01947054]
      ],
      "pbc": [true, true, true],
      "a": 7.331638756164117,
      "b": 10.86892601778674,
      "c": 11.020467852305933,
      "alpha": 80.57320992968317,
      "beta": 88.95366077884704,
      "gamma": 74.93949795014231,
      "volume": 836.3002751272396
    },
    "properties": {},
    "sites": [
      {
        "species": [{ "element": "Ta", "occu": 1 }],
        "abc": [0.11323105, 0.9086801, 0.8367432100000001],
        "properties": { "magmom": -0.0 },
        "label": "Ta",
        "xyz": [3.4175588238554964, 9.290716085765212, 10.938050684386706]
      },
      {
        "species": [{ "element": "Ta", "occu": 1 }],
        "abc": [0.88676895, 0.0913199, 0.16325679],
        "properties": { "magmom": -0.0 },
        "label": "Ta",
        "xyz": [6.767155336144503, 0.9400934042347883, 2.0442028956132954]
      },
      {
        "species": [{ "element": "Ta", "occu": 1 }],
        "abc": [0.18630597000000002, 0.67241074, 0.72294259],
        "properties": { "magmom": 0.0 },
        "label": "Ta",
        "xyz": [3.28849449359123, 6.86377653692787, 9.245933331610418]
      },
      {
        "species": [{ "element": "Ta", "occu": 1 }],
        "abc": [0.8136940300000001, 0.32758926, 0.27705741],
        "properties": { "magmom": 0.0 },
        "label": "Ta",
        "xyz": [6.89621966640877, 3.3670329530721315, 3.7363202483895823]
      },
      {
        "species": [{ "element": "I", "occu": 1 }],
        "abc": [0.235565299999999, 0.9459720300000001, 0.07337923],
        "properties": { "magmom": 0.0 },
        "label": "I",
        "xyz": [4.359216408458864, 9.775304599169367, 2.606431442622011]
      },
      {
        "species": [{ "element": "I", "occu": 1 }],
        "abc": [0.47597911, 0.75894633, 0.83070901],
        "properties": { "magmom": -0.0 },
        "label": "I",
        "xyz": [5.660699378035111, 7.750228724944457, 10.620156904957936]
      },
      {
        "species": [{ "element": "I", "occu": 1 }],
        "abc": [0.8837094600000001, 0.90098618, 0.64581312],
        "properties": { "magmom": 0.0 },
        "label": "I",
        "xyz": [9.02999386552459, 9.249831132818906, 8.883526463988325]
      },
      {
        "species": [{ "element": "I", "occu": 1 }],
        "abc": [0.20342757, 0.11981561, 0.71951049],
        "properties": { "magmom": 0.0 },
        "label": "I",
        "xyz": [1.8794036612084695, 1.1513823622965953, 8.170729769470233]
      },
      {
        "species": [{ "element": "I", "occu": 1 }],
        "abc": [0.79657243, 0.88018439, 0.28048951],
        "properties": { "magmom": 0.0 },
        "label": "I",
        "xyz": [8.305310498791531, 9.079427127703404, 4.811523810529767]
      },
      {
        "species": [{ "element": "I", "occu": 1 }],
        "abc": [0.07169274, 0.45281595, 0.33324628],
        "properties": { "magmom": -0.0 },
        "label": "I",
        "xyz": [1.8085307239736954, 4.640671527413489, 4.529374428746003]
      },
      {
        "species": [{ "element": "I", "occu": 1 }],
        "abc": [0.41723128, 0.43272158, 0.80818002],
        "properties": { "magmom": 0.0 },
        "label": "I",
        "xyz": [4.3224741870042145, 4.379220226545603, 9.753770049418218]
      },
      {
        "species": [{ "element": "I", "occu": 1 }],
        "abc": [0.02631234, 0.68371843, 0.96594337],
        "properties": { "magmom": -0.0 },
        "label": "I",
        "xyz": [2.165653115333004, 6.946885494812879, 11.931663564672078]
      },
      {
        "species": [{ "element": "I", "occu": 1 }],
        "abc": [0.11629054, 0.09901382, 0.35418688],
        "properties": { "magmom": 0.0 },
        "label": "I",
        "xyz": [1.1547202944754102, 0.9809783571810947, 4.098727116011676]
      },
      {
        "species": [{ "element": "I", "occu": 1 }],
        "abc": [0.52402089, 0.24105367, 0.16929099],
        "properties": { "magmom": -0.0 },
        "label": "I",
        "xyz": [4.524014781964889, 2.4805807650555436, 2.362096675042064]
      },
      {
        "species": [{ "element": "I", "occu": 1 }],
        "abc": [0.764434699999999, 0.05402797, 0.92662077],
        "properties": { "magmom": 0.0 },
        "label": "I",
        "xyz": [5.825497751541122, 0.4555048908306352, 10.37582213737799]
      },
      {
        "species": [{ "element": "I", "occu": 1 }],
        "abc": [0.9736876600000001, 0.31628157, 0.03405663],
        "properties": { "magmom": -0.0 },
        "label": "I",
        "xyz": [8.019061044666996, 3.2839239951871213, 1.0505900153279215]
      },
      {
        "species": [{ "element": "I", "occu": 1 }],
        "abc": [0.65973265, 0.29107937, 0.49643651],
        "properties": { "magmom": -0.0 },
        "label": "I",
        "xyz": [5.68301265009197, 2.958874013026223, 6.072361748604252]
      },
      {
        "species": [{ "element": "I", "occu": 1 }],
        "abc": [0.92830726, 0.54718405, 0.66675372],
        "properties": { "magmom": -0.0 },
        "label": "I",
        "xyz": [8.376183436026306, 5.590137962586513, 8.452879151253997]
      },
      {
        "species": [{ "element": "I", "occu": 1 }],
        "abc": [0.34026735, 0.70892063, 0.50356349],
        "properties": { "magmom": -0.0 },
        "label": "I",
        "xyz": [4.50170150990803, 7.271935476973779, 6.909891831395749]
      },
      {
        "species": [{ "element": "I", "occu": 1 }],
        "abc": [0.58276872, 0.5672784200000001, 0.19181998],
        "properties": { "magmom": 0.0 },
        "label": "I",
        "xyz": [5.862239972995785, 5.851589263454399, 3.228483530581781]
      }
    ]
  },
  "task_ids": null,
  "uncorrected_energy_per_atom": null,
  "energy_per_atom": -4.348741835000004,
  "formation_energy_per_atom": -0.7561462344666701,
  "energy_above_hull": 0.005035815343746,
  "is_stable": false,
  "equilibrium_reaction_energy_per_atom": null,
  "decomposes_to": null,
  "xas": null,
  "grain_boundaries": null,
  "band_gap": 0.5572,
  "cbm": null,
  "vbm": null,
  "efermi": 1.83523677,
  "is_gap_direct": null,
  "is_metal": null,
  "es_source_calc_id": null,
  "bandstructure": null,
  "dos": null,
  "dos_energy_up": null,
  "dos_energy_down": null,
  "is_magnetic": null,
  "ordering": null,
  "total_magnetization": 0.0,
  "total_magnetization_normalized_vol": null,
  "total_magnetization_normalized_formula_units": null,
  "num_magnetic_sites": null,
  "num_unique_magnetic_sites": null,
  "types_of_magnetic_species": null,
  "bulk_modulus": null,
  "shear_modulus": null,
  "universal_anisotropy": null,
  "homogeneous_poisson": null,
  "e_total": null,
  "e_ionic": null,
  "e_electronic": null,
  "n": null,
  "e_ij_max": null,
  "weighted_surface_energy_EV_PER_ANG2": null,
  "weighted_surface_energy": null,
  "weighted_work_function": null,
  "surface_anisotropy": null,
  "shape_factor": null,
  "has_reconstructed": null,
  "possible_species": null,
  "has_props": null,
  "theoretical": null,
  "database_IDs": null,
  "fields_not_requested": [
    "builder_meta",
    "nsites",
    "elements",
    "nelements",
    "composition",
    "composition_reduced",
    "chemsys",
    "symmetry",
    "property_name",
    "deprecated",
    "deprecation_reasons",
    "last_updated",
    "origins",
    "warnings",
    "task_ids",
    "uncorrected_energy_per_atom",
    "equilibrium_reaction_energy_per_atom",
    "decomposes_to",
    "xas",
    "grain_boundaries",
    "cbm",
    "vbm",
    "is_gap_direct",
    "is_metal",
    "es_source_calc_id",
    "bandstructure",
    "dos",
    "dos_energy_up",
    "dos_energy_down",
    "is_magnetic",
    "ordering",
    "total_magnetization_normalized_vol",
    "total_magnetization_normalized_formula_units",
    "num_magnetic_sites",
    "num_unique_magnetic_sites",
    "types_of_magnetic_species",
    "bulk_modulus",
    "shear_modulus",
    "universal_anisotropy",
    "homogeneous_poisson",
    "e_total",
    "e_ionic",
    "e_electronic",
    "n",
    "e_ij_max",
    "weighted_surface_energy_EV_PER_ANG2",
    "weighted_surface_energy",
    "weighted_work_function",
    "surface_anisotropy",
    "shape_factor",
    "has_reconstructed",
    "possible_species",
    "has_props",
    "theoretical",
    "database_IDs"
  ]
}
