{"builder_meta": null, "nsites": null, "elements": null, "nelements": null, "composition": null, "composition_reduced": null, "formula_pretty": "TaI5", "formula_anonymous": "AB5", "chemsys": null, "volume": 2025.2806574000651, "density": 5.348869232978805, "density_atomic": 42.193347029168024, "symmetry": null, "property_name": null, "material_id": "mp-570679", "deprecated": null, "deprecation_reasons": null, "last_updated": null, "origins": null, "warnings": null, "structure": {"@module": "pymatgen.core.structure", "@class": "Structure", "charge": 0, "lattice": {"matrix": [[6.8310534700000005, -0.0, 0.0], [0.0, 14.46706261, 0.0], [0.0, 0.0, 20.49354875]], "pbc": [true, true, true], "a": 6.8310534700000005, "b": 14.46706261, "c": 20.49354875, "alpha": 90.0, "beta": 90.0, "gamma": 90.0, "volume": 2025.2806574000654}, "properties": {}, "sites": [{"species": [{"element": "Ta", "occu": 1}], "abc": [0.49833183000000003, 0.1259844, 0.1401286], "properties": {"magmom": 0.0}, "label": "Ta", "xyz": [3.4041313765329506, 1.822624202683284, 2.8717322953692497]}, {"species": [{"element": "Ta", "occu": 1}], "abc": [0.49833183000000003, 0.1259844, 0.3598714], "properties": {"magmom": 0.0}, "label": "Ta", "xyz": [3.4041313765329506, 1.822624202683284, 7.37504207963075]}, {"species": [{"element": "Ta", "occu": 1}], "abc": [0.50166817, 0.8740156, 0.8598714], "properties": {"magmom": 0.0}, "label": "Ta", "xyz": [3.42692209346705, 12.644438407316715, 17.621816454630746]}, {"species": [{"element": "Ta", "occu": 1}], "abc": [0.00166817, 0.6259844, 0.1401286], "properties": {"magmom": 0.0}, "label": "Ta", "xyz": [0.011395358467049902, 9.056155507683284, 2.8717322953692497]}, {"species": [{"element": "Ta", "occu": 1}], "abc": [0.99833183, 0.3740156, 0.8598714], "properties": {"magmom": 0.0}, "label": "Ta", "xyz": [6.81965811153295, 5.410907102316716, 17.621816454630746]}, {"species": [{"element": "Ta", "occu": 1}], "abc": [0.99833183, 0.3740156, 0.640128599999999], "properties": {"magmom": 0.0}, "label": "Ta", "xyz": [6.81965811153295, 5.410907102316716, 13.11850667036923]}, {"species": [{"element": "Ta", "occu": 1}], "abc": [0.50166817, 0.8740156, 0.640128599999999], "properties": {"magmom": 0.0}, "label": "Ta", "xyz": [3.42692209346705, 12.644438407316715, 13.11850667036923]}, {"species": [{"element": "Ta", "occu": 1}], "abc": [0.00166817, 0.6259844, 0.3598714], "properties": {"magmom": 0.0}, "label": "Ta", "xyz": [0.011395358467049902, 9.056155507683284, 7.37504207963075]}, {"species": [{"element": "I", "occu": 1}], "abc": [0.25265749, 0.04386836, 0.44132052], "properties": {"magmom": 0.0}, "label": "I", "xyz": [1.7259168237859903, 0.6346463107180196, 9.04422359099535]}, {"species": [{"element": "I", "occu": 1}], "abc": [0.2233907, 0.29826894, 0.75], "properties": {"magmom": -0.0}, "label": "I", "xyz": [1.5259938164007292, 4.315075429598333, 15.370161562499998]}, {"species": [{"element": "I", "occu": 1}], "abc": [0.7553599, 0.70762251, 0.05850465], "properties": {"magmom": -0.0}, "label": "I", "xyz": [5.159903865993853, 10.23721915641535, 1.1989678968766875]}, {"species": [{"element": "I", "occu": 1}], "abc": [0.27395631, 0.05052717, 0.25], "properties": {"magmom": 0.0}, "label": "I", "xyz": [1.8714102020538956, 0.7309797318961138, 5.1233871875]}, {"species": [{"element": "I", "occu": 1}], "abc": [0.7526584900000001, 0.45613164, 0.94132052], "properties": {"magmom": 0.0}, "label": "I", "xyz": [5.141450389839461, 6.59888499428198, 19.29099796599535]}, {"species": [{"element": "I", "occu": 1}], "abc": [0.26931451, 0.27879662, 0.15075393], "properties": {"magmom": -0.0}, "label": "I", "xyz": [1.8397018180568498, 4.033368156996378, 3.0894830137090876]}, {"species": [{"element": "I", "occu": 1}], "abc": [0.22604369, 0.5505271700000001, 0.25], "properties": {"magmom": 0.0}, "label": "I", "xyz": [1.5441165329461044, 7.9645110368961145, 5.1233871875]}, {"species": [{"element": "I", "occu": 1}], "abc": [0.22815173, 0.52658782, 0.8491652], "properties": {"magmom": 0.0}, "label": "I", "xyz": [1.5585166669030033, 7.618178961603411, 17.402408423003497]}, {"species": [{"element": "I", "occu": 1}], "abc": [0.73068549, 0.7212033800000001, 0.84924607], "properties": {"magmom": -0.0}, "label": "I", "xyz": [4.991351651943151, 10.433694453003621, 17.40406573629091]}, {"species": [{"element": "I", "occu": 1}], "abc": [0.72815173, 0.9734121800000001, 0.3491652], "properties": {"magmom": 0.0}, "label": "I", "xyz": [4.974043401903003, 14.08241495339659, 7.1556340480035]}, {"species": [{"element": "I", "occu": 1}], "abc": [0.77395631, 0.44947283, 0.75], "properties": {"magmom": 0.0}, "label": "I", "xyz": [5.286936937053896, 6.502551573103886, 15.370161562499998]}, {"species": [{"element": "I", "occu": 1}], "abc": [0.23068549, 0.77879662, 0.34924607], "properties": {"magmom": -0.0}, "label": "I", "xyz": [1.5758249169431504, 11.266899461996378, 7.157291361290913]}, {"species": [{"element": "I", "occu": 1}], "abc": [0.27184827, 0.02658782, 0.650834799999999], "properties": {"magmom": 0.0}, "label": "I", "xyz": [1.857010068096997, 0.3846476566034102, 13.33791470199648]}, {"species": [{"element": "I", "occu": 1}], "abc": [0.7693145100000001, 0.22120338, 0.84924607], "properties": {"magmom": -0.0}, "label": "I", "xyz": [5.255228553056851, 3.2001631480036217, 17.40406573629091]}, {"species": [{"element": "I", "occu": 1}], "abc": [0.744640099999999, 0.20762251, 0.05850465], "properties": {"magmom": -0.0}, "label": "I", "xyz": [5.086676339006141, 3.003687851415351, 1.1989678968766875]}, {"species": [{"element": "I", "occu": 1}], "abc": [0.26931451, 0.27879662, 0.34924607], "properties": {"magmom": -0.0}, "label": "I", "xyz": [1.8397018180568498, 4.033368156996378, 7.157291361290913]}, {"species": [{"element": "I", "occu": 1}], "abc": [0.2446401, 0.29237749, 0.9414953500000001], "properties": {"magmom": -0.0}, "label": "I", "xyz": [1.671149604006147, 4.229843453584649, 19.294580853123314]}, {"species": [{"element": "I", "occu": 1}], "abc": [0.24734251000000002, 0.54386836, 0.44132052], "properties": {"magmom": 0.0}, "label": "I", "xyz": [1.68960991121401, 7.86817761571802, 9.04422359099535]}, {"species": [{"element": "I", "occu": 1}], "abc": [0.744640099999999, 0.20762251, 0.44149535], "properties": {"magmom": -0.0}, "label": "I", "xyz": [5.086676339006141, 3.003687851415351, 9.047806478123313]}, {"species": [{"element": "I", "occu": 1}], "abc": [0.2446401, 0.29237749, 0.55850465], "properties": {"magmom": -0.0}, "label": "I", "xyz": [1.671149604006147, 4.229843453584649, 11.445742271876687]}, {"species": [{"element": "I", "occu": 1}], "abc": [0.723390699999999, 0.20173106000000002, 0.25], "properties": {"magmom": -0.0}, "label": "I", "xyz": [4.941520551400723, 2.9184558754016665, 5.1233871875]}, {"species": [{"element": "I", "occu": 1}], "abc": [0.23068549, 0.77879662, 0.15075393], "properties": {"magmom": -0.0}, "label": "I", "xyz": [1.5758249169431504, 11.266899461996378, 3.0894830137090876]}, {"species": [{"element": "I", "occu": 1}], "abc": [0.7766093, 0.70173106, 0.25], "properties": {"magmom": -0.0}, "label": "I", "xyz": [5.305059653599271, 10.151987180401665, 5.1233871875]}, {"species": [{"element": "I", "occu": 1}], "abc": [0.7693145100000001, 0.22120338, 0.65075393], "properties": {"magmom": -0.0}, "label": "I", "xyz": [5.255228553056851, 3.2001631480036217, 13.336257388709088]}, {"species": [{"element": "I", "occu": 1}], "abc": [0.27184827, 0.02658782, 0.8491652], "properties": {"magmom": 0.0}, "label": "I", "xyz": [1.857010068096997, 0.3846476566034102, 17.402408423003497]}, {"species": [{"element": "I", "occu": 1}], "abc": [0.2766093, 0.79826894, 0.75], "properties": {"magmom": -0.0}, "label": "I", "xyz": [1.889532918599271, 11.548606734598334, 15.370161562499998]}, {"species": [{"element": "I", "occu": 1}], "abc": [0.77184827, 0.47341218, 0.1508348], "properties": {"magmom": 0.0}, "label": "I", "xyz": [5.2725368030969975, 6.84888364839659, 3.0911403269964994]}, {"species": [{"element": "I", "occu": 1}], "abc": [0.74734151, 0.9561316400000001, 0.94132052], "properties": {"magmom": 0.0}, "label": "I", "xyz": [5.105129815160541, 13.83241629928198, 19.29099796599535]}, {"species": [{"element": "I", "occu": 1}], "abc": [0.72604369, 0.94947283, 0.75], "properties": {"magmom": 0.0}, "label": "I", "xyz": [4.959643267946105, 13.736082878103886, 15.370161562499998]}, {"species": [{"element": "I", "occu": 1}], "abc": [0.24734251000000002, 0.54386836, 0.05867948], "properties": {"magmom": 0.0}, "label": "I", "xyz": [1.68960991121401, 7.86817761571802, 1.2025507840046499]}, {"species": [{"element": "I", "occu": 1}], "abc": [0.7553599, 0.70762251, 0.44149535], "properties": {"magmom": -0.0}, "label": "I", "xyz": [5.159903865993853, 10.23721915641535, 9.047806478123313]}, {"species": [{"element": "I", "occu": 1}], "abc": [0.25265749, 0.04386836, 0.05867948], "properties": {"magmom": 0.0}, "label": "I", "xyz": [1.7259168237859903, 0.6346463107180196, 1.2025507840046499]}, {"species": [{"element": "I", "occu": 1}], "abc": [0.22815173, 0.52658782, 0.650834799999999], "properties": {"magmom": 0.0}, "label": "I", "xyz": [1.5585166669030033, 7.618178961603411, 13.33791470199648]}, {"species": [{"element": "I", "occu": 1}], "abc": [0.73068549, 0.7212033800000001, 0.65075393], "properties": {"magmom": -0.0}, "label": "I", "xyz": [4.991351651943151, 10.433694453003621, 13.336257388709088]}, {"species": [{"element": "I", "occu": 1}], "abc": [0.77184827, 0.47341218, 0.3491652], "properties": {"magmom": 0.0}, "label": "I", "xyz": [5.2725368030969975, 6.84888364839659, 7.1556340480035]}, {"species": [{"element": "I", "occu": 1}], "abc": [0.7526584900000001, 0.45613164, 0.55867948], "properties": {"magmom": 0.0}, "label": "I", "xyz": [5.141450389839461, 6.59888499428198, 11.44932515900465]}, {"species": [{"element": "I", "occu": 1}], "abc": [0.72815173, 0.9734121800000001, 0.1508348], "properties": {"magmom": 0.0}, "label": "I", "xyz": [4.974043401903003, 14.08241495339659, 3.0911403269964994]}, {"species": [{"element": "I", "occu": 1}], "abc": [0.74734151, 0.9561316400000001, 0.55867948], "properties": {"magmom": 0.0}, "label": "I", "xyz": [5.105129815160541, 13.83241629928198, 11.44932515900465]}, {"species": [{"element": "I", "occu": 1}], "abc": [0.2553599, 0.79237749, 0.9414953500000001], "properties": {"magmom": -0.0}, "label": "I", "xyz": [1.744377130993853, 11.46337475858465, 19.294580853123314]}, {"species": [{"element": "I", "occu": 1}], "abc": [0.2553599, 0.79237749, 0.55850465], "properties": {"magmom": -0.0}, "label": "I", "xyz": [1.744377130993853, 11.46337475858465, 11.445742271876687]}]}, "task_ids": null, "uncorrected_energy_per_atom": null, "energy_per_atom": -4.016531502708332, "formation_energy_per_atom": -0.7686997330972211, "energy_above_hull": 0.0, "is_stable": true, "equilibrium_reaction_energy_per_atom": null, "decomposes_to": null, "xas": null, "grain_boundaries": null, "band_gap": 1.1846, "cbm": null, "vbm": null, "efermi": 1.6591052400000001, "is_gap_direct": null, "is_metal": null, "es_source_calc_id": null, "bandstructure": null, "dos": null, "dos_energy_up": null, "dos_energy_down": null, "is_magnetic": null, "ordering": null, "total_magnetization": 0.0, "total_magnetization_normalized_vol": null, "total_magnetization_normalized_formula_units": null, "num_magnetic_sites": null, "num_unique_magnetic_sites": null, "types_of_magnetic_species": null, "bulk_modulus": null, "shear_modulus": null, "universal_anisotropy": null, "homogeneous_poisson": null, "e_total": null, "e_ionic": null, "e_electronic": null, "n": null, "e_ij_max": null, "weighted_surface_energy_EV_PER_ANG2": null, "weighted_surface_energy": null, "weighted_work_function": null, "surface_anisotropy": null, "shape_factor": null, "has_reconstructed": null, "possible_species": null, "has_props": null, "theoretical": null, "database_IDs": null, "fields_not_requested": ["builder_meta", "nsites", "elements", "nelements", "composition", "composition_reduced", "chemsys", "symmetry", "property_name", "deprecated", "deprecation_reasons", "last_updated", "origins", "warnings", "task_ids", "uncorrected_energy_per_atom", "equilibrium_reaction_energy_per_atom", "decomposes_to", "xas", "grain_boundaries", "cbm", "vbm", "is_gap_direct", "is_metal", "es_source_calc_id", "bandstructure", "dos", "dos_energy_up", "dos_energy_down", "is_magnetic", "ordering", "total_magnetization_normalized_vol", "total_magnetization_normalized_formula_units", "num_magnetic_sites", "num_unique_magnetic_sites", "types_of_magnetic_species", "bulk_modulus", "shear_modulus", "universal_anisotropy", "homogeneous_poisson", "e_total", "e_ionic", "e_electronic", "n", "e_ij_max", "weighted_surface_energy_EV_PER_ANG2", "weighted_surface_energy", "weighted_work_function", "surface_anisotropy", "shape_factor", "has_reconstructed", "possible_species", "has_props", "theoretical", "database_IDs"]}