{
  "builder_meta": null,
  "nsites": null,
  "elements": null,
  "nelements": null,
  "composition": null,
  "composition_reduced": null,
  "formula_pretty": "TaIr",
  "formula_anonymous": "AB",
  "chemsys": null,
  "volume": 190.92577023092227,
  "density": 19.473165747304925,
  "density_atomic": 15.910480852576855,
  "symmetry": null,
  "property_name": null,
  "material_id": "mp-571499",
  "deprecated": null,
  "deprecation_reasons": null,
  "last_updated": null,
  "origins": null,
  "warnings": null,
  "structure": {
    "@module": "pymatgen.core.structure",
    "@class": "Structure",
    "charge": 0,
    "lattice": {
      "matrix": [
        [2.86185079, 0.0, 0.0],
        [0.0, 4.83237205, -0.0],
        [0.0, 0.0, 13.80566086]
      ],
      "pbc": [true, true, true],
      "a": 2.86185079,
      "b": 4.83237205,
      "c": 13.80566086,
      "alpha": 90.0,
      "beta": 90.0,
      "gamma": 90.0,
      "volume": 190.92577023092227
    },
    "properties": {},
    "sites": [
      {
        "species": [{ "element": "Ta", "occu": 1 }],
        "abc": [0.0, 0.94653637, 0.75],
        "properties": { "magmom": -0.0 },
        "label": "Ta",
        "xyz": [0.0, 4.574015898696459, 10.354245644999999]
      },
      {
        "species": [{ "element": "Ta", "occu": 1 }],
        "abc": [0.0, 0.32494131, 0.91438692],
        "properties": { "magmom": -0.0 },
        "label": "Ta",
        "xyz": [0.0, 1.5702373043343854, 12.623715712339951]
      },
      {
        "species": [{ "element": "Ta", "occu": 1 }],
        "abc": [0.0, 0.67505869, 0.41438692],
        "properties": { "magmom": -0.0 },
        "label": "Ta",
        "xyz": [0.0, 3.2621347456656142, 5.7208852823399505]
      },
      {
        "species": [{ "element": "Ta", "occu": 1 }],
        "abc": [0.0, 0.67505869, 0.08561308000000001],
        "properties": { "magmom": -0.0 },
        "label": "Ta",
        "xyz": [0.0, 3.2621347456656142, 1.1819451476600489]
      },
      {
        "species": [{ "element": "Ta", "occu": 1 }],
        "abc": [-0.0, 0.05346363, 0.25],
        "properties": { "magmom": -0.0 },
        "label": "Ta",
        "xyz": [0.0, 0.2583561513035415, 3.451415215]
      },
      {
        "species": [{ "element": "Ta", "occu": 1 }],
        "abc": [0.0, 0.32494131, 0.58561308],
        "properties": { "magmom": -0.0 },
        "label": "Ta",
        "xyz": [0.0, 1.5702373043343854, 8.084775577660048]
      },
      {
        "species": [{ "element": "Ir", "occu": 1 }],
        "abc": [0.5, 0.45757498, 0.75],
        "properties": { "magmom": 0.0 },
        "label": "Ir",
        "xyz": [1.430925395, 2.2111725441313093, 10.354245644999999]
      },
      {
        "species": [{ "element": "Ir", "occu": 1 }],
        "abc": [0.5, 0.54242502, 0.25],
        "properties": { "magmom": 0.0 },
        "label": "Ir",
        "xyz": [1.430925395, 2.621199505868691, 3.451415215]
      },
      {
        "species": [{ "element": "Ir", "occu": 1 }],
        "abc": [0.5, 0.82362304, 0.9179670400000001],
        "properties": { "magmom": -0.0 },
        "label": "Ir",
        "xyz": [1.430925395, 3.980052958232032, 12.673141634898055]
      },
      {
        "species": [{ "element": "Ir", "occu": 1 }],
        "abc": [0.5, 0.82362304, 0.58203296],
        "properties": { "magmom": -0.0 },
        "label": "Ir",
        "xyz": [1.430925395, 3.980052958232032, 8.035349655101946]
      },
      {
        "species": [{ "element": "Ir", "occu": 1 }],
        "abc": [0.5, 0.17637696, 0.08203296],
        "properties": { "magmom": -0.0 },
        "label": "Ir",
        "xyz": [1.430925395, 0.852319091767968, 1.1325192251019456]
      },
      {
        "species": [{ "element": "Ir", "occu": 1 }],
        "abc": [0.5, 0.17637696, 0.41796704],
        "properties": { "magmom": -0.0 },
        "label": "Ir",
        "xyz": [1.430925395, 0.852319091767968, 5.7703112048980545]
      }
    ]
  },
  "task_ids": null,
  "uncorrected_energy_per_atom": null,
  "energy_per_atom": -51.122786204166665,
  "formation_energy_per_atom": -0.6471931228333381,
  "energy_above_hull": 0.0,
  "is_stable": true,
  "equilibrium_reaction_energy_per_atom": null,
  "decomposes_to": null,
  "xas": null,
  "grain_boundaries": null,
  "band_gap": 0.0,
  "cbm": null,
  "vbm": null,
  "efermi": 7.569298489999999,
  "is_gap_direct": null,
  "is_metal": null,
  "es_source_calc_id": null,
  "bandstructure": null,
  "dos": null,
  "dos_energy_up": null,
  "dos_energy_down": null,
  "is_magnetic": null,
  "ordering": null,
  "total_magnetization": 1e-7,
  "total_magnetization_normalized_vol": null,
  "total_magnetization_normalized_formula_units": null,
  "num_magnetic_sites": null,
  "num_unique_magnetic_sites": null,
  "types_of_magnetic_species": null,
  "bulk_modulus": null,
  "shear_modulus": null,
  "universal_anisotropy": null,
  "homogeneous_poisson": null,
  "e_total": null,
  "e_ionic": null,
  "e_electronic": null,
  "n": null,
  "e_ij_max": null,
  "weighted_surface_energy_EV_PER_ANG2": null,
  "weighted_surface_energy": null,
  "weighted_work_function": null,
  "surface_anisotropy": null,
  "shape_factor": null,
  "has_reconstructed": null,
  "possible_species": null,
  "has_props": null,
  "theoretical": null,
  "database_IDs": null,
  "fields_not_requested": [
    "builder_meta",
    "nsites",
    "elements",
    "nelements",
    "composition",
    "composition_reduced",
    "chemsys",
    "symmetry",
    "property_name",
    "deprecated",
    "deprecation_reasons",
    "last_updated",
    "origins",
    "warnings",
    "task_ids",
    "uncorrected_energy_per_atom",
    "equilibrium_reaction_energy_per_atom",
    "decomposes_to",
    "xas",
    "grain_boundaries",
    "cbm",
    "vbm",
    "is_gap_direct",
    "is_metal",
    "es_source_calc_id",
    "bandstructure",
    "dos",
    "dos_energy_up",
    "dos_energy_down",
    "is_magnetic",
    "ordering",
    "total_magnetization_normalized_vol",
    "total_magnetization_normalized_formula_units",
    "num_magnetic_sites",
    "num_unique_magnetic_sites",
    "types_of_magnetic_species",
    "bulk_modulus",
    "shear_modulus",
    "universal_anisotropy",
    "homogeneous_poisson",
    "e_total",
    "e_ionic",
    "e_electronic",
    "n",
    "e_ij_max",
    "weighted_surface_energy_EV_PER_ANG2",
    "weighted_surface_energy",
    "weighted_work_function",
    "surface_anisotropy",
    "shape_factor",
    "has_reconstructed",
    "possible_species",
    "has_props",
    "theoretical",
    "database_IDs"
  ]
}
