{
  "builder_meta": null,
  "nsites": null,
  "elements": null,
  "nelements": null,
  "composition": null,
  "composition_reduced": null,
  "formula_pretty": "TaMn2",
  "formula_anonymous": "AB2",
  "chemsys": null,
  "volume": 167.0971811178548,
  "density": 11.560328198429545,
  "density_atomic": 13.924765093154567,
  "symmetry": null,
  "property_name": null,
  "material_id": "mp-12678",
  "deprecated": null,
  "deprecation_reasons": null,
  "last_updated": null,
  "origins": null,
  "warnings": null,
  "structure": {
    "@module": "pymatgen.core.structure",
    "@class": "Structure",
    "charge": 0,
    "lattice": {
      "matrix": [
        [4.95169221, 2.0700000000000002e-5, 1.38e-6],
        [-2.47582901, 4.28830037, -1.38e-6],
        [1.009999999999998e-6, 2e-8, 7.86917559]
      ],
      "pbc": [true, true, true],
      "a": 4.9516922100434595,
      "b": 4.951691564516273,
      "c": 7.869175590000065,
      "alpha": 90.00001951870064,
      "beta": 89.99997667823932,
      "gamma": 119.99953638774838,
      "volume": 167.0971811178548
    },
    "properties": {},
    "sites": [
      {
        "species": [{ "element": "Ta", "occu": 1 }],
        "abc": [0.33333147, 0.66666853, 0.06025639],
        "properties": { "magmom": -0.34400000000000003 },
        "label": "Ta",
        "xyz": [-2.382422252565642e-6, 2.858881805032913, 0.4741676533243773]
      },
      {
        "species": [{ "element": "Ta", "occu": 1 }],
        "abc": [0.6666680700000001, 0.33333093, 0.56027738],
        "properties": { "magmom": -0.34400000000000003 },
        "label": "Ta",
        "xyz": [2.4758652683306095, 1.429436961686041, 4.4089215423304084]
      },
      {
        "species": [{ "element": "Ta", "occu": 1 }],
        "abc": [0.66666753, 0.33333147, 0.9397436100000001],
        "properties": { "magmom": -0.34400000000000003 },
        "label": "Ta",
        "xyz": [2.475861640730043, 1.4294392849463873, 7.395007936674244]
      },
      {
        "species": [{ "element": "Ta", "occu": 1 }],
        "abc": [0.33333193, 0.66666907, 0.43972262],
        "properties": { "magmom": -0.34400000000000003 },
        "label": "Ta",
        "xyz": [-1.0583306091817771e-6, 2.858884128313959, 3.460254047669593]
      },
      {
        "species": [{ "element": "Mn", "occu": 1 }],
        "abc": [0.0, 0.0, 0.0],
        "properties": { "magmom": -2.578 },
        "label": "Mn",
        "xyz": [0.0, 0.0, 0.0]
      },
      {
        "species": [{ "element": "Mn", "occu": 1 }],
        "abc": [0.0, 0.0, 0.5],
        "properties": { "magmom": -2.58 },
        "label": "Mn",
        "xyz": [5.04999999999999e-7, 1e-8, 3.934587795]
      },
      {
        "species": [{ "element": "Mn", "occu": 1 }],
        "abc": [0.83006627, 0.66013449, 0.24996223],
        "properties": { "magmom": 2.453 },
        "label": "Mn",
        "xyz": [2.475852814561054, 2.830872165087795, 1.966996913243822]
      },
      {
        "species": [{ "element": "Mn", "occu": 1 }],
        "abc": [0.16993327, 0.83006673, 0.75003785],
        "properties": { "magmom": 2.453 },
        "label": "Mn",
        "xyz": [-1.2136452835527822, 3.5595789980031363, 5.902178629811907]
      },
      {
        "species": [{ "element": "Mn", "occu": 1 }],
        "abc": [0.66013349, 0.83006627, 0.75003777],
        "properties": { "magmom": 2.453 },
        "label": "Mn",
        "xyz": [1.213676466042768, 3.5595871725295183, 5.902178676754798]
      },
      {
        "species": [{ "element": "Mn", "occu": 1 }],
        "abc": [0.33986651, 0.16993373, 0.24996223],
        "properties": { "magmom": 2.453 },
        "label": "Mn",
        "xyz": [1.2621877439572322, 0.7287339174704818, 1.966996913245202]
      },
      {
        "species": [{ "element": "Mn", "occu": 1 }],
        "abc": [0.83006673, 0.16993327, 0.24996215],
        "properties": { "magmom": 2.453 },
        "label": "Mn",
        "xyz": [3.689509493552782, 0.7287420919968639, 1.9669969601880932]
      },
      {
        "species": [{ "element": "Mn", "occu": 1 }],
        "abc": [0.16993373, 0.33986551, 0.75003777],
        "properties": { "magmom": 2.453 },
        "label": "Mn",
        "xyz": [1.1395438946060355e-5, 1.457448924912205, 5.902178676756178]
      }
    ]
  },
  "task_ids": null,
  "uncorrected_energy_per_atom": null,
  "energy_per_atom": -26.117484015000002,
  "formation_energy_per_atom": -0.131316660432953,
  "energy_above_hull": 0.0,
  "is_stable": true,
  "equilibrium_reaction_energy_per_atom": null,
  "decomposes_to": null,
  "xas": null,
  "grain_boundaries": null,
  "band_gap": 0.0,
  "cbm": null,
  "vbm": null,
  "efermi": 6.37486015,
  "is_gap_direct": null,
  "is_metal": null,
  "es_source_calc_id": null,
  "bandstructure": null,
  "dos": null,
  "dos_energy_up": null,
  "dos_energy_down": null,
  "is_magnetic": null,
  "ordering": null,
  "total_magnetization": 7.7214193,
  "total_magnetization_normalized_vol": null,
  "total_magnetization_normalized_formula_units": null,
  "num_magnetic_sites": null,
  "num_unique_magnetic_sites": null,
  "types_of_magnetic_species": null,
  "bulk_modulus": null,
  "shear_modulus": null,
  "universal_anisotropy": null,
  "homogeneous_poisson": null,
  "e_total": null,
  "e_ionic": null,
  "e_electronic": null,
  "n": null,
  "e_ij_max": null,
  "weighted_surface_energy_EV_PER_ANG2": null,
  "weighted_surface_energy": null,
  "weighted_work_function": null,
  "surface_anisotropy": null,
  "shape_factor": null,
  "has_reconstructed": null,
  "possible_species": null,
  "has_props": null,
  "theoretical": null,
  "database_IDs": null,
  "fields_not_requested": [
    "builder_meta",
    "nsites",
    "elements",
    "nelements",
    "composition",
    "composition_reduced",
    "chemsys",
    "symmetry",
    "property_name",
    "deprecated",
    "deprecation_reasons",
    "last_updated",
    "origins",
    "warnings",
    "task_ids",
    "uncorrected_energy_per_atom",
    "equilibrium_reaction_energy_per_atom",
    "decomposes_to",
    "xas",
    "grain_boundaries",
    "cbm",
    "vbm",
    "is_gap_direct",
    "is_metal",
    "es_source_calc_id",
    "bandstructure",
    "dos",
    "dos_energy_up",
    "dos_energy_down",
    "is_magnetic",
    "ordering",
    "total_magnetization_normalized_vol",
    "total_magnetization_normalized_formula_units",
    "num_magnetic_sites",
    "num_unique_magnetic_sites",
    "types_of_magnetic_species",
    "bulk_modulus",
    "shear_modulus",
    "universal_anisotropy",
    "homogeneous_poisson",
    "e_total",
    "e_ionic",
    "e_electronic",
    "n",
    "e_ij_max",
    "weighted_surface_energy_EV_PER_ANG2",
    "weighted_surface_energy",
    "weighted_work_function",
    "surface_anisotropy",
    "shape_factor",
    "has_reconstructed",
    "possible_species",
    "has_props",
    "theoretical",
    "database_IDs"
  ]
}
