{
  "builder_meta": null,
  "nsites": null,
  "elements": null,
  "nelements": null,
  "composition": null,
  "composition_reduced": null,
  "formula_pretty": "TaN",
  "formula_anonymous": "AB",
  "chemsys": null,
  "volume": 68.47881040118597,
  "density": 14.182330026150181,
  "density_atomic": 11.413135066864328,
  "symmetry": null,
  "property_name": null,
  "material_id": "mp-1279",
  "deprecated": null,
  "deprecation_reasons": null,
  "last_updated": null,
  "origins": null,
  "warnings": null,
  "structure": {
    "@module": "pymatgen.core.structure",
    "@class": "Structure",
    "charge": 0,
    "lattice": {
      "matrix": [
        [5.20849575, 0.0, 0.0],
        [-2.60424737, 4.51068934, -0.0],
        [0.0, -0.0, 2.91474775]
      ],
      "pbc": [true, true, true],
      "a": 5.20849575,
      "b": 5.208495242019671,
      "c": 2.91474775,
      "alpha": 90.0,
      "beta": 90.0,
      "gamma": 119.99999681161718,
      "volume": 68.47881040118597
    },
    "properties": {},
    "sites": [
      {
        "species": [{ "element": "Ta", "occu": 1 }],
        "abc": [0.0, -0.0, 0.0],
        "properties": { "magmom": 0.0 },
        "label": "Ta",
        "xyz": [0.0, 0.0, 0.0]
      },
      {
        "species": [{ "element": "Ta", "occu": 1 }],
        "abc": [0.333333, 0.666667, 0.5],
        "properties": { "magmom": -0.0 },
        "label": "Ta",
        "xyz": [-2.2675810400496488e-6, 3.00712773022978, 1.457373875]
      },
      {
        "species": [{ "element": "Ta", "occu": 1 }],
        "abc": [0.666667, 0.333333, 0.5],
        "properties": { "magmom": -0.0 },
        "label": "Ta",
        "xyz": [2.6042506475810403, 1.50356160977022, 1.457373875]
      },
      {
        "species": [{ "element": "N", "occu": 1 }],
        "abc": [0.39239217, -0.0, 0.0],
        "properties": { "magmom": -0.0 },
        "label": "N",
        "xyz": [2.0437729497782775, 0.0, 0.0]
      },
      {
        "species": [{ "element": "N", "occu": 1 }],
        "abc": [0.60760783, 0.60760783, -0.0],
        "properties": { "magmom": -0.0 },
        "label": "N",
        "xyz": [1.5823617069528155, 2.740730161681532, 0.0]
      },
      {
        "species": [{ "element": "N", "occu": 1 }],
        "abc": [-0.0, 0.39239217, 0.0],
        "properties": { "magmom": -0.0 },
        "label": "N",
        "xyz": [-1.0218862767310928, 1.7699591783184676, 0.0]
      }
    ]
  },
  "task_ids": null,
  "uncorrected_energy_per_atom": null,
  "energy_per_atom": -30.21899784,
  "formation_energy_per_atom": -1.3587061480416671,
  "energy_above_hull": 0.0,
  "is_stable": true,
  "equilibrium_reaction_energy_per_atom": null,
  "decomposes_to": null,
  "xas": null,
  "grain_boundaries": null,
  "band_gap": 0.0,
  "cbm": null,
  "vbm": null,
  "efermi": 8.1232589,
  "is_gap_direct": null,
  "is_metal": null,
  "es_source_calc_id": null,
  "bandstructure": null,
  "dos": null,
  "dos_energy_up": null,
  "dos_energy_down": null,
  "is_magnetic": null,
  "ordering": null,
  "total_magnetization": 2e-7,
  "total_magnetization_normalized_vol": null,
  "total_magnetization_normalized_formula_units": null,
  "num_magnetic_sites": null,
  "num_unique_magnetic_sites": null,
  "types_of_magnetic_species": null,
  "bulk_modulus": null,
  "shear_modulus": null,
  "universal_anisotropy": null,
  "homogeneous_poisson": null,
  "e_total": null,
  "e_ionic": null,
  "e_electronic": null,
  "n": null,
  "e_ij_max": null,
  "weighted_surface_energy_EV_PER_ANG2": null,
  "weighted_surface_energy": null,
  "weighted_work_function": null,
  "surface_anisotropy": null,
  "shape_factor": null,
  "has_reconstructed": null,
  "possible_species": null,
  "has_props": null,
  "theoretical": null,
  "database_IDs": null,
  "fields_not_requested": [
    "builder_meta",
    "nsites",
    "elements",
    "nelements",
    "composition",
    "composition_reduced",
    "chemsys",
    "symmetry",
    "property_name",
    "deprecated",
    "deprecation_reasons",
    "last_updated",
    "origins",
    "warnings",
    "task_ids",
    "uncorrected_energy_per_atom",
    "equilibrium_reaction_energy_per_atom",
    "decomposes_to",
    "xas",
    "grain_boundaries",
    "cbm",
    "vbm",
    "is_gap_direct",
    "is_metal",
    "es_source_calc_id",
    "bandstructure",
    "dos",
    "dos_energy_up",
    "dos_energy_down",
    "is_magnetic",
    "ordering",
    "total_magnetization_normalized_vol",
    "total_magnetization_normalized_formula_units",
    "num_magnetic_sites",
    "num_unique_magnetic_sites",
    "types_of_magnetic_species",
    "bulk_modulus",
    "shear_modulus",
    "universal_anisotropy",
    "homogeneous_poisson",
    "e_total",
    "e_ionic",
    "e_electronic",
    "n",
    "e_ij_max",
    "weighted_surface_energy_EV_PER_ANG2",
    "weighted_surface_energy",
    "weighted_work_function",
    "surface_anisotropy",
    "shape_factor",
    "has_reconstructed",
    "possible_species",
    "has_props",
    "theoretical",
    "database_IDs"
  ]
}
