{
  "builder_meta": null,
  "nsites": null,
  "elements": null,
  "nelements": null,
  "composition": null,
  "composition_reduced": null,
  "formula_pretty": "TaN2",
  "formula_anonymous": "AB2",
  "chemsys": null,
  "volume": 63.42597490621668,
  "density": 10.941522597320967,
  "density_atomic": 10.57099581770278,
  "symmetry": null,
  "property_name": null,
  "material_id": "mp-1019272",
  "deprecated": null,
  "deprecation_reasons": null,
  "last_updated": null,
  "origins": null,
  "warnings": null,
  "structure": {
    "@module": "pymatgen.core.structure",
    "@class": "Structure",
    "charge": 0,
    "lattice": {
      "matrix": [
        [1.535079, -2.658835, 0.0],
        [1.535079, 2.658835, 0.0],
        [0.0, 0.0, 7.769893]
      ],
      "pbc": [true, true, true],
      "a": 3.070158154471199,
      "b": 3.070158154471199,
      "c": 7.769893,
      "alpha": 90.0,
      "beta": 90.0,
      "gamma": 120.0000033287315,
      "volume": 63.42597490621668
    },
    "properties": {},
    "sites": [
      {
        "species": [{ "element": "Ta", "occu": 1 }],
        "abc": [0.666667, 0.333333, 0.25],
        "properties": { "magmom": 0.265 },
        "label": "Ta",
        "xyz": [1.535079, -0.8862801058900001, 1.94247325]
      },
      {
        "species": [{ "element": "Ta", "occu": 1 }],
        "abc": [0.333333, 0.666667, 0.75],
        "properties": { "magmom": 0.265 },
        "label": "Ta",
        "xyz": [1.535079, 0.8862801058900001, 5.82741975]
      },
      {
        "species": [{ "element": "N", "occu": 1 }],
        "abc": [0.0, 0.0, 0.409215999999999],
        "properties": { "magmom": 0.013000000000000001 },
        "label": "N",
        "xyz": [0.0, 0.0, 3.179564533887992]
      },
      {
        "species": [{ "element": "N", "occu": 1 }],
        "abc": [0.0, 0.0, 0.590784],
        "properties": { "magmom": 0.013000000000000001 },
        "label": "N",
        "xyz": [0.0, 0.0, 4.590328466112]
      },
      {
        "species": [{ "element": "N", "occu": 1 }],
        "abc": [0.0, 0.0, 0.909215999999999],
        "properties": { "magmom": 0.013000000000000001 },
        "label": "N",
        "xyz": [0.0, 0.0, 7.064511033887992]
      },
      {
        "species": [{ "element": "N", "occu": 1 }],
        "abc": [0.0, 0.0, 0.090783999999999],
        "properties": { "magmom": 0.013000000000000001 },
        "label": "N",
        "xyz": [0.0, 0.0, 0.7053819661119922]
      }
    ]
  },
  "task_ids": null,
  "uncorrected_energy_per_atom": null,
  "energy_per_atom": -22.988558349027773,
  "formation_energy_per_atom": -0.705446997305552,
  "energy_above_hull": 0.43831693722222503,
  "is_stable": false,
  "equilibrium_reaction_energy_per_atom": null,
  "decomposes_to": null,
  "xas": null,
  "grain_boundaries": null,
  "band_gap": 0.0,
  "cbm": null,
  "vbm": null,
  "efermi": 6.30338164,
  "is_gap_direct": null,
  "is_metal": null,
  "es_source_calc_id": null,
  "bandstructure": null,
  "dos": null,
  "dos_energy_up": null,
  "dos_energy_down": null,
  "is_magnetic": null,
  "ordering": null,
  "total_magnetization": 0.8232742,
  "total_magnetization_normalized_vol": null,
  "total_magnetization_normalized_formula_units": null,
  "num_magnetic_sites": null,
  "num_unique_magnetic_sites": null,
  "types_of_magnetic_species": null,
  "bulk_modulus": null,
  "shear_modulus": null,
  "universal_anisotropy": null,
  "homogeneous_poisson": null,
  "e_total": null,
  "e_ionic": null,
  "e_electronic": null,
  "n": null,
  "e_ij_max": null,
  "weighted_surface_energy_EV_PER_ANG2": null,
  "weighted_surface_energy": null,
  "weighted_work_function": null,
  "surface_anisotropy": null,
  "shape_factor": null,
  "has_reconstructed": null,
  "possible_species": null,
  "has_props": null,
  "theoretical": null,
  "database_IDs": null,
  "fields_not_requested": [
    "builder_meta",
    "nsites",
    "elements",
    "nelements",
    "composition",
    "composition_reduced",
    "chemsys",
    "symmetry",
    "property_name",
    "deprecated",
    "deprecation_reasons",
    "last_updated",
    "origins",
    "warnings",
    "task_ids",
    "uncorrected_energy_per_atom",
    "equilibrium_reaction_energy_per_atom",
    "decomposes_to",
    "xas",
    "grain_boundaries",
    "cbm",
    "vbm",
    "is_gap_direct",
    "is_metal",
    "es_source_calc_id",
    "bandstructure",
    "dos",
    "dos_energy_up",
    "dos_energy_down",
    "is_magnetic",
    "ordering",
    "total_magnetization_normalized_vol",
    "total_magnetization_normalized_formula_units",
    "num_magnetic_sites",
    "num_unique_magnetic_sites",
    "types_of_magnetic_species",
    "bulk_modulus",
    "shear_modulus",
    "universal_anisotropy",
    "homogeneous_poisson",
    "e_total",
    "e_ionic",
    "e_electronic",
    "n",
    "e_ij_max",
    "weighted_surface_energy_EV_PER_ANG2",
    "weighted_surface_energy",
    "weighted_work_function",
    "surface_anisotropy",
    "shape_factor",
    "has_reconstructed",
    "possible_species",
    "has_props",
    "theoretical",
    "database_IDs"
  ]
}
