{"builder_meta": null, "nsites": null, "elements": null, "nelements": null, "composition": null, "composition_reduced": null, "formula_pretty": "TaNi", "formula_anonymous": "AB", "chemsys": null, "volume": 367.3131114281722, "density": 14.083728664670831, "density_atomic": 14.127427362622008, "symmetry": null, "property_name": null, "material_id": "mp-1217954", "deprecated": null, "deprecation_reasons": null, "last_updated": null, "origins": null, "warnings": null, "structure": {"@module": "pymatgen.core.structure", "@class": "Structure", "charge": 0, "lattice": {"matrix": [[17.79858, -2.444641, 0.0], [17.79858, 2.444641, 0.0], [17.462808, 0.0, 4.220909]], "pbc": [true, true, true], "a": 17.965681719191206, "b": 17.965681719191206, "c": 17.96568217550185, "alpha": 15.64132306472768, "beta": 15.64132306472768, "gamma": 15.641321037353011, "volume": 367.3131114281722}, "properties": {}, "sites": [{"species": [{"element": "Ta", "occu": 1}], "abc": [0.827324, 0.827324, 0.827324], "properties": {"magmom": -0.014}, "label": "Ta", "xyz": [43.897784965632, 0.0, 3.4920593175159995]}, {"species": [{"element": "Ta", "occu": 1}], "abc": [0.327488, 0.327488, 0.327488], "properties": {"magmom": 0.08700000000000001}, "label": "Ta", "xyz": [17.376502800384003, 0.0, 1.382297046592]}, {"species": [{"element": "Ta", "occu": 1}], "abc": [0.672512, 0.672512, 0.672512], "properties": {"magmom": 0.08700000000000001}, "label": "Ta", "xyz": [35.683465199616, 0.0, 2.838611953408]}, {"species": [{"element": "Ta", "occu": 1}], "abc": [0.172676, 0.172676, 0.172676], "properties": {"magmom": -0.014}, "label": "Ta", "xyz": [9.162183034368, 0.0, 0.728849682484]}, {"species": [{"element": "Ta", "occu": 1}], "abc": [0.774281, 0.774281, 0.774281], "properties": {"magmom": -0.007}, "label": "Ta", "xyz": [41.083325083008, 0.0, 3.268169641429]}, {"species": [{"element": "Ta", "occu": 1}], "abc": [0.274783, 0.274783, 0.274783], "properties": {"magmom": 0.017}, "label": "Ta", "xyz": [14.579977186944001, 0.0, 1.159834037747]}, {"species": [{"element": "Ta", "occu": 1}], "abc": [0.725217, 0.725217, 0.725217], "properties": {"magmom": 0.017}, "label": "Ta", "xyz": [38.479990813056, 0.0, 3.061074962253]}, {"species": [{"element": "Ta", "occu": 1}], "abc": [0.225719, 0.225719, 0.225719], "properties": {"magmom": -0.007}, "label": "Ta", "xyz": [11.976642916992, 0.0, 0.952739358571]}, {"species": [{"element": "Ta", "occu": 1}], "abc": [0.416153999999999, 0.416153999999999, 0.416153999999999], "properties": {"magmom": -0.003}, "label": "Ta", "xyz": [22.08111792307195, 0.0, 1.756548163985996]}, {"species": [{"element": "Ta", "occu": 1}], "abc": [0.917186, 0.917186, 0.917186], "properties": {"magmom": 0.009000000000000001}, "label": "Ta", "xyz": [48.66585981004799, 0.0, 3.8713586420739996]}, {"species": [{"element": "Ta", "occu": 1}], "abc": [0.082814, 0.082814, 0.082814], "properties": {"magmom": 0.009000000000000001}, "label": "Ta", "xyz": [4.394108189952, 0.0, 0.349550357926]}, {"species": [{"element": "Ta", "occu": 1}], "abc": [0.583846, 0.583846, 0.583846], "properties": {"magmom": -0.003}, "label": "Ta", "xyz": [30.978850076928, 0.0, 2.464360836014]}, {"species": [{"element": "Ta", "occu": 1}], "abc": [0.5, 0.5, 0.5], "properties": {"magmom": -0.003}, "label": "Ta", "xyz": [26.529984, 0.0, 2.1104545]}, {"species": [{"element": "Ni", "occu": 1}], "abc": [0.704342, 0.204812, 0.204812], "properties": {"magmom": 0.029}, "label": "Ni", "xyz": [19.758242833416002, -1.22117151873, 0.8644928141079999]}, {"species": [{"element": "Ni", "occu": 1}], "abc": [0.199868, 0.708679, 0.708679], "properties": {"magmom": -0.002}, "label": "Ni", "xyz": [28.546371773891998, 1.2438602318509997, 2.9912695692109996]}, {"species": [{"element": "Ni", "occu": 1}], "abc": [0.204812, 0.704342, 0.204812], "properties": {"magmom": 0.029}, "label": "Ni", "xyz": [19.758242833416002, 1.22117151873, 0.8644928141079999]}, {"species": [{"element": "Ni", "occu": 1}], "abc": [0.708679, 0.199868, 0.708679], "properties": {"magmom": -0.002}, "label": "Ni", "xyz": [28.546371773891998, -1.2438602318509997, 2.9912695692109996]}, {"species": [{"element": "Ni", "occu": 1}], "abc": [0.204812, 0.204812, 0.704342], "properties": {"magmom": 0.029}, "label": "Ni", "xyz": [19.590514646256, 0.0, 2.972963486878]}, {"species": [{"element": "Ni", "occu": 1}], "abc": [0.708679, 0.708679, 0.199868], "properties": {"magmom": -0.002}, "label": "Ni", "xyz": [28.717216260984, 0.0, 0.8436246400119999]}, {"species": [{"element": "Ni", "occu": 1}], "abc": [0.800132, 0.291321, 0.291321], "properties": {"magmom": -0.002}, "label": "Ni", "xyz": [24.513596226108, -1.243860231851, 1.229639430789]}, {"species": [{"element": "Ni", "occu": 1}], "abc": [0.295658, 0.795188, 0.795188], "properties": {"magmom": 0.029}, "label": "Ni", "xyz": [33.301725166584, 1.22117151873, 3.356416185892]}, {"species": [{"element": "Ni", "occu": 1}], "abc": [0.291321, 0.800132, 0.291321], "properties": {"magmom": -0.002}, "label": "Ni", "xyz": [24.513596226108, 1.243860231851, 1.229639430789]}, {"species": [{"element": "Ni", "occu": 1}], "abc": [0.795188, 0.295658, 0.795188], "properties": {"magmom": 0.029}, "label": "Ni", "xyz": [33.301725166584, -1.22117151873, 3.356416185892]}, {"species": [{"element": "Ni", "occu": 1}], "abc": [0.291321, 0.291321, 0.800132], "properties": {"magmom": -0.002}, "label": "Ni", "xyz": [24.342751739016, 0.0, 3.377284359988]}, {"species": [{"element": "Ni", "occu": 1}], "abc": [0.795188, 0.795188, 0.295658], "properties": {"magmom": 0.029}, "label": "Ni", "xyz": [33.469453353744, 0.0, 1.2479455131219999]}, {"species": [{"element": "Ni", "occu": 1}], "abc": [0.0, 0.0, 0.0], "properties": {"magmom": 0.158}, "label": "Ni", "xyz": [0.0, 0.0, 0.0]}]}, "task_ids": null, "uncorrected_energy_per_atom": null, "energy_per_atom": -30.533311377173074, "formation_energy_per_atom": -0.24653644083974302, "energy_above_hull": 0.027389137076927004, "is_stable": false, "equilibrium_reaction_energy_per_atom": null, "decomposes_to": null, "xas": null, "grain_boundaries": null, "band_gap": 0.0, "cbm": null, "vbm": null, "efermi": 6.94940196, "is_gap_direct": null, "is_metal": null, "es_source_calc_id": null, "bandstructure": null, "dos": null, "dos_energy_up": null, "dos_energy_down": null, "is_magnetic": null, "ordering": null, "total_magnetization": 0.5249629, "total_magnetization_normalized_vol": null, "total_magnetization_normalized_formula_units": null, "num_magnetic_sites": null, "num_unique_magnetic_sites": null, "types_of_magnetic_species": null, "bulk_modulus": null, "shear_modulus": null, "universal_anisotropy": null, "homogeneous_poisson": null, "e_total": null, "e_ionic": null, "e_electronic": null, "n": null, "e_ij_max": null, "weighted_surface_energy_EV_PER_ANG2": null, "weighted_surface_energy": null, "weighted_work_function": null, "surface_anisotropy": null, "shape_factor": null, "has_reconstructed": null, "possible_species": null, "has_props": null, "theoretical": null, "database_IDs": null, "fields_not_requested": ["builder_meta", "nsites", "elements", "nelements", "composition", "composition_reduced", "chemsys", "symmetry", "property_name", "deprecated", "deprecation_reasons", "last_updated", "origins", "warnings", "task_ids", "uncorrected_energy_per_atom", "equilibrium_reaction_energy_per_atom", "decomposes_to", "xas", "grain_boundaries", "cbm", "vbm", "is_gap_direct", "is_metal", "es_source_calc_id", "bandstructure", "dos", "dos_energy_up", "dos_energy_down", "is_magnetic", "ordering", "total_magnetization_normalized_vol", "total_magnetization_normalized_formula_units", "num_magnetic_sites", "num_unique_magnetic_sites", "types_of_magnetic_species", "bulk_modulus", "shear_modulus", "universal_anisotropy", "homogeneous_poisson", "e_total", "e_ionic", "e_electronic", "n", "e_ij_max", "weighted_surface_energy_EV_PER_ANG2", "weighted_surface_energy", "weighted_work_function", "surface_anisotropy", "shape_factor", "has_reconstructed", "possible_species", "has_props", "theoretical", "database_IDs"]}