{"builder_meta": null, "nsites": null, "elements": null, "nelements": null, "composition": null, "composition_reduced": null, "formula_pretty": "TaNi3", "formula_anonymous": "AB3", "chemsys": null, "volume": 192.18805368736466, "density": 12.339145193230443, "density_atomic": 12.011753355460291, "symmetry": null, "property_name": null, "material_id": "mp-569776", "deprecated": null, "deprecation_reasons": null, "last_updated": null, "origins": null, "warnings": null, "structure": {"@module": "pymatgen.core.structure", "@class": "Structure", "charge": 0, "lattice": {"matrix": [[4.42035516, 0.0, -0.84546804], [0.0, 5.0775531, 0.0], [-0.00733331, 0.0, 8.56418191]], "pbc": [true, true, true], "a": 4.500483968108326, "b": 5.0775531, "c": 8.564185049670915, "alpha": 90.0, "beta": 100.87707585805492, "gamma": 90.0, "volume": 192.18805368736466}, "properties": {}, "sites": [{"species": [{"element": "Ta", "occu": 1}], "abc": [0.38750281000000003, 0.75, 0.62180369], "properties": {"magmom": 0.0}, "label": "Ta", "xyz": [1.7083401664800857, 3.8081648250000004, 4.997618672204056]}, {"species": [{"element": "Ta", "occu": 1}], "abc": [0.61249719, 0.25, 0.37819631000000004], "properties": {"magmom": 0.0}, "label": "Ta", "xyz": [2.7046816835199143, 1.269388275, 2.721095197795945]}, {"species": [{"element": "Ta", "occu": 1}], "abc": [0.21046106, 0.75, 0.1275397], "properties": {"magmom": 0.0}, "label": "Ta", "xyz": [0.9293773443926626, 3.8081648250000004, 0.9143350916523048]}, {"species": [{"element": "Ta", "occu": 1}], "abc": [0.78953894, 0.25, 0.8724603], "properties": {"magmom": 0.0}, "label": "Ta", "xyz": [3.4836445056073373, 1.269388275, 6.8043787783476954]}, {"species": [{"element": "Ni", "occu": 1}], "abc": [0.29418221, 0.99872364, 0.87680968], "properties": {"magmom": 0.0}, "label": "Ni", "xyz": [1.2939599327592626, 5.071072314325284, 7.260435943477321]}, {"species": [{"element": "Ni", "occu": 1}], "abc": [0.88586021, 0.99739824, 0.62666734], "properties": {"magmom": 0.0}, "label": "Ni", "xyz": [3.911221204441088, 5.064342525446544, 4.6179266013531315]}, {"species": [{"element": "Ni", "occu": 1}], "abc": [0.79787617, 0.75, 0.87337735], "properties": {"magmom": 0.0}, "label": "Ni", "xyz": [3.5204912982460086, 3.8081648250000004, 6.805183699861132]}, {"species": [{"element": "Ni", "occu": 1}], "abc": [0.11413979, 0.49739824, 0.37333266], "properties": {"magmom": 0.0}, "label": "Ni", "xyz": [0.5018006455589118, 2.5255659754465443, 3.1007872686468687]}, {"species": [{"element": "Ni", "occu": 1}], "abc": [0.6341906900000001, 0.75, 0.37621318], "properties": {"magmom": 0.0}, "label": "Ni", "xyz": [2.8005892010904345, 3.8081648250000004, 2.6857701507990264]}, {"species": [{"element": "Ni", "occu": 1}], "abc": [0.29418221, 0.50127636, 0.87680968], "properties": {"magmom": 0.0}, "label": "Ni", "xyz": [1.2939599327592626, 2.545257335674716, 7.260435943477321]}, {"species": [{"element": "Ni", "occu": 1}], "abc": [0.36580931, 0.25, 0.62378682], "properties": {"magmom": 0.0}, "label": "Ni", "xyz": [1.6124326489095653, 1.269388275, 5.032943719200974]}, {"species": [{"element": "Ni", "occu": 1}], "abc": [0.70581779, 0.00127636, 0.12319032], "properties": {"magmom": 0.0}, "label": "Ni", "xyz": [3.119061917240737, 0.006480785674716, 0.4582779265226796]}, {"species": [{"element": "Ni", "occu": 1}], "abc": [0.70581779, 0.49872364, 0.12319032], "properties": {"magmom": 0.0}, "label": "Ni", "xyz": [3.119061917240737, 2.5322957643252844, 0.4582779265226796]}, {"species": [{"element": "Ni", "occu": 1}], "abc": [0.11413979, 0.0026017600000000003, 0.37333266], "properties": {"magmom": 0.0}, "label": "Ni", "xyz": [0.5018006455589118, 0.013210574553456002, 3.1007872686468687]}, {"species": [{"element": "Ni", "occu": 1}], "abc": [0.20212383, 0.25, 0.12662265], "properties": {"magmom": 0.0}, "label": "Ni", "xyz": [0.8925305517539912, 1.269388275, 0.9135301701388683]}, {"species": [{"element": "Ni", "occu": 1}], "abc": [0.88586021, 0.50260176, 0.62666734], "properties": {"magmom": 0.0}, "label": "Ni", "xyz": [3.911221204441088, 2.551987124553456, 4.6179266013531315]}]}, "task_ids": null, "uncorrected_energy_per_atom": null, "energy_per_atom": -21.461335133125, "formation_energy_per_atom": -0.32708908495833405, "energy_above_hull": 0.0, "is_stable": true, "equilibrium_reaction_energy_per_atom": null, "decomposes_to": null, "xas": null, "grain_boundaries": null, "band_gap": 0.0, "cbm": null, "vbm": null, "efermi": 7.64678997, "is_gap_direct": null, "is_metal": null, "es_source_calc_id": null, "bandstructure": null, "dos": null, "dos_energy_up": null, "dos_energy_down": null, "is_magnetic": null, "ordering": null, "total_magnetization": 0.0002147, "total_magnetization_normalized_vol": null, "total_magnetization_normalized_formula_units": null, "num_magnetic_sites": null, "num_unique_magnetic_sites": null, "types_of_magnetic_species": null, "bulk_modulus": null, "shear_modulus": null, "universal_anisotropy": null, "homogeneous_poisson": null, "e_total": null, "e_ionic": null, "e_electronic": null, "n": null, "e_ij_max": null, "weighted_surface_energy_EV_PER_ANG2": null, "weighted_surface_energy": null, "weighted_work_function": null, "surface_anisotropy": null, "shape_factor": null, "has_reconstructed": null, "possible_species": null, "has_props": null, "theoretical": null, "database_IDs": null, "fields_not_requested": ["builder_meta", "nsites", "elements", "nelements", "composition", "composition_reduced", "chemsys", "symmetry", "property_name", "deprecated", "deprecation_reasons", "last_updated", "origins", "warnings", "task_ids", "uncorrected_energy_per_atom", "equilibrium_reaction_energy_per_atom", "decomposes_to", "xas", "grain_boundaries", "cbm", "vbm", "is_gap_direct", "is_metal", "es_source_calc_id", "bandstructure", "dos", "dos_energy_up", "dos_energy_down", "is_magnetic", "ordering", "total_magnetization_normalized_vol", "total_magnetization_normalized_formula_units", "num_magnetic_sites", "num_unique_magnetic_sites", "types_of_magnetic_species", "bulk_modulus", "shear_modulus", "universal_anisotropy", "homogeneous_poisson", "e_total", "e_ionic", "e_electronic", "n", "e_ij_max", "weighted_surface_energy_EV_PER_ANG2", "weighted_surface_energy", "weighted_work_function", "surface_anisotropy", "shape_factor", "has_reconstructed", "possible_species", "has_props", "theoretical", "database_IDs"]}