{"builder_meta": null, "nsites": null, "elements": null, "nelements": null, "composition": null, "composition_reduced": null, "formula_pretty": "TaO2", "formula_anonymous": "AB2", "chemsys": null, "volume": 575.4542332329144, "density": 9.831712364160078, "density_atomic": 11.98862985901905, "symmetry": null, "property_name": null, "material_id": "mp-510", "deprecated": null, "deprecation_reasons": null, "last_updated": null, "origins": null, "warnings": null, "structure": {"@module": "pymatgen.core.structure", "@class": "Structure", "charge": 0, "lattice": {"matrix": [[-6.911324, 6.911324, 3.011815], [6.911324, -6.911324, 3.011815], [6.911324, 6.911324, -3.011815]], "pbc": [true, true, true], "a": 10.227601305300134, "b": 10.227601305300134, "c": 10.227601305300134, "alpha": 94.97482100631025, "beta": 94.97482100631025, "gamma": 145.74738884973496, "volume": 575.4542332329144}, "properties": {}, "sites": [{"species": [{"element": "Ta", "occu": 1}], "abc": [0.783401999999999, 0.275852, 0.757182999999999], "properties": {"magmom": 0.0}, "label": "Ta", "xyz": [1.7252945440919998, 8.740979536491986, 0.9097819688650004]}, {"species": [{"element": "Ta", "occu": 1}], "abc": [0.525852, 0.268669, 0.99245], "properties": {"magmom": 0.0}, "label": "Ta", "xyz": [5.0816684635080005, 8.636618544092, -0.5961255311349998]}, {"species": [{"element": "Ta", "occu": 1}], "abc": [0.276219, 0.533401999999999, 0.00755], "properties": {"magmom": 0.0}, "label": "Ta", "xyz": [1.8296555364919933, -1.7252945440919931, 2.415689468864997]}, {"species": [{"element": "Ta", "occu": 1}], "abc": [0.518668999999999, 0.026219, 0.242816999999999], "properties": {"magmom": 0.0}, "label": "Ta", "xyz": [-1.7252945440920004, 5.081668463507986, 0.9097819688650002]}, {"species": [{"element": "Ta", "occu": 1}], "abc": [0.466597999999999, 0.474147999999999, 0.742817], "properties": {"magmom": 0.0}, "label": "Ta", "xyz": [5.186029455907999, 5.0816684635080005, 0.596125531134994]}, {"species": [{"element": "Ta", "occu": 1}], "abc": [0.724148, 0.48133099999999907, 0.5075500000000001], "properties": {"magmom": 0.0}, "label": "Ta", "xyz": [1.8296555364919938, 5.186029455908007, 2.102033031134997]}, {"species": [{"element": "Ta", "occu": 1}], "abc": [0.973781, 0.216597999999999, 0.49245000000000005], "properties": {"magmom": 0.0}, "label": "Ta", "xyz": [-1.829655536492007, 8.636618544092007, 2.102033031134997]}, {"species": [{"element": "Ta", "occu": 1}], "abc": [0.731331, 0.723781, 0.257183], "properties": {"magmom": 0.0}, "label": "Ta", "xyz": [1.7252945440919998, 1.829655536492, 3.6079405311349997]}, {"species": [{"element": "Ta", "occu": 1}], "abc": [0.214485999999999, 0.7264200000000001, 0.741161], "properties": {"magmom": 0.0}, "label": "Ta", "xyz": [8.660545547780007, 1.5842620665479918, 0.6015949871749973]}, {"species": [{"element": "Ta", "occu": 1}], "abc": [0.9764200000000001, 0.735259, 0.011934], "properties": {"magmom": 0.0}, "label": "Ta", "xyz": [-1.5842620665480005, 1.7492215477800006, 5.1193174871750005]}, {"species": [{"element": "Ta", "occu": 1}], "abc": [0.723325, 0.964486, 0.988066], "properties": {"magmom": 0.0}, "label": "Ta", "xyz": [8.495586066548, 5.16210245222, 2.107502487174999]}, {"species": [{"element": "Ta", "occu": 1}], "abc": [0.985259, 0.473325, 0.258839], "properties": {"magmom": 0.0}, "label": "Ta", "xyz": [-1.7492215477800002, 5.327061933452, 3.6134099871750003]}, {"species": [{"element": "Ta", "occu": 1}], "abc": [0.035514, 0.02358, 0.758838999999999], "properties": {"magmom": 0.0}, "label": "Ta", "xyz": [5.162102452219993, 5.327061933451993, -2.107502487174997]}, {"species": [{"element": "Ta", "occu": 1}], "abc": [0.27358000000000005, 0.014740999999999001, 0.488066], "properties": {"magmom": 0.0}, "label": "Ta", "xyz": [1.584262066547993, 5.162102452220007, -0.6015949871750027]}, {"species": [{"element": "Ta", "occu": 1}], "abc": [0.526675, 0.785513999999999, 0.511934], "properties": {"magmom": 0.0}, "label": "Ta", "xyz": [5.3270619334519935, 1.7492215477800062, 2.410220012824997]}, {"species": [{"element": "Ta", "occu": 1}], "abc": [0.264741, 0.276675, 0.241161], "properties": {"magmom": 0.0}, "label": "Ta", "xyz": [1.74922154778, 1.5842620665479998, 0.9043125128250001]}, {"species": [{"element": "O", "occu": 1}], "abc": [0.393611, 0.756861999999999, 0.887845], "properties": {"magmom": -0.0}, "label": "O", "xyz": [8.646729811103992, 3.625639102456007, 0.7909869498199971]}, {"species": [{"element": "O", "occu": 1}], "abc": [0.006862, 0.619018, 0.863251], "properties": {"magmom": -0.0}, "label": "O", "xyz": [10.197015808867999, 1.7353988997799998, -0.7149175383650002]}, {"species": [{"element": "O", "occu": 1}], "abc": [0.755767, 0.143611, 0.136748999999999], "properties": {"magmom": -0.0}, "label": "O", "xyz": [-3.2856918088680063, 5.175925100219993, 2.296897461635003]}, {"species": [{"element": "O", "occu": 1}], "abc": [0.869018, 0.505767, 0.112154999999999], "properties": {"magmom": -0.0}, "label": "O", "xyz": [-1.7354058111040063, 3.2856848975439927, 3.8028079734500033]}, {"species": [{"element": "O", "occu": 1}], "abc": [0.856389, 0.993138, 0.612155], "properties": {"magmom": -0.0}, "label": "O", "xyz": [5.175918188896, 3.285684897544, 3.726735550179999]}, {"species": [{"element": "O", "occu": 1}], "abc": [0.243138, 0.130982, 0.636749], "properties": {"magmom": -0.0}, "label": "O", "xyz": [3.6256321911319995, 5.17592510022, -0.790989961635]}, {"species": [{"element": "O", "occu": 1}], "abc": [0.494233, 0.606389, 0.363251], "properties": {"magmom": -0.0}, "label": "O", "xyz": [3.285691808868, 1.7353988997799998, 2.2208250383649997]}, {"species": [{"element": "O", "occu": 1}], "abc": [0.380982, 0.244232999999999, 0.387845], "properties": {"magmom": -0.0}, "label": "O", "xyz": [1.7354058111039932, 3.625639102456007, 0.714914526549997]}, {"species": [{"element": "O", "occu": 1}], "abc": [0.898521999999999, 0.248981999999999, 0.8990600000000001], "properties": {"magmom": -0.0}, "label": "O", "xyz": [1.7245135644800005, 10.7028763464, 0.7482673658599936]}, {"species": [{"element": "O", "occu": 1}], "abc": [0.498982, 0.099922, 0.8504600000000001], "properties": {"magmom": -0.0}, "label": "O", "xyz": [3.1197716536000004, 8.63583756448, -0.7576401341400005]}, {"species": [{"element": "O", "occu": 1}], "abc": [0.249462, 0.648521999999999, 0.14954], "properties": {"magmom": -0.0}, "label": "O", "xyz": [3.791552346399994, -1.7245135644799938, 2.254174865859997]}, {"species": [{"element": "O", "occu": 1}], "abc": [0.349922, 0.999462, 0.10094], "properties": {"magmom": -0.0}, "label": "O", "xyz": [5.186810435519999, -3.7915523463999987, 3.7600823658599993]}, {"species": [{"element": "O", "occu": 1}], "abc": [0.351477999999999, 0.501018, 0.60094], "properties": {"magmom": -0.0}, "label": "O", "xyz": [5.186810435520005, 3.1197716535999933, 0.757640134139997]}, {"species": [{"element": "O", "occu": 1}], "abc": [0.751018, 0.650077999999999, 0.64954], "properties": {"magmom": -0.0}, "label": "O", "xyz": [3.7915523463999934, 5.186810435520006, 2.2635476341399974]}, {"species": [{"element": "O", "occu": 1}], "abc": [0.000538, 0.101478, 0.35046000000000005], "properties": {"magmom": -0.0}, "label": "O", "xyz": [3.1197716536, 1.7245135644800005, -0.7482673658600001]}, {"species": [{"element": "O", "occu": 1}], "abc": [0.900077999999999, 0.750537999999999, 0.39906], "properties": {"magmom": -0.0}, "label": "O", "xyz": [1.7245135644799996, 3.7915523464000005, 3.7694551341399944]}, {"species": [{"element": "O", "occu": 1}], "abc": [0.627675, 0.7638100000000001, 0.110607], "properties": {"magmom": -0.0}, "label": "O", "xyz": [1.7053139064080005, -0.17643227907200043, 3.8577675735700003]}, {"species": [{"element": "O", "occu": 1}], "abc": [0.013810000000000001, 0.403203, 0.636135999999999], "properties": {"magmom": -0.0}, "label": "O", "xyz": [7.087763190395993, 1.7053208177319932, -0.6599579382449974]}, {"species": [{"element": "O", "occu": 1}], "abc": [0.767068, 0.377675, 0.363863999999999], "properties": {"magmom": -0.0}, "label": "O", "xyz": [-0.17643919039600675, 5.206003182267993, 2.351863085385003]}, {"species": [{"element": "O", "occu": 1}], "abc": [0.653203, 0.517068, 0.889393], "properties": {"magmom": -0.0}, "label": "O", "xyz": [5.206010093591999, 7.087756279072, 0.8459525735700004]}, {"species": [{"element": "O", "occu": 1}], "abc": [0.622325, 0.9861900000000001, 0.389393], "properties": {"magmom": -0.0}, "label": "O", "xyz": [5.206010093592001, 0.176432279071999, 3.6717699264300006]}, {"species": [{"element": "O", "occu": 1}], "abc": [0.23619, 0.346796999999999, 0.863864], "properties": {"magmom": -0.0}, "label": "O", "xyz": [6.734884809603993, 5.206003182268007, -0.8459495617550026]}, {"species": [{"element": "O", "occu": 1}], "abc": [0.482932, 0.372324999999999, 0.136136], "properties": {"magmom": -0.0}, "label": "O", "xyz": [0.1764391903959932, 1.7053208177320067, 2.165859414614997]}, {"species": [{"element": "O", "occu": 1}], "abc": [0.596797, 0.232932, 0.610607], "properties": {"magmom": -0.0}, "label": "O", "xyz": [1.7053139064079996, 6.734891720927999, 0.6599549264300002]}, {"species": [{"element": "O", "occu": 1}], "abc": [0.09187000000000001, 0.24554499999999901, 0.099104], "properties": {"magmom": -0.0}, "label": "O", "xyz": [1.7470375693959932, -0.37715786200399315, 0.717748644464997]}, {"species": [{"element": "O", "occu": 1}], "abc": [0.495544999999999, 0.896440999999999, 0.653674], "properties": {"magmom": -0.0}, "label": "O", "xyz": [7.2884749506799995, 1.7470306580719988, 2.223659156279994]}, {"species": [{"element": "O", "occu": 1}], "abc": [0.242766999999999, 0.8418700000000001, 0.346325999999999], "properties": {"magmom": -0.0}, "label": "O", "xyz": [6.534166137996, -1.747023746748014, 2.223656144465]}, {"species": [{"element": "O", "occu": 1}], "abc": [0.146441, 0.992767, 0.900895999999999], "properties": {"magmom": -0.0}, "label": "O", "xyz": [12.075617341927991, 0.3771509506799946, 0.7177516562800026]}, {"species": [{"element": "O", "occu": 1}], "abc": [0.15813000000000002, 0.504455, 0.400896], "properties": {"magmom": -0.0}, "label": "O", "xyz": [5.164286430603999, 0.37715786200400014, 0.7881588555350001]}, {"species": [{"element": "O", "occu": 1}], "abc": [0.754455, 0.853559, 0.846325999999999], "properties": {"magmom": -0.0}, "label": "O", "xyz": [6.5341730493199925, 5.164293341927992, 2.294063343720002]}, {"species": [{"element": "O", "occu": 1}], "abc": [0.007233, 0.9081300000000001, 0.153674], "properties": {"magmom": -0.0}, "label": "O", "xyz": [7.288481862004001, -5.164300253252001, 2.2940663555350005]}, {"species": [{"element": "O", "occu": 1}], "abc": [0.103559, 0.757232999999999, 0.599104], "properties": {"magmom": -0.0}, "label": "O", "xyz": [8.658354658071993, -0.3771509506799937, 0.7881558437199971]}]}, "task_ids": null, "uncorrected_energy_per_atom": null, "energy_per_atom": -10.308951734791666, "formation_energy_per_atom": -3.054668550569444, "energy_above_hull": 0.06879037205277701, "is_stable": false, "equilibrium_reaction_energy_per_atom": null, "decomposes_to": null, "xas": null, "grain_boundaries": null, "band_gap": 0.42840000000000006, "cbm": null, "vbm": null, "efermi": 5.20866686, "is_gap_direct": null, "is_metal": null, "es_source_calc_id": null, "bandstructure": null, "dos": null, "dos_energy_up": null, "dos_energy_down": null, "is_magnetic": null, "ordering": null, "total_magnetization": 0.0042136, "total_magnetization_normalized_vol": null, "total_magnetization_normalized_formula_units": null, "num_magnetic_sites": null, "num_unique_magnetic_sites": null, "types_of_magnetic_species": null, "bulk_modulus": null, "shear_modulus": null, "universal_anisotropy": null, "homogeneous_poisson": null, "e_total": null, "e_ionic": null, "e_electronic": null, "n": null, "e_ij_max": null, "weighted_surface_energy_EV_PER_ANG2": null, "weighted_surface_energy": null, "weighted_work_function": null, "surface_anisotropy": null, "shape_factor": null, "has_reconstructed": null, "possible_species": null, "has_props": null, "theoretical": null, "database_IDs": null, "fields_not_requested": ["builder_meta", "nsites", "elements", "nelements", "composition", "composition_reduced", "chemsys", "symmetry", "property_name", "deprecated", "deprecation_reasons", "last_updated", "origins", "warnings", "task_ids", "uncorrected_energy_per_atom", "equilibrium_reaction_energy_per_atom", "decomposes_to", "xas", "grain_boundaries", "cbm", "vbm", "is_gap_direct", "is_metal", "es_source_calc_id", "bandstructure", "dos", "dos_energy_up", "dos_energy_down", "is_magnetic", "ordering", "total_magnetization_normalized_vol", "total_magnetization_normalized_formula_units", "num_magnetic_sites", "num_unique_magnetic_sites", "types_of_magnetic_species", "bulk_modulus", "shear_modulus", "universal_anisotropy", "homogeneous_poisson", "e_total", "e_ionic", "e_electronic", "n", "e_ij_max", "weighted_surface_energy_EV_PER_ANG2", "weighted_surface_energy", "weighted_work_function", "surface_anisotropy", "shape_factor", "has_reconstructed", "possible_species", "has_props", "theoretical", "database_IDs"]}