{"builder_meta": null, "nsites": null, "elements": null, "nelements": null, "composition": null, "composition_reduced": null, "formula_pretty": "TaO3", "formula_anonymous": "AB3", "chemsys": null, "volume": 248.4613529066973, "density": 6.120451418900427, "density_atomic": 15.528834556668581, "symmetry": null, "property_name": null, "material_id": "mp-2630414", "deprecated": null, "deprecation_reasons": null, "last_updated": null, "origins": null, "warnings": null, "structure": {"@module": "pymatgen.core.structure", "@class": "Structure", "charge": 0.0, "lattice": {"matrix": [[-3.96034437, 3.96034437, 3.96034437], [3.96034437, -3.96034437, 3.96034437], [3.96034437, 3.96034437, -3.96034437]], "pbc": [true, true, true], "a": 6.859517664309356, "b": 6.859517664309356, "c": 6.859517664309356, "alpha": 109.47122063449069, "beta": 109.47122063449069, "gamma": 109.47122063449069, "volume": 248.4613529066973}, "properties": {}, "sites": [{"species": [{"element": "Ta", "occu": 1}], "abc": [0.5, -0.0, -0.0], "properties": {"magmom": -0.106}, "label": "Ta", "xyz": [-1.980172185, 1.980172185, 1.980172185]}, {"species": [{"element": "Ta", "occu": 1}], "abc": [-0.0, 0.5, -0.0], "properties": {"magmom": -0.106}, "label": "Ta", "xyz": [1.980172185, -1.980172185, 1.980172185]}, {"species": [{"element": "Ta", "occu": 1}], "abc": [0.5, 0.5, 0.5], "properties": {"magmom": -0.106}, "label": "Ta", "xyz": [1.980172185, 1.980172185, 1.980172185]}, {"species": [{"element": "Ta", "occu": 1}], "abc": [-0.0, -0.0, 0.5], "properties": {"magmom": -0.106}, "label": "Ta", "xyz": [1.980172185, 1.980172185, -1.980172185]}, {"species": [{"element": "O", "occu": 1}], "abc": [0.99949548, 0.74975867, 0.24973681], "properties": {"magmom": 0.317}, "label": "O", "xyz": [-3.3306690738754696e-16, 1.9780875389305197, 5.938605055186375]}, {"species": [{"element": "O", "occu": 1}], "abc": [0.25024133, 0.75026319, 0.0005045200000000001], "properties": {"magmom": 0.318}, "label": "O", "xyz": [1.9822568310694808, -1.9782606851863762, 3.96034437]}, {"species": [{"element": "O", "occu": 1}], "abc": [0.49997814, 0.25024133, 0.24973681], "properties": {"magmom": 0.317}, "label": "O", "xyz": [-2.220446049250313e-16, 1.9780875389305197, 1.9820836848136243]}, {"species": [{"element": "O", "occu": 1}], "abc": [0.75026319, 0.0005045200000000001, 0.25024133], "properties": {"magmom": 0.31}, "label": "O", "xyz": [-1.9782606851863762, 3.96034437, 1.9822568310694808]}, {"species": [{"element": "O", "occu": 1}], "abc": [0.74975867, 0.75026319, 0.50002186], "properties": {"magmom": 0.318}, "label": "O", "xyz": [1.982256831069481, 1.9782606851863755, 3.9603443699999996]}, {"species": [{"element": "O", "occu": 1}], "abc": [0.24973681, 0.49997814, 0.25024133], "properties": {"magmom": 0.31}, "label": "O", "xyz": [1.9820836848136243, -2.220446049250313e-16, 1.9780875389305197]}, {"species": [{"element": "O", "occu": 1}], "abc": [0.75026319, 0.50002186, 0.74975867], "properties": {"magmom": 0.31}, "label": "O", "xyz": [1.9782606851863755, 3.9603443699999996, 1.9822568310694813]}, {"species": [{"element": "O", "occu": 1}], "abc": [0.25024133, 0.24973681, 0.49997814], "properties": {"magmom": 0.318}, "label": "O", "xyz": [1.9780875389305197, 1.9820836848136243, -2.220446049250313e-16]}, {"species": [{"element": "O", "occu": 1}], "abc": [0.24973681, 0.99949548, 0.74975867], "properties": {"magmom": 0.31}, "label": "O", "xyz": [5.938605055186375, -4.440892098500626e-16, 1.9780875389305201]}, {"species": [{"element": "O", "occu": 1}], "abc": [0.50002186, 0.74975867, 0.75026319], "properties": {"magmom": 0.317}, "label": "O", "xyz": [3.9603443699999996, 1.982256831069481, 1.9782606851863758]}, {"species": [{"element": "O", "occu": 1}], "abc": [0.74975867, 0.24973681, 0.99949548], "properties": {"magmom": 0.318}, "label": "O", "xyz": [1.9780875389305197, 5.938605055186375, -4.440892098500626e-16]}, {"species": [{"element": "O", "occu": 1}], "abc": [0.0005045200000000001, 0.25024133, 0.75026319], "properties": {"magmom": 0.317}, "label": "O", "xyz": [3.96034437, 1.9822568310694808, -1.978260685186376]}]}, "task_ids": null, "uncorrected_energy_per_atom": null, "energy_per_atom": -9.459650195, "formation_energy_per_atom": -2.781947555583333, "energy_above_hull": 0.146295184374999, "is_stable": false, "equilibrium_reaction_energy_per_atom": null, "decomposes_to": null, "xas": null, "grain_boundaries": null, "band_gap": 0.0, "cbm": null, "vbm": null, "efermi": -0.88669716, "is_gap_direct": null, "is_metal": null, "es_source_calc_id": null, "bandstructure": null, "dos": null, "dos_energy_up": null, "dos_energy_down": null, "is_magnetic": null, "ordering": null, "total_magnetization": 4.056534, "total_magnetization_normalized_vol": null, "total_magnetization_normalized_formula_units": null, "num_magnetic_sites": null, "num_unique_magnetic_sites": null, "types_of_magnetic_species": null, "bulk_modulus": null, "shear_modulus": null, "universal_anisotropy": null, "homogeneous_poisson": null, "e_total": null, "e_ionic": null, "e_electronic": null, "n": null, "e_ij_max": null, "weighted_surface_energy_EV_PER_ANG2": null, "weighted_surface_energy": null, "weighted_work_function": null, "surface_anisotropy": null, "shape_factor": null, "has_reconstructed": null, "possible_species": null, "has_props": null, "theoretical": null, "database_IDs": null, "fields_not_requested": ["builder_meta", "nsites", "elements", "nelements", "composition", "composition_reduced", "chemsys", "symmetry", "property_name", "deprecated", "deprecation_reasons", "last_updated", "origins", "warnings", "task_ids", "uncorrected_energy_per_atom", "equilibrium_reaction_energy_per_atom", "decomposes_to", "xas", "grain_boundaries", "cbm", "vbm", "is_gap_direct", "is_metal", "es_source_calc_id", "bandstructure", "dos", "dos_energy_up", "dos_energy_down", "is_magnetic", "ordering", "total_magnetization_normalized_vol", "total_magnetization_normalized_formula_units", "num_magnetic_sites", "num_unique_magnetic_sites", "types_of_magnetic_species", "bulk_modulus", "shear_modulus", "universal_anisotropy", "homogeneous_poisson", "e_total", "e_ionic", "e_electronic", "n", "e_ij_max", "weighted_surface_energy_EV_PER_ANG2", "weighted_surface_energy", "weighted_work_function", "surface_anisotropy", "shape_factor", "has_reconstructed", "possible_species", "has_props", "theoretical", "database_IDs"]}