{
  "builder_meta": null,
  "nsites": null,
  "elements": null,
  "nelements": null,
  "composition": null,
  "composition_reduced": null,
  "formula_pretty": "TaP",
  "formula_anonymous": "AB",
  "chemsys": null,
  "volume": 63.0247326362231,
  "density": 11.16717678534869,
  "density_atomic": 15.756183159055775,
  "symmetry": null,
  "property_name": null,
  "material_id": "mp-1067587",
  "deprecated": null,
  "deprecation_reasons": null,
  "last_updated": null,
  "origins": null,
  "warnings": null,
  "structure": {
    "@module": "pymatgen.core.structure",
    "@class": "Structure",
    "charge": 0,
    "lattice": {
      "matrix": [
        [3.3249992, 0.0, 1e-8],
        [0.0, 3.3249992, 1e-8],
        [-1.66249859, -1.66249859, 5.70069651]
      ],
      "pbc": [true, true, true],
      "a": 3.3249992,
      "b": 3.3249992,
      "c": 6.1665017491792025,
      "alpha": 105.6405595195006,
      "beta": 105.6405595195006,
      "gamma": 90.0,
      "volume": 63.0247326362231
    },
    "properties": {},
    "sites": [
      {
        "species": [{ "element": "Ta", "occu": 1 }],
        "abc": [0.24958442, 0.74958442, 0.49916685],
        "properties": { "magmom": -0.0 },
        "label": "Ta",
        "xyz": [3.8125327225246863e-6, 1.6625034125327227, 2.845598729694382]
      },
      {
        "species": [{ "element": "Ta", "occu": 1 }],
        "abc": [0.99958442, 0.99958442, 0.99916685],
        "properties": { "magmom": -0.0 },
        "label": "Ta",
        "xyz": [1.6625039175327228, 1.6625039175327228, 5.695946994694382]
      },
      {
        "species": [{ "element": "P", "occu": 1 }],
        "abc": [0.66641558, 0.16641558, 0.33283315],
        "properties": { "magmom": 0.0 },
        "label": "P",
        "xyz": [1.6624966277872775, -2.972212722496259e-6, 1.8973807849456183]
      },
      {
        "species": [{ "element": "P", "occu": 1 }],
        "abc": [0.41641558, 0.41641558, 0.83283315],
        "properties": { "magmom": 0.0 },
        "label": "P",
        "xyz": [-2.467212722345735e-6, -2.467212722345735e-6, 4.747729039945618]
      }
    ]
  },
  "task_ids": null,
  "uncorrected_energy_per_atom": null,
  "energy_per_atom": -29.79251958,
  "formation_energy_per_atom": -0.995565067654762,
  "energy_above_hull": 0.0,
  "is_stable": true,
  "equilibrium_reaction_energy_per_atom": null,
  "decomposes_to": null,
  "xas": null,
  "grain_boundaries": null,
  "band_gap": 0.0,
  "cbm": null,
  "vbm": null,
  "efermi": 7.77588008,
  "is_gap_direct": null,
  "is_metal": null,
  "es_source_calc_id": null,
  "bandstructure": null,
  "dos": null,
  "dos_energy_up": null,
  "dos_energy_down": null,
  "is_magnetic": null,
  "ordering": null,
  "total_magnetization": 2e-7,
  "total_magnetization_normalized_vol": null,
  "total_magnetization_normalized_formula_units": null,
  "num_magnetic_sites": null,
  "num_unique_magnetic_sites": null,
  "types_of_magnetic_species": null,
  "bulk_modulus": null,
  "shear_modulus": null,
  "universal_anisotropy": null,
  "homogeneous_poisson": null,
  "e_total": null,
  "e_ionic": null,
  "e_electronic": null,
  "n": null,
  "e_ij_max": null,
  "weighted_surface_energy_EV_PER_ANG2": null,
  "weighted_surface_energy": null,
  "weighted_work_function": null,
  "surface_anisotropy": null,
  "shape_factor": null,
  "has_reconstructed": null,
  "possible_species": null,
  "has_props": null,
  "theoretical": null,
  "database_IDs": null,
  "fields_not_requested": [
    "builder_meta",
    "nsites",
    "elements",
    "nelements",
    "composition",
    "composition_reduced",
    "chemsys",
    "symmetry",
    "property_name",
    "deprecated",
    "deprecation_reasons",
    "last_updated",
    "origins",
    "warnings",
    "task_ids",
    "uncorrected_energy_per_atom",
    "equilibrium_reaction_energy_per_atom",
    "decomposes_to",
    "xas",
    "grain_boundaries",
    "cbm",
    "vbm",
    "is_gap_direct",
    "is_metal",
    "es_source_calc_id",
    "bandstructure",
    "dos",
    "dos_energy_up",
    "dos_energy_down",
    "is_magnetic",
    "ordering",
    "total_magnetization_normalized_vol",
    "total_magnetization_normalized_formula_units",
    "num_magnetic_sites",
    "num_unique_magnetic_sites",
    "types_of_magnetic_species",
    "bulk_modulus",
    "shear_modulus",
    "universal_anisotropy",
    "homogeneous_poisson",
    "e_total",
    "e_ionic",
    "e_electronic",
    "n",
    "e_ij_max",
    "weighted_surface_energy_EV_PER_ANG2",
    "weighted_surface_energy",
    "weighted_work_function",
    "surface_anisotropy",
    "shape_factor",
    "has_reconstructed",
    "possible_species",
    "has_props",
    "theoretical",
    "database_IDs"
  ]
}
