{
  "builder_meta": null,
  "nsites": null,
  "elements": null,
  "nelements": null,
  "composition": null,
  "composition_reduced": null,
  "formula_pretty": "TaPb3",
  "formula_anonymous": "AB3",
  "chemsys": null,
  "volume": 210.04930240496452,
  "density": 12.68904102321371,
  "density_atomic": 26.256162800620565,
  "symmetry": null,
  "property_name": null,
  "material_id": "mp-1187282",
  "deprecated": null,
  "deprecation_reasons": null,
  "last_updated": null,
  "origins": null,
  "warnings": null,
  "structure": {
    "@module": "pymatgen.core.structure",
    "@class": "Structure",
    "charge": 0,
    "lattice": {
      "matrix": [
        [3.304437, -5.723453, 0.0],
        [3.304437, 5.723453, 0.0],
        [0.0, 0.0, 5.553102]
      ],
      "pbc": [true, true, true],
      "a": 6.608874195366258,
      "b": 6.608874195366258,
      "c": 5.553102,
      "alpha": 90.0,
      "beta": 90.0,
      "gamma": 120.00000195575329,
      "volume": 210.04930240496452
    },
    "properties": {},
    "sites": [
      {
        "species": [{ "element": "Ta", "occu": 1 }],
        "abc": [0.333333, 0.666667, 0.75],
        "properties": { "magmom": -0.037 },
        "label": "Ta",
        "xyz": [3.304437, 1.9078214823020003, 4.1648265]
      },
      {
        "species": [{ "element": "Ta", "occu": 1 }],
        "abc": [0.666667, 0.333333, 0.25],
        "properties": { "magmom": -0.037 },
        "label": "Ta",
        "xyz": [3.304437, -1.9078214823020003, 1.3882755]
      },
      {
        "species": [{ "element": "Pb", "occu": 1 }],
        "abc": [0.173045, 0.34609, 0.25],
        "properties": { "magmom": 0.0 },
        "label": "Pb",
        "xyz": [1.7154489019949999, 0.990414924385, 1.3882755]
      },
      {
        "species": [{ "element": "Pb", "occu": 1 }],
        "abc": [0.6539100000000001, 0.826955, 0.25],
        "properties": { "magmom": -0.001 },
        "label": "Pb",
        "xyz": [4.893425098005, 0.9904149243849996, 1.3882755]
      },
      {
        "species": [{ "element": "Pb", "occu": 1 }],
        "abc": [0.173045, 0.826955, 0.25],
        "properties": { "magmom": 0.0 },
        "label": "Pb",
        "xyz": [3.304437, 3.74262315123, 1.3882755]
      },
      {
        "species": [{ "element": "Pb", "occu": 1 }],
        "abc": [0.826955, 0.6539100000000001, 0.75],
        "properties": { "magmom": 0.0 },
        "label": "Pb",
        "xyz": [4.893425098005, -0.9904149243849996, 4.1648265]
      },
      {
        "species": [{ "element": "Pb", "occu": 1 }],
        "abc": [0.34609, 0.173045, 0.75],
        "properties": { "magmom": -0.001 },
        "label": "Pb",
        "xyz": [1.7154489019949999, -0.990414924385, 4.1648265]
      },
      {
        "species": [{ "element": "Pb", "occu": 1 }],
        "abc": [0.826955, 0.173045, 0.75],
        "properties": { "magmom": 0.0 },
        "label": "Pb",
        "xyz": [3.304437, -3.74262315123, 4.1648265]
      }
    ]
  },
  "task_ids": null,
  "uncorrected_energy_per_atom": null,
  "energy_per_atom": -53.63172005066667,
  "formation_energy_per_atom": 0.7300887099999961,
  "energy_above_hull": 0.7300887099999961,
  "is_stable": false,
  "equilibrium_reaction_energy_per_atom": null,
  "decomposes_to": null,
  "xas": null,
  "grain_boundaries": null,
  "band_gap": 0.0,
  "cbm": null,
  "vbm": null,
  "efermi": 7.75283591,
  "is_gap_direct": null,
  "is_metal": null,
  "es_source_calc_id": null,
  "bandstructure": null,
  "dos": null,
  "dos_energy_up": null,
  "dos_energy_down": null,
  "is_magnetic": null,
  "ordering": null,
  "total_magnetization": 0.104272999999999,
  "total_magnetization_normalized_vol": null,
  "total_magnetization_normalized_formula_units": null,
  "num_magnetic_sites": null,
  "num_unique_magnetic_sites": null,
  "types_of_magnetic_species": null,
  "bulk_modulus": null,
  "shear_modulus": null,
  "universal_anisotropy": null,
  "homogeneous_poisson": null,
  "e_total": null,
  "e_ionic": null,
  "e_electronic": null,
  "n": null,
  "e_ij_max": null,
  "weighted_surface_energy_EV_PER_ANG2": null,
  "weighted_surface_energy": null,
  "weighted_work_function": null,
  "surface_anisotropy": null,
  "shape_factor": null,
  "has_reconstructed": null,
  "possible_species": null,
  "has_props": null,
  "theoretical": null,
  "database_IDs": null,
  "fields_not_requested": [
    "builder_meta",
    "nsites",
    "elements",
    "nelements",
    "composition",
    "composition_reduced",
    "chemsys",
    "symmetry",
    "property_name",
    "deprecated",
    "deprecation_reasons",
    "last_updated",
    "origins",
    "warnings",
    "task_ids",
    "uncorrected_energy_per_atom",
    "equilibrium_reaction_energy_per_atom",
    "decomposes_to",
    "xas",
    "grain_boundaries",
    "cbm",
    "vbm",
    "is_gap_direct",
    "is_metal",
    "es_source_calc_id",
    "bandstructure",
    "dos",
    "dos_energy_up",
    "dos_energy_down",
    "is_magnetic",
    "ordering",
    "total_magnetization_normalized_vol",
    "total_magnetization_normalized_formula_units",
    "num_magnetic_sites",
    "num_unique_magnetic_sites",
    "types_of_magnetic_species",
    "bulk_modulus",
    "shear_modulus",
    "universal_anisotropy",
    "homogeneous_poisson",
    "e_total",
    "e_ionic",
    "e_electronic",
    "n",
    "e_ij_max",
    "weighted_surface_energy_EV_PER_ANG2",
    "weighted_surface_energy",
    "weighted_work_function",
    "surface_anisotropy",
    "shape_factor",
    "has_reconstructed",
    "possible_species",
    "has_props",
    "theoretical",
    "database_IDs"
  ]
}
