{"builder_meta": null, "nsites": null, "elements": null, "nelements": null, "composition": null, "composition_reduced": null, "formula_pretty": "TaPd2", "formula_anonymous": "AB2", "chemsys": null, "volume": 46.7860866791043, "density": 13.976380695794312, "density_atomic": 15.595362226368099, "symmetry": null, "property_name": null, "material_id": "mp-30835", "deprecated": null, "deprecation_reasons": null, "last_updated": null, "origins": null, "warnings": null, "structure": {"@module": "pymatgen.core.structure", "@class": "Structure", "charge": 0, "lattice": {"matrix": [[2.74664747, -3.58e-05, -0.86180809], [-0.47594959000000003, 3.50831157, -1.51114578], [0.02069305, -0.0180011, 4.85733083]], "pbc": [true, true, true], "a": 2.87867773634502, "b": 3.8494596572543585, "c": 4.857408263054281, "alpha": 113.35696411187818, "beta": 107.17593769795816, "gamma": 90.02623327975297, "volume": 46.7860866791043}, "properties": {}, "sites": [{"species": [{"element": "Ta", "occu": 1}], "abc": [-0.0, -0.0, -0.0], "properties": {"magmom": -0.0}, "label": "Ta", "xyz": [0.0, 0.0, 0.0]}, {"species": [{"element": "Pd", "occu": 1}], "abc": [0.33486346, 0.33485892, 0.66959812], "properties": {"magmom": 0.0}, "label": "Pd", "xyz": [0.7742319368996695, 1.1627239325239043, 2.4578509092592906]}, {"species": [{"element": "Pd", "occu": 1}], "abc": [0.66513654, 0.66514108, 0.33040188], "properties": {"magmom": 0.0}, "label": "Pd", "xyz": [1.5171589931003306, 2.3275507374760958, 0.02652605074070946]}]}, "task_ids": null, "uncorrected_energy_per_atom": null, "energy_per_atom": -31.956653236666668, "formation_energy_per_atom": -0.45240659244444204, "energy_above_hull": 0.0, "is_stable": true, "equilibrium_reaction_energy_per_atom": null, "decomposes_to": null, "xas": null, "grain_boundaries": null, "band_gap": 0.0, "cbm": null, "vbm": null, "efermi": 5.63841065, "is_gap_direct": null, "is_metal": null, "es_source_calc_id": null, "bandstructure": null, "dos": null, "dos_energy_up": null, "dos_energy_down": null, "is_magnetic": null, "ordering": null, "total_magnetization": 0.0, "total_magnetization_normalized_vol": null, "total_magnetization_normalized_formula_units": null, "num_magnetic_sites": null, "num_unique_magnetic_sites": null, "types_of_magnetic_species": null, "bulk_modulus": null, "shear_modulus": null, "universal_anisotropy": null, "homogeneous_poisson": null, "e_total": null, "e_ionic": null, "e_electronic": null, "n": null, "e_ij_max": null, "weighted_surface_energy_EV_PER_ANG2": null, "weighted_surface_energy": null, "weighted_work_function": null, "surface_anisotropy": null, "shape_factor": null, "has_reconstructed": null, "possible_species": null, "has_props": null, "theoretical": null, "database_IDs": null, "fields_not_requested": ["builder_meta", "nsites", "elements", "nelements", "composition", "composition_reduced", "chemsys", "symmetry", "property_name", "deprecated", "deprecation_reasons", "last_updated", "origins", "warnings", "task_ids", "uncorrected_energy_per_atom", "equilibrium_reaction_energy_per_atom", "decomposes_to", "xas", "grain_boundaries", "cbm", "vbm", "is_gap_direct", "is_metal", "es_source_calc_id", "bandstructure", "dos", "dos_energy_up", "dos_energy_down", "is_magnetic", "ordering", "total_magnetization_normalized_vol", "total_magnetization_normalized_formula_units", "num_magnetic_sites", "num_unique_magnetic_sites", "types_of_magnetic_species", "bulk_modulus", "shear_modulus", "universal_anisotropy", "homogeneous_poisson", "e_total", "e_ionic", "e_electronic", "n", "e_ij_max", "weighted_surface_energy_EV_PER_ANG2", "weighted_surface_energy", "weighted_work_function", "surface_anisotropy", "shape_factor", "has_reconstructed", "possible_species", "has_props", "theoretical", "database_IDs"]}