{"builder_meta": null, "nsites": null, "elements": null, "nelements": null, "composition": null, "composition_reduced": null, "formula_pretty": "TaPt2", "formula_anonymous": "AB2", "chemsys": null, "volume": 96.93679629218099, "density": 19.566568456360947, "density_atomic": 16.156132715363498, "symmetry": null, "property_name": null, "material_id": "mp-30849", "deprecated": null, "deprecation_reasons": null, "last_updated": null, "origins": null, "warnings": null, "structure": {"@module": "pymatgen.core.structure", "@class": "Structure", "charge": 0, "lattice": {"matrix": [[4.76960917, 0.0, -0.0], [0.0, 4.18542987, -2.3833496800000002], [0.0, -0.0046698700000000004, 4.85851521]], "pbc": [true, true, true], "a": 4.76960917, "b": 4.816448784513786, "c": 4.858517454274211, "alpha": 119.71397247906128, "beta": 90.0, "gamma": 90.0, "volume": 96.93679629218099}, "properties": {}, "sites": [{"species": [{"element": "Ta", "occu": 1}], "abc": [0.75, 0.23085608, 0.0], "properties": {"magmom": -0.0}, "label": "Ta", "xyz": [3.5772068775, 0.9662319329031096, -0.5502107643940545]}, {"species": [{"element": "Ta", "occu": 1}], "abc": [0.25, 0.76914392, -0.0], "properties": {"magmom": -0.0}, "label": "Ta", "xyz": [1.1924022925, 3.2191979370968906, -1.8331389156059457]}, {"species": [{"element": "Pt", "occu": 1}], "abc": [0.25, 0.11977633, 0.67567473], "properties": {"magmom": 0.0}, "label": "Pt", "xyz": [1.1924022925, 0.49816011614959205, 2.997307074940569]}, {"species": [{"element": "Pt", "occu": 1}], "abc": [0.75, 0.88022367, 0.32432527], "properties": {"magmom": 0.0}, "label": "Pt", "xyz": [3.5772068775, 3.682599883850408, -0.5221415449405691]}, {"species": [{"element": "Pt", "occu": 1}], "abc": [0.75, 0.555899399999999, 0.67567473], "properties": {"magmom": 0.0}, "label": "Pt", "xyz": [3.5772068775, 2.323522640323689, 1.9578732956154536]}, {"species": [{"element": "Pt", "occu": 1}], "abc": [0.25, 0.444100599999999, 0.32432527], "properties": {"magmom": 0.0}, "label": "Pt", "xyz": [1.1924022925, 1.8572373596763032, 0.517292234384551]}]}, "task_ids": null, "uncorrected_energy_per_atom": null, "energy_per_atom": -8.746834149999993, "formation_energy_per_atom": -0.7437694224444371, "energy_above_hull": 0.0, "is_stable": true, "equilibrium_reaction_energy_per_atom": null, "decomposes_to": null, "xas": null, "grain_boundaries": null, "band_gap": 0.0, "cbm": null, "vbm": null, "efermi": 7.366066, "is_gap_direct": null, "is_metal": null, "es_source_calc_id": null, "bandstructure": null, "dos": null, "dos_energy_up": null, "dos_energy_down": null, "is_magnetic": null, "ordering": null, "total_magnetization": 0.0, "total_magnetization_normalized_vol": null, "total_magnetization_normalized_formula_units": null, "num_magnetic_sites": null, "num_unique_magnetic_sites": null, "types_of_magnetic_species": null, "bulk_modulus": null, "shear_modulus": null, "universal_anisotropy": null, "homogeneous_poisson": null, "e_total": null, "e_ionic": null, "e_electronic": null, "n": null, "e_ij_max": null, "weighted_surface_energy_EV_PER_ANG2": null, "weighted_surface_energy": null, "weighted_work_function": null, "surface_anisotropy": null, "shape_factor": null, "has_reconstructed": null, "possible_species": null, "has_props": null, "theoretical": null, "database_IDs": null, "fields_not_requested": ["builder_meta", "nsites", "elements", "nelements", "composition", "composition_reduced", "chemsys", "symmetry", "property_name", "deprecated", "deprecation_reasons", "last_updated", "origins", "warnings", "task_ids", "uncorrected_energy_per_atom", "equilibrium_reaction_energy_per_atom", "decomposes_to", "xas", "grain_boundaries", "cbm", "vbm", "is_gap_direct", "is_metal", "es_source_calc_id", "bandstructure", "dos", "dos_energy_up", "dos_energy_down", "is_magnetic", "ordering", "total_magnetization_normalized_vol", "total_magnetization_normalized_formula_units", "num_magnetic_sites", "num_unique_magnetic_sites", "types_of_magnetic_species", "bulk_modulus", "shear_modulus", "universal_anisotropy", "homogeneous_poisson", "e_total", "e_ionic", "e_electronic", "n", "e_ij_max", "weighted_surface_energy_EV_PER_ANG2", "weighted_surface_energy", "weighted_work_function", "surface_anisotropy", "shape_factor", "has_reconstructed", "possible_species", "has_props", "theoretical", "database_IDs"]}