{
  "builder_meta": null,
  "nsites": null,
  "elements": null,
  "nelements": null,
  "composition": null,
  "composition_reduced": null,
  "formula_pretty": "TaRh2",
  "formula_anonymous": "AB2",
  "chemsys": null,
  "volume": 180.69985859120263,
  "density": 14.216463357558558,
  "density_atomic": 15.058321549266886,
  "symmetry": null,
  "property_name": null,
  "material_id": "mp-1103212",
  "deprecated": null,
  "deprecation_reasons": null,
  "last_updated": null,
  "origins": null,
  "warnings": null,
  "structure": {
    "@module": "pymatgen.core.structure",
    "@class": "Structure",
    "charge": 0,
    "lattice": {
      "matrix": [
        [0.0, -4.01400363, 0.0],
        [-5.47646884, 0.0, 0.0],
        [0.0, 0.0, -8.2201441]
      ],
      "pbc": [true, true, true],
      "a": 4.01400363,
      "b": 5.47646884,
      "c": 8.2201441,
      "alpha": 90.0,
      "beta": 90.0,
      "gamma": 90.0,
      "volume": 180.69985859120263
    },
    "properties": {},
    "sites": [
      {
        "species": [{ "element": "Ta", "occu": 1 }],
        "abc": [0.75, 0.16393746, 0.6027319],
        "properties": { "magmom": -0.0 },
        "label": "Ta",
        "xyz": [-0.8977983913987464, -3.0105027225, -4.95454307166679]
      },
      {
        "species": [{ "element": "Ta", "occu": 1 }],
        "abc": [0.75, 0.66393746, 0.8972681],
        "properties": { "magmom": -0.0 },
        "label": "Ta",
        "xyz": [-3.636032811398746, -3.0105027225, -7.375673078333211]
      },
      {
        "species": [{ "element": "Ta", "occu": 1 }],
        "abc": [0.25, 0.83605017, 0.39727085],
        "properties": { "magmom": -0.0 },
        "label": "Ta",
        "xyz": [-4.578602704681703, -1.0035009075, -3.2656236337294855]
      },
      {
        "species": [{ "element": "Ta", "occu": 1 }],
        "abc": [0.25, 0.33605017, 0.10272915],
        "properties": { "magmom": -0.0 },
        "label": "Ta",
        "xyz": [-1.8403682846817027, -1.0035009075, -0.8444484162705151]
      },
      {
        "species": [{ "element": "Rh", "occu": 1 }],
        "abc": [0.75, 0.14733375, 0.92624983],
        "properties": { "magmom": 0.0 },
        "label": "Rh",
        "xyz": [-0.8068686909553501, -3.0105027225, -7.613907075200504]
      },
      {
        "species": [{ "element": "Rh", "occu": 1 }],
        "abc": [0.75, 0.64733375, 0.5737501700000001],
        "properties": { "magmom": 0.0 },
        "label": "Rh",
        "xyz": [-3.5451031109553504, -3.0105027225, -4.716309074799498]
      },
      {
        "species": [{ "element": "Rh", "occu": 1 }],
        "abc": [0.25, 0.85266182, 0.07385057],
        "properties": { "magmom": 0.0 },
        "label": "Rh",
        "xyz": [-4.669575888287689, -1.0035009075, -0.607062327267137]
      },
      {
        "species": [{ "element": "Rh", "occu": 1 }],
        "abc": [0.25, 0.35266182, 0.42614943],
        "properties": { "magmom": 0.0 },
        "label": "Rh",
        "xyz": [-1.9313414682876888, -1.0035009075, -3.5030097227328634]
      },
      {
        "species": [{ "element": "Rh", "occu": 1 }],
        "abc": [0.75, 0.08753737, 0.26819965],
        "properties": { "magmom": 0.0 },
        "label": "Rh",
        "xyz": [-0.4793956791405508, -3.0105027225, -2.2046397705695653]
      },
      {
        "species": [{ "element": "Rh", "occu": 1 }],
        "abc": [0.75, 0.5875373700000001, 0.23180035000000002],
        "properties": { "magmom": 0.0 },
        "label": "Rh",
        "xyz": [-3.217630099140551, -3.0105027225, -1.9054322794304352]
      },
      {
        "species": [{ "element": "Rh", "occu": 1 }],
        "abc": [0.25, 0.9124784300000001, 0.73179251],
        "properties": { "magmom": 0.0 },
        "label": "Rh",
        "xyz": [-4.9971596890671215, -1.0035009075, -6.015439883500692]
      },
      {
        "species": [{ "element": "Rh", "occu": 1 }],
        "abc": [0.25, 0.41247843, 0.76820749],
        "properties": { "magmom": 0.0 },
        "label": "Rh",
        "xyz": [-2.258925269067121, -1.0035009075, -6.314776266499309]
      }
    ]
  },
  "task_ids": null,
  "uncorrected_energy_per_atom": null,
  "energy_per_atom": -32.895855775,
  "formation_energy_per_atom": -0.607759117444445,
  "energy_above_hull": 0.0,
  "is_stable": true,
  "equilibrium_reaction_energy_per_atom": null,
  "decomposes_to": null,
  "xas": null,
  "grain_boundaries": null,
  "band_gap": 0.0,
  "cbm": null,
  "vbm": null,
  "efermi": 6.71080467,
  "is_gap_direct": null,
  "is_metal": null,
  "es_source_calc_id": null,
  "bandstructure": null,
  "dos": null,
  "dos_energy_up": null,
  "dos_energy_down": null,
  "is_magnetic": null,
  "ordering": null,
  "total_magnetization": 0.0,
  "total_magnetization_normalized_vol": null,
  "total_magnetization_normalized_formula_units": null,
  "num_magnetic_sites": null,
  "num_unique_magnetic_sites": null,
  "types_of_magnetic_species": null,
  "bulk_modulus": null,
  "shear_modulus": null,
  "universal_anisotropy": null,
  "homogeneous_poisson": null,
  "e_total": null,
  "e_ionic": null,
  "e_electronic": null,
  "n": null,
  "e_ij_max": null,
  "weighted_surface_energy_EV_PER_ANG2": null,
  "weighted_surface_energy": null,
  "weighted_work_function": null,
  "surface_anisotropy": null,
  "shape_factor": null,
  "has_reconstructed": null,
  "possible_species": null,
  "has_props": null,
  "theoretical": null,
  "database_IDs": null,
  "fields_not_requested": [
    "builder_meta",
    "nsites",
    "elements",
    "nelements",
    "composition",
    "composition_reduced",
    "chemsys",
    "symmetry",
    "property_name",
    "deprecated",
    "deprecation_reasons",
    "last_updated",
    "origins",
    "warnings",
    "task_ids",
    "uncorrected_energy_per_atom",
    "equilibrium_reaction_energy_per_atom",
    "decomposes_to",
    "xas",
    "grain_boundaries",
    "cbm",
    "vbm",
    "is_gap_direct",
    "is_metal",
    "es_source_calc_id",
    "bandstructure",
    "dos",
    "dos_energy_up",
    "dos_energy_down",
    "is_magnetic",
    "ordering",
    "total_magnetization_normalized_vol",
    "total_magnetization_normalized_formula_units",
    "num_magnetic_sites",
    "num_unique_magnetic_sites",
    "types_of_magnetic_species",
    "bulk_modulus",
    "shear_modulus",
    "universal_anisotropy",
    "homogeneous_poisson",
    "e_total",
    "e_ionic",
    "e_electronic",
    "n",
    "e_ij_max",
    "weighted_surface_energy_EV_PER_ANG2",
    "weighted_surface_energy",
    "weighted_work_function",
    "surface_anisotropy",
    "shape_factor",
    "has_reconstructed",
    "possible_species",
    "has_props",
    "theoretical",
    "database_IDs"
  ]
}
