{"builder_meta": null, "nsites": null, "elements": null, "nelements": null, "composition": null, "composition_reduced": null, "formula_pretty": "TaRu3", "formula_anonymous": "AB3", "chemsys": null, "volume": 58.29862568789527, "density": 13.790429270945305, "density_atomic": 14.574656421973817, "symmetry": null, "property_name": null, "material_id": "mp-867816", "deprecated": null, "deprecation_reasons": null, "last_updated": null, "origins": null, "warnings": null, "structure": {"@module": "pymatgen.core.structure", "@class": "Structure", "charge": 0, "lattice": {"matrix": [[3.87753777, 2.029999999999998e-06, -9.15e-06], [2.029999999999998e-06, 3.87749456, 6.099999999999997e-06], [-9.15e-06, 6.099999999999997e-06, 3.87749354]], "pbc": [true, true, true], "a": 3.8775377700113274, "b": 3.8774945600053297, "c": 3.8774935400155943, "alpha": 89.9998197268064, "beta": 90.00027040834271, "gamma": 89.9999400079767, "volume": 58.298625687895274}, "properties": {}, "sites": [{"species": [{"element": "Ta", "occu": 1}], "abc": [1e-06, 0.999999, -0.0], "properties": {"magmom": -0.0}, "label": "Ta", "xyz": [5.9075357399999985e-06, 3.87749068250747, 6.099984749999996e-06]}, {"species": [{"element": "Ru", "occu": 1}], "abc": [1e-06, 0.500001, 0.500001], "properties": {"magmom": 0.0}, "label": "Ru", "xyz": [3.1753064999999824e-07, 1.93875420750269, 1.9387536974904902]}, {"species": [{"element": "Ru", "occu": 1}], "abc": [0.499998999999999, 0.0, 0.5], "properties": {"magmom": -0.0}, "label": "Ru", "xyz": [1.9387604324622263, 4.064997969999995e-06, 1.9387421950091501]}, {"species": [{"element": "Ru", "occu": 1}], "abc": [0.500001, 0.500002, 0.0], "properties": {"magmom": -0.0}, "label": "Ru", "xyz": [1.9387737775418301, 1.9387560499911498, -1.5249969500000025e-06]}]}, "task_ids": null, "uncorrected_energy_per_atom": null, "energy_per_atom": -31.4207273, "formation_energy_per_atom": -0.204367650583332, "energy_above_hull": 0.0, "is_stable": true, "equilibrium_reaction_energy_per_atom": null, "decomposes_to": null, "xas": null, "grain_boundaries": null, "band_gap": 0.0, "cbm": null, "vbm": null, "efermi": 7.26763375, "is_gap_direct": null, "is_metal": null, "es_source_calc_id": null, "bandstructure": null, "dos": null, "dos_energy_up": null, "dos_energy_down": null, "is_magnetic": null, "ordering": null, "total_magnetization": 1.7e-06, "total_magnetization_normalized_vol": null, "total_magnetization_normalized_formula_units": null, "num_magnetic_sites": null, "num_unique_magnetic_sites": null, "types_of_magnetic_species": null, "bulk_modulus": null, "shear_modulus": null, "universal_anisotropy": null, "homogeneous_poisson": null, "e_total": null, "e_ionic": null, "e_electronic": null, "n": null, "e_ij_max": null, "weighted_surface_energy_EV_PER_ANG2": null, "weighted_surface_energy": null, "weighted_work_function": null, "surface_anisotropy": null, "shape_factor": null, "has_reconstructed": null, "possible_species": null, "has_props": null, "theoretical": null, "database_IDs": null, "fields_not_requested": ["builder_meta", "nsites", "elements", "nelements", "composition", "composition_reduced", "chemsys", "symmetry", "property_name", "deprecated", "deprecation_reasons", "last_updated", "origins", "warnings", "task_ids", "uncorrected_energy_per_atom", "equilibrium_reaction_energy_per_atom", "decomposes_to", "xas", "grain_boundaries", "cbm", "vbm", "is_gap_direct", "is_metal", "es_source_calc_id", "bandstructure", "dos", "dos_energy_up", "dos_energy_down", "is_magnetic", "ordering", "total_magnetization_normalized_vol", "total_magnetization_normalized_formula_units", "num_magnetic_sites", "num_unique_magnetic_sites", "types_of_magnetic_species", "bulk_modulus", "shear_modulus", "universal_anisotropy", "homogeneous_poisson", "e_total", "e_ionic", "e_electronic", "n", "e_ij_max", "weighted_surface_energy_EV_PER_ANG2", "weighted_surface_energy", "weighted_work_function", "surface_anisotropy", "shape_factor", "has_reconstructed", "possible_species", "has_props", "theoretical", "database_IDs"]}