{
  "builder_meta": null,
  "nsites": null,
  "elements": null,
  "nelements": null,
  "composition": null,
  "composition_reduced": null,
  "formula_pretty": "TaS2",
  "formula_anonymous": "AB2",
  "chemsys": null,
  "volume": 61.05212752336501,
  "density": 6.665802005732892,
  "density_atomic": 20.350709174455,
  "symmetry": null,
  "property_name": null,
  "material_id": "mp-10014",
  "deprecated": null,
  "deprecation_reasons": null,
  "last_updated": null,
  "origins": null,
  "warnings": null,
  "structure": {
    "@module": "pymatgen.core.structure",
    "@class": "Structure",
    "charge": 0,
    "lattice": {
      "matrix": [
        [3.30473303, 0.05234736, 5.73045043],
        [1.57410447, 2.9062341700000003, 5.73045043],
        [0.08632216, 0.05234735, 6.61452066]
      ],
      "pbc": [true, true, true],
      "a": 6.615290074997403,
      "b": 6.615290172323264,
      "c": 6.615291023222328,
      "alpha": 29.223286544984163,
      "beta": 29.223289908813697,
      "gamma": 29.223287052959712,
      "volume": 61.05212752336501
    },
    "properties": {},
    "sites": [
      {
        "species": [{ "element": "Ta", "occu": 1 }],
        "abc": [0.16674899, 0.16674899, 0.16674899],
        "properties": { "magmom": -0.0 },
        "label": "Ta",
        "xyz": [0.8279353584937434, 0.5020693497018313, 3.014058282284265]
      },
      {
        "species": [{ "element": "S", "occu": 1 }],
        "abc": [0.58180508, 0.58180508, 0.58180508],
        "properties": { "magmom": -0.0 },
        "label": "S",
        "xyz": [2.888755113199072, 1.7517737179027104, 10.516372063477322]
      },
      {
        "species": [{ "element": "S", "occu": 1 }],
        "abc": [0.41844593, 0.41844593, 0.41844593],
        "properties": { "magmom": -0.0 },
        "label": "S",
        "xyz": [2.0776508515271837, 1.2599109353554587, 7.5635865680784145]
      }
    ]
  },
  "task_ids": null,
  "uncorrected_energy_per_atom": null,
  "energy_per_atom": -8.094981304999997,
  "formation_energy_per_atom": -1.3804324124444411,
  "energy_above_hull": 0.0,
  "is_stable": true,
  "equilibrium_reaction_energy_per_atom": null,
  "decomposes_to": null,
  "xas": null,
  "grain_boundaries": null,
  "band_gap": 0.0,
  "cbm": null,
  "vbm": null,
  "efermi": 4.1048202,
  "is_gap_direct": null,
  "is_metal": null,
  "es_source_calc_id": null,
  "bandstructure": null,
  "dos": null,
  "dos_energy_up": null,
  "dos_energy_down": null,
  "is_magnetic": null,
  "ordering": null,
  "total_magnetization": 3.77e-5,
  "total_magnetization_normalized_vol": null,
  "total_magnetization_normalized_formula_units": null,
  "num_magnetic_sites": null,
  "num_unique_magnetic_sites": null,
  "types_of_magnetic_species": null,
  "bulk_modulus": null,
  "shear_modulus": null,
  "universal_anisotropy": null,
  "homogeneous_poisson": null,
  "e_total": null,
  "e_ionic": null,
  "e_electronic": null,
  "n": null,
  "e_ij_max": null,
  "weighted_surface_energy_EV_PER_ANG2": null,
  "weighted_surface_energy": null,
  "weighted_work_function": null,
  "surface_anisotropy": null,
  "shape_factor": null,
  "has_reconstructed": null,
  "possible_species": null,
  "has_props": null,
  "theoretical": null,
  "database_IDs": null,
  "fields_not_requested": [
    "builder_meta",
    "nsites",
    "elements",
    "nelements",
    "composition",
    "composition_reduced",
    "chemsys",
    "symmetry",
    "property_name",
    "deprecated",
    "deprecation_reasons",
    "last_updated",
    "origins",
    "warnings",
    "task_ids",
    "uncorrected_energy_per_atom",
    "equilibrium_reaction_energy_per_atom",
    "decomposes_to",
    "xas",
    "grain_boundaries",
    "cbm",
    "vbm",
    "is_gap_direct",
    "is_metal",
    "es_source_calc_id",
    "bandstructure",
    "dos",
    "dos_energy_up",
    "dos_energy_down",
    "is_magnetic",
    "ordering",
    "total_magnetization_normalized_vol",
    "total_magnetization_normalized_formula_units",
    "num_magnetic_sites",
    "num_unique_magnetic_sites",
    "types_of_magnetic_species",
    "bulk_modulus",
    "shear_modulus",
    "universal_anisotropy",
    "homogeneous_poisson",
    "e_total",
    "e_ionic",
    "e_electronic",
    "n",
    "e_ij_max",
    "weighted_surface_energy_EV_PER_ANG2",
    "weighted_surface_energy",
    "weighted_work_function",
    "surface_anisotropy",
    "shape_factor",
    "has_reconstructed",
    "possible_species",
    "has_props",
    "theoretical",
    "database_IDs"
  ]
}
