{"builder_meta": null, "nsites": null, "elements": null, "nelements": null, "composition": null, "composition_reduced": null, "formula_pretty": "TaS3", "formula_anonymous": "AB3", "chemsys": null, "volume": 469.47025513007236, "density": 5.881606865285172, "density_atomic": 19.56126063041968, "symmetry": null, "property_name": null, "material_id": "mp-30527", "deprecated": null, "deprecation_reasons": null, "last_updated": null, "origins": null, "warnings": null, "structure": {"@module": "pymatgen.core.structure", "@class": "Structure", "charge": 0, "lattice": {"matrix": [[3.36249475, 0.0, 0.0], [0.0, 9.28386125, -3.02122126], [0.0, -0.12800061000000001, 15.08061561]], "pbc": [true, true, true], "a": 3.36249475, "b": 9.763086479752575, "c": 15.0811588192929, "alpha": 108.51259983428683, "beta": 90.0, "gamma": 90.0, "volume": 469.4702551300723}, "properties": {}, "sites": [{"species": [{"element": "Ta", "occu": 1}], "abc": [0.25, 0.47754075, 0.11634894], "properties": {"magmom": -0.0}, "label": "Ta", "xyz": [0.8406236875, 4.418529328928083, 0.3118573743546085]}, {"species": [{"element": "Ta", "occu": 1}], "abc": [0.75, 0.52245925, 0.88365106], "properties": {"magmom": -0.0}, "label": "Ta", "xyz": [2.5218710625000003, 4.737331311071915, 11.747536975645392]}, {"species": [{"element": "Ta", "occu": 1}], "abc": [0.25, 0.10989779000000001, 0.7966904300000001], "properties": {"magmom": -0.0}, "label": "Ta", "xyz": [0.8406236875, 0.9182989730204753, 11.682556595420598]}, {"species": [{"element": "Ta", "occu": 1}], "abc": [0.75, 0.89010221, 0.20330957], "properties": {"magmom": -0.0}, "label": "Ta", "xyz": [2.5218710625000003, 8.237561666979524, 0.3768377545794035]}, {"species": [{"element": "Ta", "occu": 1}], "abc": [0.25, 0.15580919000000001, 0.45861822], "properties": {"magmom": 0.0}, "label": "Ta", "xyz": [0.8406236875, 1.3878074895177734, 6.445511050231036]}, {"species": [{"element": "Ta", "occu": 1}], "abc": [0.75, 0.8441908100000001, 0.54138178], "properties": {"magmom": 0.0}, "label": "Ta", "xyz": [2.5218710625000003, 7.768053150482227, 5.613883299768966]}, {"species": [{"element": "S", "occu": 1}], "abc": [0.25, 0.37548597, 0.93578817], "properties": {"magmom": 0.0}, "label": "S", "xyz": [0.8406236875, 3.3661781902108787, 12.977835488759613]}, {"species": [{"element": "S", "occu": 1}], "abc": [0.75, 0.62451403, 0.06421183], "properties": {"magmom": 0.0}, "label": "S", "xyz": [2.5218710625000003, 5.7896824497891215, -0.9184411387596116]}, {"species": [{"element": "S", "occu": 1}], "abc": [0.25, 0.72285405, 0.90376873], "properties": {"magmom": 0.0}, "label": "S", "xyz": [0.8406236875, 6.595193755461637, 11.445486793730774]}, {"species": [{"element": "S", "occu": 1}], "abc": [0.75, 0.27714595000000003, 0.09623127000000001], "properties": {"magmom": 0.0}, "label": "S", "xyz": [2.5218710625000003, 2.560666884538363, 0.6139075562692279]}, {"species": [{"element": "S", "occu": 1}], "abc": [0.25, 0.56501201, 0.7713084], "properties": {"magmom": -0.0}, "label": "S", "xyz": [0.8406236875, 5.146765159725488, 9.924779200396792]}, {"species": [{"element": "S", "occu": 1}], "abc": [0.75, 0.43498799, 0.2286916], "properties": {"magmom": -0.0}, "label": "S", "xyz": [2.5218710625000003, 4.009095480274511, 2.134615149603209]}, {"species": [{"element": "S", "occu": 1}], "abc": [0.25, 0.9105031100000001, 0.0886458], "properties": {"magmom": 0.0}, "label": "S", "xyz": [0.8406236875, 8.44163782445955, -1.4139981179871806]}, {"species": [{"element": "S", "occu": 1}], "abc": [0.75, 0.08949689, 0.9113542], "properties": {"magmom": 0.0}, "label": "S", "xyz": [2.5218710625000003, 0.7142228155404503, 13.47339246798718]}, {"species": [{"element": "S", "occu": 1}], "abc": [0.25, 0.08635961, 0.27888747], "properties": {"magmom": 0.0}, "label": "S", "xyz": [0.8406236875, 0.7660528705627558, 3.944883243778099]}, {"species": [{"element": "S", "occu": 1}], "abc": [0.75, 0.91364039, 0.72111253], "properties": {"magmom": 0.0}, "label": "S", "xyz": [2.5218710625000003, 8.389807769437244, 8.1145111062219]}, {"species": [{"element": "S", "occu": 1}], "abc": [0.25, 0.72723958, 0.24473658], "properties": {"magmom": 0.0}, "label": "S", "xyz": [0.8406236875, 6.720264924698961, 1.4936266084765433]}, {"species": [{"element": "S", "occu": 1}], "abc": [0.75, 0.27276042, 0.75526342], "properties": {"magmom": 0.0}, "label": "S", "xyz": [2.5218710625000003, 2.4355957153010386, 10.565767741523457]}, {"species": [{"element": "S", "occu": 1}], "abc": [0.25, 0.66960981, 0.56865024], "properties": {"magmom": 0.0}, "label": "S", "xyz": [0.8406236875, 6.143776990082216, 6.552556292097686]}, {"species": [{"element": "S", "occu": 1}], "abc": [0.75, 0.33039019000000003, 0.43134976], "properties": {"magmom": 0.0}, "label": "S", "xyz": [2.5218710625000003, 3.012083649917784, 5.506838057902315]}, {"species": [{"element": "S", "occu": 1}], "abc": [0.25, 0.04140167, 0.59236489], "properties": {"magmom": -0.0}, "label": "S", "xyz": [0.8406236875, 0.3085442925357046, 8.80814360134643]}, {"species": [{"element": "S", "occu": 1}], "abc": [0.75, 0.95859833, 0.40763511], "properties": {"magmom": -0.0}, "label": "S", "xyz": [2.5218710625000003, 8.847316347464297, 3.2512507486535713]}, {"species": [{"element": "S", "occu": 1}], "abc": [0.25, 0.679062899999999, 0.43396401], "properties": {"magmom": -0.0}, "label": "S", "xyz": [0.8406236875, 6.248778085624569, 4.492845153026945]}, {"species": [{"element": "S", "occu": 1}], "abc": [0.75, 0.3209361, 0.56603599], "properties": {"magmom": -0.0}, "label": "S", "xyz": [2.5218710625000003, 2.907073270514171, 7.566552218194319]}]}, "task_ids": null, "uncorrected_energy_per_atom": null, "energy_per_atom": -7.243434495416669, "formation_energy_per_atom": -1.172932934124999, "energy_above_hull": 0.0, "is_stable": true, "equilibrium_reaction_energy_per_atom": null, "decomposes_to": null, "xas": null, "grain_boundaries": null, "band_gap": 0.0, "cbm": null, "vbm": null, "efermi": 4.88547172, "is_gap_direct": null, "is_metal": null, "es_source_calc_id": null, "bandstructure": null, "dos": null, "dos_energy_up": null, "dos_energy_down": null, "is_magnetic": null, "ordering": null, "total_magnetization": 2e-07, "total_magnetization_normalized_vol": null, "total_magnetization_normalized_formula_units": null, "num_magnetic_sites": null, "num_unique_magnetic_sites": null, "types_of_magnetic_species": null, "bulk_modulus": null, "shear_modulus": null, "universal_anisotropy": null, "homogeneous_poisson": null, "e_total": null, "e_ionic": null, "e_electronic": null, "n": null, "e_ij_max": null, "weighted_surface_energy_EV_PER_ANG2": null, "weighted_surface_energy": null, "weighted_work_function": null, "surface_anisotropy": null, "shape_factor": null, "has_reconstructed": null, "possible_species": null, "has_props": null, "theoretical": null, "database_IDs": null, "fields_not_requested": ["builder_meta", "nsites", "elements", "nelements", "composition", "composition_reduced", "chemsys", "symmetry", "property_name", "deprecated", "deprecation_reasons", "last_updated", "origins", "warnings", "task_ids", "uncorrected_energy_per_atom", "equilibrium_reaction_energy_per_atom", "decomposes_to", "xas", "grain_boundaries", "cbm", "vbm", "is_gap_direct", "is_metal", "es_source_calc_id", "bandstructure", "dos", "dos_energy_up", "dos_energy_down", "is_magnetic", "ordering", "total_magnetization_normalized_vol", "total_magnetization_normalized_formula_units", "num_magnetic_sites", "num_unique_magnetic_sites", "types_of_magnetic_species", "bulk_modulus", "shear_modulus", "universal_anisotropy", "homogeneous_poisson", "e_total", "e_ionic", "e_electronic", "n", "e_ij_max", "weighted_surface_energy_EV_PER_ANG2", "weighted_surface_energy", "weighted_work_function", "surface_anisotropy", "shape_factor", "has_reconstructed", "possible_species", "has_props", "theoretical", "database_IDs"]}