{
  "builder_meta": null,
  "nsites": null,
  "elements": null,
  "nelements": null,
  "composition": null,
  "composition_reduced": null,
  "formula_pretty": "TaSe3",
  "formula_anonymous": "AB3",
  "chemsys": null,
  "volume": 364.18516606892683,
  "density": 7.620513766047706,
  "density_atomic": 22.761572879307927,
  "symmetry": null,
  "property_name": null,
  "material_id": "mp-29652",
  "deprecated": null,
  "deprecation_reasons": null,
  "last_updated": null,
  "origins": null,
  "warnings": null,
  "structure": {
    "@module": "pymatgen.core.structure",
    "@class": "Structure",
    "charge": 0,
    "lattice": {
      "matrix": [
        [3.52664896, 0.0, 0.0],
        [0.0, 9.65284422, -3.00236825],
        [0.0, -0.16339304000000002, 10.74887332]
      ],
      "pbc": [true, true, true],
      "a": 3.52664896,
      "b": 10.108986924721759,
      "c": 10.750115112636156,
      "alpha": 108.14838276921589,
      "beta": 90.0,
      "gamma": 90.0,
      "volume": 364.18516606892683
    },
    "properties": {},
    "sites": [
      {
        "species": [{ "element": "Ta", "occu": 1 }],
        "abc": [0.75, 0.04581668, 0.33236334],
        "properties": { "magmom": 0.0 },
        "label": "Ta",
        "xyz": [2.6449867200000003, 0.387955418210436, 3.4349728925196787]
      },
      {
        "species": [{ "element": "Ta", "occu": 1 }],
        "abc": [0.25, 0.9541833200000001, 0.66763666],
        "properties": { "magmom": 0.0 },
        "label": "Ta",
        "xyz": [0.88166224, 9.101495761789565, 4.311532177480321]
      },
      {
        "species": [{ "element": "Ta", "occu": 1 }],
        "abc": [0.75, 0.37360852, 0.80920376],
        "properties": { "magmom": 0.0 },
        "label": "Ta",
        "xyz": [2.6449867200000003, 3.4741665804989244, 7.576318347930194]
      },
      {
        "species": [{ "element": "Ta", "occu": 1 }],
        "abc": [0.25, 0.62639148, 0.19079624],
        "properties": { "magmom": 0.0 },
        "label": "Ta",
        "xyz": [0.88166224, 6.015284599501077, 0.17018672206980656]
      },
      {
        "species": [{ "element": "Se", "occu": 1 }],
        "abc": [0.75, 0.11795605, 0.6015370600000001],
        "properties": { "magmom": 0.0 },
        "label": "Se",
        "xyz": [2.6449867200000003, 1.0403244065504686, 6.111698155809827]
      },
      {
        "species": [{ "element": "Se", "occu": 1 }],
        "abc": [0.25, 0.88204395, 0.39846294],
        "properties": { "magmom": 0.0 },
        "label": "Se",
        "xyz": [0.88166224, 8.449126773449532, 1.6348069141901727]
      },
      {
        "species": [{ "element": "Se", "occu": 1 }],
        "abc": [0.75, 0.74684772, 0.60616962],
        "properties": { "magmom": 0.0 },
        "label": "Se",
        "xyz": [2.6449867200000003, 7.110160800254733, 4.273328573699647]
      },
      {
        "species": [{ "element": "Se", "occu": 1 }],
        "abc": [0.25, 0.25315228, 0.39383038000000004],
        "properties": { "magmom": 0.0 },
        "label": "Se",
        "xyz": [0.88166224, 2.3792903797452665, 3.473176496300352]
      },
      {
        "species": [{ "element": "Se", "occu": 1 }],
        "abc": [0.25, 0.5720891, 0.91787708],
        "properties": { "magmom": -0.0 },
        "label": "Se",
        "xyz": [0.88166224, 5.37231223581248, 8.14852230624043]
      },
      {
        "species": [{ "element": "Se", "occu": 1 }],
        "abc": [0.75, 0.4279109, 0.08212292],
        "properties": { "magmom": -0.0 },
        "label": "Se",
        "xyz": [2.6449867200000003, 4.117138944187521, -0.4020172362404305]
      },
      {
        "species": [{ "element": "Se", "occu": 1 }],
        "abc": [0.25, 0.2033481, 0.86625696],
        "properties": { "magmom": -0.0 },
        "label": "Se",
        "xyz": [0.88166224, 1.8213471736174238, 8.70076044647048]
      },
      {
        "species": [{ "element": "Se", "occu": 1 }],
        "abc": [0.75, 0.7966519, 0.13374304],
        "properties": { "magmom": -0.0 },
        "label": "Se",
        "xyz": [2.6449867200000003, 7.668104006382577, -0.954255376470482]
      },
      {
        "species": [{ "element": "Se", "occu": 1 }],
        "abc": [0.25, 0.07446459, 0.1630749],
        "properties": { "magmom": 0.0 },
        "label": "Se",
        "xyz": [0.88166224, 0.6921497835174738, 1.5293013210064004]
      },
      {
        "species": [{ "element": "Se", "occu": 1 }],
        "abc": [0.75, 0.9255354100000001, 0.8369251],
        "properties": { "magmom": 0.0 },
        "label": "Se",
        "xyz": [2.6449867200000003, 8.797301396482528, 6.217203748993597]
      },
      {
        "species": [{ "element": "Se", "occu": 1 }],
        "abc": [0.25, 0.41650053000000004, 0.64280757],
        "properties": { "magmom": -0.0 },
        "label": "Se",
        "xyz": [0.88166224, 3.915384450640124, 5.658969171686859]
      },
      {
        "species": [{ "element": "Se", "occu": 1 }],
        "abc": [0.75, 0.58349947, 0.35719243],
        "properties": { "magmom": -0.0 },
        "label": "Se",
        "xyz": [2.6449867200000003, 5.574066729359877, 2.0875358983131402]
      }
    ]
  },
  "task_ids": null,
  "uncorrected_energy_per_atom": null,
  "energy_per_atom": -23.6245835825,
  "formation_energy_per_atom": -0.74295523113021,
  "energy_above_hull": 0.0,
  "is_stable": true,
  "equilibrium_reaction_energy_per_atom": null,
  "decomposes_to": null,
  "xas": null,
  "grain_boundaries": null,
  "band_gap": 0.0,
  "cbm": null,
  "vbm": null,
  "efermi": 3.8695511,
  "is_gap_direct": null,
  "is_metal": null,
  "es_source_calc_id": null,
  "bandstructure": null,
  "dos": null,
  "dos_energy_up": null,
  "dos_energy_down": null,
  "is_magnetic": null,
  "ordering": null,
  "total_magnetization": 0.0,
  "total_magnetization_normalized_vol": null,
  "total_magnetization_normalized_formula_units": null,
  "num_magnetic_sites": null,
  "num_unique_magnetic_sites": null,
  "types_of_magnetic_species": null,
  "bulk_modulus": null,
  "shear_modulus": null,
  "universal_anisotropy": null,
  "homogeneous_poisson": null,
  "e_total": null,
  "e_ionic": null,
  "e_electronic": null,
  "n": null,
  "e_ij_max": null,
  "weighted_surface_energy_EV_PER_ANG2": null,
  "weighted_surface_energy": null,
  "weighted_work_function": null,
  "surface_anisotropy": null,
  "shape_factor": null,
  "has_reconstructed": null,
  "possible_species": null,
  "has_props": null,
  "theoretical": null,
  "database_IDs": null,
  "fields_not_requested": [
    "builder_meta",
    "nsites",
    "elements",
    "nelements",
    "composition",
    "composition_reduced",
    "chemsys",
    "symmetry",
    "property_name",
    "deprecated",
    "deprecation_reasons",
    "last_updated",
    "origins",
    "warnings",
    "task_ids",
    "uncorrected_energy_per_atom",
    "equilibrium_reaction_energy_per_atom",
    "decomposes_to",
    "xas",
    "grain_boundaries",
    "cbm",
    "vbm",
    "is_gap_direct",
    "is_metal",
    "es_source_calc_id",
    "bandstructure",
    "dos",
    "dos_energy_up",
    "dos_energy_down",
    "is_magnetic",
    "ordering",
    "total_magnetization_normalized_vol",
    "total_magnetization_normalized_formula_units",
    "num_magnetic_sites",
    "num_unique_magnetic_sites",
    "types_of_magnetic_species",
    "bulk_modulus",
    "shear_modulus",
    "universal_anisotropy",
    "homogeneous_poisson",
    "e_total",
    "e_ionic",
    "e_electronic",
    "n",
    "e_ij_max",
    "weighted_surface_energy_EV_PER_ANG2",
    "weighted_surface_energy",
    "weighted_work_function",
    "surface_anisotropy",
    "shape_factor",
    "has_reconstructed",
    "possible_species",
    "has_props",
    "theoretical",
    "database_IDs"
  ]
}
