{
  "builder_meta": null,
  "nsites": null,
  "elements": null,
  "nelements": null,
  "composition": null,
  "composition_reduced": null,
  "formula_pretty": "TaSe2",
  "formula_anonymous": "AB2",
  "chemsys": null,
  "volume": 140.2776952516514,
  "density": 8.022705992516602,
  "density_atomic": 23.379615875275235,
  "symmetry": null,
  "property_name": null,
  "material_id": "mp-1019276",
  "deprecated": null,
  "deprecation_reasons": null,
  "last_updated": null,
  "origins": null,
  "warnings": null,
  "structure": {
    "@module": "pymatgen.core.structure",
    "@class": "Structure",
    "charge": 0,
    "lattice": {
      "matrix": [
        [3.47408152, -2e-8, -0.0],
        [-1.7370417900000001, 3.00868708, 0.0],
        [-0.0, 0.0, 13.42058964]
      ],
      "pbc": [true, true, true],
      "a": 3.47408152,
      "b": 3.474120338382845,
      "c": 13.42058964,
      "alpha": 90.0,
      "beta": 90.0,
      "gamma": 119.999650326032,
      "volume": 140.2776952516514
    },
    "properties": {},
    "sites": [
      {
        "species": [{ "element": "Ta", "occu": 1 }],
        "abc": [0.33335303, 0.66670606, 0.25],
        "properties": { "magmom": 0.537 },
        "label": "Ta",
        "xyz": [-6.867072419591835e-7, 2.005909902212644, 3.35514741]
      },
      {
        "species": [{ "element": "Ta", "occu": 1 }],
        "abc": [0.6666469700000001, 0.33329394, 0.75],
        "properties": { "magmom": 0.537 },
        "label": "Ta",
        "xyz": [1.7370404167072417, 1.0027771577873559, 10.065442229999999]
      },
      {
        "species": [{ "element": "Se", "occu": 1 }],
        "abc": [0.33331915, 0.66663731, 0.87410761],
        "properties": { "magmom": 0.006 },
        "label": "Se",
        "xyz": [1.0330339228481478e-6, 2.0057030549765718, 11.73103953501116]
      },
      {
        "species": [{ "element": "Se", "occu": 1 }],
        "abc": [0.66668085, 0.33336269, 0.12589239],
        "properties": { "magmom": 0.006 },
        "label": "Se",
        "xyz": [1.7370386969660765, 1.0029840050234282, 1.6895501049888395]
      },
      {
        "species": [{ "element": "Se", "occu": 1 }],
        "abc": [0.66668085, 0.33336269, 0.37410761000000003],
        "properties": { "magmom": 0.006 },
        "label": "Se",
        "xyz": [1.7370386969660765, 1.0029840050234282, 5.020744715011161]
      },
      {
        "species": [{ "element": "Se", "occu": 1 }],
        "abc": [0.33331915, 0.66663731, 0.62589239],
        "properties": { "magmom": 0.006 },
        "label": "Se",
        "xyz": [1.0330339228481478e-6, 2.0057030549765718, 8.39984492498884]
      }
    ]
  },
  "task_ids": null,
  "uncorrected_energy_per_atom": null,
  "energy_per_atom": -26.670371681666666,
  "formation_energy_per_atom": -0.932053956819444,
  "energy_above_hull": 0.0,
  "is_stable": true,
  "equilibrium_reaction_energy_per_atom": null,
  "decomposes_to": null,
  "xas": null,
  "grain_boundaries": null,
  "band_gap": 0.0,
  "cbm": null,
  "vbm": null,
  "efermi": 3.29404644,
  "is_gap_direct": null,
  "is_metal": null,
  "es_source_calc_id": null,
  "bandstructure": null,
  "dos": null,
  "dos_energy_up": null,
  "dos_energy_down": null,
  "is_magnetic": null,
  "ordering": null,
  "total_magnetization": 1.7076416,
  "total_magnetization_normalized_vol": null,
  "total_magnetization_normalized_formula_units": null,
  "num_magnetic_sites": null,
  "num_unique_magnetic_sites": null,
  "types_of_magnetic_species": null,
  "bulk_modulus": null,
  "shear_modulus": null,
  "universal_anisotropy": null,
  "homogeneous_poisson": null,
  "e_total": null,
  "e_ionic": null,
  "e_electronic": null,
  "n": null,
  "e_ij_max": null,
  "weighted_surface_energy_EV_PER_ANG2": null,
  "weighted_surface_energy": null,
  "weighted_work_function": null,
  "surface_anisotropy": null,
  "shape_factor": null,
  "has_reconstructed": null,
  "possible_species": null,
  "has_props": null,
  "theoretical": null,
  "database_IDs": null,
  "fields_not_requested": [
    "builder_meta",
    "nsites",
    "elements",
    "nelements",
    "composition",
    "composition_reduced",
    "chemsys",
    "symmetry",
    "property_name",
    "deprecated",
    "deprecation_reasons",
    "last_updated",
    "origins",
    "warnings",
    "task_ids",
    "uncorrected_energy_per_atom",
    "equilibrium_reaction_energy_per_atom",
    "decomposes_to",
    "xas",
    "grain_boundaries",
    "cbm",
    "vbm",
    "is_gap_direct",
    "is_metal",
    "es_source_calc_id",
    "bandstructure",
    "dos",
    "dos_energy_up",
    "dos_energy_down",
    "is_magnetic",
    "ordering",
    "total_magnetization_normalized_vol",
    "total_magnetization_normalized_formula_units",
    "num_magnetic_sites",
    "num_unique_magnetic_sites",
    "types_of_magnetic_species",
    "bulk_modulus",
    "shear_modulus",
    "universal_anisotropy",
    "homogeneous_poisson",
    "e_total",
    "e_ionic",
    "e_electronic",
    "n",
    "e_ij_max",
    "weighted_surface_energy_EV_PER_ANG2",
    "weighted_surface_energy",
    "weighted_work_function",
    "surface_anisotropy",
    "shape_factor",
    "has_reconstructed",
    "possible_species",
    "has_props",
    "theoretical",
    "database_IDs"
  ]
}
