{
  "builder_meta": null,
  "nsites": null,
  "elements": null,
  "nelements": null,
  "composition": null,
  "composition_reduced": null,
  "formula_pretty": "TaSn2",
  "formula_anonymous": "AB2",
  "chemsys": null,
  "volume": 268.6918123943466,
  "density": 10.342201390655223,
  "density_atomic": 22.39098436619555,
  "symmetry": null,
  "property_name": null,
  "material_id": "mp-567982",
  "deprecated": null,
  "deprecation_reasons": null,
  "last_updated": null,
  "origins": null,
  "warnings": null,
  "structure": {
    "@module": "pymatgen.core.structure",
    "@class": "Structure",
    "charge": 0,
    "lattice": {
      "matrix": [
        [5.45110472, 1e-8, 1.59977243],
        [2.72555388, 4.91898194, 0.79988622],
        [0.01793924, 0.0, 10.02588675]
      ],
      "pbc": [true, true, true],
      "a": 5.681004708341156,
      "b": 5.680215246253887,
      "c": 10.025902799257398,
      "alpha": 81.85504135622884,
      "beta": 73.541744474,
      "gamma": 59.995385216437356,
      "volume": 268.69181239434664
    },
    "properties": {},
    "sites": [
      {
        "species": [{ "element": "Ta", "occu": 1 }],
        "abc": [0.25211911, 0.75, 0.49576078],
        "properties": { "magmom": 0.0 },
        "label": "Ta",
        "xyz": [3.427386652138207, 3.6892364575211913, 5.973689301625802]
      },
      {
        "species": [{ "element": "Ta", "occu": 1 }],
        "abc": [0.00211911, 0.25, 0.99576078],
        "properties": { "magmom": 0.0 },
        "label": "Ta",
        "xyz": [0.7108031521382063, 1.229745485021191, 10.186746459125802]
      },
      {
        "species": [{ "element": "Ta", "occu": 1 }],
        "abc": [0.74788089, 0.25, 0.50423922],
        "properties": { "magmom": 0.0 },
        "label": "Ta",
        "xyz": [4.767211187861794, 1.229745492478809, 6.451856098374197]
      },
      {
        "species": [{ "element": "Ta", "occu": 1 }],
        "abc": [0.99788089, 0.75, 0.00423922],
        "properties": { "magmom": 0.0 },
        "label": "Ta",
        "xyz": [7.483794687861795, 3.689236464978809, 2.2387989408741973]
      },
      {
        "species": [{ "element": "Sn", "occu": 1 }],
        "abc": [0.70686919, 0.5862586200000001, 0.25],
        "properties": { "magmom": -0.0 },
        "label": "Sn",
        "xyz": [5.455582244456023, 2.883795571018015, 4.106241720772648]
      },
      {
        "species": [{ "element": "Sn", "occu": 1 }],
        "abc": [0.95686919, 0.08625862000000001, 0.75],
        "properties": { "magmom": -0.0 },
        "label": "Sn",
        "xyz": [5.4645511044560235, 0.42430460351801474, 9.119185093272648]
      },
      {
        "species": [{ "element": "Sn", "occu": 1 }],
        "abc": [0.29365011, 0.25, 0.41270078],
        "properties": { "magmom": -0.0 },
        "label": "Sn",
        "xyz": [2.2895095089901267, 1.229745487936501, 4.807436186961132]
      },
      {
        "species": [{ "element": "Sn", "occu": 1 }],
        "abc": [0.04312981, 0.91374138, 0.25],
        "properties": { "magmom": -0.0 },
        "label": "Sn",
        "xyz": [2.730041284439258, 4.494677346481975, 3.3063587069549216]
      },
      {
        "species": [{ "element": "Sn", "occu": 1 }],
        "abc": [0.54365011, 0.75, 0.91270078],
        "properties": { "magmom": -0.0 },
        "label": "Sn",
        "xyz": [5.024032248990126, 3.689236460436501, 10.620265779461132]
      },
      {
        "species": [{ "element": "Sn", "occu": 1 }],
        "abc": [0.45634989000000004, 0.25, 0.08729922],
        "properties": { "magmom": -0.0 },
        "label": "Sn",
        "xyz": [3.170565591009874, 1.229745489563499, 1.8052796205388677]
      },
      {
        "species": [{ "element": "Sn", "occu": 1 }],
        "abc": [0.29313081, 0.41374138, 0.75],
        "properties": { "magmom": -0.0 },
        "label": "Sn",
        "xyz": [2.7390155955439774, 2.0351863789819853, 8.319303679227351]
      },
      {
        "species": [{ "element": "Sn", "occu": 1 }],
        "abc": [0.70634989, 0.75, 0.58729922],
        "properties": { "magmom": -0.0 },
        "label": "Sn",
        "xyz": [5.905088331009874, 3.689236462063499, 7.618109213038868]
      }
    ]
  },
  "task_ids": null,
  "uncorrected_energy_per_atom": null,
  "energy_per_atom": -32.682711248333334,
  "formation_energy_per_atom": 0.012022175888887002,
  "energy_above_hull": 0.046035172777777,
  "is_stable": false,
  "equilibrium_reaction_energy_per_atom": null,
  "decomposes_to": null,
  "xas": null,
  "grain_boundaries": null,
  "band_gap": 0.0,
  "cbm": null,
  "vbm": null,
  "efermi": 7.97013352,
  "is_gap_direct": null,
  "is_metal": null,
  "es_source_calc_id": null,
  "bandstructure": null,
  "dos": null,
  "dos_energy_up": null,
  "dos_energy_down": null,
  "is_magnetic": null,
  "ordering": null,
  "total_magnetization": 3e-7,
  "total_magnetization_normalized_vol": null,
  "total_magnetization_normalized_formula_units": null,
  "num_magnetic_sites": null,
  "num_unique_magnetic_sites": null,
  "types_of_magnetic_species": null,
  "bulk_modulus": null,
  "shear_modulus": null,
  "universal_anisotropy": null,
  "homogeneous_poisson": null,
  "e_total": null,
  "e_ionic": null,
  "e_electronic": null,
  "n": null,
  "e_ij_max": null,
  "weighted_surface_energy_EV_PER_ANG2": null,
  "weighted_surface_energy": null,
  "weighted_work_function": null,
  "surface_anisotropy": null,
  "shape_factor": null,
  "has_reconstructed": null,
  "possible_species": null,
  "has_props": null,
  "theoretical": null,
  "database_IDs": null,
  "fields_not_requested": [
    "builder_meta",
    "nsites",
    "elements",
    "nelements",
    "composition",
    "composition_reduced",
    "chemsys",
    "symmetry",
    "property_name",
    "deprecated",
    "deprecation_reasons",
    "last_updated",
    "origins",
    "warnings",
    "task_ids",
    "uncorrected_energy_per_atom",
    "equilibrium_reaction_energy_per_atom",
    "decomposes_to",
    "xas",
    "grain_boundaries",
    "cbm",
    "vbm",
    "is_gap_direct",
    "is_metal",
    "es_source_calc_id",
    "bandstructure",
    "dos",
    "dos_energy_up",
    "dos_energy_down",
    "is_magnetic",
    "ordering",
    "total_magnetization_normalized_vol",
    "total_magnetization_normalized_formula_units",
    "num_magnetic_sites",
    "num_unique_magnetic_sites",
    "types_of_magnetic_species",
    "bulk_modulus",
    "shear_modulus",
    "universal_anisotropy",
    "homogeneous_poisson",
    "e_total",
    "e_ionic",
    "e_electronic",
    "n",
    "e_ij_max",
    "weighted_surface_energy_EV_PER_ANG2",
    "weighted_surface_energy",
    "weighted_work_function",
    "surface_anisotropy",
    "shape_factor",
    "has_reconstructed",
    "possible_species",
    "has_props",
    "theoretical",
    "database_IDs"
  ]
}
