{
  "builder_meta": null,
  "nsites": null,
  "elements": null,
  "nelements": null,
  "composition": null,
  "composition_reduced": null,
  "formula_pretty": "TaTe2",
  "formula_anonymous": "AB2",
  "chemsys": null,
  "volume": 754.8696071381597,
  "density": 8.634822862592657,
  "density_atomic": 27.95813359770962,
  "symmetry": null,
  "property_name": null,
  "material_id": "mp-1967",
  "deprecated": null,
  "deprecation_reasons": null,
  "last_updated": null,
  "origins": null,
  "warnings": null,
  "structure": {
    "@module": "pymatgen.core.structure",
    "@class": "Structure",
    "charge": 0,
    "lattice": {
      "matrix": [
        [9.03463521, 0.09991029, 2.82561297],
        [2.22647049, 8.75656594, 2.825612989999999],
        [0.12867376, 0.10119795000000001, 9.63321639]
      ],
      "pbc": [true, true, true],
      "a": 9.466715592012461,
      "b": 9.466715727942065,
      "c": 9.63460720414493,
      "alpha": 71.86287167525018,
      "beta": 71.8628739474802,
      "gamma": 71.13699470578406,
      "volume": 754.8696071381597
    },
    "properties": {},
    "sites": [
      {
        "species": [{ "element": "Ta", "occu": 1 }],
        "abc": [0.021306020000000002, 0.69746955, 0.28784336],
        "properties": { "magmom": -0.0 },
        "label": "Ta",
        "xyz": [1.7824253766477773, 6.138695954307185, 4.803838960365203]
      },
      {
        "species": [{ "element": "Ta", "occu": 1 }],
        "abc": [0.30253045, 0.9786939800000001, 0.71215664],
        "properties": { "magmom": -0.0 },
        "label": "Ta",
        "xyz": [5.0039213934555615, 8.67229306799126, 10.480603403158065]
      },
      {
        "species": [{ "element": "Ta", "occu": 1 }],
        "abc": [0.9786939800000001, 0.30253045, 0.71215664],
        "properties": { "magmom": -0.0 },
        "label": "Ta",
        "xyz": [9.607354083352224, 2.818978225692815, 10.480603389634796]
      },
      {
        "species": [{ "element": "Ta", "occu": 1 }],
        "abc": [0.69746955, 0.021306020000000002, 0.28784336],
        "properties": { "magmom": -0.0 },
        "label": "Ta",
        "xyz": [6.385858066544438, 0.2853811120087403, 4.803838946841934]
      },
      {
        "species": [{ "element": "Ta", "occu": 1 }],
        "abc": [0.63867622, 0.63867622, 0.70839296],
        "properties": { "magmom": -0.0 },
        "label": "Ta",
        "xyz": [7.283352007217183, 5.728108676442683, 10.433406307331284]
      },
      {
        "species": [{ "element": "Ta", "occu": 1 }],
        "abc": [0.36132378, 0.36132378, 0.29160704],
        "properties": { "magmom": -0.0 },
        "label": "Ta",
        "xyz": [4.106427452782816, 3.229565503557317, 4.851036042668714]
      },
      {
        "species": [{ "element": "Ta", "occu": 1 }],
        "abc": [0.69688682, 0.30311318, 0.0],
        "properties": { "magmom": 0.0 },
        "label": "Ta",
        "xyz": [6.9709907517569905, 2.7238567122364667, 2.825612976062263]
      },
      {
        "species": [{ "element": "Ta", "occu": 1 }],
        "abc": [0.30311318, 0.69688682, -0.0],
        "properties": { "magmom": 0.0 },
        "label": "Ta",
        "xyz": [4.290114948243009, 6.1326195177635325, 2.8256129839377357]
      },
      {
        "species": [{ "element": "Ta", "occu": 1 }],
        "abc": [-0.0, -0.0, 0.0],
        "properties": { "magmom": -0.0 },
        "label": "Ta",
        "xyz": [0.0, 0.0, 0.0]
      },
      {
        "species": [{ "element": "Te", "occu": 1 }],
        "abc": [0.95750934, 0.6247624900000001, 0.61810076],
        "properties": { "magmom": -0.0 },
        "label": "Te",
        "xyz": [10.12129619315984, 5.628989506166142, 10.42518618931234]
      },
      {
        "species": [{ "element": "Te", "occu": 1 }],
        "abc": [0.37523751, 0.04249066, 0.38189924000000003],
        "properties": { "magmom": -0.0 },
        "label": "Te",
        "xyz": [3.5338786317012927, 0.4482097747616563, 4.859256154032722]
      },
      {
        "species": [{ "element": "Te", "occu": 1 }],
        "abc": [0.04249066, 0.37523751, 0.38189924000000003],
        "properties": { "magmom": -0.0 },
        "label": "Te",
        "xyz": [1.268483266840161, 3.3286846738338585, 4.859256160687658]
      },
      {
        "species": [{ "element": "Te", "occu": 1 }],
        "abc": [0.6247624900000001, 0.95750934, 0.61810076],
        "properties": { "magmom": -0.0 },
        "label": "Te",
        "xyz": [7.855900828298708, 8.509464405238344, 10.425186195967278]
      },
      {
        "species": [{ "element": "Te", "occu": 1 }],
        "abc": [0.7058166300000001, 0.7058166300000001, 0.37961135],
        "properties": { "magmom": 0.0 },
        "label": "Te",
        "xyz": [7.997121694990968, 6.289464096750438, 7.645607541105741]
      },
      {
        "species": [{ "element": "Te", "occu": 1 }],
        "abc": [0.29418337, 0.29418337, 0.62038865],
        "properties": { "magmom": 0.0 },
        "label": "Te",
        "xyz": [3.3926577650090333, 2.6682100832495625, 7.6388348088942575]
      },
      {
        "species": [{ "element": "Te", "occu": 1 }],
        "abc": [0.01101827, 0.68873879, 0.01525829],
        "properties": { "magmom": -0.0 },
        "label": "Te",
        "xyz": [1.6349659828940646, 6.0336315762903165, 2.1242290476712165]
      },
      {
        "species": [{ "element": "Te", "occu": 1 }],
        "abc": [0.31126121, 0.98898173, 0.98474171],
        "properties": { "magmom": -0.0 },
        "label": "Te",
        "xyz": [5.140780542821882, 8.790835772288622, 13.160213315883192]
      },
      {
        "species": [{ "element": "Te", "occu": 1 }],
        "abc": [0.98898173, 0.31126121, 0.98474171],
        "properties": { "magmom": -0.0 },
        "label": "Te",
        "xyz": [9.754813477105936, 2.9240426037096836, 13.160213302328783]
      },
      {
        "species": [{ "element": "Te", "occu": 1 }],
        "abc": [0.0098167, 0.0098167, 0.6942122900000001],
        "properties": { "magmom": 0.0 },
        "label": "Te",
        "xyz": [0.1998738019177004, 0.15719423081984651, 6.742973600048965]
      },
      {
        "species": [{ "element": "Te", "occu": 1 }],
        "abc": [0.9901833, 0.9901833, 0.30578771],
        "properties": { "magmom": 0.0 },
        "label": "Te",
        "xyz": [11.189905658082298, 8.800479949180152, 8.541468749951033]
      },
      {
        "species": [{ "element": "Te", "occu": 1 }],
        "abc": [0.34033005, 0.6814921700000001, 0.69650272],
        "properties": { "magmom": 0.0 },
        "label": "Te",
        "xyz": [4.681701682254752, 6.072018245623329, 9.596835549479618]
      },
      {
        "species": [{ "element": "Te", "occu": 1 }],
        "abc": [0.31850783, 0.6596699500000001, 0.30349728],
        "properties": { "magmom": 0.0 },
        "label": "Te",
        "xyz": [4.385389868560843, 5.83897892804065, 5.687606807343624]
      },
      {
        "species": [{ "element": "Te", "occu": 1 }],
        "abc": [0.6596699500000001, 0.31850783, 0.30349728],
        "properties": { "magmom": 0.0 },
        "label": "Te",
        "xyz": [6.708077777745249, 2.8856559343766714, 5.687606800520381]
      },
      {
        "species": [{ "element": "Te", "occu": 1 }],
        "abc": [0.6814921700000001, 0.34033005, 0.69650272],
        "properties": { "magmom": 0.0 },
        "label": "Te",
        "xyz": [7.004389591439158, 3.1186952519593505, 9.596835542656375]
      },
      {
        "species": [{ "element": "Te", "occu": 1 }],
        "abc": [0.36800647000000003, 0.36800647000000003, 0.01482386],
        "properties": { "magmom": -0.0 },
        "label": "Te",
        "xyz": [4.146067198757793, 3.260740698284295, 2.222489167827026]
      },
      {
        "species": [{ "element": "Te", "occu": 1 }],
        "abc": [0.63199353, 0.63199353, 0.98517614],
        "properties": { "magmom": -0.0 },
        "label": "Te",
        "xyz": [7.243712261242207, 5.696933481715705, 13.06195318217297]
      },
      {
        "species": [{ "element": "Te", "occu": 1 }],
        "abc": [0.68873879, 0.01101827, 0.01525829],
        "properties": { "magmom": -0.0 },
        "label": "Te",
        "xyz": [6.248998917178119, 0.1668384077113784, 2.124229034116807]
      }
    ]
  },
  "task_ids": null,
  "uncorrected_energy_per_atom": null,
  "energy_per_atom": -6.69229310296296,
  "formation_energy_per_atom": -0.641113326518515,
  "energy_above_hull": 0.0,
  "is_stable": true,
  "equilibrium_reaction_energy_per_atom": null,
  "decomposes_to": null,
  "xas": null,
  "grain_boundaries": null,
  "band_gap": 0.0,
  "cbm": null,
  "vbm": null,
  "efermi": 5.96296059,
  "is_gap_direct": null,
  "is_metal": null,
  "es_source_calc_id": null,
  "bandstructure": null,
  "dos": null,
  "dos_energy_up": null,
  "dos_energy_down": null,
  "is_magnetic": null,
  "ordering": null,
  "total_magnetization": 0.0,
  "total_magnetization_normalized_vol": null,
  "total_magnetization_normalized_formula_units": null,
  "num_magnetic_sites": null,
  "num_unique_magnetic_sites": null,
  "types_of_magnetic_species": null,
  "bulk_modulus": null,
  "shear_modulus": null,
  "universal_anisotropy": null,
  "homogeneous_poisson": null,
  "e_total": null,
  "e_ionic": null,
  "e_electronic": null,
  "n": null,
  "e_ij_max": null,
  "weighted_surface_energy_EV_PER_ANG2": null,
  "weighted_surface_energy": null,
  "weighted_work_function": null,
  "surface_anisotropy": null,
  "shape_factor": null,
  "has_reconstructed": null,
  "possible_species": null,
  "has_props": null,
  "theoretical": null,
  "database_IDs": null,
  "fields_not_requested": [
    "builder_meta",
    "nsites",
    "elements",
    "nelements",
    "composition",
    "composition_reduced",
    "chemsys",
    "symmetry",
    "property_name",
    "deprecated",
    "deprecation_reasons",
    "last_updated",
    "origins",
    "warnings",
    "task_ids",
    "uncorrected_energy_per_atom",
    "equilibrium_reaction_energy_per_atom",
    "decomposes_to",
    "xas",
    "grain_boundaries",
    "cbm",
    "vbm",
    "is_gap_direct",
    "is_metal",
    "es_source_calc_id",
    "bandstructure",
    "dos",
    "dos_energy_up",
    "dos_energy_down",
    "is_magnetic",
    "ordering",
    "total_magnetization_normalized_vol",
    "total_magnetization_normalized_formula_units",
    "num_magnetic_sites",
    "num_unique_magnetic_sites",
    "types_of_magnetic_species",
    "bulk_modulus",
    "shear_modulus",
    "universal_anisotropy",
    "homogeneous_poisson",
    "e_total",
    "e_ionic",
    "e_electronic",
    "n",
    "e_ij_max",
    "weighted_surface_energy_EV_PER_ANG2",
    "weighted_surface_energy",
    "weighted_work_function",
    "surface_anisotropy",
    "shape_factor",
    "has_reconstructed",
    "possible_species",
    "has_props",
    "theoretical",
    "database_IDs"
  ]
}
