{"builder_meta": null, "nsites": null, "elements": null, "nelements": null, "composition": null, "composition_reduced": null, "formula_pretty": "TaV2", "formula_anonymous": "AB2", "chemsys": null, "volume": 89.77236132176256, "density": 10.463169700917822, "density_atomic": 14.96206022029376, "symmetry": null, "property_name": null, "material_id": "mp-567276", "deprecated": null, "deprecation_reasons": null, "last_updated": null, "origins": null, "warnings": null, "structure": {"@module": "pymatgen.core.structure", "@class": "Structure", "charge": 0, "lattice": {"matrix": [[4.35263983, -5.6e-06, 2.51298821], [1.45087545, 4.10367719, 2.512987], [1.8740000000000004e-05, 1.1410000000000001e-05, 5.02594656]], "pbc": [true, true, true], "a": 5.02599077131393, "b": 5.025963560682468, "c": 5.025946560047889, "alpha": 59.99973744379375, "beta": 59.99988082077874, "gamma": 60.00000325329343, "volume": 89.77236132176255}, "properties": {}, "sites": [{"species": [{"element": "Ta", "occu": 1}], "abc": [0.12500622, 0.12499828, 0.12499485], "properties": {"magmom": 0.022}, "label": "Ta", "xyz": [0.7254663303174576, 0.5129533165816398, 1.2564756460742423]}, {"species": [{"element": "Ta", "occu": 1}], "abc": [0.87499378, 0.87500172, 0.87500515], "properties": {"magmom": 0.022}, "label": "Ta", "xyz": [5.078067689682543, 3.59072968341836, 8.795446123925757]}, {"species": [{"element": "V", "occu": 1}], "abc": [0.5, 0.5, -0.0], "properties": {"magmom": 0.128}, "label": "V", "xyz": [2.90175764, 2.051835795, 2.512987605]}, {"species": [{"element": "V", "occu": 1}], "abc": [0.5, 0.0, 0.5], "properties": {"magmom": 0.128}, "label": "V", "xyz": [2.176329285, 2.9050000000000006e-06, 3.7694673850000004]}, {"species": [{"element": "V", "occu": 1}], "abc": [0.5, 0.5, 0.5], "properties": {"magmom": 0.128}, "label": "V", "xyz": [2.90176701, 2.0518415, 5.025960885]}, {"species": [{"element": "V", "occu": 1}], "abc": [0.0, 0.5, 0.5], "properties": {"magmom": 0.128}, "label": "V", "xyz": [0.725447095, 2.0518443, 3.76946678]}]}, "task_ids": null, "uncorrected_energy_per_atom": null, "energy_per_atom": -25.701262103333335, "formation_energy_per_atom": -0.11093404577778102, "energy_above_hull": 0.0, "is_stable": true, "equilibrium_reaction_energy_per_atom": null, "decomposes_to": null, "xas": null, "grain_boundaries": null, "band_gap": 0.0, "cbm": null, "vbm": null, "efermi": 5.44873832, "is_gap_direct": null, "is_metal": null, "es_source_calc_id": null, "bandstructure": null, "dos": null, "dos_energy_up": null, "dos_energy_down": null, "is_magnetic": null, "ordering": null, "total_magnetization": 0.794800899999999, "total_magnetization_normalized_vol": null, "total_magnetization_normalized_formula_units": null, "num_magnetic_sites": null, "num_unique_magnetic_sites": null, "types_of_magnetic_species": null, "bulk_modulus": null, "shear_modulus": null, "universal_anisotropy": null, "homogeneous_poisson": null, "e_total": null, "e_ionic": null, "e_electronic": null, "n": null, "e_ij_max": null, "weighted_surface_energy_EV_PER_ANG2": null, "weighted_surface_energy": null, "weighted_work_function": null, "surface_anisotropy": null, "shape_factor": null, "has_reconstructed": null, "possible_species": null, "has_props": null, "theoretical": null, "database_IDs": null, "fields_not_requested": ["builder_meta", "nsites", "elements", "nelements", "composition", "composition_reduced", "chemsys", "symmetry", "property_name", "deprecated", "deprecation_reasons", "last_updated", "origins", "warnings", "task_ids", "uncorrected_energy_per_atom", "equilibrium_reaction_energy_per_atom", "decomposes_to", "xas", "grain_boundaries", "cbm", "vbm", "is_gap_direct", "is_metal", "es_source_calc_id", "bandstructure", "dos", "dos_energy_up", "dos_energy_down", "is_magnetic", "ordering", "total_magnetization_normalized_vol", "total_magnetization_normalized_formula_units", "num_magnetic_sites", "num_unique_magnetic_sites", "types_of_magnetic_species", "bulk_modulus", "shear_modulus", "universal_anisotropy", "homogeneous_poisson", "e_total", "e_ionic", "e_electronic", "n", "e_ij_max", "weighted_surface_energy_EV_PER_ANG2", "weighted_surface_energy", "weighted_work_function", "surface_anisotropy", "shape_factor", "has_reconstructed", "possible_species", "has_props", "theoretical", "database_IDs"]}