{"builder_meta": null, "nsites": null, "elements": null, "nelements": null, "composition": null, "composition_reduced": null, "formula_pretty": "TaZn2", "formula_anonymous": "AB2", "chemsys": null, "volume": 350.57264314482524, "density": 11.813800842618756, "density_atomic": 14.607193464367718, "symmetry": null, "property_name": null, "material_id": "mp-862679", "deprecated": null, "deprecation_reasons": null, "last_updated": null, "origins": null, "warnings": null, "structure": {"@module": "pymatgen.core.structure", "@class": "Structure", "charge": 0, "lattice": {"matrix": [[5.00042705, 1.2130000000000002e-05, 5.33e-06], [-2.50020176, 4.33049169, -5.69e-06], [2.187e-05, -1.3040000000000002e-05, 16.18948782]], "pbc": [true, true, true], "a": 5.000427050017553, "b": 5.000416694426428, "c": 16.189487820020023, "alpha": 90.0001438635101, "beta": 89.99986152850026, "gamma": 119.99977385836925, "volume": 350.57264314482524}, "properties": {}, "sites": [{"species": [{"element": "Ta", "occu": 1}], "abc": [7e-07, 0.99999903, 0.09127285], "properties": {"magmom": 0.0}, "label": "Ta", "xyz": [-2.500193838368128, 4.330486299233587, 1.4776550033809375]}, {"species": [{"element": "Ta", "occu": 1}], "abc": [0.99997523, 1.7500000000000002e-05, 0.59149747], "properties": {"magmom": -0.0}, "label": "Ta", "xyz": [5.00027237194084, 8.020017710609999e-05, 9.576046415894217]}, {"species": [{"element": "Ta", "occu": 1}], "abc": [0.99998122, 1.2060000000000001e-05, 0.9086196200000001], "properties": {"magmom": -0.0}, "label": "Ta", "xyz": [5.000322861057864, 5.2507102135199994e-05, 14.71009160083431]}, {"species": [{"element": "Ta", "occu": 1}], "abc": [7e-06, 0.99998767, 0.4086235], "properties": {"magmom": 0.0}, "label": "Ta", "xyz": [-2.500126992927004, 4.330432966671932, 6.615399486323238]}, {"species": [{"element": "Ta", "occu": 1}], "abc": [0.33331141000000003, 0.66667476, 0.84358523], "properties": {"magmom": 0.0}, "label": "Ta", "xyz": [-0.00010356845295687949, 2.8870225508287484, 13.65721078938733]}, {"species": [{"element": "Ta", "occu": 1}], "abc": [0.66667626, 0.33331855, 0.34354497], "properties": {"magmom": 0.0}, "label": "Ta", "xyz": [2.500309892074679, 1.4434368178544745, 5.561818764239182]}, {"species": [{"element": "Ta", "occu": 1}], "abc": [0.66668273, 0.33330718, 0.15631547], "properties": {"magmom": 0.0}, "label": "Ta", "xyz": [2.5003665774225388, 1.44339002171512, 2.5306690545436723]}, {"species": [{"element": "Ta", "occu": 1}], "abc": [0.3332927, 0.66669126, 0.65652924], "properties": {"magmom": 0.0}, "label": "Ta", "xyz": [-0.00024247068660367976, 2.8870964429247903, 10.62887011743068]}, {"species": [{"element": "Zn", "occu": 1}], "abc": [0.16076232000000001, 0.32154656, 0.249899799999999], "properties": {"magmom": -0.0}, "label": "Zn", "xyz": [-4.555637656355621e-05, 1.392453397381636, 4.045748795583659]}, {"species": [{"element": "Zn", "occu": 1}], "abc": [0.83913196, 0.67848157, 0.75012678], "properties": {"magmom": -0.0}, "label": "Zn", "xyz": [2.499693741134633, 2.9381591977206165, 12.144168980279034]}, {"species": [{"element": "Zn", "occu": 1}], "abc": [0.67844039, 0.83914065, 0.24990077], "properties": {"magmom": -0.0}, "label": "Zn", "xyz": [1.2944762132808454, 3.633896582342088, 4.045764313500602]}, {"species": [{"element": "Zn", "occu": 1}], "abc": [0.16085038000000002, 0.83922321, 0.24989993], "properties": {"magmom": -0.0}, "label": "Zn", "xyz": [-1.2939012902086011, 3.634247829380147, 4.045747955106313]}, {"species": [{"element": "Zn", "occu": 1}], "abc": [0.83923611, 0.16085326, 0.7501289800000001], "properties": {"magmom": -0.0}, "label": "Zn", "xyz": [3.7943897473478296, 0.6965741039915244, 12.14420754301244]}, {"species": [{"element": "Zn", "occu": 1}], "abc": [0.321506299999999, 0.16074821, 0.75013069], "properties": {"magmom": -0.0}, "label": "Zn", "xyz": [1.205782247064751, 0.6961129057545963, 12.14423246813446]}, {"species": [{"element": "Zn", "occu": 1}], "abc": [0.49998696000000004, 0.99997983, 0.99987163], "properties": {"magmom": -0.0}, "label": "Zn", "xyz": [1.8855693315447572e-05, 4.330397370498383, 16.18740655049381]}, {"species": [{"element": "Zn", "occu": 1}], "abc": [0.49998895, -6.599999999999997e-07, 0.50010423], "properties": {"magmom": -0.0}, "label": "Zn", "xyz": [2.500170857693769, -3.314617711099999e-06, 8.096434005260338]}, {"species": [{"element": "Zn", "occu": 1}], "abc": [1.579e-05, 0.50000708, 0.9998740500000001], "properties": {"magmom": -0.0}, "label": "Zn", "xyz": [-1.250017757439868, 2.165263466715086, 16.187445909052947]}, {"species": [{"element": "Zn", "occu": 1}], "abc": [0.49998932, 0.50000798, 0.99987207], "properties": {"magmom": -0.0}, "label": "Zn", "xyz": [1.2500611560312322, 2.1652734288623448, 16.18741651872086]}, {"species": [{"element": "Zn", "occu": 1}], "abc": [0.49999728, 0.50000827, 0.50010529], "properties": {"magmom": -0.0}, "label": "Zn", "xyz": [1.2500893044725607, 2.165281201760301, 8.096448321111016]}, {"species": [{"element": "Zn", "occu": 1}], "abc": [-3.98e-06, 0.49999844, 0.5001043900000001], "properties": {"magmom": -0.0}, "label": "Zn", "xyz": [-1.250105944101904, 2.1652325680234403, 8.096431085621193]}, {"species": [{"element": "Zn", "occu": 1}], "abc": [0.33334736, 0.66664587, 0.12672124], "properties": {"magmom": -0.0}, "label": "Zn", "xyz": [0.0001327499128757214, 2.8869067912663273, 2.0515499550417253]}, {"species": [{"element": "Zn", "occu": 1}], "abc": [0.66663682, 0.33335154, 0.62698781], "properties": {"magmom": -0.0}, "label": "Zn", "xyz": [2.500036392470675, 1.4435759842022866, 10.150613169687462]}, {"species": [{"element": "Zn", "occu": 1}], "abc": [0.66664243, 0.33335571, 0.87312282], "properties": {"magmom": -0.0}, "label": "Zn", "xyz": [2.500059401997755, 1.443590832820153, 14.135412916164215]}, {"species": [{"element": "Zn", "occu": 1}], "abc": [0.33334536, 0.66664447, 0.37316118], "properties": {"magmom": -0.0}, "label": "Zn", "xyz": [0.00013163898272720715, 2.8868975149768836, 6.041286362030562]}]}, "task_ids": null, "uncorrected_energy_per_atom": null, "energy_per_atom": -22.280886225416666, "formation_energy_per_atom": -0.143206917861112, "energy_above_hull": 0.0, "is_stable": true, "equilibrium_reaction_energy_per_atom": null, "decomposes_to": null, "xas": null, "grain_boundaries": null, "band_gap": 0.0, "cbm": null, "vbm": null, "efermi": 4.06364176, "is_gap_direct": null, "is_metal": null, "es_source_calc_id": null, "bandstructure": null, "dos": null, "dos_energy_up": null, "dos_energy_down": null, "is_magnetic": null, "ordering": null, "total_magnetization": 3e-07, "total_magnetization_normalized_vol": null, "total_magnetization_normalized_formula_units": null, "num_magnetic_sites": null, "num_unique_magnetic_sites": null, "types_of_magnetic_species": null, "bulk_modulus": null, "shear_modulus": null, "universal_anisotropy": null, "homogeneous_poisson": null, "e_total": null, "e_ionic": null, "e_electronic": null, "n": null, "e_ij_max": null, "weighted_surface_energy_EV_PER_ANG2": null, "weighted_surface_energy": null, "weighted_work_function": null, "surface_anisotropy": null, "shape_factor": null, "has_reconstructed": null, "possible_species": null, "has_props": null, "theoretical": null, "database_IDs": null, "fields_not_requested": ["builder_meta", "nsites", "elements", "nelements", "composition", "composition_reduced", "chemsys", "symmetry", "property_name", "deprecated", "deprecation_reasons", "last_updated", "origins", "warnings", "task_ids", "uncorrected_energy_per_atom", "equilibrium_reaction_energy_per_atom", "decomposes_to", "xas", "grain_boundaries", "cbm", "vbm", "is_gap_direct", "is_metal", "es_source_calc_id", "bandstructure", "dos", "dos_energy_up", "dos_energy_down", "is_magnetic", "ordering", "total_magnetization_normalized_vol", "total_magnetization_normalized_formula_units", "num_magnetic_sites", "num_unique_magnetic_sites", "types_of_magnetic_species", "bulk_modulus", "shear_modulus", "universal_anisotropy", "homogeneous_poisson", "e_total", "e_ionic", "e_electronic", "n", "e_ij_max", "weighted_surface_energy_EV_PER_ANG2", "weighted_surface_energy", "weighted_work_function", "surface_anisotropy", "shape_factor", "has_reconstructed", "possible_species", "has_props", "theoretical", "database_IDs"]}