{
  "builder_meta": null,
  "nsites": null,
  "elements": null,
  "nelements": null,
  "composition": null,
  "composition_reduced": null,
  "formula_pretty": "Tb2Au",
  "formula_anonymous": "AB2",
  "chemsys": null,
  "volume": 315.7142285024262,
  "density": 10.83098714162959,
  "density_atomic": 26.30951904186885,
  "symmetry": null,
  "property_name": null,
  "material_id": "mp-1095658",
  "deprecated": null,
  "deprecation_reasons": null,
  "last_updated": null,
  "origins": null,
  "warnings": null,
  "structure": {
    "@module": "pymatgen.core.structure",
    "@class": "Structure",
    "charge": 0,
    "lattice": {
      "matrix": [
        [-0.0, -4.97480589, 0.0],
        [-7.11026814, 0.0, 0.0],
        [0.0, 0.0, -8.92548935]
      ],
      "pbc": [true, true, true],
      "a": 4.97480589,
      "b": 7.11026814,
      "c": 8.92548935,
      "alpha": 90.0,
      "beta": 90.0,
      "gamma": 90.0,
      "volume": 315.7142285024262
    },
    "properties": {},
    "sites": [
      {
        "species": [{ "element": "Tb", "occu": 1 }],
        "abc": [0.75, 0.64875559, 0.58469405],
        "properties": { "magmom": -0.0 },
        "label": "Tb",
        "xyz": [-4.612826202223903, -3.7311044175, -5.218680516283367]
      },
      {
        "species": [{ "element": "Tb", "occu": 1 }],
        "abc": [0.75, 0.14875559, 0.91530595],
        "properties": { "magmom": -0.0 },
        "label": "Tb",
        "xyz": [-1.0576921322239026, -3.7311044175, -8.169553508716632]
      },
      {
        "species": [{ "element": "Tb", "occu": 1 }],
        "abc": [0.25, 0.35124441, 0.41530595000000003],
        "properties": { "magmom": -0.0 },
        "label": "Tb",
        "xyz": [-2.4974419377760975, -1.2437014725, -3.7068088337166327]
      },
      {
        "species": [{ "element": "Tb", "occu": 1 }],
        "abc": [0.25, 0.8512444100000001, 0.08469405],
        "properties": { "magmom": -0.0 },
        "label": "Tb",
        "xyz": [-6.052576007776097, -1.2437014725, -0.7559358412833675]
      },
      {
        "species": [{ "element": "Tb", "occu": 1 }],
        "abc": [0.75, 0.0097326, 0.32537722],
        "properties": { "magmom": -0.0 },
        "label": "Tb",
        "xyz": [-0.069201395699364, -3.7311044175, -2.904150911842607]
      },
      {
        "species": [{ "element": "Tb", "occu": 1 }],
        "abc": [0.75, 0.5097336, 0.17462378],
        "properties": { "magmom": -0.0 },
        "label": "Tb",
        "xyz": [-3.624342575967504, -3.7311044175, -1.558602688646743]
      },
      {
        "species": [{ "element": "Tb", "occu": 1 }],
        "abc": [0.25, 0.9902664, 0.67462378],
        "properties": { "magmom": -0.0 },
        "label": "Tb",
        "xyz": [-7.041059634032496, -1.2437014725, -6.0213473636467425]
      },
      {
        "species": [{ "element": "Tb", "occu": 1 }],
        "abc": [0.25, 0.490267399999999, 0.82537722],
        "properties": { "magmom": -0.0 },
        "label": "Tb",
        "xyz": [-3.4859326743006287, -1.2437014725, -7.366895586842607]
      },
      {
        "species": [{ "element": "Au", "occu": 1 }],
        "abc": [0.75, 0.24248418, 0.59457831],
        "properties": { "magmom": 0.0 },
        "label": "Au",
        "xyz": [-1.724127539508025, -3.7311044175, -5.306902373645999]
      },
      {
        "species": [{ "element": "Au", "occu": 1 }],
        "abc": [0.75, 0.74248318, 0.90542069],
        "properties": { "magmom": 0.0 },
        "label": "Au",
        "xyz": [-5.279254499239885, -3.7311044175, -8.081322725864652]
      },
      {
        "species": [{ "element": "Au", "occu": 1 }],
        "abc": [0.25, 0.75751682, 0.40542069000000003],
        "properties": { "magmom": 0.0 },
        "label": "Au",
        "xyz": [-5.386147710760114, -1.2437014725, -3.6185780508646515]
      },
      {
        "species": [{ "element": "Au", "occu": 1 }],
        "abc": [0.25, 0.25751582, 0.09457831],
        "properties": { "magmom": 0.0 },
        "label": "Au",
        "xyz": [-1.8310065304919747, -1.2437014725, -0.8441576986459984]
      }
    ]
  },
  "task_ids": null,
  "uncorrected_energy_per_atom": null,
  "energy_per_atom": -4.803027152499998,
  "formation_energy_per_atom": -0.6198240702777741,
  "energy_above_hull": 0.0,
  "is_stable": true,
  "equilibrium_reaction_energy_per_atom": null,
  "decomposes_to": null,
  "xas": null,
  "grain_boundaries": null,
  "band_gap": 0.0,
  "cbm": null,
  "vbm": null,
  "efermi": 3.9684692,
  "is_gap_direct": null,
  "is_metal": null,
  "es_source_calc_id": null,
  "bandstructure": null,
  "dos": null,
  "dos_energy_up": null,
  "dos_energy_down": null,
  "is_magnetic": null,
  "ordering": null,
  "total_magnetization": 3e-7,
  "total_magnetization_normalized_vol": null,
  "total_magnetization_normalized_formula_units": null,
  "num_magnetic_sites": null,
  "num_unique_magnetic_sites": null,
  "types_of_magnetic_species": null,
  "bulk_modulus": null,
  "shear_modulus": null,
  "universal_anisotropy": null,
  "homogeneous_poisson": null,
  "e_total": null,
  "e_ionic": null,
  "e_electronic": null,
  "n": null,
  "e_ij_max": null,
  "weighted_surface_energy_EV_PER_ANG2": null,
  "weighted_surface_energy": null,
  "weighted_work_function": null,
  "surface_anisotropy": null,
  "shape_factor": null,
  "has_reconstructed": null,
  "possible_species": null,
  "has_props": null,
  "theoretical": null,
  "database_IDs": null,
  "fields_not_requested": [
    "builder_meta",
    "nsites",
    "elements",
    "nelements",
    "composition",
    "composition_reduced",
    "chemsys",
    "symmetry",
    "property_name",
    "deprecated",
    "deprecation_reasons",
    "last_updated",
    "origins",
    "warnings",
    "task_ids",
    "uncorrected_energy_per_atom",
    "equilibrium_reaction_energy_per_atom",
    "decomposes_to",
    "xas",
    "grain_boundaries",
    "cbm",
    "vbm",
    "is_gap_direct",
    "is_metal",
    "es_source_calc_id",
    "bandstructure",
    "dos",
    "dos_energy_up",
    "dos_energy_down",
    "is_magnetic",
    "ordering",
    "total_magnetization_normalized_vol",
    "total_magnetization_normalized_formula_units",
    "num_magnetic_sites",
    "num_unique_magnetic_sites",
    "types_of_magnetic_species",
    "bulk_modulus",
    "shear_modulus",
    "universal_anisotropy",
    "homogeneous_poisson",
    "e_total",
    "e_ionic",
    "e_electronic",
    "n",
    "e_ij_max",
    "weighted_surface_energy_EV_PER_ANG2",
    "weighted_surface_energy",
    "weighted_work_function",
    "surface_anisotropy",
    "shape_factor",
    "has_reconstructed",
    "possible_species",
    "has_props",
    "theoretical",
    "database_IDs"
  ]
}
