{
  "builder_meta": null,
  "nsites": null,
  "elements": null,
  "nelements": null,
  "composition": null,
  "composition_reduced": null,
  "formula_pretty": "Tb2Al",
  "formula_anonymous": "AB2",
  "chemsys": null,
  "volume": 318.62146211579284,
  "density": 7.188560366474453,
  "density_atomic": 26.551788509649402,
  "symmetry": null,
  "property_name": null,
  "material_id": "mp-1103391",
  "deprecated": null,
  "deprecation_reasons": null,
  "last_updated": null,
  "origins": null,
  "warnings": null,
  "structure": {
    "@module": "pymatgen.core.structure",
    "@class": "Structure",
    "charge": 0,
    "lattice": {
      "matrix": [
        [0.0, -5.11166383, 0.0],
        [-6.57490872, 0.0, 0.0],
        [0.0, 0.0, -9.48032037]
      ],
      "pbc": [true, true, true],
      "a": 5.11166383,
      "b": 6.57490872,
      "c": 9.48032037,
      "alpha": 90.0,
      "beta": 90.0,
      "gamma": 90.0,
      "volume": 318.62146211579284
    },
    "properties": {},
    "sites": [
      {
        "species": [{ "element": "Tb", "occu": 1 }],
        "abc": [0.75, 0.69079252, 0.57404508],
        "properties": { "magmom": 0.0 },
        "label": "Tb",
        "xyz": [-4.541897763458774, -3.8337478725, -5.4421312652222795]
      },
      {
        "species": [{ "element": "Tb", "occu": 1 }],
        "abc": [0.75, 0.19079252, 0.92595492],
        "properties": { "magmom": 0.0 },
        "label": "Tb",
        "xyz": [-1.2544434034587744, -3.8337478725, -8.77834928977772]
      },
      {
        "species": [{ "element": "Tb", "occu": 1 }],
        "abc": [0.25, 0.30920748, 0.42595492],
        "properties": { "magmom": 0.0 },
        "label": "Tb",
        "xyz": [-2.0330109565412253, -1.2779159575, -4.03818910477772]
      },
      {
        "species": [{ "element": "Tb", "occu": 1 }],
        "abc": [0.25, 0.80920748, 0.07404508],
        "properties": { "magmom": 0.0 },
        "label": "Tb",
        "xyz": [-5.320465316541226, -1.2779159575, -0.7019710802222795]
      },
      {
        "species": [{ "element": "Tb", "occu": 1 }],
        "abc": [0.75, 0.52639511, 0.20860753],
        "properties": { "magmom": 0.0 },
        "label": "Tb",
        "xyz": [-3.4609997989043593, -3.8337478725, -1.977666215994386]
      },
      {
        "species": [{ "element": "Tb", "occu": 1 }],
        "abc": [0.75, 0.02639511, 0.29139247],
        "properties": { "magmom": 0.0 },
        "label": "Tb",
        "xyz": [-0.1735454389043592, -3.8337478725, -2.762493969005614]
      },
      {
        "species": [{ "element": "Tb", "occu": 1 }],
        "abc": [0.25, 0.47360489, 0.79139247],
        "properties": { "magmom": 0.0 },
        "label": "Tb",
        "xyz": [-3.1139089210956405, -1.2779159575, -7.502654154005613]
      },
      {
        "species": [{ "element": "Tb", "occu": 1 }],
        "abc": [0.25, 0.9736048900000001, 0.70860753],
        "properties": { "magmom": 0.0 },
        "label": "Tb",
        "xyz": [-6.401363281095641, -1.2779159575, -6.717826400994386]
      },
      {
        "species": [{ "element": "Al", "occu": 1 }],
        "abc": [0.75, 0.2104299, 0.60281325],
        "properties": { "magmom": -0.0 },
        "label": "Al",
        "xyz": [-1.383557384458728, -3.8337478725, -5.714862733280902]
      },
      {
        "species": [{ "element": "Al", "occu": 1 }],
        "abc": [0.75, 0.7104299, 0.89718675],
        "properties": { "magmom": -0.0 },
        "label": "Al",
        "xyz": [-4.671011744458728, -3.8337478725, -8.505617821719097]
      },
      {
        "species": [{ "element": "Al", "occu": 1 }],
        "abc": [0.25, 0.789570099999999, 0.39718675000000003],
        "properties": { "magmom": -0.0 },
        "label": "Al",
        "xyz": [-5.191351335541266, -1.2779159575, -3.7654576367190975]
      },
      {
        "species": [{ "element": "Al", "occu": 1 }],
        "abc": [0.25, 0.2895701, 0.10281325000000001],
        "properties": { "magmom": -0.0 },
        "label": "Al",
        "xyz": [-1.903896975541272, -1.2779159575, -0.9747025482809025]
      }
    ]
  },
  "task_ids": null,
  "uncorrected_energy_per_atom": null,
  "energy_per_atom": -23.405032441666666,
  "formation_energy_per_atom": -0.343376898333332,
  "energy_above_hull": 0.0,
  "is_stable": true,
  "equilibrium_reaction_energy_per_atom": null,
  "decomposes_to": null,
  "xas": null,
  "grain_boundaries": null,
  "band_gap": 0.0,
  "cbm": null,
  "vbm": null,
  "efermi": 4.17727725,
  "is_gap_direct": null,
  "is_metal": null,
  "es_source_calc_id": null,
  "bandstructure": null,
  "dos": null,
  "dos_energy_up": null,
  "dos_energy_down": null,
  "is_magnetic": null,
  "ordering": null,
  "total_magnetization": 1e-7,
  "total_magnetization_normalized_vol": null,
  "total_magnetization_normalized_formula_units": null,
  "num_magnetic_sites": null,
  "num_unique_magnetic_sites": null,
  "types_of_magnetic_species": null,
  "bulk_modulus": null,
  "shear_modulus": null,
  "universal_anisotropy": null,
  "homogeneous_poisson": null,
  "e_total": null,
  "e_ionic": null,
  "e_electronic": null,
  "n": null,
  "e_ij_max": null,
  "weighted_surface_energy_EV_PER_ANG2": null,
  "weighted_surface_energy": null,
  "weighted_work_function": null,
  "surface_anisotropy": null,
  "shape_factor": null,
  "has_reconstructed": null,
  "possible_species": null,
  "has_props": null,
  "theoretical": null,
  "database_IDs": null,
  "fields_not_requested": [
    "builder_meta",
    "nsites",
    "elements",
    "nelements",
    "composition",
    "composition_reduced",
    "chemsys",
    "symmetry",
    "property_name",
    "deprecated",
    "deprecation_reasons",
    "last_updated",
    "origins",
    "warnings",
    "task_ids",
    "uncorrected_energy_per_atom",
    "equilibrium_reaction_energy_per_atom",
    "decomposes_to",
    "xas",
    "grain_boundaries",
    "cbm",
    "vbm",
    "is_gap_direct",
    "is_metal",
    "es_source_calc_id",
    "bandstructure",
    "dos",
    "dos_energy_up",
    "dos_energy_down",
    "is_magnetic",
    "ordering",
    "total_magnetization_normalized_vol",
    "total_magnetization_normalized_formula_units",
    "num_magnetic_sites",
    "num_unique_magnetic_sites",
    "types_of_magnetic_species",
    "bulk_modulus",
    "shear_modulus",
    "universal_anisotropy",
    "homogeneous_poisson",
    "e_total",
    "e_ionic",
    "e_electronic",
    "n",
    "e_ij_max",
    "weighted_surface_energy_EV_PER_ANG2",
    "weighted_surface_energy",
    "weighted_work_function",
    "surface_anisotropy",
    "shape_factor",
    "has_reconstructed",
    "possible_species",
    "has_props",
    "theoretical",
    "database_IDs"
  ]
}
