{"builder_meta": null, "nsites": null, "elements": null, "nelements": null, "composition": null, "composition_reduced": null, "formula_pretty": "Tb2Cl3", "formula_anonymous": "A2B3", "chemsys": null, "volume": 264.52173258241186, "density": 5.325965261180985, "density_atomic": 26.452173258241185, "symmetry": null, "property_name": null, "material_id": "mp-1205852", "deprecated": null, "deprecation_reasons": null, "last_updated": null, "origins": null, "warnings": null, "structure": {"@module": "pymatgen.core.structure", "@class": "Structure", "charge": 0, "lattice": {"matrix": [[0.0, -3.86238276, 0.0], [6.72090629, -1.93119189, -3.61358531], [6.69352684, -1.93119189, 6.59123005]], "pbc": [true, true, true], "a": 3.86238276, "b": 7.8713456452890656, "c": 9.590470126423686, "alpha": 70.7421364486665, "beta": 78.38316620889195, "gamma": 75.79780251814127, "volume": 264.52173258241186}, "properties": {}, "sites": [{"species": [{"element": "Tb", "occu": 1}], "abc": [0.91129267, 0.72760197, 0.44981369], "properties": {"magmom": 0.0}, "label": "Tb", "xyz": [7.900984663803831, -5.7935766716733665, 0.3355737201103235]}, {"species": [{"element": "Tb", "occu": 1}], "abc": [0.08870733, 0.27239803, 0.55018631], "properties": {"magmom": 0.0}, "label": "Tb", "xyz": [5.513448466196169, -1.9311898683266335, 2.642071019889676]}, {"species": [{"element": "Tb", "occu": 1}], "abc": [0.63834146, 0.51509519, 0.20821989], "properties": {"magmom": -0.0}, "label": "Tb", "xyz": [4.855631924756593, -3.862379266507931, -0.48891521585996456]}, {"species": [{"element": "Tb", "occu": 1}], "abc": [0.36165854000000003, 0.48490481, 0.79178011], "properties": {"magmom": -0.0}, "label": "Tb", "xyz": [8.558801205243407, -3.8623872734920695, 3.4665599558599647]}, {"species": [{"element": "Cl", "occu": 1}], "abc": [0.84116928, 0.30934091, 0.00831852], "properties": {"magmom": 0.0}, "label": "Cl", "xyz": [2.134731504662401, -3.8623790403116356, -1.0630004891625062]}, {"species": [{"element": "Cl", "occu": 1}], "abc": [0.15883072, 0.69065909, 0.99168148], "properties": {"magmom": 0.0}, "label": "Cl", "xyz": [11.279701625337598, -3.8623874996883645, 4.0406452291625055]}, {"species": [{"element": "Cl", "occu": 1}], "abc": [0.72954343, 0.15891263, 0.381998499999999], "properties": {"magmom": -0.0}, "label": "Cl", "xyz": [3.6249541071171762, -3.8623791541700006, 1.9435956469134532]}, {"species": [{"element": "Cl", "occu": 1}], "abc": [0.27045657, 0.84108737, 0.6180015], "properties": {"magmom": -0.0}, "label": "Cl", "xyz": [9.789479022882817, -3.8623873858299973, 1.0340490930865407]}, {"species": [{"element": "Cl", "occu": 1}], "abc": [0.45321925, 0.85756647, 0.23599702], "properties": {"magmom": -0.0}, "label": "Cl", "xyz": [7.343276269846113, -3.8623871607882263, -1.5433789484061045]}, {"species": [{"element": "Cl", "occu": 1}], "abc": [0.54678075, 0.14243353, 0.76400298], "properties": {"magmom": -0.0}, "label": "Cl", "xyz": [6.071156860153887, -3.8623793792117738, 4.521023688406105]}]}, "task_ids": null, "uncorrected_energy_per_atom": null, "energy_per_atom": -18.277034653999998, "formation_energy_per_atom": -2.094997655499997, "energy_above_hull": 0.0, "is_stable": true, "equilibrium_reaction_energy_per_atom": null, "decomposes_to": null, "xas": null, "grain_boundaries": null, "band_gap": 0.8523000000000001, "cbm": null, "vbm": null, "efermi": 3.60409371, "is_gap_direct": null, "is_metal": null, "es_source_calc_id": null, "bandstructure": null, "dos": null, "dos_energy_up": null, "dos_energy_down": null, "is_magnetic": null, "ordering": null, "total_magnetization": 0.0, "total_magnetization_normalized_vol": null, "total_magnetization_normalized_formula_units": null, "num_magnetic_sites": null, "num_unique_magnetic_sites": null, "types_of_magnetic_species": null, "bulk_modulus": null, "shear_modulus": null, "universal_anisotropy": null, "homogeneous_poisson": null, "e_total": null, "e_ionic": null, "e_electronic": null, "n": null, "e_ij_max": null, "weighted_surface_energy_EV_PER_ANG2": null, "weighted_surface_energy": null, "weighted_work_function": null, "surface_anisotropy": null, "shape_factor": null, "has_reconstructed": null, "possible_species": null, "has_props": null, "theoretical": null, "database_IDs": null, "fields_not_requested": ["builder_meta", "nsites", "elements", "nelements", "composition", "composition_reduced", "chemsys", "symmetry", "property_name", "deprecated", "deprecation_reasons", "last_updated", "origins", "warnings", "task_ids", "uncorrected_energy_per_atom", "equilibrium_reaction_energy_per_atom", "decomposes_to", "xas", "grain_boundaries", "cbm", "vbm", "is_gap_direct", "is_metal", "es_source_calc_id", "bandstructure", "dos", "dos_energy_up", "dos_energy_down", "is_magnetic", "ordering", "total_magnetization_normalized_vol", "total_magnetization_normalized_formula_units", "num_magnetic_sites", "num_unique_magnetic_sites", "types_of_magnetic_species", "bulk_modulus", "shear_modulus", "universal_anisotropy", "homogeneous_poisson", "e_total", "e_ionic", "e_electronic", "n", "e_ij_max", "weighted_surface_energy_EV_PER_ANG2", "weighted_surface_energy", "weighted_work_function", "surface_anisotropy", "shape_factor", "has_reconstructed", "possible_species", "has_props", "theoretical", "database_IDs"]}