{"builder_meta": null, "nsites": null, "elements": null, "nelements": null, "composition": null, "composition_reduced": null, "formula_pretty": "Tb2Co7", "formula_anonymous": "A2B7", "chemsys": null, "volume": 258.11309946118763, "density": 9.397660293470844, "density_atomic": 14.339616636732647, "symmetry": null, "property_name": null, "material_id": "mp-2045196", "deprecated": null, "deprecation_reasons": null, "last_updated": null, "origins": null, "warnings": null, "structure": {"@module": "pymatgen.core.structure", "@class": "Structure", "charge": 0, "lattice": {"matrix": [[-2.55235914, -4.24836106, 0.01838361], [2.55235149, -4.24835687, 0.01838569], [2.189999999999999e-06, -2.8832832, 11.91441611]], "pbc": [true, true, true], "a": 4.956152422270979, "b": 4.956144898706876, "c": 12.258329137922287, "alpha": 78.15730495617474, "beta": 78.15734620491817, "gamma": 61.9932580071134, "volume": 258.1130994611876}, "properties": {}, "sites": [{"species": [{"element": "Tb", "occu": 1}], "abc": [0.05188718, 0.05188718, 0.8439865400000001], "properties": {"magmom": 0.485}, "label": "Tb", "xyz": [1.4513935956059478e-06, -2.874322944451266, 10.057514684086733]}, {"species": [{"element": "Tb", "occu": 1}], "abc": [0.94811282, 0.94811282, 0.15601346], "properties": {"magmom": 0.485}, "label": "Tb", "xyz": [-6.911393595409596e-06, -8.505678185548733, 1.8936707259132664]}, {"species": [{"element": "Tb", "occu": 1}], "abc": [0.15089541, 0.15089441, 0.55189851], "properties": {"magmom": 0.5750000000000001}, "label": "Tb", "xyz": [-2.4980436396601513e-06, -2.873391189332863, 6.5810967988422195]}, {"species": [{"element": "Tb", "occu": 1}], "abc": [0.84910459, 0.84910559, 0.44810149], "properties": {"magmom": 0.5750000000000001}, "label": "Tb", "xyz": [-2.9619563605320746e-06, -8.506609940667138, 5.37008861115778]}, {"species": [{"element": "Co", "occu": 1}], "abc": [0.5, 0.5, 0.5], "properties": {"magmom": -1.516}, "label": "Co", "xyz": [-2.7300000000683574e-06, -5.690000565, 5.9755927049999995]}, {"species": [{"element": "Co", "occu": 1}], "abc": [0.27518866000000003, 0.27518466, 0.16662891], "properties": {"magmom": -1.776}, "label": "Co", "xyz": [-1.1949681896128998e-05, -2.8186217649645062, 1.995404590549118]}, {"species": [{"element": "Co", "occu": 1}], "abc": [0.72481134, 0.72481534, 0.83337109], "properties": {"magmom": -1.776}, "label": "Co", "xyz": [6.489681895992283e-06, -8.561379365035494, 9.955780819450881]}, {"species": [{"element": "Co", "occu": 1}], "abc": [0.38338962, 0.38338562, 0.84095013], "properties": {"magmom": -1.7650000000000001}, "label": "Co", "xyz": [-1.1300655768329211e-05, -5.682233846869222, 10.0335266709905]}, {"species": [{"element": "Co", "occu": 1}], "abc": [0.61661038, 0.61661438, 0.15904987], "properties": {"magmom": -1.7650000000000001}, "label": "Co", "xyz": [5.840655768192496e-06, -5.697767283130777, 1.9176587390094997]}, {"species": [{"element": "Co", "occu": 1}], "abc": [0.5, 0.5, -0.0], "properties": {"magmom": -1.7930000000000001}, "label": "Co", "xyz": [-3.825000000068357e-06, -4.2483589649999995, 0.018384650000000002]}, {"species": [{"element": "Co", "occu": 1}], "abc": [0.5, 0.0, -0.0], "properties": {"magmom": -1.737}, "label": "Co", "xyz": [-1.27617957, -2.12418053, 0.009191805]}, {"species": [{"element": "Co", "occu": 1}], "abc": [0.0, 0.5, -0.0], "properties": {"magmom": -1.737}, "label": "Co", "xyz": [1.276175745, -2.124178435, 0.009192845]}, {"species": [{"element": "Co", "occu": 1}], "abc": [0.11502145, 0.6080474, 0.67428984], "properties": {"magmom": -1.56}, "label": "Co", "xyz": [1.2583761148718224, -5.016023565923063, 8.047063612985463]}, {"species": [{"element": "Co", "occu": 1}], "abc": [0.6041932600000001, 0.6041932600000001, 0.67491534], "properties": {"magmom": -1.678}, "label": "Co", "xyz": [-3.1440138444982325e-06, -7.079631766671441, 8.063437963017044]}, {"species": [{"element": "Co", "occu": 1}], "abc": [0.6080474, 0.11502145, 0.67428984], "properties": {"magmom": -1.56}, "label": "Co", "xyz": [-1.2583786929590262, -5.016025631701794, 8.047062587491487]}, {"species": [{"element": "Co", "occu": 1}], "abc": [0.88497855, 0.3919526, 0.32571016], "properties": {"magmom": -1.56}, "label": "Co", "xyz": [-1.2583815748718226, -6.363977564076937, 3.9041217970145374]}, {"species": [{"element": "Co", "occu": 1}], "abc": [0.39580674, 0.39580674, 0.32508466], "properties": {"magmom": -1.678}, "label": "Co", "xyz": [-2.3159861556384826e-06, -4.30036936332856, 3.8877474469829547]}, {"species": [{"element": "Co", "occu": 1}], "abc": [0.3919526, 0.88497855, 0.32571016], "properties": {"magmom": -1.56}, "label": "Co", "xyz": [1.258373232959026, -6.363975498298207, 3.9041228225085134]}]}, "task_ids": null, "uncorrected_energy_per_atom": null, "energy_per_atom": -17.337879472777775, "formation_energy_per_atom": -0.105381004999998, "energy_above_hull": 0.0, "is_stable": true, "equilibrium_reaction_energy_per_atom": null, "decomposes_to": null, "xas": null, "grain_boundaries": null, "band_gap": 0.0, "cbm": null, "vbm": null, "efermi": 7.78981666, "is_gap_direct": null, "is_metal": null, "es_source_calc_id": null, "bandstructure": null, "dos": null, "dos_energy_up": null, "dos_energy_down": null, "is_magnetic": null, "ordering": null, "total_magnetization": 20.0684707, "total_magnetization_normalized_vol": null, "total_magnetization_normalized_formula_units": null, "num_magnetic_sites": null, "num_unique_magnetic_sites": null, "types_of_magnetic_species": null, "bulk_modulus": null, "shear_modulus": null, "universal_anisotropy": null, "homogeneous_poisson": null, "e_total": null, "e_ionic": null, "e_electronic": null, "n": null, "e_ij_max": null, "weighted_surface_energy_EV_PER_ANG2": null, "weighted_surface_energy": null, "weighted_work_function": null, "surface_anisotropy": null, "shape_factor": null, "has_reconstructed": null, "possible_species": null, "has_props": null, "theoretical": null, "database_IDs": null, "fields_not_requested": ["builder_meta", "nsites", "elements", "nelements", "composition", "composition_reduced", "chemsys", "symmetry", "property_name", "deprecated", "deprecation_reasons", "last_updated", "origins", "warnings", "task_ids", "uncorrected_energy_per_atom", "equilibrium_reaction_energy_per_atom", "decomposes_to", "xas", "grain_boundaries", "cbm", "vbm", "is_gap_direct", "is_metal", "es_source_calc_id", "bandstructure", "dos", "dos_energy_up", "dos_energy_down", "is_magnetic", "ordering", "total_magnetization_normalized_vol", "total_magnetization_normalized_formula_units", "num_magnetic_sites", "num_unique_magnetic_sites", "types_of_magnetic_species", "bulk_modulus", "shear_modulus", "universal_anisotropy", "homogeneous_poisson", "e_total", "e_ionic", "e_electronic", "n", "e_ij_max", "weighted_surface_energy_EV_PER_ANG2", "weighted_surface_energy", "weighted_work_function", "surface_anisotropy", "shape_factor", "has_reconstructed", "possible_species", "has_props", "theoretical", "database_IDs"]}