{"builder_meta": null, "nsites": null, "elements": null, "nelements": null, "composition": null, "composition_reduced": null, "formula_pretty": "Tb2C3", "formula_anonymous": "A2B3", "chemsys": null, "volume": 282.04983708477073, "density": 8.333792644186907, "density_atomic": 14.102491854238536, "symmetry": null, "property_name": null, "material_id": "mp-7024", "deprecated": null, "deprecation_reasons": null, "last_updated": null, "origins": null, "warnings": null, "structure": {"@module": "pymatgen.core.structure", "@class": "Structure", "charge": 0, "lattice": {"matrix": [[6.74641425, 1e-08, -2.38521739], [-3.37320661, 5.842566, -2.38521739], [-0.0, -0.0, 7.15565216]], "pbc": [true, true, true], "a": 7.155652816491412, "b": 7.155652471694115, "c": 7.15565216, "alpha": 109.47121978041721, "beta": 109.47121880432195, "gamma": 109.47121924777272, "volume": 282.04983708477073}, "properties": {}, "sites": [{"species": [{"element": "Tb", "occu": 1}], "abc": [0.60064511, 0.60064511, 0.60064511], "properties": {"magmom": -0.0}, "label": "Tb", "xyz": [2.0261006739806406, 3.5093087037587107, 1.4326691555840112]}, {"species": [{"element": "Tb", "occu": 1}], "abc": [0.39935489, 0.5, 0.0], "properties": {"magmom": -0.0}, "label": "Tb", "xyz": [1.0076102157031828, 2.921283003993549, -2.1451569234095373]}, {"species": [{"element": "Tb", "occu": 1}], "abc": [0.5, -0.0, 0.39935489], "properties": {"magmom": -0.0}, "label": "Tb", "xyz": [3.373207125, 5e-09, 1.6650359862350625]}, {"species": [{"element": "Tb", "occu": 1}], "abc": [0.0, 0.39935489, 0.5], "properties": {"magmom": -0.0}, "label": "Tb", "xyz": [-1.347106554683823, 2.33325730224774, 2.6252778515904627]}, {"species": [{"element": "Tb", "occu": 1}], "abc": [0.5, -0.0, 0.89935489], "properties": {"magmom": -0.0}, "label": "Tb", "xyz": [3.373207125, 5e-09, 5.2428620662350625]}, {"species": [{"element": "Tb", "occu": 1}], "abc": [0.0, 0.89935489, 0.5], "properties": {"magmom": -0.0}, "label": "Tb", "xyz": [-3.033709859683823, 5.25454030224774, 1.4326691565904626]}, {"species": [{"element": "Tb", "occu": 1}], "abc": [0.89935489, 0.5, 0.0], "properties": {"magmom": -0.0}, "label": "Tb", "xyz": [4.3808173407031825, 2.921283008993549, -3.3377656184095374]}, {"species": [{"element": "Tb", "occu": 1}], "abc": [0.10064511, 0.10064511, 0.10064511], "properties": {"magmom": -0.0}, "label": "Tb", "xyz": [0.33949685398064033, 0.5880256987587111, 0.24006046558401178]}, {"species": [{"element": "C", "occu": 1}], "abc": [0.75, 0.79437778, 0.04437778], "properties": {"magmom": 0.0}, "label": "C", "xyz": [2.380210309166874, 4.6412046160834795, -3.3661247802725898]}, {"species": [{"element": "C", "occu": 1}], "abc": [0.75, 0.95562222, 0.20562222], "properties": {"magmom": 0.0}, "label": "C", "xyz": [1.8362994983331258, 5.583285898916519, -2.5969186972274114]}, {"species": [{"element": "C", "occu": 1}], "abc": [0.29437778000000003, 0.25, 0.54437778], "properties": {"magmom": 0.0}, "label": "C", "xyz": [1.142692797375365, 1.4606415029437778, 2.596918689727411]}, {"species": [{"element": "C", "occu": 1}], "abc": [0.54437778, 0.29437778000000003, 0.25], "properties": {"magmom": 0.0}, "label": "C", "xyz": [2.6796009390422393, 1.719921614027258, -0.2117013076711889]}, {"species": [{"element": "C", "occu": 1}], "abc": [0.20562222, 0.75, 0.95562222], "properties": {"magmom": 0.0}, "label": "C", "xyz": [-1.142692282375365, 4.381924502056222, 4.558733465272589]}, {"species": [{"element": "C", "occu": 1}], "abc": [0.95562222, 0.20562222, 0.75], "properties": {"magmom": 0.0}, "label": "C", "xyz": [5.753417130957761, 1.2013614009727422, 2.596918687671188]}, {"species": [{"element": "C", "occu": 1}], "abc": [0.25, 0.70562222, 0.45562222], "properties": {"magmom": 0.0}, "label": "C", "xyz": [-0.6936059741668743, 4.12264439391652, 0.9809073852725891]}, {"species": [{"element": "C", "occu": 1}], "abc": [0.70562222, 0.45562222, 0.25], "properties": {"magmom": 0.0}, "label": "C", "xyz": [3.2235119159577605, 2.662002898472742, -0.9809073923288121]}, {"species": [{"element": "C", "occu": 1}], "abc": [0.25, 0.54437778, 0.29437778000000003], "properties": {"magmom": 0.0}, "label": "C", "xyz": [-0.14969516333312582, 3.1805631110834804, 0.21170130222741057]}, {"species": [{"element": "C", "occu": 1}], "abc": [0.45562222, 0.25, 0.70562222], "properties": {"magmom": 0.0}, "label": "C", "xyz": [2.230514585124635, 1.4606415045562222, 3.3661247727725883]}, {"species": [{"element": "C", "occu": 1}], "abc": [0.04437778, 0.75, 0.79437778], "properties": {"magmom": 0.0}, "label": "C", "xyz": [-2.230514070124635, 4.381924500443778, 3.7895273822274103]}, {"species": [{"element": "C", "occu": 1}], "abc": [0.79437778, 0.04437778, 0.75], "properties": {"magmom": 0.0}, "label": "C", "xyz": [5.209506154042239, 0.2592801165272578, 3.3661247723288117]}]}, "task_ids": null, "uncorrected_energy_per_atom": null, "energy_per_atom": -7.646322868999998, "formation_energy_per_atom": -0.25397812416666404, "energy_above_hull": 0.022087051750000003, "is_stable": false, "equilibrium_reaction_energy_per_atom": null, "decomposes_to": null, "xas": null, "grain_boundaries": null, "band_gap": 0.0, "cbm": null, "vbm": null, "efermi": 5.33324485, "is_gap_direct": null, "is_metal": null, "es_source_calc_id": null, "bandstructure": null, "dos": null, "dos_energy_up": null, "dos_energy_down": null, "is_magnetic": null, "ordering": null, "total_magnetization": 2e-07, "total_magnetization_normalized_vol": null, "total_magnetization_normalized_formula_units": null, "num_magnetic_sites": null, "num_unique_magnetic_sites": null, "types_of_magnetic_species": null, "bulk_modulus": null, "shear_modulus": null, "universal_anisotropy": null, "homogeneous_poisson": null, "e_total": null, "e_ionic": null, "e_electronic": null, "n": null, "e_ij_max": null, "weighted_surface_energy_EV_PER_ANG2": null, "weighted_surface_energy": null, "weighted_work_function": null, "surface_anisotropy": null, "shape_factor": null, "has_reconstructed": null, "possible_species": null, "has_props": null, "theoretical": null, "database_IDs": null, "fields_not_requested": ["builder_meta", "nsites", "elements", "nelements", "composition", "composition_reduced", "chemsys", "symmetry", "property_name", "deprecated", "deprecation_reasons", "last_updated", "origins", "warnings", "task_ids", "uncorrected_energy_per_atom", "equilibrium_reaction_energy_per_atom", "decomposes_to", "xas", "grain_boundaries", "cbm", "vbm", "is_gap_direct", "is_metal", "es_source_calc_id", "bandstructure", "dos", "dos_energy_up", "dos_energy_down", "is_magnetic", "ordering", "total_magnetization_normalized_vol", "total_magnetization_normalized_formula_units", "num_magnetic_sites", "num_unique_magnetic_sites", "types_of_magnetic_species", "bulk_modulus", "shear_modulus", "universal_anisotropy", "homogeneous_poisson", "e_total", "e_ionic", "e_electronic", "n", "e_ij_max", "weighted_surface_energy_EV_PER_ANG2", "weighted_surface_energy", "weighted_work_function", "surface_anisotropy", "shape_factor", "has_reconstructed", "possible_species", "has_props", "theoretical", "database_IDs"]}