{"builder_meta": null, "nsites": null, "elements": null, "nelements": null, "composition": null, "composition_reduced": null, "formula_pretty": "Tb2Ce", "formula_anonymous": "AB2", "chemsys": null, "volume": 97.3942860918685, "density": 7.808174658568337, "density_atomic": 32.46476203062283, "symmetry": null, "property_name": null, "material_id": "mp-1217706", "deprecated": null, "deprecation_reasons": null, "last_updated": null, "origins": null, "warnings": null, "structure": {"@module": "pymatgen.core.structure", "@class": "Structure", "charge": 0, "lattice": {"matrix": [[8.64807478, -1.8097059400000002, -0.00962692], [8.64807478, 1.8097059400000002, -0.00962692], [8.27283708, -0.0, 3.10233542]], "pbc": [true, true, true], "a": 8.835401839607071, "b": 8.835401839607071, "c": 8.83540142893403, "alpha": 23.6384465663972, "beta": 23.6384465663972, "gamma": 23.63844036275051, "volume": 97.39428609186851}, "properties": {}, "sites": [{"species": [{"element": "Tb", "occu": 1}], "abc": [0.77816693, 0.77816693, 0.77816693], "properties": {"magmom": -0.073}, "label": "Tb", "xyz": [19.896939836859815, 0.0, 2.39915212804815]}, {"species": [{"element": "Tb", "occu": 1}], "abc": [0.22183307, 0.22183307, 0.22183307], "properties": {"magmom": -0.073}, "label": "Tb", "xyz": [5.6720468031401845, 0.0, 0.6839294519518506]}, {"species": [{"element": "Ce", "occu": 1}], "abc": [0.0, 0.0, -0.0], "properties": {"magmom": 1.098}, "label": "Ce", "xyz": [0.0, 0.0, 0.0]}]}, "task_ids": null, "uncorrected_energy_per_atom": null, "energy_per_atom": -31.076731946666666, "formation_energy_per_atom": 0.021100406666666002, "energy_above_hull": 0.021100406666672, "is_stable": false, "equilibrium_reaction_energy_per_atom": null, "decomposes_to": null, "xas": null, "grain_boundaries": null, "band_gap": 0.0, "cbm": null, "vbm": null, "efermi": 4.96873297, "is_gap_direct": null, "is_metal": null, "es_source_calc_id": null, "bandstructure": null, "dos": null, "dos_energy_up": null, "dos_energy_down": null, "is_magnetic": null, "ordering": null, "total_magnetization": 1.2055668, "total_magnetization_normalized_vol": null, "total_magnetization_normalized_formula_units": null, "num_magnetic_sites": null, "num_unique_magnetic_sites": null, "types_of_magnetic_species": null, "bulk_modulus": null, "shear_modulus": null, "universal_anisotropy": null, "homogeneous_poisson": null, "e_total": null, "e_ionic": null, "e_electronic": null, "n": null, "e_ij_max": null, "weighted_surface_energy_EV_PER_ANG2": null, "weighted_surface_energy": null, "weighted_work_function": null, "surface_anisotropy": null, "shape_factor": null, "has_reconstructed": null, "possible_species": null, "has_props": null, "theoretical": null, "database_IDs": null, "fields_not_requested": ["builder_meta", "nsites", "elements", "nelements", "composition", "composition_reduced", "chemsys", "symmetry", "property_name", "deprecated", "deprecation_reasons", "last_updated", "origins", "warnings", "task_ids", "uncorrected_energy_per_atom", "equilibrium_reaction_energy_per_atom", "decomposes_to", "xas", "grain_boundaries", "cbm", "vbm", "is_gap_direct", "is_metal", "es_source_calc_id", "bandstructure", "dos", "dos_energy_up", "dos_energy_down", "is_magnetic", "ordering", "total_magnetization_normalized_vol", "total_magnetization_normalized_formula_units", "num_magnetic_sites", "num_unique_magnetic_sites", "types_of_magnetic_species", "bulk_modulus", "shear_modulus", "universal_anisotropy", "homogeneous_poisson", "e_total", "e_ionic", "e_electronic", "n", "e_ij_max", "weighted_surface_energy_EV_PER_ANG2", "weighted_surface_energy", "weighted_work_function", "surface_anisotropy", "shape_factor", "has_reconstructed", "possible_species", "has_props", "theoretical", "database_IDs"]}