{"builder_meta": null, "nsites": null, "elements": null, "nelements": null, "composition": null, "composition_reduced": null, "formula_pretty": "Tb2Mg", "formula_anonymous": "AB2", "chemsys": null, "volume": 88.01911932423567, "density": 6.454994222527155, "density_atomic": 29.33970644141189, "symmetry": null, "property_name": null, "material_id": "mp-13498", "deprecated": null, "deprecation_reasons": null, "last_updated": null, "origins": null, "warnings": null, "structure": {"@module": "pymatgen.core.structure", "@class": "Structure", "charge": 0, "lattice": {"matrix": [[3.53342373, 1e-08, -1.04139651], [-0.306927399999999, 3.52006659, -1.04139653], [0.1390628, 0.15171457, 6.9869255]], "pbc": [true, true, true], "a": 3.6836924337907604, "b": 3.6836910781987444, "c": 6.98995591657375, "alpha": 105.27779058359364, "beta": 105.27777390594437, "gamma": 89.99999075925682, "volume": 88.01911932423567}, "properties": {}, "sites": [{"species": [{"element": "Tb", "occu": 1}], "abc": [0.6586952500000001, 0.6586952500000001, 0.317392499999999], "properties": {"magmom": 0.30000000000000004}, "label": "Tb", "xyz": [2.169415296462433, 2.3668042157623748, 0.845671869577683]}, {"species": [{"element": "Tb", "occu": 1}], "abc": [0.34130475, 0.34130475, 0.682607499999999], "properties": {"magmom": 0.30000000000000004}, "label": "Tb", "xyz": [1.1961438335375676, 1.3049769542376248, 4.058460590422303]}, {"species": [{"element": "Mg", "occu": 1}], "abc": [-0.0, 0.0, -0.0], "properties": {"magmom": -0.006}, "label": "Mg", "xyz": [0.0, 0.0, 0.0]}]}, "task_ids": null, "uncorrected_energy_per_atom": null, "energy_per_atom": -3.663554676666668, "formation_energy_per_atom": -0.028155589444445003, "energy_above_hull": 0.017580991111109, "is_stable": false, "equilibrium_reaction_energy_per_atom": null, "decomposes_to": null, "xas": null, "grain_boundaries": null, "band_gap": 0.0, "cbm": null, "vbm": null, "efermi": 3.19331611, "is_gap_direct": null, "is_metal": null, "es_source_calc_id": null, "bandstructure": null, "dos": null, "dos_energy_up": null, "dos_energy_down": null, "is_magnetic": null, "ordering": null, "total_magnetization": 0.8269207, "total_magnetization_normalized_vol": null, "total_magnetization_normalized_formula_units": null, "num_magnetic_sites": null, "num_unique_magnetic_sites": null, "types_of_magnetic_species": null, "bulk_modulus": null, "shear_modulus": null, "universal_anisotropy": null, "homogeneous_poisson": null, "e_total": null, "e_ionic": null, "e_electronic": null, "n": null, "e_ij_max": null, "weighted_surface_energy_EV_PER_ANG2": null, "weighted_surface_energy": null, "weighted_work_function": null, "surface_anisotropy": null, "shape_factor": null, "has_reconstructed": null, "possible_species": null, "has_props": null, "theoretical": null, "database_IDs": null, "fields_not_requested": ["builder_meta", "nsites", "elements", "nelements", "composition", "composition_reduced", "chemsys", "symmetry", "property_name", "deprecated", "deprecation_reasons", "last_updated", "origins", "warnings", "task_ids", "uncorrected_energy_per_atom", "equilibrium_reaction_energy_per_atom", "decomposes_to", "xas", "grain_boundaries", "cbm", "vbm", "is_gap_direct", "is_metal", "es_source_calc_id", "bandstructure", "dos", "dos_energy_up", "dos_energy_down", "is_magnetic", "ordering", "total_magnetization_normalized_vol", "total_magnetization_normalized_formula_units", "num_magnetic_sites", "num_unique_magnetic_sites", "types_of_magnetic_species", "bulk_modulus", "shear_modulus", "universal_anisotropy", "homogeneous_poisson", "e_total", "e_ionic", "e_electronic", "n", "e_ij_max", "weighted_surface_energy_EV_PER_ANG2", "weighted_surface_energy", "weighted_work_function", "surface_anisotropy", "shape_factor", "has_reconstructed", "possible_species", "has_props", "theoretical", "database_IDs"]}