{
  "builder_meta": null,
  "nsites": null,
  "elements": null,
  "nelements": null,
  "composition": null,
  "composition_reduced": null,
  "formula_pretty": "Tb2Ni7",
  "formula_anonymous": "A2B7",
  "chemsys": null,
  "volume": 252.4471847752649,
  "density": 9.586498588482426,
  "density_atomic": 14.024843598625829,
  "symmetry": null,
  "property_name": null,
  "material_id": "mp-1189379",
  "deprecated": null,
  "deprecation_reasons": null,
  "last_updated": null,
  "origins": null,
  "warnings": null,
  "structure": {
    "@module": "pymatgen.core.structure",
    "@class": "Structure",
    "charge": 0,
    "lattice": {
      "matrix": [
        [12.081909, -2.464556, 0.0],
        [12.081909, 2.464556, 0.0],
        [11.579171, 0.0, 4.239028]
      ],
      "pbc": [true, true, true],
      "a": 12.330716173905593,
      "b": 12.330716173905593,
      "c": 12.330716095670397,
      "alpha": 23.058861337506595,
      "beta": 23.058861337506595,
      "gamma": 23.058863644529733,
      "volume": 252.4471847752649
    },
    "properties": {},
    "sites": [
      {
        "species": [{ "element": "Tb", "occu": 1 }],
        "abc": [0.949082, 0.949082, 0.949082],
        "properties": { "magmom": 0.057 },
        "label": "Tb",
        "xyz": [33.923027486098, 0.0, 4.023185172296]
      },
      {
        "species": [{ "element": "Tb", "occu": 1 }],
        "abc": [0.050918, 0.050918, 0.050918],
        "properties": { "magmom": 0.057 },
        "label": "Tb",
        "xyz": [1.8199615139019998, 0.0, 0.215842827704]
      },
      {
        "species": [{ "element": "Tb", "occu": 1 }],
        "abc": [0.8523000000000001, 0.8523000000000001, 0.8523000000000001],
        "properties": { "magmom": 0.049 },
        "label": "Tb",
        "xyz": [30.4637495247, 0.0, 3.6129235644000004]
      },
      {
        "species": [{ "element": "Tb", "occu": 1 }],
        "abc": [0.1477, 0.1477, 0.1477],
        "properties": { "magmom": 0.049 },
        "label": "Tb",
        "xyz": [5.2792394753, 0.0, 0.6261044356000001]
      },
      {
        "species": [{ "element": "Ni", "occu": 1 }],
        "abc": [0.390109, 0.890120999999999, 0.390109],
        "properties": { "magmom": -0.186 },
        "label": "Ni",
        "xyz": [19.98476117870899, 1.2323075746719978, 1.653682974052]
      },
      {
        "species": [{ "element": "Ni", "occu": 1 }],
        "abc": [0.390109, 0.390109, 0.890120999999999],
        "properties": { "magmom": -0.186 },
        "label": "Ni",
        "xyz": [19.73338614585299, 0.0, 3.7732478423879963]
      },
      {
        "species": [{ "element": "Ni", "occu": 1 }],
        "abc": [0.890120999999999, 0.390109, 0.390109],
        "properties": { "magmom": -0.186 },
        "label": "Ni",
        "xyz": [19.98476117870899, -1.2323075746719978, 1.653682974052]
      },
      {
        "species": [{ "element": "Ni", "occu": 1 }],
        "abc": [0.609891, 0.109878999999999, 0.609891],
        "properties": { "magmom": -0.186 },
        "label": "Ni",
        "xyz": [15.758227821290987, -1.2323075746720022, 2.585345025948]
      },
      {
        "species": [{ "element": "Ni", "occu": 1 }],
        "abc": [0.609891, 0.609891, 0.109878999999999],
        "properties": { "magmom": -0.186 },
        "label": "Ni",
        "xyz": [16.009602854146987, 0.0, 0.4657801576119958]
      },
      {
        "species": [{ "element": "Ni", "occu": 1 }],
        "abc": [0.109878999999999, 0.609891, 0.609891],
        "properties": { "magmom": -0.186 },
        "label": "Ni",
        "xyz": [15.758227821290987, 1.2323075746720022, 2.585345025948]
      },
      {
        "species": [{ "element": "Ni", "occu": 1 }],
        "abc": [0.5, 0.5, 0.0],
        "properties": { "magmom": -0.331 },
        "label": "Ni",
        "xyz": [12.081909, 0.0, 0.0]
      },
      {
        "species": [{ "element": "Ni", "occu": 1 }],
        "abc": [0.0, 0.5, 0.5],
        "properties": { "magmom": -0.331 },
        "label": "Ni",
        "xyz": [11.83054, 1.232278, 2.119514]
      },
      {
        "species": [{ "element": "Ni", "occu": 1 }],
        "abc": [0.5, 0.0, 0.5],
        "properties": { "magmom": -0.331 },
        "label": "Ni",
        "xyz": [11.83054, -1.232278, 2.119514]
      },
      {
        "species": [{ "element": "Ni", "occu": 1 }],
        "abc": [0.721990999999999, 0.721990999999999, 0.721990999999999],
        "properties": { "magmom": -0.225 },
        "label": "Ni",
        "xyz": [25.806116371098966, 0.0, 3.0605400647479963]
      },
      {
        "species": [{ "element": "Ni", "occu": 1 }],
        "abc": [0.278009, 0.278009, 0.278009],
        "properties": { "magmom": -0.225 },
        "label": "Ni",
        "xyz": [9.936872628901, 0.0, 1.1784879352520001]
      },
      {
        "species": [{ "element": "Ni", "occu": 1 }],
        "abc": [0.611947, 0.611947, 0.611947],
        "properties": { "magmom": -0.233 },
        "label": "Ni",
        "xyz": [21.872814889583, 0.0, 2.5940604675160004]
      },
      {
        "species": [{ "element": "Ni", "occu": 1 }],
        "abc": [0.388053, 0.388053, 0.388053],
        "properties": { "magmom": -0.233 },
        "label": "Ni",
        "xyz": [13.870174110417, 0.0, 1.644967532484]
      },
      {
        "species": [{ "element": "Ni", "occu": 1 }],
        "abc": [0.5, 0.5, 0.5],
        "properties": { "magmom": -0.122 },
        "label": "Ni",
        "xyz": [17.8714945, 0.0, 2.119514]
      }
    ]
  },
  "task_ids": null,
  "uncorrected_energy_per_atom": null,
  "energy_per_atom": -5.912972362222223,
  "formation_energy_per_atom": -0.38667413925925803,
  "energy_above_hull": 0.0,
  "is_stable": true,
  "equilibrium_reaction_energy_per_atom": null,
  "decomposes_to": null,
  "xas": null,
  "grain_boundaries": null,
  "band_gap": 0.0,
  "cbm": null,
  "vbm": null,
  "efermi": 6.40771908,
  "is_gap_direct": null,
  "is_metal": null,
  "es_source_calc_id": null,
  "bandstructure": null,
  "dos": null,
  "dos_energy_up": null,
  "dos_energy_down": null,
  "is_magnetic": null,
  "ordering": null,
  "total_magnetization": 2.7285127,
  "total_magnetization_normalized_vol": null,
  "total_magnetization_normalized_formula_units": null,
  "num_magnetic_sites": null,
  "num_unique_magnetic_sites": null,
  "types_of_magnetic_species": null,
  "bulk_modulus": null,
  "shear_modulus": null,
  "universal_anisotropy": null,
  "homogeneous_poisson": null,
  "e_total": null,
  "e_ionic": null,
  "e_electronic": null,
  "n": null,
  "e_ij_max": null,
  "weighted_surface_energy_EV_PER_ANG2": null,
  "weighted_surface_energy": null,
  "weighted_work_function": null,
  "surface_anisotropy": null,
  "shape_factor": null,
  "has_reconstructed": null,
  "possible_species": null,
  "has_props": null,
  "theoretical": null,
  "database_IDs": null,
  "fields_not_requested": [
    "builder_meta",
    "nsites",
    "elements",
    "nelements",
    "composition",
    "composition_reduced",
    "chemsys",
    "symmetry",
    "property_name",
    "deprecated",
    "deprecation_reasons",
    "last_updated",
    "origins",
    "warnings",
    "task_ids",
    "uncorrected_energy_per_atom",
    "equilibrium_reaction_energy_per_atom",
    "decomposes_to",
    "xas",
    "grain_boundaries",
    "cbm",
    "vbm",
    "is_gap_direct",
    "is_metal",
    "es_source_calc_id",
    "bandstructure",
    "dos",
    "dos_energy_up",
    "dos_energy_down",
    "is_magnetic",
    "ordering",
    "total_magnetization_normalized_vol",
    "total_magnetization_normalized_formula_units",
    "num_magnetic_sites",
    "num_unique_magnetic_sites",
    "types_of_magnetic_species",
    "bulk_modulus",
    "shear_modulus",
    "universal_anisotropy",
    "homogeneous_poisson",
    "e_total",
    "e_ionic",
    "e_electronic",
    "n",
    "e_ij_max",
    "weighted_surface_energy_EV_PER_ANG2",
    "weighted_surface_energy",
    "weighted_work_function",
    "surface_anisotropy",
    "shape_factor",
    "has_reconstructed",
    "possible_species",
    "has_props",
    "theoretical",
    "database_IDs"
  ]
}
