{
  "builder_meta": null,
  "nsites": null,
  "elements": null,
  "nelements": null,
  "composition": null,
  "composition_reduced": null,
  "formula_pretty": "Tb2Pr",
  "formula_anonymous": "AB2",
  "chemsys": null,
  "volume": 101.02148531058099,
  "density": 7.540833120419054,
  "density_atomic": 33.673828436860326,
  "symmetry": null,
  "property_name": null,
  "material_id": "mp-1217681",
  "deprecated": null,
  "deprecation_reasons": null,
  "last_updated": null,
  "origins": null,
  "warnings": null,
  "structure": {
    "@module": "pymatgen.core.structure",
    "@class": "Structure",
    "charge": 0,
    "lattice": {
      "matrix": [
        [8.7868845, -1.82840175, -0.025260499999999003],
        [8.7868845, 1.82840175, -0.025260499999999003],
        [8.41546618, -0.0, 3.11976867]
      ],
      "pbc": [true, true, true],
      "a": 8.975133997250602,
      "b": 8.975133997250602,
      "c": 8.9751338475277,
      "alpha": 23.508996251547927,
      "beta": 23.508996251547927,
      "gamma": 23.50899500919467,
      "volume": 101.02148531058096
    },
    "properties": {},
    "sites": [
      {
        "species": [{ "element": "Tb", "occu": 1 }],
        "abc": [0.22375983, 0.22375983, 0.22375983],
        "properties": { "magmom": 0.001 },
        "label": "Tb",
        "xyz": [5.815346845706818, 0.0, 0.6867743368670965]
      },
      {
        "species": [{ "element": "Tb", "occu": 1 }],
        "abc": [0.99798931, 0.99798931, 0.99798931],
        "properties": { "magmom": 0.0 },
        "label": "Tb",
        "xyz": [25.93697888471592, 0.0, 3.0630763644024097]
      },
      {
        "species": [{ "element": "Pr", "occu": 1 }],
        "abc": [0.77825186, 0.77825186, 0.77825186],
        "properties": { "magmom": -0.0 },
        "label": "Pr",
        "xyz": [20.226170618812432, 0.0, 2.388647707978168]
      }
    ]
  },
  "task_ids": null,
  "uncorrected_energy_per_atom": null,
  "energy_per_atom": -30.59135833666667,
  "formation_energy_per_atom": 0.027583219444442003,
  "energy_above_hull": 0.027583219444444,
  "is_stable": false,
  "equilibrium_reaction_energy_per_atom": null,
  "decomposes_to": null,
  "xas": null,
  "grain_boundaries": null,
  "band_gap": 0.0,
  "cbm": null,
  "vbm": null,
  "efermi": 3.51731102,
  "is_gap_direct": null,
  "is_metal": null,
  "es_source_calc_id": null,
  "bandstructure": null,
  "dos": null,
  "dos_energy_up": null,
  "dos_energy_down": null,
  "is_magnetic": null,
  "ordering": null,
  "total_magnetization": 0.0006845,
  "total_magnetization_normalized_vol": null,
  "total_magnetization_normalized_formula_units": null,
  "num_magnetic_sites": null,
  "num_unique_magnetic_sites": null,
  "types_of_magnetic_species": null,
  "bulk_modulus": null,
  "shear_modulus": null,
  "universal_anisotropy": null,
  "homogeneous_poisson": null,
  "e_total": null,
  "e_ionic": null,
  "e_electronic": null,
  "n": null,
  "e_ij_max": null,
  "weighted_surface_energy_EV_PER_ANG2": null,
  "weighted_surface_energy": null,
  "weighted_work_function": null,
  "surface_anisotropy": null,
  "shape_factor": null,
  "has_reconstructed": null,
  "possible_species": null,
  "has_props": null,
  "theoretical": null,
  "database_IDs": null,
  "fields_not_requested": [
    "builder_meta",
    "nsites",
    "elements",
    "nelements",
    "composition",
    "composition_reduced",
    "chemsys",
    "symmetry",
    "property_name",
    "deprecated",
    "deprecation_reasons",
    "last_updated",
    "origins",
    "warnings",
    "task_ids",
    "uncorrected_energy_per_atom",
    "equilibrium_reaction_energy_per_atom",
    "decomposes_to",
    "xas",
    "grain_boundaries",
    "cbm",
    "vbm",
    "is_gap_direct",
    "is_metal",
    "es_source_calc_id",
    "bandstructure",
    "dos",
    "dos_energy_up",
    "dos_energy_down",
    "is_magnetic",
    "ordering",
    "total_magnetization_normalized_vol",
    "total_magnetization_normalized_formula_units",
    "num_magnetic_sites",
    "num_unique_magnetic_sites",
    "types_of_magnetic_species",
    "bulk_modulus",
    "shear_modulus",
    "universal_anisotropy",
    "homogeneous_poisson",
    "e_total",
    "e_ionic",
    "e_electronic",
    "n",
    "e_ij_max",
    "weighted_surface_energy_EV_PER_ANG2",
    "weighted_surface_energy",
    "weighted_work_function",
    "surface_anisotropy",
    "shape_factor",
    "has_reconstructed",
    "possible_species",
    "has_props",
    "theoretical",
    "database_IDs"
  ]
}
