{
  "builder_meta": null,
  "nsites": null,
  "elements": null,
  "nelements": null,
  "composition": null,
  "composition_reduced": null,
  "formula_pretty": "Tb2Pt",
  "formula_anonymous": "AB2",
  "chemsys": null,
  "volume": 301.1475194414684,
  "density": 11.313367077297787,
  "density_atomic": 25.095626620122363,
  "symmetry": null,
  "property_name": null,
  "material_id": "mp-11551",
  "deprecated": null,
  "deprecation_reasons": null,
  "last_updated": null,
  "origins": null,
  "warnings": null,
  "structure": {
    "@module": "pymatgen.core.structure",
    "@class": "Structure",
    "charge": 0,
    "lattice": {
      "matrix": [
        [4.78209314, 0.0, -1.02e-6],
        [0.0, 7.14642308, -0.00015514],
        [-3.0000000000000004e-8, -0.00019154, 8.81196039]
      ],
      "pbc": [true, true, true],
      "a": 4.782093140000109,
      "b": 7.146423081683949,
      "c": 8.81196039208169,
      "alpha": 90.0024892225167,
      "beta": 90.00001241600596,
      "gamma": 89.99999999973471,
      "volume": 301.1475194414684
    },
    "properties": {},
    "sites": [
      {
        "species": [{ "element": "Tb", "occu": 1 }],
        "abc": [0.75, 0.14275866, 0.91705526],
        "properties": { "magmom": 0.0 },
        "label": "Tb",
        "xyz": [3.5865698274883417, 1.0200381299293724, 8.08103171398264]
      },
      {
        "species": [{ "element": "Tb", "occu": 1 }],
        "abc": [0.25, 0.8572760700000001, 0.08295345],
        "properties": { "magmom": -0.0 },
        "label": "Tb",
        "xyz": [1.1955232825113964, 6.126441603675882, 0.7308492628043456]
      },
      {
        "species": [{ "element": "Tb", "occu": 1 }],
        "abc": [0.75, 0.64274763, 0.58297838],
        "properties": { "magmom": 0.0 },
        "label": "Tb",
        "xyz": [3.5865698375106483, 4.5932348339683955, 5.13708191191905]
      },
      {
        "species": [{ "element": "Tb", "occu": 1 }],
        "abc": [0.25, 0.35720716, 0.41701938],
        "properties": { "magmom": -0.0 },
        "label": "Tb",
        "xyz": [1.1955232724894185, 2.552673616673208, 3.6747025863035554]
      },
      {
        "species": [{ "element": "Tb", "occu": 1 }],
        "abc": [0.75, 0.00766189, 0.33325774],
        "properties": { "magmom": -0.0 },
        "label": "Tb",
        "xyz": [3.586569845002267, 0.054691275344901605, 2.936652050875304]
      },
      {
        "species": [{ "element": "Tb", "occu": 1 }],
        "abc": [0.25, 0.99240891, 0.6667267],
        "properties": { "magmom": -0.0 },
        "label": "Tb",
        "xyz": [1.1955232649981988, 7.0920462343895245, 5.875015054037115]
      },
      {
        "species": [{ "element": "Tb", "occu": 1 }],
        "abc": [0.75, 0.50761399, 0.16669797],
        "properties": { "magmom": 0.0 },
        "label": "Tb",
        "xyz": [3.5865698499990604, 3.627592404537715, 1.4688563924989997]
      },
      {
        "species": [{ "element": "Tb", "occu": 1 }],
        "abc": [0.25, 0.4923294, 0.83332535],
        "properties": { "magmom": -0.0 },
        "label": "Tb",
        "xyz": [1.1955232600002395, 3.5182345719850128, 7.34315334119977]
      },
      {
        "species": [{ "element": "Pt", "occu": 1 }],
        "abc": [0.75, 0.7410240300000001, 0.909802599999999],
        "properties": { "magmom": 0.0 },
        "label": "Pt",
        "xyz": [3.5865698277059215, 5.295496967236608, 8.017028746450992]
      },
      {
        "species": [{ "element": "Pt", "occu": 1 }],
        "abc": [0.25, 0.25897875, 0.09020801],
        "properties": { "magmom": -0.0 },
        "label": "Pt",
        "xyz": [1.1955232822937596, 1.8507544377873144, 0.7948689780174488]
      },
      {
        "species": [{ "element": "Pt", "occu": 1 }],
        "abc": [0.75, 0.24094759000000002, 0.59023289],
        "properties": { "magmom": -0.0 },
        "label": "Pt",
        "xyz": [3.586569837293013, 1.7218003650386267, 5.201070701946114]
      },
      {
        "species": [{ "element": "Pt", "occu": 1 }],
        "abc": [0.25, 0.7590449300000001, 0.40974127],
        "properties": { "magmom": -0.0 },
        "label": "Pt",
        "xyz": [1.1955232727077618, 5.4243777246661296, 3.6105058281578546]
      }
    ]
  },
  "task_ids": null,
  "uncorrected_energy_per_atom": null,
  "energy_per_atom": -39.0199684775,
  "formation_energy_per_atom": -1.039773410833333,
  "energy_above_hull": 0.0,
  "is_stable": true,
  "equilibrium_reaction_energy_per_atom": null,
  "decomposes_to": null,
  "xas": null,
  "grain_boundaries": null,
  "band_gap": 0.0,
  "cbm": null,
  "vbm": null,
  "efermi": 4.36893952,
  "is_gap_direct": null,
  "is_metal": null,
  "es_source_calc_id": null,
  "bandstructure": null,
  "dos": null,
  "dos_energy_up": null,
  "dos_energy_down": null,
  "is_magnetic": null,
  "ordering": null,
  "total_magnetization": 0.0,
  "total_magnetization_normalized_vol": null,
  "total_magnetization_normalized_formula_units": null,
  "num_magnetic_sites": null,
  "num_unique_magnetic_sites": null,
  "types_of_magnetic_species": null,
  "bulk_modulus": null,
  "shear_modulus": null,
  "universal_anisotropy": null,
  "homogeneous_poisson": null,
  "e_total": null,
  "e_ionic": null,
  "e_electronic": null,
  "n": null,
  "e_ij_max": null,
  "weighted_surface_energy_EV_PER_ANG2": null,
  "weighted_surface_energy": null,
  "weighted_work_function": null,
  "surface_anisotropy": null,
  "shape_factor": null,
  "has_reconstructed": null,
  "possible_species": null,
  "has_props": null,
  "theoretical": null,
  "database_IDs": null,
  "fields_not_requested": [
    "builder_meta",
    "nsites",
    "elements",
    "nelements",
    "composition",
    "composition_reduced",
    "chemsys",
    "symmetry",
    "property_name",
    "deprecated",
    "deprecation_reasons",
    "last_updated",
    "origins",
    "warnings",
    "task_ids",
    "uncorrected_energy_per_atom",
    "equilibrium_reaction_energy_per_atom",
    "decomposes_to",
    "xas",
    "grain_boundaries",
    "cbm",
    "vbm",
    "is_gap_direct",
    "is_metal",
    "es_source_calc_id",
    "bandstructure",
    "dos",
    "dos_energy_up",
    "dos_energy_down",
    "is_magnetic",
    "ordering",
    "total_magnetization_normalized_vol",
    "total_magnetization_normalized_formula_units",
    "num_magnetic_sites",
    "num_unique_magnetic_sites",
    "types_of_magnetic_species",
    "bulk_modulus",
    "shear_modulus",
    "universal_anisotropy",
    "homogeneous_poisson",
    "e_total",
    "e_ionic",
    "e_electronic",
    "n",
    "e_ij_max",
    "weighted_surface_energy_EV_PER_ANG2",
    "weighted_surface_energy",
    "weighted_work_function",
    "surface_anisotropy",
    "shape_factor",
    "has_reconstructed",
    "possible_species",
    "has_props",
    "theoretical",
    "database_IDs"
  ]
}
