{"builder_meta": null, "nsites": null, "elements": null, "nelements": null, "composition": null, "composition_reduced": null, "formula_pretty": "Tb2Se3", "formula_anonymous": "A2B3", "chemsys": null, "volume": 495.12914772713816, "density": 7.441710939627447, "density_atomic": 24.756457386356907, "symmetry": null, "property_name": null, "material_id": "mp-15257", "deprecated": null, "deprecation_reasons": null, "last_updated": null, "origins": null, "warnings": null, "structure": {"@module": "pymatgen.core.structure", "@class": "Structure", "charge": 0, "lattice": {"matrix": [[4.03345508, -0.0, 0.0], [0.0, 11.00728583, 0.0], [0.0, 0.0, 11.15221221]], "pbc": [true, true, true], "a": 4.03345508, "b": 11.00728583, "c": 11.15221221, "alpha": 90.0, "beta": 90.0, "gamma": 90.0, "volume": 495.12914772713816}, "properties": {}, "sites": [{"species": [{"element": "Tb", "occu": 1}], "abc": [0.25, 0.18734973, 0.48763666], "properties": {"magmom": 0.0}, "label": "Tb", "xyz": [1.00836377, 2.062212028283326, 5.438227513695619]}, {"species": [{"element": "Tb", "occu": 1}], "abc": [0.75, 0.81265027, 0.5123633400000001], "properties": {"magmom": 0.0}, "label": "Tb", "xyz": [3.0250913100000005, 8.945073801716674, 5.713984696304382]}, {"species": [{"element": "Tb", "occu": 1}], "abc": [0.75, 0.68734973, 0.01236334], "properties": {"magmom": 0.0}, "label": "Tb", "xyz": [3.0250913100000005, 7.565854943283326, 0.1378785913043814]}, {"species": [{"element": "Tb", "occu": 1}], "abc": [0.25, 0.31265027, 0.98763666], "properties": {"magmom": 0.0}, "label": "Tb", "xyz": [1.00836377, 3.4414308867166743, 11.01433361869562]}, {"species": [{"element": "Tb", "occu": 1}], "abc": [0.25, -0.00234178, 0.80673198], "properties": {"magmom": -0.0}, "label": "Tb", "xyz": [1.00836377, -0.0257766418109774, 8.996846237553475]}, {"species": [{"element": "Tb", "occu": 1}], "abc": [0.75, 0.00234178, 0.19326802], "properties": {"magmom": -0.0}, "label": "Tb", "xyz": [3.0250913100000005, 0.0257766418109774, 2.1553659724465244]}, {"species": [{"element": "Tb", "occu": 1}], "abc": [0.75, 0.49765822, 0.69326802], "properties": {"magmom": -0.0}, "label": "Tb", "xyz": [3.0250913100000005, 5.477866273189023, 7.731472077446524]}, {"species": [{"element": "Tb", "occu": 1}], "abc": [0.25, 0.50234178, 0.30673198], "properties": {"magmom": -0.0}, "label": "Tb", "xyz": [1.00836377, 5.529419556810978, 3.420740132553476]}, {"species": [{"element": "Se", "occu": 1}], "abc": [0.25, 0.30463634, 0.72636152], "properties": {"magmom": 0.0}, "label": "Se", "xyz": [1.00836377, 3.3532192685850624, 8.100537812218159]}, {"species": [{"element": "Se", "occu": 1}], "abc": [0.75, 0.69536366, 0.27363848], "properties": {"magmom": 0.0}, "label": "Se", "xyz": [3.0250913100000005, 7.654066561414939, 3.051674397781841]}, {"species": [{"element": "Se", "occu": 1}], "abc": [0.75, 0.8046363400000001, 0.77363848], "properties": {"magmom": 0.0}, "label": "Se", "xyz": [3.0250913100000005, 8.856862183585063, 8.62778050278184]}, {"species": [{"element": "Se", "occu": 1}], "abc": [0.25, 0.19536366, 0.22636152], "properties": {"magmom": 0.0}, "label": "Se", "xyz": [1.00836377, 2.150423646414938, 2.5244317072181595]}, {"species": [{"element": "Se", "occu": 1}], "abc": [0.25, 0.6259268, 0.54537346], "properties": {"magmom": 0.0}, "label": "Se", "xyz": [1.00836377, 6.889755196257244, 6.082120559621947]}, {"species": [{"element": "Se", "occu": 1}], "abc": [0.75, 0.3740732, 0.45462654], "properties": {"magmom": 0.0}, "label": "Se", "xyz": [3.0250913100000005, 4.117530633742756, 5.070091650378053]}, {"species": [{"element": "Se", "occu": 1}], "abc": [0.75, 0.1259268, 0.95462654], "properties": {"magmom": 0.0}, "label": "Se", "xyz": [3.0250913100000005, 1.3861122812572442, 10.646197755378054]}, {"species": [{"element": "Se", "occu": 1}], "abc": [0.25, 0.8740732, 0.045373460000000004], "properties": {"magmom": 0.0}, "label": "Se", "xyz": [1.00836377, 9.621173548742757, 0.5060144546219466]}, {"species": [{"element": "Se", "occu": 1}], "abc": [0.25, 0.55585136, 0.8813583700000001], "properties": {"magmom": 0.0}, "label": "Se", "xyz": [1.00836377, 6.118414798514229, 9.829095575299698]}, {"species": [{"element": "Se", "occu": 1}], "abc": [0.75, 0.44414864, 0.11864163], "properties": {"magmom": 0.0}, "label": "Se", "xyz": [3.0250913100000005, 4.888871031485771, 1.3231166347003023]}, {"species": [{"element": "Se", "occu": 1}], "abc": [0.75, 0.05585136, 0.61864163], "properties": {"magmom": 0.0}, "label": "Se", "xyz": [3.0250913100000005, 0.6147718835142288, 6.899222739700303]}, {"species": [{"element": "Se", "occu": 1}], "abc": [0.25, 0.94414864, 0.38135837], "properties": {"magmom": 0.0}, "label": "Se", "xyz": [1.00836377, 10.392513946485773, 4.252989470299697]}]}, "task_ids": null, "uncorrected_energy_per_atom": null, "energy_per_atom": -6.106273942500001, "formation_energy_per_atom": -2.153581606572918, "energy_above_hull": 0.0, "is_stable": true, "equilibrium_reaction_energy_per_atom": null, "decomposes_to": null, "xas": null, "grain_boundaries": null, "band_gap": 0.3411, "cbm": null, "vbm": null, "efermi": 3.72785676, "is_gap_direct": null, "is_metal": null, "es_source_calc_id": null, "bandstructure": null, "dos": null, "dos_energy_up": null, "dos_energy_down": null, "is_magnetic": null, "ordering": null, "total_magnetization": 0.0, "total_magnetization_normalized_vol": null, "total_magnetization_normalized_formula_units": null, "num_magnetic_sites": null, "num_unique_magnetic_sites": null, "types_of_magnetic_species": null, "bulk_modulus": null, "shear_modulus": null, "universal_anisotropy": null, "homogeneous_poisson": null, "e_total": null, "e_ionic": null, "e_electronic": null, "n": null, "e_ij_max": null, "weighted_surface_energy_EV_PER_ANG2": null, "weighted_surface_energy": null, "weighted_work_function": null, "surface_anisotropy": null, "shape_factor": null, "has_reconstructed": null, "possible_species": null, "has_props": null, "theoretical": null, "database_IDs": null, "fields_not_requested": ["builder_meta", "nsites", "elements", "nelements", "composition", "composition_reduced", "chemsys", "symmetry", "property_name", "deprecated", "deprecation_reasons", "last_updated", "origins", "warnings", "task_ids", "uncorrected_energy_per_atom", "equilibrium_reaction_energy_per_atom", "decomposes_to", "xas", "grain_boundaries", "cbm", "vbm", "is_gap_direct", "is_metal", "es_source_calc_id", "bandstructure", "dos", "dos_energy_up", "dos_energy_down", "is_magnetic", "ordering", "total_magnetization_normalized_vol", "total_magnetization_normalized_formula_units", "num_magnetic_sites", "num_unique_magnetic_sites", "types_of_magnetic_species", "bulk_modulus", "shear_modulus", "universal_anisotropy", "homogeneous_poisson", "e_total", "e_ionic", "e_electronic", "n", "e_ij_max", "weighted_surface_energy_EV_PER_ANG2", "weighted_surface_energy", "weighted_work_function", "surface_anisotropy", "shape_factor", "has_reconstructed", "possible_species", "has_props", "theoretical", "database_IDs"]}