{"builder_meta": null, "nsites": null, "elements": null, "nelements": null, "composition": null, "composition_reduced": null, "formula_pretty": "Tb2Sb5", "formula_anonymous": "A2B5", "chemsys": null, "volume": 811.3175337801929, "density": 7.586374628304885, "density_atomic": 28.97562620643546, "symmetry": null, "property_name": null, "material_id": "mp-641945", "deprecated": null, "deprecation_reasons": null, "last_updated": null, "origins": null, "warnings": null, "structure": {"@module": "pymatgen.core.structure", "@class": "Structure", "charge": 0, "lattice": {"matrix": [[4.22240578, 0.0, 0.0], [0.0, 12.92332627, -2.85907479], [0.0, -0.00902108, 14.87013384]], "pbc": [true, true, true], "a": 4.22240578, "b": 13.235810157889304, "c": 14.870136576353207, "alpha": 102.5095804141143, "beta": 90.0, "gamma": 90.0, "volume": 811.3175337801929}, "properties": {}, "sites": [{"species": [{"element": "Tb", "occu": 1}], "abc": [0.75, 0.66222739, 0.14484756000000001], "properties": {"magmom": -0.0}, "label": "Tb", "xyz": [3.166804335, 8.55687394447397, 0.2605449676009326]}, {"species": [{"element": "Tb", "occu": 1}], "abc": [0.25, 0.048157160000000004, 0.36480911], "properties": {"magmom": -0.0}, "label": "Tb", "xyz": [1.055601445, 0.6190597187505544, 5.287075369637286]}, {"species": [{"element": "Tb", "occu": 1}], "abc": [0.25, 0.33777261000000003, 0.85515244], "properties": {"magmom": -0.0}, "label": "Tb", "xyz": [1.055601445, 4.35743124552603, 11.750514082399068]}, {"species": [{"element": "Tb", "occu": 1}], "abc": [0.25, 0.33063697000000003, 0.57812043], "properties": {"magmom": -0.0}, "label": "Tb", "xyz": [1.055601445, 4.267714169585538, 7.6514123441693656]}, {"species": [{"element": "Tb", "occu": 1}], "abc": [0.75, 0.95184284, 0.6351908900000001], "properties": {"magmom": -0.0}, "label": "Tb", "xyz": [3.166804335, 12.295245471249444, 6.723983680362714]}, {"species": [{"element": "Tb", "occu": 1}], "abc": [0.75, 0.66936303, 0.42187957], "properties": {"magmom": -0.0}, "label": "Tb", "xyz": [3.166804335, 8.646591020414462, 4.3596467058306345]}, {"species": [{"element": "Tb", "occu": 1}], "abc": [0.25, 0.60674834, 0.7713059800000001], "properties": {"magmom": 0.0}, "label": "Tb", "xyz": [1.055601445, 7.834248748650833, 9.734684271424014]}, {"species": [{"element": "Tb", "occu": 1}], "abc": [0.75, 0.39325166, 0.22869402], "properties": {"magmom": 0.0}, "label": "Tb", "xyz": [3.166804335, 5.080056441349167, 2.276374778575985]}, {"species": [{"element": "Sb", "occu": 1}], "abc": [0.75, 0.15273579, 0.8221164400000001], "properties": {"magmom": 0.0}, "label": "Sb", "xyz": [3.166804335, 1.9664380691016483, 11.788298448144596]}, {"species": [{"element": "Sb", "occu": 1}], "abc": [0.25, 0.13839926, 0.67589661], "properties": {"magmom": -0.0}, "label": "Sb", "xyz": [1.055601445, 1.7824814751160214, 9.654979217481626]}, {"species": [{"element": "Sb", "occu": 1}], "abc": [0.25, 0.85651698, 0.47991275], "properties": {"magmom": 0.0}, "label": "Sb", "xyz": [1.055601445, 11.064719057024295, 4.687520719297526]}, {"species": [{"element": "Sb", "occu": 1}], "abc": [0.75, 0.71822405, 0.94056428], "properties": {"magmom": -0.0}, "label": "Sb", "xyz": [3.166804335, 9.273358827495771, 11.932860453796536]}, {"species": [{"element": "Sb", "occu": 1}], "abc": [0.25, 0.85971829, 0.77680589], "properties": {"magmom": 0.0}, "label": "Sb", "xyz": [1.055601445, 11.103412333878317, 9.093208662559409]}, {"species": [{"element": "Sb", "occu": 1}], "abc": [0.75, 0.42336716, 0.44704527], "properties": {"magmom": 0.0}, "label": "Sb", "xyz": [3.166804335, 5.467279109539002, 5.437184623369039]}, {"species": [{"element": "Sb", "occu": 1}], "abc": [0.75, 0.86160074, 0.32410339], "properties": {"magmom": -0.0}, "label": "Sb", "xyz": [3.166804335, 11.131823714883978, 2.3560798325183723]}, {"species": [{"element": "Sb", "occu": 1}], "abc": [0.25, 0.28907921000000003, 0.35135542000000003], "properties": {"magmom": 0.0}, "label": "Sb", "xyz": [1.055601445, 3.732695343351594, 4.398203039185297]}, {"species": [{"element": "Sb", "occu": 1}], "abc": [0.75, 0.71092079, 0.64864458], "properties": {"magmom": 0.0}, "label": "Sb", "xyz": [3.166804335, 9.181609846648406, 7.612856010814703]}, {"species": [{"element": "Sb", "occu": 1}], "abc": [0.75, 0.14028171, 0.22319411], "properties": {"magmom": 0.0}, "label": "Sb", "xyz": [3.166804335, 1.8108928561216828, 2.917850387440591]}, {"species": [{"element": "Sb", "occu": 1}], "abc": [0.25, 0.58022179, 0.9749340400000001], "properties": {"magmom": 0.0}, "label": "Sb", "xyz": [1.055601445, 7.48960054316386, 12.838502167574239]}, {"species": [{"element": "Sb", "occu": 1}], "abc": [0.25, 0.57663284, 0.5529547300000001], "properties": {"magmom": 0.0}, "label": "Sb", "xyz": [1.055601445, 7.447026080460999, 6.57387442663096]}, {"species": [{"element": "Sb", "occu": 1}], "abc": [0.75, 0.42474255, 0.73485766], "properties": {"magmom": -0.0}, "label": "Sb", "xyz": [3.166804335, 5.482457344662316, 9.713061040603899]}, {"species": [{"element": "Sb", "occu": 1}], "abc": [0.25, 0.5752574500000001, 0.26514234000000003], "properties": {"magmom": -0.0}, "label": "Sb", "xyz": [1.055601445, 7.4318478453376855, 2.2979980093961]}, {"species": [{"element": "Sb", "occu": 1}], "abc": [0.75, 0.14348302000000002, 0.52008725], "properties": {"magmom": 0.0}, "label": "Sb", "xyz": [3.166804335, 1.8495861329757057, 7.3235383307024735]}, {"species": [{"element": "Sb", "occu": 1}], "abc": [0.75, 0.97053266, 0.893575599999999], "properties": {"magmom": 0.0}, "label": "Sb", "xyz": [3.166804335, 12.53444920389733, 10.512763307080647]}, {"species": [{"element": "Sb", "occu": 1}], "abc": [0.25, 0.28177595, 0.059435720000000004], "properties": {"magmom": -0.0}, "label": "Sb", "xyz": [1.055601445, 3.6409463625042293, 0.07819859620346437]}, {"species": [{"element": "Sb", "occu": 1}], "abc": [0.25, 0.02946734, 0.106424399999999], "properties": {"magmom": 0.0}, "label": "Sb", "xyz": [1.055601445, 0.37985598610266985, 1.4982957429193224]}, {"species": [{"element": "Sb", "occu": 1}], "abc": [0.25, 0.8472642100000001, 0.17788356], "properties": {"magmom": 0.0}, "label": "Sb", "xyz": [1.055601445, 10.947867120898353, 0.2227606018554038]}, {"species": [{"element": "Sb", "occu": 1}], "abc": [0.75, 0.41977821, 0.02506596], "properties": {"magmom": 0.0}, "label": "Sb", "xyz": [3.166804335, 5.4247046468361395, -0.8274431175742396]}]}, "task_ids": null, "uncorrected_energy_per_atom": null, "energy_per_atom": -28.053074643214284, "formation_energy_per_atom": -0.769582221785713, "energy_above_hull": 0.023858321071433, "is_stable": false, "equilibrium_reaction_energy_per_atom": null, "decomposes_to": null, "xas": null, "grain_boundaries": null, "band_gap": 0.0, "cbm": null, "vbm": null, "efermi": 6.29229526, "is_gap_direct": null, "is_metal": null, "es_source_calc_id": null, "bandstructure": null, "dos": null, "dos_energy_up": null, "dos_energy_down": null, "is_magnetic": null, "ordering": null, "total_magnetization": 1e-07, "total_magnetization_normalized_vol": null, "total_magnetization_normalized_formula_units": null, "num_magnetic_sites": null, "num_unique_magnetic_sites": null, "types_of_magnetic_species": null, "bulk_modulus": null, "shear_modulus": null, "universal_anisotropy": null, "homogeneous_poisson": null, "e_total": null, "e_ionic": null, "e_electronic": null, "n": null, "e_ij_max": null, "weighted_surface_energy_EV_PER_ANG2": null, "weighted_surface_energy": null, "weighted_work_function": null, "surface_anisotropy": null, "shape_factor": null, "has_reconstructed": null, "possible_species": null, "has_props": null, "theoretical": null, "database_IDs": null, "fields_not_requested": ["builder_meta", "nsites", "elements", "nelements", "composition", "composition_reduced", "chemsys", "symmetry", "property_name", "deprecated", "deprecation_reasons", "last_updated", "origins", "warnings", "task_ids", "uncorrected_energy_per_atom", "equilibrium_reaction_energy_per_atom", "decomposes_to", "xas", "grain_boundaries", "cbm", "vbm", "is_gap_direct", "is_metal", "es_source_calc_id", "bandstructure", "dos", "dos_energy_up", "dos_energy_down", "is_magnetic", "ordering", "total_magnetization_normalized_vol", "total_magnetization_normalized_formula_units", "num_magnetic_sites", "num_unique_magnetic_sites", "types_of_magnetic_species", "bulk_modulus", "shear_modulus", "universal_anisotropy", "homogeneous_poisson", "e_total", "e_ionic", "e_electronic", "n", "e_ij_max", "weighted_surface_energy_EV_PER_ANG2", "weighted_surface_energy", "weighted_work_function", "surface_anisotropy", "shape_factor", "has_reconstructed", "possible_species", "has_props", "theoretical", "database_IDs"]}