{
  "builder_meta": null,
  "nsites": null,
  "elements": null,
  "nelements": null,
  "composition": null,
  "composition_reduced": null,
  "formula_pretty": "Tb2Si3",
  "formula_anonymous": "A2B3",
  "chemsys": null,
  "volume": 200.80025993365032,
  "density": 6.650536356693662,
  "density_atomic": 20.080025993365034,
  "symmetry": null,
  "property_name": null,
  "material_id": "mp-1205298",
  "deprecated": null,
  "deprecation_reasons": null,
  "last_updated": null,
  "origins": null,
  "warnings": null,
  "structure": {
    "@module": "pymatgen.core.structure",
    "@class": "Structure",
    "charge": 0,
    "lattice": {
      "matrix": [
        [0.0, 0.0, -3.933678989999999],
        [-4.16992737, -0.00039392, 0.0],
        [2.08613634, 12.24175984, 0.0]
      ],
      "pbc": [true, true, true],
      "a": 3.933678989999999,
      "b": 4.169927388606195,
      "c": 12.418238555016789,
      "alpha": 99.67636983904605,
      "beta": 90.0,
      "gamma": 90.0,
      "volume": 200.80025993365024
    },
    "properties": {},
    "sites": [
      {
        "species": [{ "element": "Tb", "occu": 1 }],
        "abc": [0.75, 0.43052342, 0.86190098],
        "properties": { "magmom": -0.0 },
        "label": "Tb",
        "xyz": [0.0027915633756079306, 10.551015211235038, -2.950259242499999]
      },
      {
        "species": [{ "element": "Tb", "occu": 1 }],
        "abc": [0.25, 0.56944713, 0.13804709],
        "properties": { "magmom": -0.0 },
        "label": "Tb",
        "xyz": [-2.0865681220746977, 1.6897150057774162, -0.9834197474999997]
      },
      {
        "species": [{ "element": "Tb", "occu": 1 }],
        "abc": [0.75, 0.70241874, 0.40459272],
        "properties": { "magmom": 0.0 },
        "label": "Tb",
        "xyz": [-2.0849995530354692, 4.952650214462304, -2.950259242499999]
      },
      {
        "species": [{ "element": "Tb", "occu": 1 }],
        "abc": [0.25, 0.29759683, 0.59543281],
        "properties": { "magmom": 0.0 },
        "label": "Tb",
        "xyz": [0.0011968563270783328, 7.289028231533077, -0.9834197474999997]
      },
      {
        "species": [{ "element": "Si", "occu": 1 }],
        "abc": [0.75, 0.02432082, 0.04892158],
        "properties": { "magmom": 0.0 },
        "label": "Si",
        "xyz": [0.0006410328693737949, 0.5988766528959328, -2.950259242499999]
      },
      {
        "species": [{ "element": "Si", "occu": 1 }],
        "abc": [0.25, 0.97567982, 0.95107438],
        "properties": { "magmom": 0.0 },
        "label": "Si",
        "xyz": [-2.084443159613704, 11.642439810142205, -0.9834197474999997]
      },
      {
        "species": [{ "element": "Si", "occu": 1 }],
        "abc": [0.75, 0.11886918, 0.23767564],
        "properties": { "magmom": 0.0 },
        "label": "Si",
        "xyz": [0.0001479426053009325, 2.909521279750912, -2.950259242499999]
      },
      {
        "species": [{ "element": "Si", "occu": 1 }],
        "abc": [0.25, 0.88112888, 0.76232638],
        "properties": { "magmom": -0.0 },
        "label": "Si",
        "xyz": [-2.083926668950796, 9.33186936936817, -0.9834197474999997]
      },
      {
        "species": [{ "element": "Si", "occu": 1 }],
        "abc": [0.75, 0.82360904, 0.64673946],
        "properties": { "magmom": 0.0 },
        "label": "Si",
        "xyz": [-2.085203188057448, 7.91690471229825, -2.950259242499999]
      },
      {
        "species": [{ "element": "Si", "occu": 1 }],
        "abc": [0.25, 0.17640616, 0.35328896],
        "properties": { "magmom": -0.0 },
        "label": "Si",
        "xyz": [0.0014080631562071177, 4.324809112528819, -0.9834197474999997]
      }
    ]
  },
  "task_ids": null,
  "uncorrected_energy_per_atom": null,
  "energy_per_atom": -18.487500886,
  "formation_energy_per_atom": -0.732668469,
  "energy_above_hull": 0.0,
  "is_stable": true,
  "equilibrium_reaction_energy_per_atom": null,
  "decomposes_to": null,
  "xas": null,
  "grain_boundaries": null,
  "band_gap": 0.0,
  "cbm": null,
  "vbm": null,
  "efermi": 6.43568757,
  "is_gap_direct": null,
  "is_metal": null,
  "es_source_calc_id": null,
  "bandstructure": null,
  "dos": null,
  "dos_energy_up": null,
  "dos_energy_down": null,
  "is_magnetic": null,
  "ordering": null,
  "total_magnetization": 8e-7,
  "total_magnetization_normalized_vol": null,
  "total_magnetization_normalized_formula_units": null,
  "num_magnetic_sites": null,
  "num_unique_magnetic_sites": null,
  "types_of_magnetic_species": null,
  "bulk_modulus": null,
  "shear_modulus": null,
  "universal_anisotropy": null,
  "homogeneous_poisson": null,
  "e_total": null,
  "e_ionic": null,
  "e_electronic": null,
  "n": null,
  "e_ij_max": null,
  "weighted_surface_energy_EV_PER_ANG2": null,
  "weighted_surface_energy": null,
  "weighted_work_function": null,
  "surface_anisotropy": null,
  "shape_factor": null,
  "has_reconstructed": null,
  "possible_species": null,
  "has_props": null,
  "theoretical": null,
  "database_IDs": null,
  "fields_not_requested": [
    "builder_meta",
    "nsites",
    "elements",
    "nelements",
    "composition",
    "composition_reduced",
    "chemsys",
    "symmetry",
    "property_name",
    "deprecated",
    "deprecation_reasons",
    "last_updated",
    "origins",
    "warnings",
    "task_ids",
    "uncorrected_energy_per_atom",
    "equilibrium_reaction_energy_per_atom",
    "decomposes_to",
    "xas",
    "grain_boundaries",
    "cbm",
    "vbm",
    "is_gap_direct",
    "is_metal",
    "es_source_calc_id",
    "bandstructure",
    "dos",
    "dos_energy_up",
    "dos_energy_down",
    "is_magnetic",
    "ordering",
    "total_magnetization_normalized_vol",
    "total_magnetization_normalized_formula_units",
    "num_magnetic_sites",
    "num_unique_magnetic_sites",
    "types_of_magnetic_species",
    "bulk_modulus",
    "shear_modulus",
    "universal_anisotropy",
    "homogeneous_poisson",
    "e_total",
    "e_ionic",
    "e_electronic",
    "n",
    "e_ij_max",
    "weighted_surface_energy_EV_PER_ANG2",
    "weighted_surface_energy",
    "weighted_work_function",
    "surface_anisotropy",
    "shape_factor",
    "has_reconstructed",
    "possible_species",
    "has_props",
    "theoretical",
    "database_IDs"
  ]
}
