{
  "builder_meta": null,
  "nsites": null,
  "elements": null,
  "nelements": null,
  "composition": null,
  "composition_reduced": null,
  "formula_pretty": "Tb2S3",
  "formula_anonymous": "A2B3",
  "chemsys": null,
  "volume": 434.7272674356821,
  "density": 6.32616457912399,
  "density_atomic": 21.736363371784105,
  "symmetry": null,
  "property_name": null,
  "material_id": "mp-9323",
  "deprecated": null,
  "deprecation_reasons": null,
  "last_updated": null,
  "origins": null,
  "warnings": null,
  "structure": {
    "@module": "pymatgen.core.structure",
    "@class": "Structure",
    "charge": 0,
    "lattice": {
      "matrix": [
        [3.88129174, 0.0, 0.0],
        [0.0, 10.50307627, 0.0],
        [0.0, 0.0, 10.664096690000001]
      ],
      "pbc": [true, true, true],
      "a": 3.88129174,
      "b": 10.50307627,
      "c": 10.664096690000001,
      "alpha": 90.0,
      "beta": 90.0,
      "gamma": 90.0,
      "volume": 434.7272674356822
    },
    "properties": {},
    "sites": [
      {
        "species": [{ "element": "Tb", "occu": 1 }],
        "abc": [0.25, 0.99571704, 0.8080073600000001],
        "properties": { "magmom": 0.0 },
        "label": "Tb",
        "xyz": [0.970322935, 10.458092014458641, 8.61666861327164]
      },
      {
        "species": [{ "element": "Tb", "occu": 1 }],
        "abc": [0.75, 0.00428296, 0.19199264],
        "properties": { "magmom": 0.0 },
        "label": "Tb",
        "xyz": [2.910968805, 0.044984255541359194, 2.047428076728362]
      },
      {
        "species": [{ "element": "Tb", "occu": 1 }],
        "abc": [0.75, 0.49571704, 0.69199264],
        "properties": { "magmom": 0.0 },
        "label": "Tb",
        "xyz": [2.910968805, 5.206553879458641, 7.379476421728363]
      },
      {
        "species": [{ "element": "Tb", "occu": 1 }],
        "abc": [0.25, 0.5042829600000001, 0.30800736],
        "properties": { "magmom": 0.0 },
        "label": "Tb",
        "xyz": [0.970322935, 5.29652239054136, 3.2846202682716386]
      },
      {
        "species": [{ "element": "Tb", "occu": 1 }],
        "abc": [0.25, 0.18689057, 0.49013559],
        "properties": { "magmom": 0.0 },
        "label": "Tb",
        "xyz": [0.970322935, 1.9629259108537738, 5.2268533229701974]
      },
      {
        "species": [{ "element": "Tb", "occu": 1 }],
        "abc": [0.75, 0.81310943, 0.50986441],
        "properties": { "magmom": 0.0 },
        "label": "Tb",
        "xyz": [2.910968805, 8.540150359146226, 5.4372433670298035]
      },
      {
        "species": [{ "element": "Tb", "occu": 1 }],
        "abc": [0.75, 0.68689057, 0.00986441],
        "properties": { "magmom": 0.0 },
        "label": "Tb",
        "xyz": [2.910968805, 7.214464045853773, 0.10519502202980291]
      },
      {
        "species": [{ "element": "Tb", "occu": 1 }],
        "abc": [0.25, 0.31310943, 0.9901355900000001],
        "properties": { "magmom": 0.0 },
        "label": "Tb",
        "xyz": [0.970322935, 3.288612224146226, 10.558901667970199]
      },
      {
        "species": [{ "element": "S", "occu": 1 }],
        "abc": [0.25, 0.30396398, 0.72768964],
        "properties": { "magmom": -0.0 },
        "label": "S",
        "xyz": [0.970322935, 3.1925568652727545, 7.760152681271292]
      },
      {
        "species": [{ "element": "S", "occu": 1 }],
        "abc": [0.75, 0.69603602, 0.27231036000000003],
        "properties": { "magmom": -0.0 },
        "label": "S",
        "xyz": [2.910968805, 7.310519404727245, 2.903944008728709]
      },
      {
        "species": [{ "element": "S", "occu": 1 }],
        "abc": [0.75, 0.80396398, 0.77231036],
        "properties": { "magmom": -0.0 },
        "label": "S",
        "xyz": [2.910968805, 8.444095000272755, 8.235992353728708]
      },
      {
        "species": [{ "element": "S", "occu": 1 }],
        "abc": [0.25, 0.19603602, 0.22768964],
        "properties": { "magmom": -0.0 },
        "label": "S",
        "xyz": [0.970322935, 2.058981269727245, 2.428104336271292]
      },
      {
        "species": [{ "element": "S", "occu": 1 }],
        "abc": [0.25, 0.94463681, 0.38085975],
        "properties": { "magmom": -0.0 },
        "label": "S",
        "xyz": [0.970322935, 9.921592462879499, 4.061525199329227]
      },
      {
        "species": [{ "element": "S", "occu": 1 }],
        "abc": [0.75, 0.05536319, 0.6191402500000001],
        "properties": { "magmom": -0.0 },
        "label": "S",
        "xyz": [2.910968805, 0.5814838071205013, 6.6025714906707735]
      },
      {
        "species": [{ "element": "S", "occu": 1 }],
        "abc": [0.75, 0.44463681, 0.11914025],
        "properties": { "magmom": -0.0 },
        "label": "S",
        "xyz": [2.910968805, 4.670054327879498, 1.2705231456707726]
      },
      {
        "species": [{ "element": "S", "occu": 1 }],
        "abc": [0.25, 0.55536319, 0.88085975],
        "properties": { "magmom": -0.0 },
        "label": "S",
        "xyz": [0.970322935, 5.833021942120501, 9.393573544329229]
      },
      {
        "species": [{ "element": "S", "occu": 1 }],
        "abc": [0.25, 0.87328723, 0.04593913],
        "properties": { "magmom": 0.0 },
        "label": "S",
        "xyz": [0.970322935, 9.17220238230703, 0.48989932417447973]
      },
      {
        "species": [{ "element": "S", "occu": 1 }],
        "abc": [0.75, 0.12671277, 0.9540608700000001],
        "properties": { "magmom": 0.0 },
        "label": "S",
        "xyz": [2.910968805, 1.3308738876929678, 10.174197365825522]
      },
      {
        "species": [{ "element": "S", "occu": 1 }],
        "abc": [0.75, 0.37328723, 0.45406087],
        "properties": { "magmom": 0.0 },
        "label": "S",
        "xyz": [2.910968805, 3.920664247307032, 4.842149020825521]
      },
      {
        "species": [{ "element": "S", "occu": 1 }],
        "abc": [0.25, 0.62671277, 0.54593913],
        "properties": { "magmom": 0.0 },
        "label": "S",
        "xyz": [0.970322935, 6.582412022692968, 5.821947669174481]
      }
    ]
  },
  "task_ids": null,
  "uncorrected_energy_per_atom": null,
  "energy_per_atom": -19.701678637,
  "formation_energy_per_atom": -2.390105527687501,
  "energy_above_hull": 0.0,
  "is_stable": true,
  "equilibrium_reaction_energy_per_atom": null,
  "decomposes_to": null,
  "xas": null,
  "grain_boundaries": null,
  "band_gap": 0.579299999999999,
  "cbm": null,
  "vbm": null,
  "efermi": 4.30778168,
  "is_gap_direct": null,
  "is_metal": null,
  "es_source_calc_id": null,
  "bandstructure": null,
  "dos": null,
  "dos_energy_up": null,
  "dos_energy_down": null,
  "is_magnetic": null,
  "ordering": null,
  "total_magnetization": 0.0,
  "total_magnetization_normalized_vol": null,
  "total_magnetization_normalized_formula_units": null,
  "num_magnetic_sites": null,
  "num_unique_magnetic_sites": null,
  "types_of_magnetic_species": null,
  "bulk_modulus": null,
  "shear_modulus": null,
  "universal_anisotropy": null,
  "homogeneous_poisson": null,
  "e_total": null,
  "e_ionic": null,
  "e_electronic": null,
  "n": null,
  "e_ij_max": null,
  "weighted_surface_energy_EV_PER_ANG2": null,
  "weighted_surface_energy": null,
  "weighted_work_function": null,
  "surface_anisotropy": null,
  "shape_factor": null,
  "has_reconstructed": null,
  "possible_species": null,
  "has_props": null,
  "theoretical": null,
  "database_IDs": null,
  "fields_not_requested": [
    "builder_meta",
    "nsites",
    "elements",
    "nelements",
    "composition",
    "composition_reduced",
    "chemsys",
    "symmetry",
    "property_name",
    "deprecated",
    "deprecation_reasons",
    "last_updated",
    "origins",
    "warnings",
    "task_ids",
    "uncorrected_energy_per_atom",
    "equilibrium_reaction_energy_per_atom",
    "decomposes_to",
    "xas",
    "grain_boundaries",
    "cbm",
    "vbm",
    "is_gap_direct",
    "is_metal",
    "es_source_calc_id",
    "bandstructure",
    "dos",
    "dos_energy_up",
    "dos_energy_down",
    "is_magnetic",
    "ordering",
    "total_magnetization_normalized_vol",
    "total_magnetization_normalized_formula_units",
    "num_magnetic_sites",
    "num_unique_magnetic_sites",
    "types_of_magnetic_species",
    "bulk_modulus",
    "shear_modulus",
    "universal_anisotropy",
    "homogeneous_poisson",
    "e_total",
    "e_ionic",
    "e_electronic",
    "n",
    "e_ij_max",
    "weighted_surface_energy_EV_PER_ANG2",
    "weighted_surface_energy",
    "weighted_work_function",
    "surface_anisotropy",
    "shape_factor",
    "has_reconstructed",
    "possible_species",
    "has_props",
    "theoretical",
    "database_IDs"
  ]
}
