{
  "builder_meta": null,
  "nsites": null,
  "elements": null,
  "nelements": null,
  "composition": null,
  "composition_reduced": null,
  "formula_pretty": "Tb2Te3",
  "formula_anonymous": "A2B3",
  "chemsys": null,
  "volume": 712.448615156367,
  "density": 6.532164339376433,
  "density_atomic": 35.62243075781835,
  "symmetry": null,
  "property_name": null,
  "material_id": "mp-1105684",
  "deprecated": null,
  "deprecation_reasons": null,
  "last_updated": null,
  "origins": null,
  "warnings": null,
  "structure": {
    "@module": "pymatgen.core.structure",
    "@class": "Structure",
    "charge": 0,
    "lattice": {
      "matrix": [
        [6.18517605, 4.38950362, -0.0006751999999990001],
        [-6.18517605, 4.38950362, -0.0006751999999990001],
        [0.0, -4.39138253, 13.12134734]
      ],
      "pbc": [true, true, true],
      "a": 7.58446736794231,
      "b": 7.58446736794231,
      "c": 13.836690230749342,
      "alpha": 100.58904250836291,
      "beta": 100.58904250836291,
      "gamma": 109.27478181525375,
      "volume": 712.4486151563672
    },
    "properties": {},
    "sites": [
      {
        "species": [{ "element": "Tb", "occu": 1 }],
        "abc": [0.70807766, 0.95770424, 0.91637005],
        "properties": { "magmom": 0.0 },
        "label": "Tb",
        "xyz": [-1.5439843440594085, 3.287824251595252, 12.022884982084289]
      },
      {
        "species": [{ "element": "Tb", "occu": 1 }],
        "abc": [0.54229576, 0.7919223400000001, 0.5836299500000001],
        "properties": { "magmom": 0.0 },
        "label": "Tb",
        "xyz": [-1.5439843440594094, 3.2936128134047493, 7.657110427915716]
      },
      {
        "species": [{ "element": "Tb", "occu": 1 }],
        "abc": [0.29192234, 0.04229576, 0.08362995000000001],
        "properties": { "magmom": 0.0 },
        "label": "Tb",
        "xyz": [1.543984344059409, 1.0998004584047485, 1.0971119579157136]
      },
      {
        "species": [{ "element": "Tb", "occu": 1 }],
        "abc": [0.45770424, 0.20807766, 0.41637005],
        "properties": { "magmom": 0.0 },
        "label": "Tb",
        "xyz": [1.543984344059409, 1.0940118965952514, 5.462886512084287]
      },
      {
        "species": [{ "element": "Tb", "occu": 1 }],
        "abc": [0.37398559000000003, 0.62399087, 0.24805759],
        "properties": { "magmom": 0.0 },
        "label": "Tb",
        "xyz": [-1.5463266702295435, 3.291305516684883, 3.2541759650075193]
      },
      {
        "species": [{ "element": "Tb", "occu": 1 }],
        "abc": [0.87600913, 0.12601441, 0.25194241],
        "properties": { "magmom": 0.0 },
        "label": "Tb",
        "xyz": [4.6388493797704555, 3.2920104583151177, 3.3051473049924827]
      },
      {
        "species": [{ "element": "Tb", "occu": 1 }],
        "abc": [0.62601441, 0.37600913, 0.7519424100000001],
        "properties": { "magmom": 0.0 },
        "label": "Tb",
        "xyz": [1.546326670229544, 1.0963191933151184, 9.865820974992484]
      },
      {
        "species": [{ "element": "Tb", "occu": 1 }],
        "abc": [0.12399087, 0.87398559, 0.74805759],
        "properties": { "magmom": 0.0 },
        "label": "Tb",
        "xyz": [-4.6388493797704555, 1.095614251684883, 9.81484963500752]
      },
      {
        "species": [{ "element": "Te", "occu": 1 }],
        "abc": [0.8744793, 0.12432352, 0.75023178],
        "properties": { "magmom": -0.0 },
        "label": "Te",
        "xyz": [4.639845564225069, 1.0896938619134051, 9.843377379222403]
      },
      {
        "species": [{ "element": "Te", "occu": 1 }],
        "abc": [0.37567648000000003, 0.625520699999999, 0.74976822],
        "properties": { "magmom": -0.0 },
        "label": "Te",
        "xyz": [-1.5453304857749246, 1.1022395830865914, 9.837293230777599]
      },
      {
        "species": [{ "element": "Te", "occu": 1 }],
        "abc": [0.125520699999999, 0.87567648, 0.24976822],
        "properties": { "magmom": -0.0 },
        "label": "Te",
        "xyz": [-4.639845564225075, 3.297930848086591, 3.2766195607776]
      },
      {
        "species": [{ "element": "Te", "occu": 1 }],
        "abc": [0.62432352, 0.374479299999999, 0.25023178],
        "properties": { "magmom": -0.0 },
        "label": "Te",
        "xyz": [1.545330485774937, 3.2853851269134013, 3.2827037092224023]
      },
      {
        "species": [{ "element": "Te", "occu": 1 }],
        "abc": [0.54402342, 0.79599414, 0.08504936],
        "properties": { "magmom": -0.0 },
        "label": "Te",
        "xyz": [-1.558483262645256, 5.5085276567918875, 1.1150574137481917]
      },
      {
        "species": [{ "element": "Te", "occu": 1 }],
        "abc": [0.70400586, 0.95597658, 0.41495064],
        "properties": { "magmom": -0.0 },
        "label": "Te",
        "xyz": [-1.5584832626452556, 5.464291938208113, 5.443590656251811]
      },
      {
        "species": [{ "element": "Te", "occu": 1 }],
        "abc": [0.211098999999999, 0.46027134000000003, 0.41513838000000003],
        "properties": { "magmom": -0.0 },
        "label": "Te",
        "xyz": [-1.541174789690463, 1.123951108326125, 5.446721568891342]
      },
      {
        "species": [{ "element": "Te", "occu": 1 }],
        "abc": [0.03972866, 0.288900999999999, 0.08486162],
        "properties": { "magmom": -0.0 },
        "label": "Te",
        "xyz": [-1.5411747896904509, 1.0698612466738664, 1.113276901108659]
      },
      {
        "species": [{ "element": "Te", "occu": 1 }],
        "abc": [0.45597658, 0.20400586, 0.91495064],
        "properties": { "magmom": -0.0 },
        "label": "Te",
        "xyz": [1.558483262645256, -1.1209029467918863, 12.00493952625181]
      },
      {
        "species": [{ "element": "Te", "occu": 1 }],
        "abc": [0.29599414, 0.04402342, 0.58504936],
        "properties": { "magmom": -0.0 },
        "label": "Te",
        "xyz": [1.558483262645256, -1.0766672282081133, 7.67640628374819]
      },
      {
        "species": [{ "element": "Te", "occu": 1 }],
        "abc": [0.788901, 0.53972866, 0.58486162],
        "properties": { "magmom": -0.0 },
        "label": "Te",
        "xyz": [1.5411747896904568, 3.26367360167387, 7.67327537110866]
      },
      {
        "species": [{ "element": "Te", "occu": 1 }],
        "abc": [0.96027134, 0.711098999999999, 0.91513838],
        "properties": { "magmom": -0.0 },
        "label": "Te",
        "xyz": [1.541174789690463, 3.317763463326126, 12.006720038891343]
      }
    ]
  },
  "task_ids": null,
  "uncorrected_energy_per_atom": null,
  "energy_per_atom": -29.435625468,
  "formation_energy_per_atom": -1.6947172220000022,
  "energy_above_hull": 0.0,
  "is_stable": true,
  "equilibrium_reaction_energy_per_atom": null,
  "decomposes_to": null,
  "xas": null,
  "grain_boundaries": null,
  "band_gap": 0.5516999999999991,
  "cbm": null,
  "vbm": null,
  "efermi": 3.68406243,
  "is_gap_direct": null,
  "is_metal": null,
  "es_source_calc_id": null,
  "bandstructure": null,
  "dos": null,
  "dos_energy_up": null,
  "dos_energy_down": null,
  "is_magnetic": null,
  "ordering": null,
  "total_magnetization": 0.0,
  "total_magnetization_normalized_vol": null,
  "total_magnetization_normalized_formula_units": null,
  "num_magnetic_sites": null,
  "num_unique_magnetic_sites": null,
  "types_of_magnetic_species": null,
  "bulk_modulus": null,
  "shear_modulus": null,
  "universal_anisotropy": null,
  "homogeneous_poisson": null,
  "e_total": null,
  "e_ionic": null,
  "e_electronic": null,
  "n": null,
  "e_ij_max": null,
  "weighted_surface_energy_EV_PER_ANG2": null,
  "weighted_surface_energy": null,
  "weighted_work_function": null,
  "surface_anisotropy": null,
  "shape_factor": null,
  "has_reconstructed": null,
  "possible_species": null,
  "has_props": null,
  "theoretical": null,
  "database_IDs": null,
  "fields_not_requested": [
    "builder_meta",
    "nsites",
    "elements",
    "nelements",
    "composition",
    "composition_reduced",
    "chemsys",
    "symmetry",
    "property_name",
    "deprecated",
    "deprecation_reasons",
    "last_updated",
    "origins",
    "warnings",
    "task_ids",
    "uncorrected_energy_per_atom",
    "equilibrium_reaction_energy_per_atom",
    "decomposes_to",
    "xas",
    "grain_boundaries",
    "cbm",
    "vbm",
    "is_gap_direct",
    "is_metal",
    "es_source_calc_id",
    "bandstructure",
    "dos",
    "dos_energy_up",
    "dos_energy_down",
    "is_magnetic",
    "ordering",
    "total_magnetization_normalized_vol",
    "total_magnetization_normalized_formula_units",
    "num_magnetic_sites",
    "num_unique_magnetic_sites",
    "types_of_magnetic_species",
    "bulk_modulus",
    "shear_modulus",
    "universal_anisotropy",
    "homogeneous_poisson",
    "e_total",
    "e_ionic",
    "e_electronic",
    "n",
    "e_ij_max",
    "weighted_surface_energy_EV_PER_ANG2",
    "weighted_surface_energy",
    "weighted_work_function",
    "surface_anisotropy",
    "shape_factor",
    "has_reconstructed",
    "possible_species",
    "has_props",
    "theoretical",
    "database_IDs"
  ]
}
