{
  "builder_meta": null,
  "nsites": null,
  "elements": null,
  "nelements": null,
  "composition": null,
  "composition_reduced": null,
  "formula_pretty": "Tb3Al2",
  "formula_anonymous": "A2B3",
  "chemsys": null,
  "volume": 519.2060083901076,
  "density": 6.789698429118398,
  "density_atomic": 25.96030041950538,
  "symmetry": null,
  "property_name": null,
  "material_id": "mp-980938",
  "deprecated": null,
  "deprecation_reasons": null,
  "last_updated": null,
  "origins": null,
  "warnings": null,
  "structure": {
    "@module": "pymatgen.core.structure",
    "@class": "Structure",
    "charge": 0,
    "lattice": {
      "matrix": [
        [8.23793321, -1.8080000000000003e-5, 0.0],
        [-1.8080000000000003e-5, 8.23793321, 0.0],
        [0.0, 0.0, 7.6507353]
      ],
      "pbc": [true, true, true],
      "a": 8.23793321001984,
      "b": 8.23793321001984,
      "c": 7.6507353,
      "alpha": 90.0,
      "beta": 90.0,
      "gamma": 90.0002514969877,
      "volume": 519.2060083901076
    },
    "properties": {},
    "sites": [
      {
        "species": [{ "element": "Tb", "occu": 1 }],
        "abc": [0.20310983, 0.20310983, -0.0],
        "properties": { "magmom": 0.078 },
        "label": "Tb",
        "xyz": [1.6732015416087278, 1.6732015416087278, 0.0]
      },
      {
        "species": [{ "element": "Tb", "occu": 1 }],
        "abc": [0.79688917, 0.79688917, -0.0],
        "properties": { "magmom": 0.078 },
        "label": "Tb",
        "xyz": [6.564705350476142, 6.564705350476142, 0.0]
      },
      {
        "species": [{ "element": "Tb", "occu": 1 }],
        "abc": [0.70308979, 0.29691021, 0.5],
        "properties": { "magmom": 0.078 },
        "label": "Tb",
        "xyz": [5.79200136251633, 2.445913767483671, 3.82536765]
      },
      {
        "species": [{ "element": "Tb", "occu": 1 }],
        "abc": [0.29691021, 0.70308979, 0.5],
        "properties": { "magmom": 0.078 },
        "label": "Tb",
        "xyz": [2.445913767483671, 5.79200136251633, 3.82536765]
      },
      {
        "species": [{ "element": "Tb", "occu": 1 }],
        "abc": [-0.0, 0.5, 0.249956999999999],
        "properties": { "magmom": -0.05 },
        "label": "Tb",
        "xyz": [-9.040000000000002e-6, 4.118966605, 1.9123548433820925]
      },
      {
        "species": [{ "element": "Tb", "occu": 1 }],
        "abc": [0.5, 0.0, 0.249956999999999],
        "properties": { "magmom": -0.05 },
        "label": "Tb",
        "xyz": [4.118966605, -9.040000000000002e-6, 1.9123548433820925]
      },
      {
        "species": [{ "element": "Tb", "occu": 1 }],
        "abc": [0.5, 0.0, 0.750041],
        "properties": { "magmom": -0.05 },
        "label": "Tb",
        "xyz": [4.118966605, -9.040000000000002e-6, 5.738365155147299]
      },
      {
        "species": [{ "element": "Tb", "occu": 1 }],
        "abc": [-0.0, 0.5, 0.750041],
        "properties": { "magmom": -0.05 },
        "label": "Tb",
        "xyz": [-9.040000000000002e-6, 4.118966605, 5.738365155147299]
      },
      {
        "species": [{ "element": "Tb", "occu": 1 }],
        "abc": [0.15135414, 0.15135414, 0.5],
        "properties": { "magmom": 0.14 },
        "label": "Tb",
        "xyz": [1.2468425598941382, 1.2468425598941382, 3.82536765]
      },
      {
        "species": [{ "element": "Tb", "occu": 1 }],
        "abc": [0.84864586, 0.84864586, 0.5],
        "properties": { "magmom": 0.14 },
        "label": "Tb",
        "xyz": [6.991072570105862, 6.991072570105862, 3.82536765]
      },
      {
        "species": [{ "element": "Tb", "occu": 1 }],
        "abc": [0.65133507, 0.34866693, -0.0],
        "properties": { "magmom": 0.14 },
        "label": "Tb",
        "xyz": [5.36564850009258, 2.8722831057376794, 0.0]
      },
      {
        "species": [{ "element": "Tb", "occu": 1 }],
        "abc": [0.34866693, 0.65133507, -0.0],
        "properties": { "magmom": 0.14 },
        "label": "Tb",
        "xyz": [2.8722831057376794, 5.36564850009258, 0.0]
      },
      {
        "species": [{ "element": "Al", "occu": 1 }],
        "abc": [0.38277217, 0.38277217, 0.30771069],
        "properties": { "magmom": -0.005 },
        "label": "Al",
        "xyz": [3.153244650585932, 3.153244650585932, 2.354213038170357]
      },
      {
        "species": [{ "element": "Al", "occu": 1 }],
        "abc": [0.61722783, 0.61722783, 0.30771069],
        "properties": { "magmom": -0.005 },
        "label": "Al",
        "xyz": [5.084670479414068, 5.084670479414068, 2.354213038170357]
      },
      {
        "species": [{ "element": "Al", "occu": 1 }],
        "abc": [0.882769399999999, 0.117229599999999, 0.1922674],
        "properties": { "magmom": -0.005 },
        "label": "Al",
        "xyz": [7.2721932375205975, 0.9657136545642557, 1.47098698421922]
      },
      {
        "species": [{ "element": "Al", "occu": 1 }],
        "abc": [0.117229599999999, 0.882769399999999, 0.1922674],
        "properties": { "magmom": -0.005 },
        "label": "Al",
        "xyz": [0.9657136545642557, 7.2721932375205975, 1.47098698421922]
      },
      {
        "species": [{ "element": "Al", "occu": 1 }],
        "abc": [0.61722783, 0.61722783, 0.69229031],
        "properties": { "magmom": -0.005 },
        "label": "Al",
        "xyz": [5.084670479414068, 5.084670479414068, 5.296529912564942]
      },
      {
        "species": [{ "element": "Al", "occu": 1 }],
        "abc": [0.38277217, 0.38277217, 0.69229031],
        "properties": { "magmom": -0.005 },
        "label": "Al",
        "xyz": [3.153244650585932, 3.153244650585932, 5.296529912564942]
      },
      {
        "species": [{ "element": "Al", "occu": 1 }],
        "abc": [0.882769399999999, 0.117229599999999, 0.807732599999999],
        "properties": { "magmom": -0.005 },
        "label": "Al",
        "xyz": [7.2721932375205975, 0.9657136545642557, 6.179748315780772]
      },
      {
        "species": [{ "element": "Al", "occu": 1 }],
        "abc": [0.117229599999999, 0.882769399999999, 0.807732599999999],
        "properties": { "magmom": -0.005 },
        "label": "Al",
        "xyz": [0.9657136545642557, 7.2721932375205975, 6.179748315780772]
      }
    ]
  },
  "task_ids": null,
  "uncorrected_energy_per_atom": null,
  "energy_per_atom": -21.804758213,
  "formation_energy_per_atom": -0.37605839100000005,
  "energy_above_hull": 0.024197149249999002,
  "is_stable": false,
  "equilibrium_reaction_energy_per_atom": null,
  "decomposes_to": null,
  "xas": null,
  "grain_boundaries": null,
  "band_gap": 0.0,
  "cbm": null,
  "vbm": null,
  "efermi": 4.08813124,
  "is_gap_direct": null,
  "is_metal": null,
  "es_source_calc_id": null,
  "bandstructure": null,
  "dos": null,
  "dos_energy_up": null,
  "dos_energy_down": null,
  "is_magnetic": null,
  "ordering": null,
  "total_magnetization": 1.0490384,
  "total_magnetization_normalized_vol": null,
  "total_magnetization_normalized_formula_units": null,
  "num_magnetic_sites": null,
  "num_unique_magnetic_sites": null,
  "types_of_magnetic_species": null,
  "bulk_modulus": null,
  "shear_modulus": null,
  "universal_anisotropy": null,
  "homogeneous_poisson": null,
  "e_total": null,
  "e_ionic": null,
  "e_electronic": null,
  "n": null,
  "e_ij_max": null,
  "weighted_surface_energy_EV_PER_ANG2": null,
  "weighted_surface_energy": null,
  "weighted_work_function": null,
  "surface_anisotropy": null,
  "shape_factor": null,
  "has_reconstructed": null,
  "possible_species": null,
  "has_props": null,
  "theoretical": null,
  "database_IDs": null,
  "fields_not_requested": [
    "builder_meta",
    "nsites",
    "elements",
    "nelements",
    "composition",
    "composition_reduced",
    "chemsys",
    "symmetry",
    "property_name",
    "deprecated",
    "deprecation_reasons",
    "last_updated",
    "origins",
    "warnings",
    "task_ids",
    "uncorrected_energy_per_atom",
    "equilibrium_reaction_energy_per_atom",
    "decomposes_to",
    "xas",
    "grain_boundaries",
    "cbm",
    "vbm",
    "is_gap_direct",
    "is_metal",
    "es_source_calc_id",
    "bandstructure",
    "dos",
    "dos_energy_up",
    "dos_energy_down",
    "is_magnetic",
    "ordering",
    "total_magnetization_normalized_vol",
    "total_magnetization_normalized_formula_units",
    "num_magnetic_sites",
    "num_unique_magnetic_sites",
    "types_of_magnetic_species",
    "bulk_modulus",
    "shear_modulus",
    "universal_anisotropy",
    "homogeneous_poisson",
    "e_total",
    "e_ionic",
    "e_electronic",
    "n",
    "e_ij_max",
    "weighted_surface_energy_EV_PER_ANG2",
    "weighted_surface_energy",
    "weighted_work_function",
    "surface_anisotropy",
    "shape_factor",
    "has_reconstructed",
    "possible_species",
    "has_props",
    "theoretical",
    "database_IDs"
  ]
}
