{"builder_meta": null, "nsites": null, "elements": null, "nelements": null, "composition": null, "composition_reduced": null, "formula_pretty": "Tb3Ce", "formula_anonymous": "AB3", "chemsys": null, "volume": 131.5706867831688, "density": 7.785726243020597, "density_atomic": 32.8926716957922, "symmetry": null, "property_name": null, "material_id": "mp-1217716", "deprecated": null, "deprecation_reasons": null, "last_updated": null, "origins": null, "warnings": null, "structure": {"@module": "pymatgen.core.structure", "@class": "Structure", "charge": 0, "lattice": {"matrix": [[1.8074154500000001, -3.13053458, 0.0], [1.8074154500000001, 3.13053458, -0.0], [0.0, -0.0, 11.62659783]], "pbc": [true, true, true], "a": 3.6148301987056706, "b": 3.6148301987056706, "c": 11.62659783, "alpha": 90.0, "beta": 90.0, "gamma": 119.99998716474683, "volume": 131.5706867831688}, "properties": {}, "sites": [{"species": [{"element": "Tb", "occu": 1}], "abc": [0.666667, 0.333333, 0.5], "properties": {"magmom": 0.273}, "label": "Tb", "xyz": [1.8074154500000001, -1.04351361368972, 5.813298915]}, {"species": [{"element": "Tb", "occu": 1}], "abc": [0.333333, 0.666667, 0.253593], "properties": {"magmom": 0.231}, "label": "Tb", "xyz": [1.8074154500000001, 1.04351361368972, 2.94842382350319]}, {"species": [{"element": "Tb", "occu": 1}], "abc": [0.333333, 0.666667, 0.746406999999999], "properties": {"magmom": 0.231}, "label": "Tb", "xyz": [1.8074154500000001, 1.04351361368972, 8.678174006496798]}, {"species": [{"element": "Ce", "occu": 1}], "abc": [0.666667, 0.333333, 0.0], "properties": {"magmom": 1.206}, "label": "Ce", "xyz": [1.8074154500000001, -1.04351361368972, 0.0]}]}, "task_ids": null, "uncorrected_energy_per_atom": null, "energy_per_atom": -31.090213855000002, "formation_energy_per_atom": 0.039768947500000006, "energy_above_hull": 0.039768947500000006, "is_stable": false, "equilibrium_reaction_energy_per_atom": null, "decomposes_to": null, "xas": null, "grain_boundaries": null, "band_gap": 0.0, "cbm": null, "vbm": null, "efermi": 4.37889151, "is_gap_direct": null, "is_metal": null, "es_source_calc_id": null, "bandstructure": null, "dos": null, "dos_energy_up": null, "dos_energy_down": null, "is_magnetic": null, "ordering": null, "total_magnetization": 2.7121202, "total_magnetization_normalized_vol": null, "total_magnetization_normalized_formula_units": null, "num_magnetic_sites": null, "num_unique_magnetic_sites": null, "types_of_magnetic_species": null, "bulk_modulus": null, "shear_modulus": null, "universal_anisotropy": null, "homogeneous_poisson": null, "e_total": null, "e_ionic": null, "e_electronic": null, "n": null, "e_ij_max": null, "weighted_surface_energy_EV_PER_ANG2": null, "weighted_surface_energy": null, "weighted_work_function": null, "surface_anisotropy": null, "shape_factor": null, "has_reconstructed": null, "possible_species": null, "has_props": null, "theoretical": null, "database_IDs": null, "fields_not_requested": ["builder_meta", "nsites", "elements", "nelements", "composition", "composition_reduced", "chemsys", "symmetry", "property_name", "deprecated", "deprecation_reasons", "last_updated", "origins", "warnings", "task_ids", "uncorrected_energy_per_atom", "equilibrium_reaction_energy_per_atom", "decomposes_to", "xas", "grain_boundaries", "cbm", "vbm", "is_gap_direct", "is_metal", "es_source_calc_id", "bandstructure", "dos", "dos_energy_up", "dos_energy_down", "is_magnetic", "ordering", "total_magnetization_normalized_vol", "total_magnetization_normalized_formula_units", "num_magnetic_sites", "num_unique_magnetic_sites", "types_of_magnetic_species", "bulk_modulus", "shear_modulus", "universal_anisotropy", "homogeneous_poisson", "e_total", "e_ionic", "e_electronic", "n", "e_ij_max", "weighted_surface_energy_EV_PER_ANG2", "weighted_surface_energy", "weighted_work_function", "surface_anisotropy", "shape_factor", "has_reconstructed", "possible_species", "has_props", "theoretical", "database_IDs"]}