{"builder_meta": null, "nsites": null, "elements": null, "nelements": null, "composition": null, "composition_reduced": null, "formula_pretty": "Tb3Co", "formula_anonymous": "AB3", "chemsys": null, "volume": 409.0104884745373, "density": 8.699690151996384, "density_atomic": 25.56315552965858, "symmetry": null, "property_name": null, "material_id": "mp-1188994", "deprecated": null, "deprecation_reasons": null, "last_updated": null, "origins": null, "warnings": null, "structure": {"@module": "pymatgen.core.structure", "@class": "Structure", "charge": 0, "lattice": {"matrix": [[7.953e-05, 0.0, 6.24442493], [6.8771732199999995, 0.0, 8.703e-05], [0.0, 9.52427733, 0.0]], "pbc": [true, true, true], "a": 6.244424930506454, "b": 6.877173220550678, "c": 9.52427733, "alpha": 90.0, "beta": 90.0, "gamma": 89.99854519887396, "volume": 409.0104884745372}, "properties": {}, "sites": [{"species": [{"element": "Tb", "occu": 1}], "abc": [0.32057933, 0.67110804, 0.06963172000000001], "properties": {"magmom": -0.0}, "label": "Tb", "xyz": [4.615351736088804, 0.6631918122449078, 2.001891966827418]}, {"species": [{"element": "Tb", "occu": 1}], "abc": [0.17942709, 0.17104091, 0.43036089], "properties": {"magmom": 0.0}, "label": "Tb", "xyz": [1.1762922356128978, 4.098876468345623, 1.120433879603751]}, {"species": [{"element": "Tb", "occu": 1}], "abc": [0.6794206700000001, 0.32889196, 0.5696317200000001], "properties": {"magmom": -0.0}, "label": "Tb", "xyz": [2.261901013911196, 5.425330477244908, 4.242619993172583]}, {"species": [{"element": "Tb", "occu": 1}], "abc": [0.82057291, 0.82895909, 0.93036089], "properties": {"magmom": 0.0}, "label": "Tb", "xyz": [5.700960514387102, 8.861015133345624, 5.124078080396249]}, {"species": [{"element": "Tb", "occu": 1}], "abc": [0.67941967, 0.32889096, 0.93036828], "properties": {"magmom": -0.0}, "label": "Tb", "xyz": [2.261894136658446, 8.861085517755093, 4.242613748660623]}, {"species": [{"element": "Tb", "occu": 1}], "abc": [0.82057291, 0.82895909, 0.56963911], "properties": {"magmom": 0.0}, "label": "Tb", "xyz": [5.700960514387102, 5.425400861654377, 5.124078080396249]}, {"species": [{"element": "Tb", "occu": 1}], "abc": [0.32058033, 0.67110904, 0.43036828], "properties": {"magmom": -0.0}, "label": "Tb", "xyz": [4.615358613341554, 4.098946852755092, 2.0018982113393786]}, {"species": [{"element": "Tb", "occu": 1}], "abc": [0.17942709, 0.17104091, 0.06963911], "properties": {"magmom": 0.0}, "label": "Tb", "xyz": [1.1762922356128978, 0.6632621966543764, 1.120433879603751]}, {"species": [{"element": "Tb", "occu": 1}], "abc": [0.857690499999999, 0.54613067, 0.25], "properties": {"magmom": 0.0}, "label": "Tb", "xyz": [3.755903430470122, 2.3810693325, 5.355831470176369]}, {"species": [{"element": "Tb", "occu": 1}], "abc": [0.64231187, 0.04612026, 0.25], "properties": {"magmom": -0.0}, "label": "Tb", "xyz": [0.3172281000344583, 2.3810693325, 4.010872267709147]}, {"species": [{"element": "Tb", "occu": 1}], "abc": [0.1423095, 0.45386933, 0.75], "properties": {"magmom": 0.0}, "label": "Tb", "xyz": [3.1213493195298776, 7.1432079975, 0.8886804898236249]}, {"species": [{"element": "Tb", "occu": 1}], "abc": [0.35768813, 0.95387974, 0.75], "properties": {"magmom": -0.0}, "label": "Tb", "xyz": [6.560024649965541, 7.1432079975, 2.2336396922908532]}, {"species": [{"element": "Co", "occu": 1}], "abc": [0.04353009, 0.88873788, 0.25], "properties": {"magmom": -0.0}, "label": "Co", "xyz": [6.1120078098836315, 2.3810693325, 0.2718977260588401]}, {"species": [{"element": "Co", "occu": 1}], "abc": [0.45646098, 0.38870182000000003, 0.25], "properties": {"magmom": 0.0}, "label": "Co", "xyz": [2.6732060494109997, 2.3810693325, 2.850370151803626]}, {"species": [{"element": "Co", "occu": 1}], "abc": [0.95646991, 0.11126212, 0.75], "properties": {"magmom": -0.0}, "label": "Co", "xyz": [0.7652449401163687, 7.1432079975, 5.972614233941161]}, {"species": [{"element": "Co", "occu": 1}], "abc": [0.54353902, 0.61129818, 0.75], "properties": {"magmom": 0.0}, "label": "Co", "xyz": [4.204046700589, 7.1432079975, 3.394141808196374]}]}, "task_ids": null, "uncorrected_energy_per_atom": null, "energy_per_atom": -5.3947672975, "formation_energy_per_atom": -0.133015399999998, "energy_above_hull": 0.0, "is_stable": true, "equilibrium_reaction_energy_per_atom": null, "decomposes_to": null, "xas": null, "grain_boundaries": null, "band_gap": 0.0, "cbm": null, "vbm": null, "efermi": 3.55421708, "is_gap_direct": null, "is_metal": null, "es_source_calc_id": null, "bandstructure": null, "dos": null, "dos_energy_up": null, "dos_energy_down": null, "is_magnetic": null, "ordering": null, "total_magnetization": 2.299999999999998e-06, "total_magnetization_normalized_vol": null, "total_magnetization_normalized_formula_units": null, "num_magnetic_sites": null, "num_unique_magnetic_sites": null, "types_of_magnetic_species": null, "bulk_modulus": null, "shear_modulus": null, "universal_anisotropy": null, "homogeneous_poisson": null, "e_total": null, "e_ionic": null, "e_electronic": null, "n": null, "e_ij_max": null, "weighted_surface_energy_EV_PER_ANG2": null, "weighted_surface_energy": null, "weighted_work_function": null, "surface_anisotropy": null, "shape_factor": null, "has_reconstructed": null, "possible_species": null, "has_props": null, "theoretical": null, "database_IDs": null, "fields_not_requested": ["builder_meta", "nsites", "elements", "nelements", "composition", "composition_reduced", "chemsys", "symmetry", "property_name", "deprecated", "deprecation_reasons", "last_updated", "origins", "warnings", "task_ids", "uncorrected_energy_per_atom", "equilibrium_reaction_energy_per_atom", "decomposes_to", "xas", "grain_boundaries", "cbm", "vbm", "is_gap_direct", "is_metal", "es_source_calc_id", "bandstructure", "dos", "dos_energy_up", "dos_energy_down", "is_magnetic", "ordering", "total_magnetization_normalized_vol", "total_magnetization_normalized_formula_units", "num_magnetic_sites", "num_unique_magnetic_sites", "types_of_magnetic_species", "bulk_modulus", "shear_modulus", "universal_anisotropy", "homogeneous_poisson", "e_total", "e_ionic", "e_electronic", "n", "e_ij_max", "weighted_surface_energy_EV_PER_ANG2", "weighted_surface_energy", "weighted_work_function", "surface_anisotropy", "shape_factor", "has_reconstructed", "possible_species", "has_props", "theoretical", "database_IDs"]}