{"builder_meta": null, "nsites": null, "elements": null, "nelements": null, "composition": null, "composition_reduced": null, "formula_pretty": "Tb3Ga2", "formula_anonymous": "A2B3", "chemsys": null, "volume": 1009.4563817202755, "density": 8.109400713136614, "density_atomic": 25.23640954300689, "symmetry": null, "property_name": null, "material_id": "mp-1197692", "deprecated": null, "deprecation_reasons": null, "last_updated": null, "origins": null, "warnings": null, "structure": {"@module": "pymatgen.core.structure", "@class": "Structure", "charge": 0, "lattice": {"matrix": [[-5.82694769, -5.82694769, 7.43267816], [-5.82694769, 5.82694769, -7.43267816], [5.82694769, -5.82694769, -7.43267816]], "pbc": [true, true, true], "a": 11.097357496004788, "b": 11.097357496004788, "c": 11.097357496004788, "alpha": 95.90135412848099, "beta": 116.65338249947628, "gamma": 116.65338249947628, "volume": 1009.4563817202755}, "properties": {}, "sites": [{"species": [{"element": "Tb", "occu": 1}], "abc": [0.5, 0.8527218, 0.3527218], "properties": {"magmom": 0.006}, "label": "Tb", "xyz": [-5.826947689999999, 0.0, -5.243335238831776]}, {"species": [{"element": "Tb", "occu": 1}], "abc": [0.5, 0.3527218, 0.8527218], "properties": {"magmom": 0.006}, "label": "Tb", "xyz": [0.0, -5.82694769, -5.243335238831776]}, {"species": [{"element": "Tb", "occu": 1}], "abc": [0.5, 0.1472782, 0.6472782], "properties": {"magmom": 0.006}, "label": "Tb", "xyz": [0.0, -5.82694769, -2.1893429211682243]}, {"species": [{"element": "Tb", "occu": 1}], "abc": [0.5, 0.6472782, 0.1472782], "properties": {"magmom": 0.006}, "label": "Tb", "xyz": [-5.82694769, 1.1102230246251565e-16, -2.1893429211682243]}, {"species": [{"element": "Tb", "occu": 1}], "abc": [0.16489464, 0.33244732, 0.83244732], "properties": {"magmom": 0.11800000000000001}, "label": "Tb", "xyz": [1.952641403358618, -3.874306286641381, -7.43267816]}, {"species": [{"element": "Tb", "occu": 1}], "abc": [0.83510536, 0.66755268, 0.16755268], "properties": {"magmom": 0.11800000000000001}, "label": "Tb", "xyz": [-7.779589093358618, -1.9526414033586188, 6.661338147750939e-16]}, {"species": [{"element": "Tb", "occu": 1}], "abc": [0.5, 0.16755268, 0.33244732], "properties": {"magmom": 0.11800000000000001}, "label": "Tb", "xyz": [-1.9526414033586184, -3.8743062866413815, 4.440892098500626e-16]}, {"species": [{"element": "Tb", "occu": 1}], "abc": [0.5, 0.83244732, 0.66755268], "properties": {"magmom": 0.11800000000000001}, "label": "Tb", "xyz": [-3.8743062866413807, -1.9526414033586188, -7.43267816]}, {"species": [{"element": "Tb", "occu": 1}], "abc": [0.73036209, 0.5678189, 0.43366138], "properties": {"magmom": 0.05}, "label": "Tb", "xyz": [-5.037510544449201, -3.474052841928943, -2.0151342495917306]}, {"species": [{"element": "Tb", "occu": 1}], "abc": [0.26963791, 0.70330029, 0.83745682], "properties": {"magmom": 0.05}, "label": "Tb", "xyz": [-0.7894429142290127, -2.3528890793928428, -9.447819916596673]}, {"species": [{"element": "Tb", "occu": 1}], "abc": [0.86584248, 0.20330029, 0.93366138], "properties": {"magmom": 0.05}, "label": "Tb", "xyz": [-0.7894429724984882, -9.300994704981253, -2.01514168226989]}, {"species": [{"element": "Tb", "occu": 1}], "abc": [0.13415752, 0.0678189, 0.33745682], "properties": {"magmom": 0.05}, "label": "Tb", "xyz": [0.7894372038202759, -2.3528949063405333, -2.0151343239185118]}, {"species": [{"element": "Tb", "occu": 1}], "abc": [0.86584248, 0.43366138, 0.70330029], "properties": {"magmom": 0.05}, "label": "Tb", "xyz": [-3.4740470149812523, -6.616390662498489, -2.0151416822698915]}, {"species": [{"element": "Tb", "occu": 1}], "abc": [0.13415752, 0.83745682, 0.5678189], "properties": {"magmom": 0.05}, "label": "Tb", "xyz": [-2.3528949063405333, 0.7894372038202748, -9.447812483918511]}, {"species": [{"element": "Tb", "occu": 1}], "abc": [0.73036209, 0.93366138, 0.0678189], "properties": {"magmom": 0.05}, "label": "Tb", "xyz": [-9.301000531928942, 0.7894371455507991, -2.01513424959173]}, {"species": [{"element": "Tb", "occu": 1}], "abc": [0.26963791, 0.33745682, 0.20330029], "properties": {"magmom": 0.05}, "label": "Tb", "xyz": [-2.3528890793928436, -0.789442914229012, -2.0151417565966723]}, {"species": [{"element": "Tb", "occu": 1}], "abc": [0.26963791, 0.4321811, 0.56633862], "properties": {"magmom": 0.05}, "label": "Tb", "xyz": [-0.7894371455507985, -2.352894848071057, -5.41754391040827]}, {"species": [{"element": "Tb", "occu": 1}], "abc": [0.73036209, 0.29669971, 0.16254318], "properties": {"magmom": 0.05}, "label": "Tb", "xyz": [-5.037504775770987, -3.4740586106071567, 2.0151417565966714]}, {"species": [{"element": "Tb", "occu": 1}], "abc": [0.13415752, 0.7966997100000001, 0.06633862], "properties": {"magmom": 0.05}, "label": "Tb", "xyz": [-5.037504717501512, 3.4740470149812532, -5.41753647773011]}, {"species": [{"element": "Tb", "occu": 1}], "abc": [0.86584248, 0.9321811, 0.66254318], "properties": {"magmom": 0.05}, "label": "Tb", "xyz": [-6.616384893820276, -3.4740527836594657, -5.417543836081489]}, {"species": [{"element": "Tb", "occu": 1}], "abc": [0.13415752, 0.56633862, 0.29669971], "properties": {"magmom": 0.05}, "label": "Tb", "xyz": [-2.3529006750187476, 0.7894429724984893, -5.41753647773011]}, {"species": [{"element": "Tb", "occu": 1}], "abc": [0.86584248, 0.16254318, 0.4321811], "properties": {"magmom": 0.05}, "label": "Tb", "xyz": [-3.4740527836594666, -6.616384893820275, 2.0151343239185113]}, {"species": [{"element": "Tb", "occu": 1}], "abc": [0.26963791, 0.06633862, 0.9321811], "properties": {"magmom": 0.05}, "label": "Tb", "xyz": [3.474052841928944, -6.616384835550799, -5.41754391040827]}, {"species": [{"element": "Tb", "occu": 1}], "abc": [0.73036209, 0.66254318, 0.7966997100000001], "properties": {"magmom": 0.05}, "label": "Tb", "xyz": [-3.4740586106071563, -5.037504775770988, -5.417536403403329]}, {"species": [{"element": "Ga", "occu": 1}], "abc": [0.0, 0.75, 0.75], "properties": {"magmom": -0.006}, "label": "Ga", "xyz": [0.0, 0.0, -11.14901724]}, {"species": [{"element": "Ga", "occu": 1}], "abc": [0.0, 0.25, 0.25], "properties": {"magmom": -0.006}, "label": "Ga", "xyz": [0.0, 0.0, -3.71633908]}, {"species": [{"element": "Ga", "occu": 1}], "abc": [0.0, 0.5, 0.5], "properties": {"magmom": -0.051000000000000004}, "label": "Ga", "xyz": [0.0, 0.0, -7.43267816]}, {"species": [{"element": "Ga", "occu": 1}], "abc": [0.0, 0.0, 0.0], "properties": {"magmom": -0.051000000000000004}, "label": "Ga", "xyz": [0.0, 0.0, 0.0]}, {"species": [{"element": "Ga", "occu": 1}], "abc": [0.26621849000000003, 0.8831092500000001, 0.38310925], "properties": {"magmom": -0.002}, "label": "Ga", "xyz": [-4.464715060340788, 1.3622326296592124, -7.432678234326782]}, {"species": [{"element": "Ga", "occu": 1}], "abc": [0.73378151, 0.11689075, 0.61689075], "properties": {"magmom": -0.002}, "label": "Ga", "xyz": [-1.3622326296592115, -7.1891803196592114, 7.432678117424985e-08]}, {"species": [{"element": "Ga", "occu": 1}], "abc": [0.5, 0.61689075, 0.8831092500000001], "properties": {"magmom": -0.002}, "label": "Ga", "xyz": [-1.3622325713897343, -4.464715118610265, -7.432678160000001]}, {"species": [{"element": "Ga", "occu": 1}], "abc": [0.5, 0.38310925, 0.11689075], "properties": {"magmom": -0.002}, "label": "Ga", "xyz": [-4.464715118610266, -1.3622325713897352, -2.220446049250313e-16]}, {"species": [{"element": "Ga", "occu": 1}], "abc": [0.14319267, 0.12037532000000001, 0.62037432], "properties": {"magmom": -0.005}, "label": "Ga", "xyz": [2.079091820370878, -3.747844215733742, -4.441448640274776]}, {"species": [{"element": "Ga", "occu": 1}], "abc": [0.85680733, 0.47718165, 0.97718165], "properties": {"magmom": -0.005}, "label": "Ga", "xyz": [-2.0790976473185667, -7.9060453373185675, -4.441441207596616]}, {"species": [{"element": "Ga", "occu": 1}], "abc": [0.5, 0.97718165, 0.12037532000000001], "properties": {"magmom": -0.005}, "label": "Ga", "xyz": [-7.906039510370878, 2.079091820370878, -4.441448640274776]}, {"species": [{"element": "Ga", "occu": 1}], "abc": [0.5, 0.62037432, 0.47718165], "properties": {"magmom": -0.005}, "label": "Ga", "xyz": [-3.7478500426814323, -2.0790976473185676, -4.441441207596616]}, {"species": [{"element": "Ga", "occu": 1}], "abc": [0.85680733, 0.87962568, 0.37962568], "properties": {"magmom": -0.005}, "label": "Ga", "xyz": [-7.906045337318566, -2.0790976473185676, -2.991236952403385]}, {"species": [{"element": "Ga", "occu": 1}], "abc": [0.14319267, 0.52281835, 0.02281835], "properties": {"magmom": -0.005}, "label": "Ga", "xyz": [-3.7478500426814323, 2.0790976473185676, -2.991236952403385]}, {"species": [{"element": "Ga", "occu": 1}], "abc": [0.5, 0.02281835, 0.87962568], "properties": {"magmom": -0.005}, "label": "Ga", "xyz": [2.0790976473185676, -7.9060453373185675, -2.991236952403385]}, {"species": [{"element": "Ga", "occu": 1}], "abc": [0.5, 0.37962568, 0.52281835], "properties": {"magmom": -0.005}, "label": "Ga", "xyz": [-2.0790976473185676, -3.747850042681432, -2.991236952403385]}]}, "task_ids": null, "uncorrected_energy_per_atom": null, "energy_per_atom": -23.9554903145, "formation_energy_per_atom": -0.6425194445000011, "energy_above_hull": 0.0, "is_stable": true, "equilibrium_reaction_energy_per_atom": null, "decomposes_to": null, "xas": null, "grain_boundaries": null, "band_gap": 0.016799999999999, "cbm": null, "vbm": null, "efermi": 3.24827781, "is_gap_direct": null, "is_metal": null, "es_source_calc_id": null, "bandstructure": null, "dos": null, "dos_energy_up": null, "dos_energy_down": null, "is_magnetic": null, "ordering": null, "total_magnetization": 1.8258527, "total_magnetization_normalized_vol": null, "total_magnetization_normalized_formula_units": null, "num_magnetic_sites": null, "num_unique_magnetic_sites": null, "types_of_magnetic_species": null, "bulk_modulus": null, "shear_modulus": null, "universal_anisotropy": null, "homogeneous_poisson": null, "e_total": null, "e_ionic": null, "e_electronic": null, "n": null, "e_ij_max": null, "weighted_surface_energy_EV_PER_ANG2": null, "weighted_surface_energy": null, "weighted_work_function": null, "surface_anisotropy": null, "shape_factor": null, "has_reconstructed": null, "possible_species": null, "has_props": null, "theoretical": null, "database_IDs": null, "fields_not_requested": ["builder_meta", "nsites", "elements", "nelements", "composition", "composition_reduced", "chemsys", "symmetry", "property_name", "deprecated", "deprecation_reasons", "last_updated", "origins", "warnings", "task_ids", "uncorrected_energy_per_atom", "equilibrium_reaction_energy_per_atom", "decomposes_to", "xas", "grain_boundaries", "cbm", "vbm", "is_gap_direct", "is_metal", "es_source_calc_id", "bandstructure", "dos", "dos_energy_up", "dos_energy_down", "is_magnetic", "ordering", "total_magnetization_normalized_vol", "total_magnetization_normalized_formula_units", "num_magnetic_sites", "num_unique_magnetic_sites", "types_of_magnetic_species", "bulk_modulus", "shear_modulus", "universal_anisotropy", "homogeneous_poisson", "e_total", "e_ionic", "e_electronic", "n", "e_ij_max", "weighted_surface_energy_EV_PER_ANG2", "weighted_surface_energy", "weighted_work_function", "surface_anisotropy", "shape_factor", "has_reconstructed", "possible_species", "has_props", "theoretical", "database_IDs"]}