{
  "builder_meta": null,
  "nsites": null,
  "elements": null,
  "nelements": null,
  "composition": null,
  "composition_reduced": null,
  "formula_pretty": "Tb3Ge5",
  "formula_anonymous": "A3B5",
  "chemsys": null,
  "volume": 343.7259070693486,
  "density": 8.115844731784756,
  "density_atomic": 21.482869191834286,
  "symmetry": null,
  "property_name": null,
  "material_id": "mp-2321",
  "deprecated": null,
  "deprecation_reasons": null,
  "last_updated": null,
  "origins": null,
  "warnings": null,
  "structure": {
    "@module": "pymatgen.core.structure",
    "@class": "Structure",
    "charge": 0,
    "lattice": {
      "matrix": [
        [5.46877841, -0.0004145, 1.8229359],
        [2.73391825, 6.8831876, 0.91131216],
        [-0.00492952, -0.00020673, 9.1293761]
      ],
      "pbc": [true, true, true],
      "a": 5.764601700464758,
      "b": 7.462108977188733,
      "c": 9.12937743321832,
      "alpha": 82.99785230788866,
      "beta": 71.59589663724236,
      "gamma": 67.28637542693829,
      "volume": 343.7259070693486
    },
    "properties": {},
    "sites": [
      {
        "species": [{ "element": "Tb", "occu": 1 }],
        "abc": [0.66581181, 0.98227304, 0.66482406],
        "properties": { "magmom": -0.0 },
        "label": "Tb",
        "xyz": [6.32335417868975, 6.760756190669135, 8.178318500954113]
      },
      {
        "species": [{ "element": "Tb", "occu": 1 }],
        "abc": [0.35178452, 0.98228669, 0.33523876],
        "properties": { "magmom": 0.0 },
        "label": "Tb",
        "xyz": [4.60767053029911, 6.76104844566065, 4.596971159113055]
      },
      {
        "species": [{ "element": "Tb", "occu": 1 }],
        "abc": [0.93702328, 0.48228669, 0.16476124],
        "properties": { "magmom": 0.0 },
        "label": "Tb",
        "xyz": [6.442092873026672, 3.319247307012339, 3.6518144281132665]
      },
      {
        "species": [{ "element": "Tb", "occu": 1 }],
        "abc": [0.58063587, 0.48227304, 0.8351759400000001],
        "properties": { "magmom": -0.0 },
        "label": "Tb",
        "xyz": [4.489746958966798, 3.319162479252113, 9.122598523973934]
      },
      {
        "species": [{ "element": "Tb", "occu": 1 }],
        "abc": [0.25182171000000003, 0.49621878, 0.5000572],
        "properties": { "magmom": -0.0 },
        "label": "Tb",
        "xyz": [2.731313667483472, 3.4153591964593777, 5.476475294105674]
      },
      {
        "species": [{ "element": "Tb", "occu": 1 }],
        "abc": [0.00187892, 0.99621878, -5.72e-5],
        "properties": { "magmom": -0.0 },
        "label": "Tb",
        "xyz": [2.733856382733396, 6.857159986395744, 0.9107692386426727]
      },
      {
        "species": [{ "element": "Ge", "occu": 1 }],
        "abc": [0.25509338, 0.82312157, 0.67445434],
        "properties": { "magmom": -0.0 },
        "label": "Ge",
        "xyz": [3.642071515111461, 5.665455017764813, 7.372486908290908]
      },
      {
        "species": [{ "element": "Ge", "occu": 1 }],
        "abc": [0.9217703700000001, 0.82335852, 0.32564834],
        "properties": { "magmom": 0.0 },
        "label": "Ge",
        "xyz": [7.290347492549706, 5.666881760118659, 5.40363110254556]
      },
      {
        "species": [{ "element": "Ge", "occu": 1 }],
        "abc": [0.49741772, 0.32335852, 0.17435166],
        "properties": { "magmom": 0.0 },
        "label": "Ge",
        "xyz": [3.603443577013412, 2.22549513185474, 2.793163048199077]
      },
      {
        "species": [{ "element": "Ge", "occu": 1 }],
        "abc": [0.17954872, 0.32312157, 0.8255456600000001],
        "properties": { "magmom": -0.0 },
        "label": "Ge",
        "xyz": [1.8612305768289044, 2.2238612959178004, 8.158487241249066]
      },
      {
        "species": [{ "element": "Ge", "occu": 1 }],
        "abc": [0.03734993, 0.18389125, 0.6335796],
        "properties": { "magmom": 0.0 },
        "label": "Ge",
        "xyz": [0.7038788918795319, 1.265611510291807, 6.019855318189647]
      },
      {
        "species": [{ "element": "Ge", "occu": 1 }],
        "abc": [0.77851801, 0.18421312, 0.36673214],
        "properties": { "magmom": 0.0 },
        "label": "Ge",
        "xyz": [4.7593582821228315, 1.2675749530908649, 4.935099719530951]
      },
      {
        "species": [{ "element": "Ge", "occu": 1 }],
        "abc": [0.44682488000000004, 0.10603603, 0.00011332],
        "properties": { "magmom": 0.0 },
        "label": "Ge",
        "xyz": [2.733479535756182, 0.7296806545098244, 0.9121995792019689]
      },
      {
        "species": [{ "element": "Ge", "occu": 1 }],
        "abc": [0.6969382, 0.6060360300000001, 0.49988668],
        "properties": { "magmom": 0.0 },
        "label": "Ge",
        "xyz": [5.465789342452016, 4.171067464391972, 6.3864151774988525]
      },
      {
        "species": [{ "element": "Ge", "occu": 1 }],
        "abc": [0.92092853, 0.6838912500000001, 0.8664204],
        "properties": { "magmom": 0.0 },
        "label": "Ge",
        "xyz": [6.901785794717141, 4.706790931783524, 10.211909783226268]
      },
      {
        "species": [{ "element": "Ge", "occu": 1 }],
        "abc": [0.39525015, 0.68421312, 0.13326786000000002],
        "properties": { "magmom": 0.0 },
        "label": "Ge",
        "xyz": [4.031461275945475, 4.709375881689439, 2.5606998401850705]
      }
    ]
  },
  "task_ids": null,
  "uncorrected_energy_per_atom": null,
  "energy_per_atom": -21.176793594375,
  "formation_energy_per_atom": -0.7968948006250011,
  "energy_above_hull": 0.0,
  "is_stable": true,
  "equilibrium_reaction_energy_per_atom": null,
  "decomposes_to": null,
  "xas": null,
  "grain_boundaries": null,
  "band_gap": 0.0,
  "cbm": null,
  "vbm": null,
  "efermi": 5.41531637,
  "is_gap_direct": null,
  "is_metal": null,
  "es_source_calc_id": null,
  "bandstructure": null,
  "dos": null,
  "dos_energy_up": null,
  "dos_energy_down": null,
  "is_magnetic": null,
  "ordering": null,
  "total_magnetization": 1e-7,
  "total_magnetization_normalized_vol": null,
  "total_magnetization_normalized_formula_units": null,
  "num_magnetic_sites": null,
  "num_unique_magnetic_sites": null,
  "types_of_magnetic_species": null,
  "bulk_modulus": null,
  "shear_modulus": null,
  "universal_anisotropy": null,
  "homogeneous_poisson": null,
  "e_total": null,
  "e_ionic": null,
  "e_electronic": null,
  "n": null,
  "e_ij_max": null,
  "weighted_surface_energy_EV_PER_ANG2": null,
  "weighted_surface_energy": null,
  "weighted_work_function": null,
  "surface_anisotropy": null,
  "shape_factor": null,
  "has_reconstructed": null,
  "possible_species": null,
  "has_props": null,
  "theoretical": null,
  "database_IDs": null,
  "fields_not_requested": [
    "builder_meta",
    "nsites",
    "elements",
    "nelements",
    "composition",
    "composition_reduced",
    "chemsys",
    "symmetry",
    "property_name",
    "deprecated",
    "deprecation_reasons",
    "last_updated",
    "origins",
    "warnings",
    "task_ids",
    "uncorrected_energy_per_atom",
    "equilibrium_reaction_energy_per_atom",
    "decomposes_to",
    "xas",
    "grain_boundaries",
    "cbm",
    "vbm",
    "is_gap_direct",
    "is_metal",
    "es_source_calc_id",
    "bandstructure",
    "dos",
    "dos_energy_up",
    "dos_energy_down",
    "is_magnetic",
    "ordering",
    "total_magnetization_normalized_vol",
    "total_magnetization_normalized_formula_units",
    "num_magnetic_sites",
    "num_unique_magnetic_sites",
    "types_of_magnetic_species",
    "bulk_modulus",
    "shear_modulus",
    "universal_anisotropy",
    "homogeneous_poisson",
    "e_total",
    "e_ionic",
    "e_electronic",
    "n",
    "e_ij_max",
    "weighted_surface_energy_EV_PER_ANG2",
    "weighted_surface_energy",
    "weighted_work_function",
    "surface_anisotropy",
    "shape_factor",
    "has_reconstructed",
    "possible_species",
    "has_props",
    "theoretical",
    "database_IDs"
  ]
}
