{"builder_meta": null, "nsites": null, "elements": null, "nelements": null, "composition": null, "composition_reduced": null, "formula_pretty": "Tb3Ge4", "formula_anonymous": "A3B4", "chemsys": null, "volume": 310.98871503209995, "density": 8.194454825179172, "density_atomic": 22.213479645149995, "symmetry": null, "property_name": null, "material_id": "mp-1208462", "deprecated": null, "deprecation_reasons": null, "last_updated": null, "origins": null, "warnings": null, "structure": {"@module": "pymatgen.core.structure", "@class": "Structure", "charge": 0, "lattice": {"matrix": [[4.08257942, -0.00014476, -1.04e-06], [-2.04149102, 5.34428469, 3.4320000000000003e-05], [-4.63e-06, 9.212e-05, 14.2536564]], "pbc": [true, true, true], "a": 4.082579422566581, "b": 5.7209321297920415, "c": 14.253656400298434, "alpha": 89.99930372203622, "beta": 90.00003322003596, "gamma": 110.90864774634353, "volume": 310.98871503209995}, "properties": {}, "sites": [{"species": [{"element": "Tb", "occu": 1}], "abc": [0.33010766, 0.66004982, 0.096592199999999], "properties": {"magmom": -0.0}, "label": "Tb", "xyz": [0.0002045115958550744, 3.5274552593518584, 1.3768143393179217]}, {"species": [{"element": "Tb", "occu": 1}], "abc": [0.66990337, 0.33997614, 0.90332435], "properties": {"magmom": -0.0}, "label": "Tb", "xyz": [2.040871292534642, 1.8169155189945776, 12.87568587393496]}, {"species": [{"element": "Tb", "occu": 1}], "abc": [0.66990601, 0.33997867, 0.59667151], "properties": {"magmom": -0.0}, "label": "Tb", "xyz": [2.04087832537468, 1.8169007907930559, 8.504761658574868]}, {"species": [{"element": "Tb", "occu": 1}], "abc": [0.33010565000000003, 0.66004606, 0.403411099999999], "properties": {"magmom": 0.0}, "label": "Tb", "xyz": [0.00020256104594890804, 3.5274634292894596, 5.75010551681693]}, {"species": [{"element": "Tb", "occu": 1}], "abc": [0.04388189, 0.08834949, 0.25000915], "properties": {"magmom": 0.0}, "label": "Tb", "xyz": [-0.0012145469742404886, 0.4721815052768098, 3.5635475074733916]}, {"species": [{"element": "Tb", "occu": 1}], "abc": [0.95617635, 0.91176431, 0.74999068], "properties": {"magmom": -0.0}, "label": "Tb", "xyz": [2.0423037647223725, 4.87265871587443, 10.690139753250067]}, {"species": [{"element": "Ge", "occu": 1}], "abc": [0.61938211, 0.23884912, 0.10906333], "properties": {"magmom": 0.0}, "label": "Ge", "xyz": [2.0410678168240555, 1.276398080395689, 1.554558784804216]}, {"species": [{"element": "Ge", "occu": 1}], "abc": [0.38063927000000003, 0.76119716, 0.89099975], "properties": {"magmom": 0.0}, "label": "Ge", "xyz": [8.758227477731194e-06, 4.068081305815726, 12.70003001740759]}, {"species": [{"element": "Ge", "occu": 1}], "abc": [0.3806391, 0.76119504, 0.60898772], "properties": {"magmom": 0.0}, "label": "Ge", "xyz": [1.3697865637575043e-05, 4.068043997008588, 8.680327441048517]}, {"species": [{"element": "Ge", "occu": 1}], "abc": [0.61938245, 0.23884959, 0.39094858], "properties": {"magmom": 0.0}, "label": "Ge", "xyz": [2.041066940271572, 1.2764265594295048, 5.572454282548093]}, {"species": [{"element": "Ge", "occu": 1}], "abc": [0.7714390600000001, 0.54249912, 0.25000725], "properties": {"magmom": -0.0}, "label": "Ge", "xyz": [2.0419529907686753, 2.8991810985040174, 3.5635352552820763]}, {"species": [{"element": "Ge", "occu": 1}], "abc": [0.22859227000000001, 0.457555899999999, 0.7499922800000001], "properties": {"magmom": 0.0}, "label": "Ge", "xyz": [-0.0008536363891889343, 2.445344989460994, 10.69014772735512]}, {"species": [{"element": "Ge", "occu": 1}], "abc": [0.99992287, 0.99984646, 0.9999592900000001], "properties": {"magmom": -0.0}, "label": "Ge", "xyz": [2.0410823313690334, 5.3434114959438315, 14.253109408458679]}, {"species": [{"element": "Ge", "occu": 1}], "abc": [0.99992294, 0.99984412, 0.50004082], "properties": {"magmom": 0.0}, "label": "Ge", "xyz": [2.0410897088610955, 5.343352937818067, 7.12744330898459]}]}, "task_ids": null, "uncorrected_energy_per_atom": null, "energy_per_atom": -22.191465562857143, "formation_energy_per_atom": -0.8818637385714311, "energy_above_hull": 0.0, "is_stable": true, "equilibrium_reaction_energy_per_atom": null, "decomposes_to": null, "xas": null, "grain_boundaries": null, "band_gap": 0.0, "cbm": null, "vbm": null, "efermi": 3.79006497, "is_gap_direct": null, "is_metal": null, "es_source_calc_id": null, "bandstructure": null, "dos": null, "dos_energy_up": null, "dos_energy_down": null, "is_magnetic": null, "ordering": null, "total_magnetization": 0.0, "total_magnetization_normalized_vol": null, "total_magnetization_normalized_formula_units": null, "num_magnetic_sites": null, "num_unique_magnetic_sites": null, "types_of_magnetic_species": null, "bulk_modulus": null, "shear_modulus": null, "universal_anisotropy": null, "homogeneous_poisson": null, "e_total": null, "e_ionic": null, "e_electronic": null, "n": null, "e_ij_max": null, "weighted_surface_energy_EV_PER_ANG2": null, "weighted_surface_energy": null, "weighted_work_function": null, "surface_anisotropy": null, "shape_factor": null, "has_reconstructed": null, "possible_species": null, "has_props": null, "theoretical": null, "database_IDs": null, "fields_not_requested": ["builder_meta", "nsites", "elements", "nelements", "composition", "composition_reduced", "chemsys", "symmetry", "property_name", "deprecated", "deprecation_reasons", "last_updated", "origins", "warnings", "task_ids", "uncorrected_energy_per_atom", "equilibrium_reaction_energy_per_atom", "decomposes_to", "xas", "grain_boundaries", "cbm", "vbm", "is_gap_direct", "is_metal", "es_source_calc_id", "bandstructure", "dos", "dos_energy_up", "dos_energy_down", "is_magnetic", "ordering", "total_magnetization_normalized_vol", "total_magnetization_normalized_formula_units", "num_magnetic_sites", "num_unique_magnetic_sites", "types_of_magnetic_species", "bulk_modulus", "shear_modulus", "universal_anisotropy", "homogeneous_poisson", "e_total", "e_ionic", "e_electronic", "n", "e_ij_max", "weighted_surface_energy_EV_PER_ANG2", "weighted_surface_energy", "weighted_work_function", "surface_anisotropy", "shape_factor", "has_reconstructed", "possible_species", "has_props", "theoretical", "database_IDs"]}