{"builder_meta": null, "nsites": null, "elements": null, "nelements": null, "composition": null, "composition_reduced": null, "formula_pretty": "Tb3Ga5", "formula_anonymous": "A3B5", "chemsys": null, "volume": 675.173535948095, "density": 8.119951454094672, "density_atomic": 21.09917299837797, "symmetry": null, "property_name": null, "material_id": "mp-1197290", "deprecated": null, "deprecation_reasons": null, "last_updated": null, "origins": null, "warnings": null, "structure": {"@module": "pymatgen.core.structure", "@class": "Structure", "charge": 0, "lattice": {"matrix": [[-2.158999999999999e-05, -0.0, -6.1152833], [-3.079999999999999e-06, -9.64233408, -0.0], [-11.45029447, -3.079999999999999e-06, -3.8040000000000015e-05]], "pbc": [true, true, true], "a": 6.1152833000381115, "b": 9.642334080000492, "c": 11.450294470063602, "alpha": 89.99996628639272, "beta": 89.99960737012587, "gamma": 89.99999999993538, "volume": 675.173535948095}, "properties": {}, "sites": [{"species": [{"element": "Tb", "occu": 1}], "abc": [0.65113656, 0.750000999999999, 0.42269736], "properties": {"magmom": 0.0}, "label": "Tb", "xyz": [-4.84002561173301, -7.2317615042419385, -3.981900610795022]}, {"species": [{"element": "Tb", "occu": 1}], "abc": [0.84889504, 0.750000999999999, 0.92269833], "properties": {"magmom": 0.0}, "label": "Tb", "xyz": [-10.56518822312423, -7.231763044244926, -5.191268761009305]}, {"species": [{"element": "Tb", "occu": 1}], "abc": [0.34884214, 0.249999, 0.577296199999999], "properties": {"magmom": 0.0}, "label": "Tb", "xyz": [-6.610219787910725, -2.410575655738216, -2.1332904734257103]}, {"species": [{"element": "Tb", "occu": 1}], "abc": [0.15111758, 0.249999, 0.07729113], "properties": {"magmom": -0.0}, "label": "Tb", "xyz": [-0.8850102310445233, -2.4105741157226004, -0.9241297534649993]}, {"species": [{"element": "Tb", "occu": 1}], "abc": [0.6115233800000001, 0.98994457, 0.14873699], "properties": {"magmom": -0.0}, "label": "Tb", "xyz": [-1.7030985859004952, -9.545376722731874, -3.739644371228654]}, {"species": [{"element": "Tb", "occu": 1}], "abc": [0.88848485, 0.51007059, 0.64874511], "properties": {"magmom": -0.0}, "label": "Tb", "xyz": [-7.42834329887787, -4.9182730312976455, -5.433361243771989]}, {"species": [{"element": "Tb", "occu": 1}], "abc": [0.38848317, 0.49004605, 0.85125848], "properties": {"magmom": -0.0}, "label": "Tb", "xyz": [-9.74717016277808, -4.725190350560502, -2.3757170237046403]}, {"species": [{"element": "Tb", "occu": 1}], "abc": [0.11150437, 0.009967199999999002, 0.35125371], "properties": {"magmom": 0.0}, "label": "Tb", "xyz": [-4.021960851258307, -0.09610815410359318, -0.6818941734291494]}, {"species": [{"element": "Tb", "occu": 1}], "abc": [0.38848317, 0.00995295, 0.85125748], "properties": {"magmom": -0.0}, "label": "Tb", "xyz": [-9.74715723379686, -0.0959722908545744, -2.3757170236666]}, {"species": [{"element": "Tb", "occu": 1}], "abc": [0.11150437, 0.490031799999999, 0.35125371], "properties": {"magmom": 0.0}, "label": "Tb", "xyz": [-4.021962329857276, -4.725051407285162, -0.6818941734291494]}, {"species": [{"element": "Tb", "occu": 1}], "abc": [0.6115233800000001, 0.51005543, 0.14873699], "properties": {"magmom": -0.0}, "label": "Tb", "xyz": [-1.703097107841944, -4.918125313487984, -3.739644371228654]}, {"species": [{"element": "Tb", "occu": 1}], "abc": [0.88848485, 0.98992941, 0.64874511], "properties": {"magmom": -0.0}, "label": "Tb", "xyz": [-7.428344776843036, -9.545232084972232, -5.433361243771989]}, {"species": [{"element": "Ga", "occu": 1}], "abc": [0.62823417, 0.445737899999999, 0.41042773], "properties": {"magmom": 0.0}, "label": "Ga", "xyz": [-4.699533303602115, -4.29795500803503, -3.8418455409612102]}, {"species": [{"element": "Ga", "occu": 1}], "abc": [0.87176527, 0.05427348, 0.91039963], "properties": {"magmom": -0.0}, "label": "Ga", "xyz": [-10.424362837453543, -0.5233258298750587, -5.3311262287529155]}, {"species": [{"element": "Ga", "occu": 1}], "abc": [0.37177921, 0.94558769, 0.58956835], "properties": {"magmom": -0.0}, "label": "Ga", "xyz": [-6.750742156815253, -9.117674224785993, -2.273557621380227]}, {"species": [{"element": "Ga", "occu": 1}], "abc": [0.12824003, 0.55442857, 0.08960003], "properties": {"magmom": 0.0}, "label": "Ga", "xyz": [-1.0259512043630774, -5.3459857714047585, -0.7842275222356402]}, {"species": [{"element": "Ga", "occu": 1}], "abc": [0.37178021, 0.55441231, 0.58956835], "properties": {"magmom": -0.0}, "label": "Ga", "xyz": [-6.750740952016672, -5.345830526955043, -2.273563736663527]}, {"species": [{"element": "Ga", "occu": 1}], "abc": [0.12824003, 0.9455704300000001, 0.08960103], "properties": {"magmom": 0.0}, "label": "Ga", "xyz": [-1.0259638593744762, -9.117506258200427, -0.7842275222736802]}, {"species": [{"element": "Ga", "occu": 1}], "abc": [0.62823417, 0.054263099999999, 0.41042673], "properties": {"magmom": 0.0}, "label": "Ga", "xyz": [-4.699520647565261, -0.5232242025307667, -3.8418455409231704]}, {"species": [{"element": "Ga", "occu": 1}], "abc": [0.8717662700000001, 0.44572752, 0.91039963], "properties": {"magmom": -0.0}, "label": "Ga", "xyz": [-10.424364043153577, -4.297856460520742, -5.331132344036216]}, {"species": [{"element": "Ga", "occu": 1}], "abc": [0.32228517, 0.749999, 0.24631476], "properties": {"magmom": 0.0}, "label": "Ga", "xyz": [-2.8203858024411175, -7.23174167631538, -1.9708744877521314]}, {"species": [{"element": "Ga", "occu": 1}], "abc": [0.17770792, 0.749999, 0.74624045], "properties": {"magmom": 0.0}, "label": "Ga", "xyz": [-8.544679044636224, -7.231743216086506, -1.0867626624404538]}, {"species": [{"element": "Ga", "occu": 1}], "abc": [0.67772349, 0.250001, 0.75368077], "properties": {"magmom": 0.0}, "label": "Ga", "xyz": [-8.62988215492957, -2.410595483670851, -4.144499810431207]}, {"species": [{"element": "Ga", "occu": 1}], "abc": [0.82227613, 0.250001, 0.25375543], "properties": {"magmom": 0.0}, "label": "Ga", "xyz": [-2.9055929198061983, -2.4105939439008037, -5.028461138634186]}, {"species": [{"element": "Ga", "occu": 1}], "abc": [0.13086145, 0.749999, 0.49603305000000003], "properties": {"magmom": 0.0}, "label": "Ga", "xyz": [-5.679729624647859, -7.231742445447714, -0.8002737088960069]}, {"species": [{"element": "Ga", "occu": 1}], "abc": [0.36913925000000003, 0.749999, 0.9960344600000001], "properties": {"magmom": 0.0}, "label": "Ga", "xyz": [-11.404898148980765, -7.231743985452057, -2.2574289800503835]}, {"species": [{"element": "Ga", "occu": 1}], "abc": [0.86904727, 0.250001, 0.5039674], "properties": {"magmom": -0.0}, "label": "Ga", "xyz": [-5.770594666013917, -2.4105947145536715, -5.314489428061487]}, {"species": [{"element": "Ga", "occu": 1}], "abc": [0.63093661, 0.250001, 0.00395255], "properties": {"magmom": -0.0}, "label": "Ga", "xyz": [-0.0452722533318884, -2.4105931745079334, -3.8583562648466145]}, {"species": [{"element": "Ga", "occu": 1}], "abc": [0.90599998, 0.749999, 0.19675454], "properties": {"magmom": 0.0}, "label": "Ga", "xyz": [-2.2529192918458816, -7.2317415236699025, -5.540454032037035]}, {"species": [{"element": "Ga", "occu": 1}], "abc": [0.59402044, 0.749999, 0.6966929], "properties": {"magmom": -0.0}, "label": "Ga", "xyz": [-7.977353995056482, -7.231743063480051, -3.6326297787885675]}, {"species": [{"element": "Ga", "occu": 1}], "abc": [0.09395879, 0.250001, 0.80326754], "properties": {"magmom": 0.0}, "label": "Ga", "xyz": [-9.197652669765858, -2.4105956363981025, -0.5746151756724286]}, {"species": [{"element": "Ga", "occu": 1}], "abc": [0.40602125, 0.250001, 0.30333906], "properties": {"magmom": 0.0}, "label": "Ga", "xyz": [-3.4733310972548654, -2.410594096618384, -2.4829465085879674]}]}, "task_ids": null, "uncorrected_energy_per_atom": null, "energy_per_atom": -19.61139846, "formation_energy_per_atom": -0.7497506850000021, "energy_above_hull": 0.026487536875002, "is_stable": false, "equilibrium_reaction_energy_per_atom": null, "decomposes_to": null, "xas": null, "grain_boundaries": null, "band_gap": 0.0, "cbm": null, "vbm": null, "efermi": 3.61578441, "is_gap_direct": null, "is_metal": null, "es_source_calc_id": null, "bandstructure": null, "dos": null, "dos_energy_up": null, "dos_energy_down": null, "is_magnetic": null, "ordering": null, "total_magnetization": 6e-07, "total_magnetization_normalized_vol": null, "total_magnetization_normalized_formula_units": null, "num_magnetic_sites": null, "num_unique_magnetic_sites": null, "types_of_magnetic_species": null, "bulk_modulus": null, "shear_modulus": null, "universal_anisotropy": null, "homogeneous_poisson": null, "e_total": null, "e_ionic": null, "e_electronic": null, "n": null, "e_ij_max": null, "weighted_surface_energy_EV_PER_ANG2": null, "weighted_surface_energy": null, "weighted_work_function": null, "surface_anisotropy": null, "shape_factor": null, "has_reconstructed": null, "possible_species": null, "has_props": null, "theoretical": null, "database_IDs": null, "fields_not_requested": ["builder_meta", "nsites", "elements", "nelements", "composition", "composition_reduced", "chemsys", "symmetry", "property_name", "deprecated", "deprecation_reasons", "last_updated", "origins", "warnings", "task_ids", "uncorrected_energy_per_atom", "equilibrium_reaction_energy_per_atom", "decomposes_to", "xas", "grain_boundaries", "cbm", "vbm", "is_gap_direct", "is_metal", "es_source_calc_id", "bandstructure", "dos", "dos_energy_up", "dos_energy_down", "is_magnetic", "ordering", "total_magnetization_normalized_vol", "total_magnetization_normalized_formula_units", "num_magnetic_sites", "num_unique_magnetic_sites", "types_of_magnetic_species", "bulk_modulus", "shear_modulus", "universal_anisotropy", "homogeneous_poisson", "e_total", "e_ionic", "e_electronic", "n", "e_ij_max", "weighted_surface_energy_EV_PER_ANG2", "weighted_surface_energy", "weighted_work_function", "surface_anisotropy", "shape_factor", "has_reconstructed", "possible_species", "has_props", "theoretical", "database_IDs"]}