{
  "builder_meta": null,
  "nsites": null,
  "elements": null,
  "nelements": null,
  "composition": null,
  "composition_reduced": null,
  "formula_pretty": "Tb3In",
  "formula_anonymous": "AB3",
  "chemsys": null,
  "volume": 229.9066609628217,
  "density": 8.545772684263135,
  "density_atomic": 28.73833262035271,
  "symmetry": null,
  "property_name": null,
  "material_id": "mp-1187299",
  "deprecated": null,
  "deprecation_reasons": null,
  "last_updated": null,
  "origins": null,
  "warnings": null,
  "structure": {
    "@module": "pymatgen.core.structure",
    "@class": "Structure",
    "charge": 0,
    "lattice": {
      "matrix": [
        [3.43051286, -5.94181927, -0.0],
        [3.4305118500000003, 5.94181926, 0.0],
        [-0.0, -0.0, 5.63953288]
      ],
      "pbc": [true, true, true],
      "a": 6.861022862516107,
      "b": 6.861022348855699,
      "c": 5.63953288,
      "alpha": 90.0,
      "beta": 90.0,
      "gamma": 119.99997970851953,
      "volume": 229.90666096282172
    },
    "properties": {},
    "sites": [
      {
        "species": [{ "element": "Tb", "occu": 1 }],
        "abc": [0.8281745500000001, 0.17182545, 0.75],
        "properties": { "magmom": 0.385 },
        "label": "Tb",
        "xyz": [3.4305126864562956, -3.8999077319454116, 4.22964966]
      },
      {
        "species": [{ "element": "Tb", "occu": 1 }],
        "abc": [0.34365189, 0.17182545, 0.75],
        "properties": { "magmom": 0.385 },
        "label": "Tb",
        "xyz": [1.768351470364888, -1.0209616540057536, 4.22964966]
      },
      {
        "species": [{ "element": "Tb", "occu": 1 }],
        "abc": [0.8281745500000001, 0.65634811, 0.75],
        "properties": { "magmom": 0.385 },
        "label": "Tb",
        "xyz": [5.092673413179817, -1.0209616588509798, 4.22964966]
      },
      {
        "species": [{ "element": "Tb", "occu": 1 }],
        "abc": [0.17182545, 0.8281745500000001, 0.25],
        "properties": { "magmom": 0.385 },
        "label": "Tb",
        "xyz": [3.430512023543705, 3.8999077219454126, 1.40988322]
      },
      {
        "species": [{ "element": "Tb", "occu": 1 }],
        "abc": [0.65634811, 0.8281745500000001, 0.25],
        "properties": { "magmom": 0.385 },
        "label": "Tb",
        "xyz": [5.092673239635113, 1.0209616440057538, 1.40988322]
      },
      {
        "species": [{ "element": "Tb", "occu": 1 }],
        "abc": [0.17182545, 0.34365189, 0.25],
        "properties": { "magmom": 0.385 },
        "label": "Tb",
        "xyz": [1.7683512968201835, 1.02096164885098, 1.40988322]
      },
      {
        "species": [{ "element": "In", "occu": 1 }],
        "abc": [0.666667, 0.333333, 0.25],
        "properties": { "magmom": -0.06 },
        "label": "In",
        "xyz": [3.43051252333367, -1.98061038787951, 1.40988322]
      },
      {
        "species": [{ "element": "In", "occu": 1 }],
        "abc": [0.333333, 0.666667, 0.75],
        "properties": { "magmom": -0.06 },
        "label": "In",
        "xyz": [3.4305121866663297, 1.9806103778795103, 4.22964966]
      }
    ]
  },
  "task_ids": null,
  "uncorrected_energy_per_atom": null,
  "energy_per_atom": -29.42359662,
  "formation_energy_per_atom": -0.3591234125,
  "energy_above_hull": 0.0076410749999980005,
  "is_stable": false,
  "equilibrium_reaction_energy_per_atom": null,
  "decomposes_to": null,
  "xas": null,
  "grain_boundaries": null,
  "band_gap": 0.0,
  "cbm": null,
  "vbm": null,
  "efermi": 4.49944297,
  "is_gap_direct": null,
  "is_metal": null,
  "es_source_calc_id": null,
  "bandstructure": null,
  "dos": null,
  "dos_energy_up": null,
  "dos_energy_down": null,
  "is_magnetic": null,
  "ordering": null,
  "total_magnetization": 2.8837599,
  "total_magnetization_normalized_vol": null,
  "total_magnetization_normalized_formula_units": null,
  "num_magnetic_sites": null,
  "num_unique_magnetic_sites": null,
  "types_of_magnetic_species": null,
  "bulk_modulus": null,
  "shear_modulus": null,
  "universal_anisotropy": null,
  "homogeneous_poisson": null,
  "e_total": null,
  "e_ionic": null,
  "e_electronic": null,
  "n": null,
  "e_ij_max": null,
  "weighted_surface_energy_EV_PER_ANG2": null,
  "weighted_surface_energy": null,
  "weighted_work_function": null,
  "surface_anisotropy": null,
  "shape_factor": null,
  "has_reconstructed": null,
  "possible_species": null,
  "has_props": null,
  "theoretical": null,
  "database_IDs": null,
  "fields_not_requested": [
    "builder_meta",
    "nsites",
    "elements",
    "nelements",
    "composition",
    "composition_reduced",
    "chemsys",
    "symmetry",
    "property_name",
    "deprecated",
    "deprecation_reasons",
    "last_updated",
    "origins",
    "warnings",
    "task_ids",
    "uncorrected_energy_per_atom",
    "equilibrium_reaction_energy_per_atom",
    "decomposes_to",
    "xas",
    "grain_boundaries",
    "cbm",
    "vbm",
    "is_gap_direct",
    "is_metal",
    "es_source_calc_id",
    "bandstructure",
    "dos",
    "dos_energy_up",
    "dos_energy_down",
    "is_magnetic",
    "ordering",
    "total_magnetization_normalized_vol",
    "total_magnetization_normalized_formula_units",
    "num_magnetic_sites",
    "num_unique_magnetic_sites",
    "types_of_magnetic_species",
    "bulk_modulus",
    "shear_modulus",
    "universal_anisotropy",
    "homogeneous_poisson",
    "e_total",
    "e_ionic",
    "e_electronic",
    "n",
    "e_ij_max",
    "weighted_surface_energy_EV_PER_ANG2",
    "weighted_surface_energy",
    "weighted_work_function",
    "surface_anisotropy",
    "shape_factor",
    "has_reconstructed",
    "possible_species",
    "has_props",
    "theoretical",
    "database_IDs"
  ]
}
